;
;   File g6dpncore_petim_betagalactose.itp  was generated
;   By user: sairam (1000)
;   On host: sairam
;   At date: Tue. January  2 22:47:10 2025
;
;   This is a standalone topology file
;
;   Created by:
;   ParmEd:       amb2gro_top_gro.py, VERSION 3.4.1
;   Executable:   amb2gro_top_gro.py
;   Library dir:  /usr/local/gromacs/share/gromacs/top
;   Command line:
;     ./amb2gro_top_gro.py -p g6dpncore_petim_betagalactose.prmtop -c g6dpncore_petim_betagalactose.inpcrd -t g6dpncore_petim_betagalactose.itp -g g6dpncore_petim_betagalactose.gro -b g6dpncore_petim_betagalactose.pdb
;

;[ defaults ]
;; nbfunc        comb-rule       gen-pairs       fudgeLJ fudgeQQ
;1               2               yes             0.5          0.83333333  
;
;[ atomtypes ]
;; name    at.num    mass    charge ptype  sigma      epsilon
;n4             7  14.010000  0.00000000  A     0.32499985        0.71128
;c3             6  12.010000  0.00000000  A     0.33996695      0.4577296
;hx             1   1.008000  0.00000000  A     0.19599772      0.0656888
;hc             1   1.008000  0.00000000  A     0.26495328      0.0656888
;h1             1   1.008000  0.00000000  A      0.2471353      0.0656888
;hn             1   1.008000  0.00000000  A     0.10690785      0.0656888
;os             8  16.000000  0.00000000  A     0.30000123        0.71128
;h2             1   1.008000  0.00000000  A     0.22931733      0.0656888
;oh             8  16.000000  0.00000000  A     0.30664734      0.8803136
;ho             1   1.008000  0.00000000  A              0              0


[ moleculetype ]
; Name            nrexcl
g6dpncore_petim_betagalactose          3

[ atoms ]
;   nr       type  resnr residue  atom   cgnr    charge       mass  typeB    chargeB      massB
; residue    1 aaa rtp aaa q 1.0
    1         n4      1    aaa     N1      1 -0.24795800  14.010000   ; qtot -0.247958
    2         c3      1    aaa     C1      2 0.15727100  12.010000   ; qtot -0.090687
    3         hx      1    aaa     H1      3 0.05072400   1.008000   ; qtot -0.039963
    4         hx      1    aaa     H2      4 0.05072400   1.008000   ; qtot 0.010761
    5         c3      1    aaa     C2      5 0.15727100  12.010000   ; qtot 0.168032
    6         hx      1    aaa     H3      6 0.05072400   1.008000   ; qtot 0.218756
    7         hx      1    aaa     H4      7 0.05072400   1.008000   ; qtot 0.269480
    8         c3      1    aaa     C3      8 0.15727100  12.010000   ; qtot 0.426751
    9         hx      1    aaa     H5      9 0.05072400   1.008000   ; qtot 0.477475
   10         hx      1    aaa     H6     10 0.05072400   1.008000   ; qtot 0.528199
   11         c3      1    aaa     C4     11 0.05437700  12.010000   ; qtot 0.582576
   12         hc      1    aaa     H7     12 0.07708700   1.008000   ; qtot 0.659663
   13         hc      1    aaa     H8     13 0.07708700   1.008000   ; qtot 0.736750
   14         c3      1    aaa     C5     14 0.05437700  12.010000   ; qtot 0.791127
   15         hc      1    aaa     H9     15 0.07708700   1.008000   ; qtot 0.868214
   16         hc      1    aaa    H10     16 0.07708700   1.008000   ; qtot 0.945301
   17         c3      1    aaa     C6     17 0.05437700  12.010000   ; qtot 0.999678
   18         hc      1    aaa    H11     18 0.07708700   1.008000   ; qtot 1.076765
   19         hc      1    aaa    H12     19 0.07708700   1.008000   ; qtot 1.153852
   20         c3      1    aaa     C7     20 -0.74569400  12.010000   ; qtot 0.408158
   21         h1      1    aaa    H13     21 0.30837900   1.008000   ; qtot 0.716537
   22         h1      1    aaa    H14     22 0.30837900   1.008000   ; qtot 1.024916
   23         c3      1    aaa     C8     23 -0.74569400  12.010000   ; qtot 0.279222
   24         h1      1    aaa    H15     24 0.30837900   1.008000   ; qtot 0.587601
   25         h1      1    aaa    H16     25 0.30837900   1.008000   ; qtot 0.895980
   26         c3      1    aaa     C9     26 -0.74569400  12.010000   ; qtot 0.150286
   27         h1      1    aaa    H17     27 0.30837900   1.008000   ; qtot 0.458665
   28         h1      1    aaa    H18     28 0.30837900   1.008000   ; qtot 0.767044
   29         hn      1    aaa    H19     29 0.23295100   1.008000   ; qtot 0.999995
; residue    2 bbb rtp bbb q 1.0
   30         n4      2    bbb     N1     30 0.03726400  14.010000   ; qtot 1.037259
   31         c3      2    bbb     C1     31 -0.07020100  12.010000   ; qtot 0.967058
   32         hx      2    bbb     H1     32 0.12219000   1.008000   ; qtot 1.089248
   33         hx      2    bbb     H2     33 0.12219000   1.008000   ; qtot 1.211438
   34         c3      2    bbb     C2     34 -0.07020100  12.010000   ; qtot 1.141237
   35         hx      2    bbb     H3     35 0.12219000   1.008000   ; qtot 1.263427
   36         hx      2    bbb     H4     36 0.12219000   1.008000   ; qtot 1.385617
   37         c3      2    bbb     C3     37 -0.39007700  12.010000   ; qtot 0.995540
   38         hx      2    bbb     H5     38 0.14940300   1.008000   ; qtot 1.144943
   39         hx      2    bbb     H6     39 0.14940300   1.008000   ; qtot 1.294346
   40         c3      2    bbb     C4     40 0.18057300  12.010000   ; qtot 1.474919
   41         hc      2    bbb     H7     41 0.01788900   1.008000   ; qtot 1.492808
   42         hc      2    bbb     H8     42 0.01788900   1.008000   ; qtot 1.510697
   43         c3      2    bbb     C5     43 -0.11337700  12.010000   ; qtot 1.397320
   44         hc      2    bbb     H9     44 0.09515400   1.008000   ; qtot 1.492474
   45         hc      2    bbb    H10     45 0.09515400   1.008000   ; qtot 1.587628
   46         c3      2    bbb     C6     46 -0.11337700  12.010000   ; qtot 1.474251
   47         hc      2    bbb    H11     47 0.09515400   1.008000   ; qtot 1.569405
   48         hc      2    bbb    H12     48 0.09515400   1.008000   ; qtot 1.664559
   49         c3      2    bbb     C7     49 0.21842400  12.010000   ; qtot 1.882983
   50         h1      2    bbb    H13     50 0.04500300   1.008000   ; qtot 1.927986
   51         h1      2    bbb    H14     51 0.04500300   1.008000   ; qtot 1.972989
   52         c3      2    bbb     C8     52 -0.06455200  12.010000   ; qtot 1.908437
   53         h1      2    bbb    H15     53 0.13554100   1.008000   ; qtot 2.043978
   54         h1      2    bbb    H16     54 0.13554100   1.008000   ; qtot 2.179519
   55         c3      2    bbb     C9     55 -0.06455200  12.010000   ; qtot 2.114967
   56         h1      2    bbb    H17     56 0.13554100   1.008000   ; qtot 2.250508
   57         h1      2    bbb    H18     57 0.13554100   1.008000   ; qtot 2.386049
   58         os      2    bbb     O1     58 -0.62587700  16.000000   ; qtot 1.760172
   59         hn      2    bbb    H19     59 0.23982500   1.008000   ; qtot 1.999997
; residue    3 bbb rtp bbb q 1.0
   60         n4      3    bbb     N1     60 0.03726400  14.010000   ; qtot 2.037261
   61         c3      3    bbb     C1     61 -0.07020100  12.010000   ; qtot 1.967060
   62         hx      3    bbb     H1     62 0.12219000   1.008000   ; qtot 2.089250
   63         hx      3    bbb     H2     63 0.12219000   1.008000   ; qtot 2.211440
   64         c3      3    bbb     C2     64 -0.07020100  12.010000   ; qtot 2.141239
   65         hx      3    bbb     H3     65 0.12219000   1.008000   ; qtot 2.263429
   66         hx      3    bbb     H4     66 0.12219000   1.008000   ; qtot 2.385619
   67         c3      3    bbb     C3     67 -0.39007700  12.010000   ; qtot 1.995542
   68         hx      3    bbb     H5     68 0.14940300   1.008000   ; qtot 2.144945
   69         hx      3    bbb     H6     69 0.14940300   1.008000   ; qtot 2.294348
   70         c3      3    bbb     C4     70 0.18057300  12.010000   ; qtot 2.474921
   71         hc      3    bbb     H7     71 0.01788900   1.008000   ; qtot 2.492810
   72         hc      3    bbb     H8     72 0.01788900   1.008000   ; qtot 2.510699
   73         c3      3    bbb     C5     73 -0.11337700  12.010000   ; qtot 2.397322
   74         hc      3    bbb     H9     74 0.09515400   1.008000   ; qtot 2.492476
   75         hc      3    bbb    H10     75 0.09515400   1.008000   ; qtot 2.587630
   76         c3      3    bbb     C6     76 -0.11337700  12.010000   ; qtot 2.474253
   77         hc      3    bbb    H11     77 0.09515400   1.008000   ; qtot 2.569407
   78         hc      3    bbb    H12     78 0.09515400   1.008000   ; qtot 2.664561
   79         c3      3    bbb     C7     79 0.21842400  12.010000   ; qtot 2.882985
   80         h1      3    bbb    H13     80 0.04500300   1.008000   ; qtot 2.927988
   81         h1      3    bbb    H14     81 0.04500300   1.008000   ; qtot 2.972991
   82         c3      3    bbb     C8     82 -0.06455200  12.010000   ; qtot 2.908439
   83         h1      3    bbb    H15     83 0.13554100   1.008000   ; qtot 3.043980
   84         h1      3    bbb    H16     84 0.13554100   1.008000   ; qtot 3.179521
   85         c3      3    bbb     C9     85 -0.06455200  12.010000   ; qtot 3.114969
   86         h1      3    bbb    H17     86 0.13554100   1.008000   ; qtot 3.250510
   87         h1      3    bbb    H18     87 0.13554100   1.008000   ; qtot 3.386051
   88         os      3    bbb     O1     88 -0.62587700  16.000000   ; qtot 2.760174
   89         hn      3    bbb    H19     89 0.23982500   1.008000   ; qtot 2.999999
; residue    4 bbb rtp bbb q 1.0
   90         n4      4    bbb     N1     90 0.03726400  14.010000   ; qtot 3.037263
   91         c3      4    bbb     C1     91 -0.07020100  12.010000   ; qtot 2.967062
   92         hx      4    bbb     H1     92 0.12219000   1.008000   ; qtot 3.089252
   93         hx      4    bbb     H2     93 0.12219000   1.008000   ; qtot 3.211442
   94         c3      4    bbb     C2     94 -0.07020100  12.010000   ; qtot 3.141241
   95         hx      4    bbb     H3     95 0.12219000   1.008000   ; qtot 3.263431
   96         hx      4    bbb     H4     96 0.12219000   1.008000   ; qtot 3.385621
   97         c3      4    bbb     C3     97 -0.39007700  12.010000   ; qtot 2.995544
   98         hx      4    bbb     H5     98 0.14940300   1.008000   ; qtot 3.144947
   99         hx      4    bbb     H6     99 0.14940300   1.008000   ; qtot 3.294350
  100         c3      4    bbb     C4    100 0.18057300  12.010000   ; qtot 3.474923
  101         hc      4    bbb     H7    101 0.01788900   1.008000   ; qtot 3.492812
  102         hc      4    bbb     H8    102 0.01788900   1.008000   ; qtot 3.510701
  103         c3      4    bbb     C5    103 -0.11337700  12.010000   ; qtot 3.397324
  104         hc      4    bbb     H9    104 0.09515400   1.008000   ; qtot 3.492478
  105         hc      4    bbb    H10    105 0.09515400   1.008000   ; qtot 3.587632
  106         c3      4    bbb     C6    106 -0.11337700  12.010000   ; qtot 3.474255
  107         hc      4    bbb    H11    107 0.09515400   1.008000   ; qtot 3.569409
  108         hc      4    bbb    H12    108 0.09515400   1.008000   ; qtot 3.664563
  109         c3      4    bbb     C7    109 0.21842400  12.010000   ; qtot 3.882987
  110         h1      4    bbb    H13    110 0.04500300   1.008000   ; qtot 3.927990
  111         h1      4    bbb    H14    111 0.04500300   1.008000   ; qtot 3.972993
  112         c3      4    bbb     C8    112 -0.06455200  12.010000   ; qtot 3.908441
  113         h1      4    bbb    H15    113 0.13554100   1.008000   ; qtot 4.043982
  114         h1      4    bbb    H16    114 0.13554100   1.008000   ; qtot 4.179523
  115         c3      4    bbb     C9    115 -0.06455200  12.010000   ; qtot 4.114971
  116         h1      4    bbb    H17    116 0.13554100   1.008000   ; qtot 4.250512
  117         h1      4    bbb    H18    117 0.13554100   1.008000   ; qtot 4.386053
  118         os      4    bbb     O1    118 -0.62587700  16.000000   ; qtot 3.760176
  119         hn      4    bbb    H19    119 0.23982500   1.008000   ; qtot 4.000001
; residue    5 bbb rtp bbb q 1.0
  120         n4      5    bbb     N1    120 0.03726400  14.010000   ; qtot 4.037265
  121         c3      5    bbb     C1    121 -0.07020100  12.010000   ; qtot 3.967064
  122         hx      5    bbb     H1    122 0.12219000   1.008000   ; qtot 4.089254
  123         hx      5    bbb     H2    123 0.12219000   1.008000   ; qtot 4.211444
  124         c3      5    bbb     C2    124 -0.07020100  12.010000   ; qtot 4.141243
  125         hx      5    bbb     H3    125 0.12219000   1.008000   ; qtot 4.263433
  126         hx      5    bbb     H4    126 0.12219000   1.008000   ; qtot 4.385623
  127         c3      5    bbb     C3    127 -0.39007700  12.010000   ; qtot 3.995546
  128         hx      5    bbb     H5    128 0.14940300   1.008000   ; qtot 4.144949
  129         hx      5    bbb     H6    129 0.14940300   1.008000   ; qtot 4.294352
  130         c3      5    bbb     C4    130 0.18057300  12.010000   ; qtot 4.474925
  131         hc      5    bbb     H7    131 0.01788900   1.008000   ; qtot 4.492814
  132         hc      5    bbb     H8    132 0.01788900   1.008000   ; qtot 4.510703
  133         c3      5    bbb     C5    133 -0.11337700  12.010000   ; qtot 4.397326
  134         hc      5    bbb     H9    134 0.09515400   1.008000   ; qtot 4.492480
  135         hc      5    bbb    H10    135 0.09515400   1.008000   ; qtot 4.587634
  136         c3      5    bbb     C6    136 -0.11337700  12.010000   ; qtot 4.474257
  137         hc      5    bbb    H11    137 0.09515400   1.008000   ; qtot 4.569411
  138         hc      5    bbb    H12    138 0.09515400   1.008000   ; qtot 4.664565
  139         c3      5    bbb     C7    139 0.21842400  12.010000   ; qtot 4.882989
  140         h1      5    bbb    H13    140 0.04500300   1.008000   ; qtot 4.927992
  141         h1      5    bbb    H14    141 0.04500300   1.008000   ; qtot 4.972995
  142         c3      5    bbb     C8    142 -0.06455200  12.010000   ; qtot 4.908443
  143         h1      5    bbb    H15    143 0.13554100   1.008000   ; qtot 5.043984
  144         h1      5    bbb    H16    144 0.13554100   1.008000   ; qtot 5.179525
  145         c3      5    bbb     C9    145 -0.06455200  12.010000   ; qtot 5.114973
  146         h1      5    bbb    H17    146 0.13554100   1.008000   ; qtot 5.250514
  147         h1      5    bbb    H18    147 0.13554100   1.008000   ; qtot 5.386055
  148         os      5    bbb     O1    148 -0.62587700  16.000000   ; qtot 4.760178
  149         hn      5    bbb    H19    149 0.23982500   1.008000   ; qtot 5.000003
; residue    6 bbb rtp bbb q 1.0
  150         n4      6    bbb     N1    150 0.03726400  14.010000   ; qtot 5.037267
  151         c3      6    bbb     C1    151 -0.07020100  12.010000   ; qtot 4.967066
  152         hx      6    bbb     H1    152 0.12219000   1.008000   ; qtot 5.089256
  153         hx      6    bbb     H2    153 0.12219000   1.008000   ; qtot 5.211446
  154         c3      6    bbb     C2    154 -0.07020100  12.010000   ; qtot 5.141245
  155         hx      6    bbb     H3    155 0.12219000   1.008000   ; qtot 5.263435
  156         hx      6    bbb     H4    156 0.12219000   1.008000   ; qtot 5.385625
  157         c3      6    bbb     C3    157 -0.39007700  12.010000   ; qtot 4.995548
  158         hx      6    bbb     H5    158 0.14940300   1.008000   ; qtot 5.144951
  159         hx      6    bbb     H6    159 0.14940300   1.008000   ; qtot 5.294354
  160         c3      6    bbb     C4    160 0.18057300  12.010000   ; qtot 5.474927
  161         hc      6    bbb     H7    161 0.01788900   1.008000   ; qtot 5.492816
  162         hc      6    bbb     H8    162 0.01788900   1.008000   ; qtot 5.510705
  163         c3      6    bbb     C5    163 -0.11337700  12.010000   ; qtot 5.397328
  164         hc      6    bbb     H9    164 0.09515400   1.008000   ; qtot 5.492482
  165         hc      6    bbb    H10    165 0.09515400   1.008000   ; qtot 5.587636
  166         c3      6    bbb     C6    166 -0.11337700  12.010000   ; qtot 5.474259
  167         hc      6    bbb    H11    167 0.09515400   1.008000   ; qtot 5.569413
  168         hc      6    bbb    H12    168 0.09515400   1.008000   ; qtot 5.664567
  169         c3      6    bbb     C7    169 0.21842400  12.010000   ; qtot 5.882991
  170         h1      6    bbb    H13    170 0.04500300   1.008000   ; qtot 5.927994
  171         h1      6    bbb    H14    171 0.04500300   1.008000   ; qtot 5.972997
  172         c3      6    bbb     C8    172 -0.06455200  12.010000   ; qtot 5.908445
  173         h1      6    bbb    H15    173 0.13554100   1.008000   ; qtot 6.043986
  174         h1      6    bbb    H16    174 0.13554100   1.008000   ; qtot 6.179527
  175         c3      6    bbb     C9    175 -0.06455200  12.010000   ; qtot 6.114975
  176         h1      6    bbb    H17    176 0.13554100   1.008000   ; qtot 6.250516
  177         h1      6    bbb    H18    177 0.13554100   1.008000   ; qtot 6.386057
  178         os      6    bbb     O1    178 -0.62587700  16.000000   ; qtot 5.760180
  179         hn      6    bbb    H19    179 0.23982500   1.008000   ; qtot 6.000005
; residue    7 bbb rtp bbb q 1.0
  180         n4      7    bbb     N1    180 0.03726400  14.010000   ; qtot 6.037269
  181         c3      7    bbb     C1    181 -0.07020100  12.010000   ; qtot 5.967068
  182         hx      7    bbb     H1    182 0.12219000   1.008000   ; qtot 6.089258
  183         hx      7    bbb     H2    183 0.12219000   1.008000   ; qtot 6.211448
  184         c3      7    bbb     C2    184 -0.07020100  12.010000   ; qtot 6.141247
  185         hx      7    bbb     H3    185 0.12219000   1.008000   ; qtot 6.263437
  186         hx      7    bbb     H4    186 0.12219000   1.008000   ; qtot 6.385627
  187         c3      7    bbb     C3    187 -0.39007700  12.010000   ; qtot 5.995550
  188         hx      7    bbb     H5    188 0.14940300   1.008000   ; qtot 6.144953
  189         hx      7    bbb     H6    189 0.14940300   1.008000   ; qtot 6.294356
  190         c3      7    bbb     C4    190 0.18057300  12.010000   ; qtot 6.474929
  191         hc      7    bbb     H7    191 0.01788900   1.008000   ; qtot 6.492818
  192         hc      7    bbb     H8    192 0.01788900   1.008000   ; qtot 6.510707
  193         c3      7    bbb     C5    193 -0.11337700  12.010000   ; qtot 6.397330
  194         hc      7    bbb     H9    194 0.09515400   1.008000   ; qtot 6.492484
  195         hc      7    bbb    H10    195 0.09515400   1.008000   ; qtot 6.587638
  196         c3      7    bbb     C6    196 -0.11337700  12.010000   ; qtot 6.474261
  197         hc      7    bbb    H11    197 0.09515400   1.008000   ; qtot 6.569415
  198         hc      7    bbb    H12    198 0.09515400   1.008000   ; qtot 6.664569
  199         c3      7    bbb     C7    199 0.21842400  12.010000   ; qtot 6.882993
  200         h1      7    bbb    H13    200 0.04500300   1.008000   ; qtot 6.927996
  201         h1      7    bbb    H14    201 0.04500300   1.008000   ; qtot 6.972999
  202         c3      7    bbb     C8    202 -0.06455200  12.010000   ; qtot 6.908447
  203         h1      7    bbb    H15    203 0.13554100   1.008000   ; qtot 7.043988
  204         h1      7    bbb    H16    204 0.13554100   1.008000   ; qtot 7.179529
  205         c3      7    bbb     C9    205 -0.06455200  12.010000   ; qtot 7.114977
  206         h1      7    bbb    H17    206 0.13554100   1.008000   ; qtot 7.250518
  207         h1      7    bbb    H18    207 0.13554100   1.008000   ; qtot 7.386059
  208         os      7    bbb     O1    208 -0.62587700  16.000000   ; qtot 6.760182
  209         hn      7    bbb    H19    209 0.23982500   1.008000   ; qtot 7.000007
; residue    8 bbb rtp bbb q 1.0
  210         n4      8    bbb     N1    210 0.03726400  14.010000   ; qtot 7.037271
  211         c3      8    bbb     C1    211 -0.07020100  12.010000   ; qtot 6.967070
  212         hx      8    bbb     H1    212 0.12219000   1.008000   ; qtot 7.089260
  213         hx      8    bbb     H2    213 0.12219000   1.008000   ; qtot 7.211450
  214         c3      8    bbb     C2    214 -0.07020100  12.010000   ; qtot 7.141249
  215         hx      8    bbb     H3    215 0.12219000   1.008000   ; qtot 7.263439
  216         hx      8    bbb     H4    216 0.12219000   1.008000   ; qtot 7.385629
  217         c3      8    bbb     C3    217 -0.39007700  12.010000   ; qtot 6.995552
  218         hx      8    bbb     H5    218 0.14940300   1.008000   ; qtot 7.144955
  219         hx      8    bbb     H6    219 0.14940300   1.008000   ; qtot 7.294358
  220         c3      8    bbb     C4    220 0.18057300  12.010000   ; qtot 7.474931
  221         hc      8    bbb     H7    221 0.01788900   1.008000   ; qtot 7.492820
  222         hc      8    bbb     H8    222 0.01788900   1.008000   ; qtot 7.510709
  223         c3      8    bbb     C5    223 -0.11337700  12.010000   ; qtot 7.397332
  224         hc      8    bbb     H9    224 0.09515400   1.008000   ; qtot 7.492486
  225         hc      8    bbb    H10    225 0.09515400   1.008000   ; qtot 7.587640
  226         c3      8    bbb     C6    226 -0.11337700  12.010000   ; qtot 7.474263
  227         hc      8    bbb    H11    227 0.09515400   1.008000   ; qtot 7.569417
  228         hc      8    bbb    H12    228 0.09515400   1.008000   ; qtot 7.664571
  229         c3      8    bbb     C7    229 0.21842400  12.010000   ; qtot 7.882995
  230         h1      8    bbb    H13    230 0.04500300   1.008000   ; qtot 7.927998
  231         h1      8    bbb    H14    231 0.04500300   1.008000   ; qtot 7.973001
  232         c3      8    bbb     C8    232 -0.06455200  12.010000   ; qtot 7.908449
  233         h1      8    bbb    H15    233 0.13554100   1.008000   ; qtot 8.043990
  234         h1      8    bbb    H16    234 0.13554100   1.008000   ; qtot 8.179531
  235         c3      8    bbb     C9    235 -0.06455200  12.010000   ; qtot 8.114979
  236         h1      8    bbb    H17    236 0.13554100   1.008000   ; qtot 8.250520
  237         h1      8    bbb    H18    237 0.13554100   1.008000   ; qtot 8.386061
  238         os      8    bbb     O1    238 -0.62587700  16.000000   ; qtot 7.760184
  239         hn      8    bbb    H19    239 0.23982500   1.008000   ; qtot 8.000009
; residue    9 bbb rtp bbb q 1.0
  240         n4      9    bbb     N1    240 0.03726400  14.010000   ; qtot 8.037273
  241         c3      9    bbb     C1    241 -0.07020100  12.010000   ; qtot 7.967072
  242         hx      9    bbb     H1    242 0.12219000   1.008000   ; qtot 8.089262
  243         hx      9    bbb     H2    243 0.12219000   1.008000   ; qtot 8.211452
  244         c3      9    bbb     C2    244 -0.07020100  12.010000   ; qtot 8.141251
  245         hx      9    bbb     H3    245 0.12219000   1.008000   ; qtot 8.263441
  246         hx      9    bbb     H4    246 0.12219000   1.008000   ; qtot 8.385631
  247         c3      9    bbb     C3    247 -0.39007700  12.010000   ; qtot 7.995554
  248         hx      9    bbb     H5    248 0.14940300   1.008000   ; qtot 8.144957
  249         hx      9    bbb     H6    249 0.14940300   1.008000   ; qtot 8.294360
  250         c3      9    bbb     C4    250 0.18057300  12.010000   ; qtot 8.474933
  251         hc      9    bbb     H7    251 0.01788900   1.008000   ; qtot 8.492822
  252         hc      9    bbb     H8    252 0.01788900   1.008000   ; qtot 8.510711
  253         c3      9    bbb     C5    253 -0.11337700  12.010000   ; qtot 8.397334
  254         hc      9    bbb     H9    254 0.09515400   1.008000   ; qtot 8.492488
  255         hc      9    bbb    H10    255 0.09515400   1.008000   ; qtot 8.587642
  256         c3      9    bbb     C6    256 -0.11337700  12.010000   ; qtot 8.474265
  257         hc      9    bbb    H11    257 0.09515400   1.008000   ; qtot 8.569419
  258         hc      9    bbb    H12    258 0.09515400   1.008000   ; qtot 8.664573
  259         c3      9    bbb     C7    259 0.21842400  12.010000   ; qtot 8.882997
  260         h1      9    bbb    H13    260 0.04500300   1.008000   ; qtot 8.928000
  261         h1      9    bbb    H14    261 0.04500300   1.008000   ; qtot 8.973003
  262         c3      9    bbb     C8    262 -0.06455200  12.010000   ; qtot 8.908451
  263         h1      9    bbb    H15    263 0.13554100   1.008000   ; qtot 9.043992
  264         h1      9    bbb    H16    264 0.13554100   1.008000   ; qtot 9.179533
  265         c3      9    bbb     C9    265 -0.06455200  12.010000   ; qtot 9.114981
  266         h1      9    bbb    H17    266 0.13554100   1.008000   ; qtot 9.250522
  267         h1      9    bbb    H18    267 0.13554100   1.008000   ; qtot 9.386063
  268         os      9    bbb     O1    268 -0.62587700  16.000000   ; qtot 8.760186
  269         hn      9    bbb    H19    269 0.23982500   1.008000   ; qtot 9.000011
; residue   10 bbb rtp bbb q 1.0
  270         n4     10    bbb     N1    270 0.03726400  14.010000   ; qtot 9.037275
  271         c3     10    bbb     C1    271 -0.07020100  12.010000   ; qtot 8.967074
  272         hx     10    bbb     H1    272 0.12219000   1.008000   ; qtot 9.089264
  273         hx     10    bbb     H2    273 0.12219000   1.008000   ; qtot 9.211454
  274         c3     10    bbb     C2    274 -0.07020100  12.010000   ; qtot 9.141253
  275         hx     10    bbb     H3    275 0.12219000   1.008000   ; qtot 9.263443
  276         hx     10    bbb     H4    276 0.12219000   1.008000   ; qtot 9.385633
  277         c3     10    bbb     C3    277 -0.39007700  12.010000   ; qtot 8.995556
  278         hx     10    bbb     H5    278 0.14940300   1.008000   ; qtot 9.144959
  279         hx     10    bbb     H6    279 0.14940300   1.008000   ; qtot 9.294362
  280         c3     10    bbb     C4    280 0.18057300  12.010000   ; qtot 9.474935
  281         hc     10    bbb     H7    281 0.01788900   1.008000   ; qtot 9.492824
  282         hc     10    bbb     H8    282 0.01788900   1.008000   ; qtot 9.510713
  283         c3     10    bbb     C5    283 -0.11337700  12.010000   ; qtot 9.397336
  284         hc     10    bbb     H9    284 0.09515400   1.008000   ; qtot 9.492490
  285         hc     10    bbb    H10    285 0.09515400   1.008000   ; qtot 9.587644
  286         c3     10    bbb     C6    286 -0.11337700  12.010000   ; qtot 9.474267
  287         hc     10    bbb    H11    287 0.09515400   1.008000   ; qtot 9.569421
  288         hc     10    bbb    H12    288 0.09515400   1.008000   ; qtot 9.664575
  289         c3     10    bbb     C7    289 0.21842400  12.010000   ; qtot 9.882999
  290         h1     10    bbb    H13    290 0.04500300   1.008000   ; qtot 9.928002
  291         h1     10    bbb    H14    291 0.04500300   1.008000   ; qtot 9.973005
  292         c3     10    bbb     C8    292 -0.06455200  12.010000   ; qtot 9.908453
  293         h1     10    bbb    H15    293 0.13554100   1.008000   ; qtot 10.043994
  294         h1     10    bbb    H16    294 0.13554100   1.008000   ; qtot 10.179535
  295         c3     10    bbb     C9    295 -0.06455200  12.010000   ; qtot 10.114983
  296         h1     10    bbb    H17    296 0.13554100   1.008000   ; qtot 10.250524
  297         h1     10    bbb    H18    297 0.13554100   1.008000   ; qtot 10.386065
  298         os     10    bbb     O1    298 -0.62587700  16.000000   ; qtot 9.760188
  299         hn     10    bbb    H19    299 0.23982500   1.008000   ; qtot 10.000013
; residue   11 bbb rtp bbb q 1.0
  300         n4     11    bbb     N1    300 0.03726400  14.010000   ; qtot 10.037277
  301         c3     11    bbb     C1    301 -0.07020100  12.010000   ; qtot 9.967076
  302         hx     11    bbb     H1    302 0.12219000   1.008000   ; qtot 10.089266
  303         hx     11    bbb     H2    303 0.12219000   1.008000   ; qtot 10.211456
  304         c3     11    bbb     C2    304 -0.07020100  12.010000   ; qtot 10.141255
  305         hx     11    bbb     H3    305 0.12219000   1.008000   ; qtot 10.263445
  306         hx     11    bbb     H4    306 0.12219000   1.008000   ; qtot 10.385635
  307         c3     11    bbb     C3    307 -0.39007700  12.010000   ; qtot 9.995558
  308         hx     11    bbb     H5    308 0.14940300   1.008000   ; qtot 10.144961
  309         hx     11    bbb     H6    309 0.14940300   1.008000   ; qtot 10.294364
  310         c3     11    bbb     C4    310 0.18057300  12.010000   ; qtot 10.474937
  311         hc     11    bbb     H7    311 0.01788900   1.008000   ; qtot 10.492826
  312         hc     11    bbb     H8    312 0.01788900   1.008000   ; qtot 10.510715
  313         c3     11    bbb     C5    313 -0.11337700  12.010000   ; qtot 10.397338
  314         hc     11    bbb     H9    314 0.09515400   1.008000   ; qtot 10.492492
  315         hc     11    bbb    H10    315 0.09515400   1.008000   ; qtot 10.587646
  316         c3     11    bbb     C6    316 -0.11337700  12.010000   ; qtot 10.474269
  317         hc     11    bbb    H11    317 0.09515400   1.008000   ; qtot 10.569423
  318         hc     11    bbb    H12    318 0.09515400   1.008000   ; qtot 10.664577
  319         c3     11    bbb     C7    319 0.21842400  12.010000   ; qtot 10.883001
  320         h1     11    bbb    H13    320 0.04500300   1.008000   ; qtot 10.928004
  321         h1     11    bbb    H14    321 0.04500300   1.008000   ; qtot 10.973007
  322         c3     11    bbb     C8    322 -0.06455200  12.010000   ; qtot 10.908455
  323         h1     11    bbb    H15    323 0.13554100   1.008000   ; qtot 11.043996
  324         h1     11    bbb    H16    324 0.13554100   1.008000   ; qtot 11.179537
  325         c3     11    bbb     C9    325 -0.06455200  12.010000   ; qtot 11.114985
  326         h1     11    bbb    H17    326 0.13554100   1.008000   ; qtot 11.250526
  327         h1     11    bbb    H18    327 0.13554100   1.008000   ; qtot 11.386067
  328         os     11    bbb     O1    328 -0.62587700  16.000000   ; qtot 10.760190
  329         hn     11    bbb    H19    329 0.23982500   1.008000   ; qtot 11.000015
; residue   12 bbb rtp bbb q 1.0
  330         n4     12    bbb     N1    330 0.03726400  14.010000   ; qtot 11.037279
  331         c3     12    bbb     C1    331 -0.07020100  12.010000   ; qtot 10.967078
  332         hx     12    bbb     H1    332 0.12219000   1.008000   ; qtot 11.089268
  333         hx     12    bbb     H2    333 0.12219000   1.008000   ; qtot 11.211458
  334         c3     12    bbb     C2    334 -0.07020100  12.010000   ; qtot 11.141257
  335         hx     12    bbb     H3    335 0.12219000   1.008000   ; qtot 11.263447
  336         hx     12    bbb     H4    336 0.12219000   1.008000   ; qtot 11.385637
  337         c3     12    bbb     C3    337 -0.39007700  12.010000   ; qtot 10.995560
  338         hx     12    bbb     H5    338 0.14940300   1.008000   ; qtot 11.144963
  339         hx     12    bbb     H6    339 0.14940300   1.008000   ; qtot 11.294366
  340         c3     12    bbb     C4    340 0.18057300  12.010000   ; qtot 11.474939
  341         hc     12    bbb     H7    341 0.01788900   1.008000   ; qtot 11.492828
  342         hc     12    bbb     H8    342 0.01788900   1.008000   ; qtot 11.510717
  343         c3     12    bbb     C5    343 -0.11337700  12.010000   ; qtot 11.397340
  344         hc     12    bbb     H9    344 0.09515400   1.008000   ; qtot 11.492494
  345         hc     12    bbb    H10    345 0.09515400   1.008000   ; qtot 11.587648
  346         c3     12    bbb     C6    346 -0.11337700  12.010000   ; qtot 11.474271
  347         hc     12    bbb    H11    347 0.09515400   1.008000   ; qtot 11.569425
  348         hc     12    bbb    H12    348 0.09515400   1.008000   ; qtot 11.664579
  349         c3     12    bbb     C7    349 0.21842400  12.010000   ; qtot 11.883003
  350         h1     12    bbb    H13    350 0.04500300   1.008000   ; qtot 11.928006
  351         h1     12    bbb    H14    351 0.04500300   1.008000   ; qtot 11.973009
  352         c3     12    bbb     C8    352 -0.06455200  12.010000   ; qtot 11.908457
  353         h1     12    bbb    H15    353 0.13554100   1.008000   ; qtot 12.043998
  354         h1     12    bbb    H16    354 0.13554100   1.008000   ; qtot 12.179539
  355         c3     12    bbb     C9    355 -0.06455200  12.010000   ; qtot 12.114987
  356         h1     12    bbb    H17    356 0.13554100   1.008000   ; qtot 12.250528
  357         h1     12    bbb    H18    357 0.13554100   1.008000   ; qtot 12.386069
  358         os     12    bbb     O1    358 -0.62587700  16.000000   ; qtot 11.760192
  359         hn     12    bbb    H19    359 0.23982500   1.008000   ; qtot 12.000017
; residue   13 bbb rtp bbb q 1.0
  360         n4     13    bbb     N1    360 0.03726400  14.010000   ; qtot 12.037281
  361         c3     13    bbb     C1    361 -0.07020100  12.010000   ; qtot 11.967080
  362         hx     13    bbb     H1    362 0.12219000   1.008000   ; qtot 12.089270
  363         hx     13    bbb     H2    363 0.12219000   1.008000   ; qtot 12.211460
  364         c3     13    bbb     C2    364 -0.07020100  12.010000   ; qtot 12.141259
  365         hx     13    bbb     H3    365 0.12219000   1.008000   ; qtot 12.263449
  366         hx     13    bbb     H4    366 0.12219000   1.008000   ; qtot 12.385639
  367         c3     13    bbb     C3    367 -0.39007700  12.010000   ; qtot 11.995562
  368         hx     13    bbb     H5    368 0.14940300   1.008000   ; qtot 12.144965
  369         hx     13    bbb     H6    369 0.14940300   1.008000   ; qtot 12.294368
  370         c3     13    bbb     C4    370 0.18057300  12.010000   ; qtot 12.474941
  371         hc     13    bbb     H7    371 0.01788900   1.008000   ; qtot 12.492830
  372         hc     13    bbb     H8    372 0.01788900   1.008000   ; qtot 12.510719
  373         c3     13    bbb     C5    373 -0.11337700  12.010000   ; qtot 12.397342
  374         hc     13    bbb     H9    374 0.09515400   1.008000   ; qtot 12.492496
  375         hc     13    bbb    H10    375 0.09515400   1.008000   ; qtot 12.587650
  376         c3     13    bbb     C6    376 -0.11337700  12.010000   ; qtot 12.474273
  377         hc     13    bbb    H11    377 0.09515400   1.008000   ; qtot 12.569427
  378         hc     13    bbb    H12    378 0.09515400   1.008000   ; qtot 12.664581
  379         c3     13    bbb     C7    379 0.21842400  12.010000   ; qtot 12.883005
  380         h1     13    bbb    H13    380 0.04500300   1.008000   ; qtot 12.928008
  381         h1     13    bbb    H14    381 0.04500300   1.008000   ; qtot 12.973011
  382         c3     13    bbb     C8    382 -0.06455200  12.010000   ; qtot 12.908459
  383         h1     13    bbb    H15    383 0.13554100   1.008000   ; qtot 13.044000
  384         h1     13    bbb    H16    384 0.13554100   1.008000   ; qtot 13.179541
  385         c3     13    bbb     C9    385 -0.06455200  12.010000   ; qtot 13.114989
  386         h1     13    bbb    H17    386 0.13554100   1.008000   ; qtot 13.250530
  387         h1     13    bbb    H18    387 0.13554100   1.008000   ; qtot 13.386071
  388         os     13    bbb     O1    388 -0.62587700  16.000000   ; qtot 12.760194
  389         hn     13    bbb    H19    389 0.23982500   1.008000   ; qtot 13.000019
; residue   14 bbb rtp bbb q 1.0
  390         n4     14    bbb     N1    390 0.03726400  14.010000   ; qtot 13.037283
  391         c3     14    bbb     C1    391 -0.07020100  12.010000   ; qtot 12.967082
  392         hx     14    bbb     H1    392 0.12219000   1.008000   ; qtot 13.089272
  393         hx     14    bbb     H2    393 0.12219000   1.008000   ; qtot 13.211462
  394         c3     14    bbb     C2    394 -0.07020100  12.010000   ; qtot 13.141261
  395         hx     14    bbb     H3    395 0.12219000   1.008000   ; qtot 13.263451
  396         hx     14    bbb     H4    396 0.12219000   1.008000   ; qtot 13.385641
  397         c3     14    bbb     C3    397 -0.39007700  12.010000   ; qtot 12.995564
  398         hx     14    bbb     H5    398 0.14940300   1.008000   ; qtot 13.144967
  399         hx     14    bbb     H6    399 0.14940300   1.008000   ; qtot 13.294370
  400         c3     14    bbb     C4    400 0.18057300  12.010000   ; qtot 13.474943
  401         hc     14    bbb     H7    401 0.01788900   1.008000   ; qtot 13.492832
  402         hc     14    bbb     H8    402 0.01788900   1.008000   ; qtot 13.510721
  403         c3     14    bbb     C5    403 -0.11337700  12.010000   ; qtot 13.397344
  404         hc     14    bbb     H9    404 0.09515400   1.008000   ; qtot 13.492498
  405         hc     14    bbb    H10    405 0.09515400   1.008000   ; qtot 13.587652
  406         c3     14    bbb     C6    406 -0.11337700  12.010000   ; qtot 13.474275
  407         hc     14    bbb    H11    407 0.09515400   1.008000   ; qtot 13.569429
  408         hc     14    bbb    H12    408 0.09515400   1.008000   ; qtot 13.664583
  409         c3     14    bbb     C7    409 0.21842400  12.010000   ; qtot 13.883007
  410         h1     14    bbb    H13    410 0.04500300   1.008000   ; qtot 13.928010
  411         h1     14    bbb    H14    411 0.04500300   1.008000   ; qtot 13.973013
  412         c3     14    bbb     C8    412 -0.06455200  12.010000   ; qtot 13.908461
  413         h1     14    bbb    H15    413 0.13554100   1.008000   ; qtot 14.044002
  414         h1     14    bbb    H16    414 0.13554100   1.008000   ; qtot 14.179543
  415         c3     14    bbb     C9    415 -0.06455200  12.010000   ; qtot 14.114991
  416         h1     14    bbb    H17    416 0.13554100   1.008000   ; qtot 14.250532
  417         h1     14    bbb    H18    417 0.13554100   1.008000   ; qtot 14.386073
  418         os     14    bbb     O1    418 -0.62587700  16.000000   ; qtot 13.760196
  419         hn     14    bbb    H19    419 0.23982500   1.008000   ; qtot 14.000021
; residue   15 bbb rtp bbb q 1.0
  420         n4     15    bbb     N1    420 0.03726400  14.010000   ; qtot 14.037285
  421         c3     15    bbb     C1    421 -0.07020100  12.010000   ; qtot 13.967084
  422         hx     15    bbb     H1    422 0.12219000   1.008000   ; qtot 14.089274
  423         hx     15    bbb     H2    423 0.12219000   1.008000   ; qtot 14.211464
  424         c3     15    bbb     C2    424 -0.07020100  12.010000   ; qtot 14.141263
  425         hx     15    bbb     H3    425 0.12219000   1.008000   ; qtot 14.263453
  426         hx     15    bbb     H4    426 0.12219000   1.008000   ; qtot 14.385643
  427         c3     15    bbb     C3    427 -0.39007700  12.010000   ; qtot 13.995566
  428         hx     15    bbb     H5    428 0.14940300   1.008000   ; qtot 14.144969
  429         hx     15    bbb     H6    429 0.14940300   1.008000   ; qtot 14.294372
  430         c3     15    bbb     C4    430 0.18057300  12.010000   ; qtot 14.474945
  431         hc     15    bbb     H7    431 0.01788900   1.008000   ; qtot 14.492834
  432         hc     15    bbb     H8    432 0.01788900   1.008000   ; qtot 14.510723
  433         c3     15    bbb     C5    433 -0.11337700  12.010000   ; qtot 14.397346
  434         hc     15    bbb     H9    434 0.09515400   1.008000   ; qtot 14.492500
  435         hc     15    bbb    H10    435 0.09515400   1.008000   ; qtot 14.587654
  436         c3     15    bbb     C6    436 -0.11337700  12.010000   ; qtot 14.474277
  437         hc     15    bbb    H11    437 0.09515400   1.008000   ; qtot 14.569431
  438         hc     15    bbb    H12    438 0.09515400   1.008000   ; qtot 14.664585
  439         c3     15    bbb     C7    439 0.21842400  12.010000   ; qtot 14.883009
  440         h1     15    bbb    H13    440 0.04500300   1.008000   ; qtot 14.928012
  441         h1     15    bbb    H14    441 0.04500300   1.008000   ; qtot 14.973015
  442         c3     15    bbb     C8    442 -0.06455200  12.010000   ; qtot 14.908463
  443         h1     15    bbb    H15    443 0.13554100   1.008000   ; qtot 15.044004
  444         h1     15    bbb    H16    444 0.13554100   1.008000   ; qtot 15.179545
  445         c3     15    bbb     C9    445 -0.06455200  12.010000   ; qtot 15.114993
  446         h1     15    bbb    H17    446 0.13554100   1.008000   ; qtot 15.250534
  447         h1     15    bbb    H18    447 0.13554100   1.008000   ; qtot 15.386075
  448         os     15    bbb     O1    448 -0.62587700  16.000000   ; qtot 14.760198
  449         hn     15    bbb    H19    449 0.23982500   1.008000   ; qtot 15.000023
; residue   16 bbb rtp bbb q 1.0
  450         n4     16    bbb     N1    450 0.03726400  14.010000   ; qtot 15.037287
  451         c3     16    bbb     C1    451 -0.07020100  12.010000   ; qtot 14.967086
  452         hx     16    bbb     H1    452 0.12219000   1.008000   ; qtot 15.089276
  453         hx     16    bbb     H2    453 0.12219000   1.008000   ; qtot 15.211466
  454         c3     16    bbb     C2    454 -0.07020100  12.010000   ; qtot 15.141265
  455         hx     16    bbb     H3    455 0.12219000   1.008000   ; qtot 15.263455
  456         hx     16    bbb     H4    456 0.12219000   1.008000   ; qtot 15.385645
  457         c3     16    bbb     C3    457 -0.39007700  12.010000   ; qtot 14.995568
  458         hx     16    bbb     H5    458 0.14940300   1.008000   ; qtot 15.144971
  459         hx     16    bbb     H6    459 0.14940300   1.008000   ; qtot 15.294374
  460         c3     16    bbb     C4    460 0.18057300  12.010000   ; qtot 15.474947
  461         hc     16    bbb     H7    461 0.01788900   1.008000   ; qtot 15.492836
  462         hc     16    bbb     H8    462 0.01788900   1.008000   ; qtot 15.510725
  463         c3     16    bbb     C5    463 -0.11337700  12.010000   ; qtot 15.397348
  464         hc     16    bbb     H9    464 0.09515400   1.008000   ; qtot 15.492502
  465         hc     16    bbb    H10    465 0.09515400   1.008000   ; qtot 15.587656
  466         c3     16    bbb     C6    466 -0.11337700  12.010000   ; qtot 15.474279
  467         hc     16    bbb    H11    467 0.09515400   1.008000   ; qtot 15.569433
  468         hc     16    bbb    H12    468 0.09515400   1.008000   ; qtot 15.664587
  469         c3     16    bbb     C7    469 0.21842400  12.010000   ; qtot 15.883011
  470         h1     16    bbb    H13    470 0.04500300   1.008000   ; qtot 15.928014
  471         h1     16    bbb    H14    471 0.04500300   1.008000   ; qtot 15.973017
  472         c3     16    bbb     C8    472 -0.06455200  12.010000   ; qtot 15.908465
  473         h1     16    bbb    H15    473 0.13554100   1.008000   ; qtot 16.044006
  474         h1     16    bbb    H16    474 0.13554100   1.008000   ; qtot 16.179547
  475         c3     16    bbb     C9    475 -0.06455200  12.010000   ; qtot 16.114995
  476         h1     16    bbb    H17    476 0.13554100   1.008000   ; qtot 16.250536
  477         h1     16    bbb    H18    477 0.13554100   1.008000   ; qtot 16.386077
  478         os     16    bbb     O1    478 -0.62587700  16.000000   ; qtot 15.760200
  479         hn     16    bbb    H19    479 0.23982500   1.008000   ; qtot 16.000025
; residue   17 bbb rtp bbb q 1.0
  480         n4     17    bbb     N1    480 0.03726400  14.010000   ; qtot 16.037289
  481         c3     17    bbb     C1    481 -0.07020100  12.010000   ; qtot 15.967088
  482         hx     17    bbb     H1    482 0.12219000   1.008000   ; qtot 16.089278
  483         hx     17    bbb     H2    483 0.12219000   1.008000   ; qtot 16.211468
  484         c3     17    bbb     C2    484 -0.07020100  12.010000   ; qtot 16.141267
  485         hx     17    bbb     H3    485 0.12219000   1.008000   ; qtot 16.263457
  486         hx     17    bbb     H4    486 0.12219000   1.008000   ; qtot 16.385647
  487         c3     17    bbb     C3    487 -0.39007700  12.010000   ; qtot 15.995570
  488         hx     17    bbb     H5    488 0.14940300   1.008000   ; qtot 16.144973
  489         hx     17    bbb     H6    489 0.14940300   1.008000   ; qtot 16.294376
  490         c3     17    bbb     C4    490 0.18057300  12.010000   ; qtot 16.474949
  491         hc     17    bbb     H7    491 0.01788900   1.008000   ; qtot 16.492838
  492         hc     17    bbb     H8    492 0.01788900   1.008000   ; qtot 16.510727
  493         c3     17    bbb     C5    493 -0.11337700  12.010000   ; qtot 16.397350
  494         hc     17    bbb     H9    494 0.09515400   1.008000   ; qtot 16.492504
  495         hc     17    bbb    H10    495 0.09515400   1.008000   ; qtot 16.587658
  496         c3     17    bbb     C6    496 -0.11337700  12.010000   ; qtot 16.474281
  497         hc     17    bbb    H11    497 0.09515400   1.008000   ; qtot 16.569435
  498         hc     17    bbb    H12    498 0.09515400   1.008000   ; qtot 16.664589
  499         c3     17    bbb     C7    499 0.21842400  12.010000   ; qtot 16.883013
  500         h1     17    bbb    H13    500 0.04500300   1.008000   ; qtot 16.928016
  501         h1     17    bbb    H14    501 0.04500300   1.008000   ; qtot 16.973019
  502         c3     17    bbb     C8    502 -0.06455200  12.010000   ; qtot 16.908467
  503         h1     17    bbb    H15    503 0.13554100   1.008000   ; qtot 17.044008
  504         h1     17    bbb    H16    504 0.13554100   1.008000   ; qtot 17.179549
  505         c3     17    bbb     C9    505 -0.06455200  12.010000   ; qtot 17.114997
  506         h1     17    bbb    H17    506 0.13554100   1.008000   ; qtot 17.250538
  507         h1     17    bbb    H18    507 0.13554100   1.008000   ; qtot 17.386079
  508         os     17    bbb     O1    508 -0.62587700  16.000000   ; qtot 16.760202
  509         hn     17    bbb    H19    509 0.23982500   1.008000   ; qtot 17.000027
; residue   18 bbb rtp bbb q 1.0
  510         n4     18    bbb     N1    510 0.03726400  14.010000   ; qtot 17.037291
  511         c3     18    bbb     C1    511 -0.07020100  12.010000   ; qtot 16.967090
  512         hx     18    bbb     H1    512 0.12219000   1.008000   ; qtot 17.089280
  513         hx     18    bbb     H2    513 0.12219000   1.008000   ; qtot 17.211470
  514         c3     18    bbb     C2    514 -0.07020100  12.010000   ; qtot 17.141269
  515         hx     18    bbb     H3    515 0.12219000   1.008000   ; qtot 17.263459
  516         hx     18    bbb     H4    516 0.12219000   1.008000   ; qtot 17.385649
  517         c3     18    bbb     C3    517 -0.39007700  12.010000   ; qtot 16.995572
  518         hx     18    bbb     H5    518 0.14940300   1.008000   ; qtot 17.144975
  519         hx     18    bbb     H6    519 0.14940300   1.008000   ; qtot 17.294378
  520         c3     18    bbb     C4    520 0.18057300  12.010000   ; qtot 17.474951
  521         hc     18    bbb     H7    521 0.01788900   1.008000   ; qtot 17.492840
  522         hc     18    bbb     H8    522 0.01788900   1.008000   ; qtot 17.510729
  523         c3     18    bbb     C5    523 -0.11337700  12.010000   ; qtot 17.397352
  524         hc     18    bbb     H9    524 0.09515400   1.008000   ; qtot 17.492506
  525         hc     18    bbb    H10    525 0.09515400   1.008000   ; qtot 17.587660
  526         c3     18    bbb     C6    526 -0.11337700  12.010000   ; qtot 17.474283
  527         hc     18    bbb    H11    527 0.09515400   1.008000   ; qtot 17.569437
  528         hc     18    bbb    H12    528 0.09515400   1.008000   ; qtot 17.664591
  529         c3     18    bbb     C7    529 0.21842400  12.010000   ; qtot 17.883015
  530         h1     18    bbb    H13    530 0.04500300   1.008000   ; qtot 17.928018
  531         h1     18    bbb    H14    531 0.04500300   1.008000   ; qtot 17.973021
  532         c3     18    bbb     C8    532 -0.06455200  12.010000   ; qtot 17.908469
  533         h1     18    bbb    H15    533 0.13554100   1.008000   ; qtot 18.044010
  534         h1     18    bbb    H16    534 0.13554100   1.008000   ; qtot 18.179551
  535         c3     18    bbb     C9    535 -0.06455200  12.010000   ; qtot 18.114999
  536         h1     18    bbb    H17    536 0.13554100   1.008000   ; qtot 18.250540
  537         h1     18    bbb    H18    537 0.13554100   1.008000   ; qtot 18.386081
  538         os     18    bbb     O1    538 -0.62587700  16.000000   ; qtot 17.760204
  539         hn     18    bbb    H19    539 0.23982500   1.008000   ; qtot 18.000029
; residue   19 bbb rtp bbb q 1.0
  540         n4     19    bbb     N1    540 0.03726400  14.010000   ; qtot 18.037293
  541         c3     19    bbb     C1    541 -0.07020100  12.010000   ; qtot 17.967092
  542         hx     19    bbb     H1    542 0.12219000   1.008000   ; qtot 18.089282
  543         hx     19    bbb     H2    543 0.12219000   1.008000   ; qtot 18.211472
  544         c3     19    bbb     C2    544 -0.07020100  12.010000   ; qtot 18.141271
  545         hx     19    bbb     H3    545 0.12219000   1.008000   ; qtot 18.263461
  546         hx     19    bbb     H4    546 0.12219000   1.008000   ; qtot 18.385651
  547         c3     19    bbb     C3    547 -0.39007700  12.010000   ; qtot 17.995574
  548         hx     19    bbb     H5    548 0.14940300   1.008000   ; qtot 18.144977
  549         hx     19    bbb     H6    549 0.14940300   1.008000   ; qtot 18.294380
  550         c3     19    bbb     C4    550 0.18057300  12.010000   ; qtot 18.474953
  551         hc     19    bbb     H7    551 0.01788900   1.008000   ; qtot 18.492842
  552         hc     19    bbb     H8    552 0.01788900   1.008000   ; qtot 18.510731
  553         c3     19    bbb     C5    553 -0.11337700  12.010000   ; qtot 18.397354
  554         hc     19    bbb     H9    554 0.09515400   1.008000   ; qtot 18.492508
  555         hc     19    bbb    H10    555 0.09515400   1.008000   ; qtot 18.587662
  556         c3     19    bbb     C6    556 -0.11337700  12.010000   ; qtot 18.474285
  557         hc     19    bbb    H11    557 0.09515400   1.008000   ; qtot 18.569439
  558         hc     19    bbb    H12    558 0.09515400   1.008000   ; qtot 18.664593
  559         c3     19    bbb     C7    559 0.21842400  12.010000   ; qtot 18.883017
  560         h1     19    bbb    H13    560 0.04500300   1.008000   ; qtot 18.928020
  561         h1     19    bbb    H14    561 0.04500300   1.008000   ; qtot 18.973023
  562         c3     19    bbb     C8    562 -0.06455200  12.010000   ; qtot 18.908471
  563         h1     19    bbb    H15    563 0.13554100   1.008000   ; qtot 19.044012
  564         h1     19    bbb    H16    564 0.13554100   1.008000   ; qtot 19.179553
  565         c3     19    bbb     C9    565 -0.06455200  12.010000   ; qtot 19.115001
  566         h1     19    bbb    H17    566 0.13554100   1.008000   ; qtot 19.250542
  567         h1     19    bbb    H18    567 0.13554100   1.008000   ; qtot 19.386083
  568         os     19    bbb     O1    568 -0.62587700  16.000000   ; qtot 18.760206
  569         hn     19    bbb    H19    569 0.23982500   1.008000   ; qtot 19.000031
; residue   20 bbb rtp bbb q 1.0
  570         n4     20    bbb     N1    570 0.03726400  14.010000   ; qtot 19.037295
  571         c3     20    bbb     C1    571 -0.07020100  12.010000   ; qtot 18.967094
  572         hx     20    bbb     H1    572 0.12219000   1.008000   ; qtot 19.089284
  573         hx     20    bbb     H2    573 0.12219000   1.008000   ; qtot 19.211474
  574         c3     20    bbb     C2    574 -0.07020100  12.010000   ; qtot 19.141273
  575         hx     20    bbb     H3    575 0.12219000   1.008000   ; qtot 19.263463
  576         hx     20    bbb     H4    576 0.12219000   1.008000   ; qtot 19.385653
  577         c3     20    bbb     C3    577 -0.39007700  12.010000   ; qtot 18.995576
  578         hx     20    bbb     H5    578 0.14940300   1.008000   ; qtot 19.144979
  579         hx     20    bbb     H6    579 0.14940300   1.008000   ; qtot 19.294382
  580         c3     20    bbb     C4    580 0.18057300  12.010000   ; qtot 19.474955
  581         hc     20    bbb     H7    581 0.01788900   1.008000   ; qtot 19.492844
  582         hc     20    bbb     H8    582 0.01788900   1.008000   ; qtot 19.510733
  583         c3     20    bbb     C5    583 -0.11337700  12.010000   ; qtot 19.397356
  584         hc     20    bbb     H9    584 0.09515400   1.008000   ; qtot 19.492510
  585         hc     20    bbb    H10    585 0.09515400   1.008000   ; qtot 19.587664
  586         c3     20    bbb     C6    586 -0.11337700  12.010000   ; qtot 19.474287
  587         hc     20    bbb    H11    587 0.09515400   1.008000   ; qtot 19.569441
  588         hc     20    bbb    H12    588 0.09515400   1.008000   ; qtot 19.664595
  589         c3     20    bbb     C7    589 0.21842400  12.010000   ; qtot 19.883019
  590         h1     20    bbb    H13    590 0.04500300   1.008000   ; qtot 19.928022
  591         h1     20    bbb    H14    591 0.04500300   1.008000   ; qtot 19.973025
  592         c3     20    bbb     C8    592 -0.06455200  12.010000   ; qtot 19.908473
  593         h1     20    bbb    H15    593 0.13554100   1.008000   ; qtot 20.044014
  594         h1     20    bbb    H16    594 0.13554100   1.008000   ; qtot 20.179555
  595         c3     20    bbb     C9    595 -0.06455200  12.010000   ; qtot 20.115003
  596         h1     20    bbb    H17    596 0.13554100   1.008000   ; qtot 20.250544
  597         h1     20    bbb    H18    597 0.13554100   1.008000   ; qtot 20.386085
  598         os     20    bbb     O1    598 -0.62587700  16.000000   ; qtot 19.760208
  599         hn     20    bbb    H19    599 0.23982500   1.008000   ; qtot 20.000033
; residue   21 bbb rtp bbb q 1.0
  600         n4     21    bbb     N1    600 0.03726400  14.010000   ; qtot 20.037297
  601         c3     21    bbb     C1    601 -0.07020100  12.010000   ; qtot 19.967096
  602         hx     21    bbb     H1    602 0.12219000   1.008000   ; qtot 20.089286
  603         hx     21    bbb     H2    603 0.12219000   1.008000   ; qtot 20.211476
  604         c3     21    bbb     C2    604 -0.07020100  12.010000   ; qtot 20.141275
  605         hx     21    bbb     H3    605 0.12219000   1.008000   ; qtot 20.263465
  606         hx     21    bbb     H4    606 0.12219000   1.008000   ; qtot 20.385655
  607         c3     21    bbb     C3    607 -0.39007700  12.010000   ; qtot 19.995578
  608         hx     21    bbb     H5    608 0.14940300   1.008000   ; qtot 20.144981
  609         hx     21    bbb     H6    609 0.14940300   1.008000   ; qtot 20.294384
  610         c3     21    bbb     C4    610 0.18057300  12.010000   ; qtot 20.474957
  611         hc     21    bbb     H7    611 0.01788900   1.008000   ; qtot 20.492846
  612         hc     21    bbb     H8    612 0.01788900   1.008000   ; qtot 20.510735
  613         c3     21    bbb     C5    613 -0.11337700  12.010000   ; qtot 20.397358
  614         hc     21    bbb     H9    614 0.09515400   1.008000   ; qtot 20.492512
  615         hc     21    bbb    H10    615 0.09515400   1.008000   ; qtot 20.587666
  616         c3     21    bbb     C6    616 -0.11337700  12.010000   ; qtot 20.474289
  617         hc     21    bbb    H11    617 0.09515400   1.008000   ; qtot 20.569443
  618         hc     21    bbb    H12    618 0.09515400   1.008000   ; qtot 20.664597
  619         c3     21    bbb     C7    619 0.21842400  12.010000   ; qtot 20.883021
  620         h1     21    bbb    H13    620 0.04500300   1.008000   ; qtot 20.928024
  621         h1     21    bbb    H14    621 0.04500300   1.008000   ; qtot 20.973027
  622         c3     21    bbb     C8    622 -0.06455200  12.010000   ; qtot 20.908475
  623         h1     21    bbb    H15    623 0.13554100   1.008000   ; qtot 21.044016
  624         h1     21    bbb    H16    624 0.13554100   1.008000   ; qtot 21.179557
  625         c3     21    bbb     C9    625 -0.06455200  12.010000   ; qtot 21.115005
  626         h1     21    bbb    H17    626 0.13554100   1.008000   ; qtot 21.250546
  627         h1     21    bbb    H18    627 0.13554100   1.008000   ; qtot 21.386087
  628         os     21    bbb     O1    628 -0.62587700  16.000000   ; qtot 20.760210
  629         hn     21    bbb    H19    629 0.23982500   1.008000   ; qtot 21.000035
; residue   22 bbb rtp bbb q 1.0
  630         n4     22    bbb     N1    630 0.03726400  14.010000   ; qtot 21.037299
  631         c3     22    bbb     C1    631 -0.07020100  12.010000   ; qtot 20.967098
  632         hx     22    bbb     H1    632 0.12219000   1.008000   ; qtot 21.089288
  633         hx     22    bbb     H2    633 0.12219000   1.008000   ; qtot 21.211478
  634         c3     22    bbb     C2    634 -0.07020100  12.010000   ; qtot 21.141277
  635         hx     22    bbb     H3    635 0.12219000   1.008000   ; qtot 21.263467
  636         hx     22    bbb     H4    636 0.12219000   1.008000   ; qtot 21.385657
  637         c3     22    bbb     C3    637 -0.39007700  12.010000   ; qtot 20.995580
  638         hx     22    bbb     H5    638 0.14940300   1.008000   ; qtot 21.144983
  639         hx     22    bbb     H6    639 0.14940300   1.008000   ; qtot 21.294386
  640         c3     22    bbb     C4    640 0.18057300  12.010000   ; qtot 21.474959
  641         hc     22    bbb     H7    641 0.01788900   1.008000   ; qtot 21.492848
  642         hc     22    bbb     H8    642 0.01788900   1.008000   ; qtot 21.510737
  643         c3     22    bbb     C5    643 -0.11337700  12.010000   ; qtot 21.397360
  644         hc     22    bbb     H9    644 0.09515400   1.008000   ; qtot 21.492514
  645         hc     22    bbb    H10    645 0.09515400   1.008000   ; qtot 21.587668
  646         c3     22    bbb     C6    646 -0.11337700  12.010000   ; qtot 21.474291
  647         hc     22    bbb    H11    647 0.09515400   1.008000   ; qtot 21.569445
  648         hc     22    bbb    H12    648 0.09515400   1.008000   ; qtot 21.664599
  649         c3     22    bbb     C7    649 0.21842400  12.010000   ; qtot 21.883023
  650         h1     22    bbb    H13    650 0.04500300   1.008000   ; qtot 21.928026
  651         h1     22    bbb    H14    651 0.04500300   1.008000   ; qtot 21.973029
  652         c3     22    bbb     C8    652 -0.06455200  12.010000   ; qtot 21.908477
  653         h1     22    bbb    H15    653 0.13554100   1.008000   ; qtot 22.044018
  654         h1     22    bbb    H16    654 0.13554100   1.008000   ; qtot 22.179559
  655         c3     22    bbb     C9    655 -0.06455200  12.010000   ; qtot 22.115007
  656         h1     22    bbb    H17    656 0.13554100   1.008000   ; qtot 22.250548
  657         h1     22    bbb    H18    657 0.13554100   1.008000   ; qtot 22.386089
  658         os     22    bbb     O1    658 -0.62587700  16.000000   ; qtot 21.760212
  659         hn     22    bbb    H19    659 0.23982500   1.008000   ; qtot 22.000037
; residue   23 bbb rtp bbb q 1.0
  660         n4     23    bbb     N1    660 0.03726400  14.010000   ; qtot 22.037301
  661         c3     23    bbb     C1    661 -0.07020100  12.010000   ; qtot 21.967100
  662         hx     23    bbb     H1    662 0.12219000   1.008000   ; qtot 22.089290
  663         hx     23    bbb     H2    663 0.12219000   1.008000   ; qtot 22.211480
  664         c3     23    bbb     C2    664 -0.07020100  12.010000   ; qtot 22.141279
  665         hx     23    bbb     H3    665 0.12219000   1.008000   ; qtot 22.263469
  666         hx     23    bbb     H4    666 0.12219000   1.008000   ; qtot 22.385659
  667         c3     23    bbb     C3    667 -0.39007700  12.010000   ; qtot 21.995582
  668         hx     23    bbb     H5    668 0.14940300   1.008000   ; qtot 22.144985
  669         hx     23    bbb     H6    669 0.14940300   1.008000   ; qtot 22.294388
  670         c3     23    bbb     C4    670 0.18057300  12.010000   ; qtot 22.474961
  671         hc     23    bbb     H7    671 0.01788900   1.008000   ; qtot 22.492850
  672         hc     23    bbb     H8    672 0.01788900   1.008000   ; qtot 22.510739
  673         c3     23    bbb     C5    673 -0.11337700  12.010000   ; qtot 22.397362
  674         hc     23    bbb     H9    674 0.09515400   1.008000   ; qtot 22.492516
  675         hc     23    bbb    H10    675 0.09515400   1.008000   ; qtot 22.587670
  676         c3     23    bbb     C6    676 -0.11337700  12.010000   ; qtot 22.474293
  677         hc     23    bbb    H11    677 0.09515400   1.008000   ; qtot 22.569447
  678         hc     23    bbb    H12    678 0.09515400   1.008000   ; qtot 22.664601
  679         c3     23    bbb     C7    679 0.21842400  12.010000   ; qtot 22.883025
  680         h1     23    bbb    H13    680 0.04500300   1.008000   ; qtot 22.928028
  681         h1     23    bbb    H14    681 0.04500300   1.008000   ; qtot 22.973031
  682         c3     23    bbb     C8    682 -0.06455200  12.010000   ; qtot 22.908479
  683         h1     23    bbb    H15    683 0.13554100   1.008000   ; qtot 23.044020
  684         h1     23    bbb    H16    684 0.13554100   1.008000   ; qtot 23.179561
  685         c3     23    bbb     C9    685 -0.06455200  12.010000   ; qtot 23.115009
  686         h1     23    bbb    H17    686 0.13554100   1.008000   ; qtot 23.250550
  687         h1     23    bbb    H18    687 0.13554100   1.008000   ; qtot 23.386091
  688         os     23    bbb     O1    688 -0.62587700  16.000000   ; qtot 22.760214
  689         hn     23    bbb    H19    689 0.23982500   1.008000   ; qtot 23.000039
; residue   24 bbb rtp bbb q 1.0
  690         n4     24    bbb     N1    690 0.03726400  14.010000   ; qtot 23.037303
  691         c3     24    bbb     C1    691 -0.07020100  12.010000   ; qtot 22.967102
  692         hx     24    bbb     H1    692 0.12219000   1.008000   ; qtot 23.089292
  693         hx     24    bbb     H2    693 0.12219000   1.008000   ; qtot 23.211482
  694         c3     24    bbb     C2    694 -0.07020100  12.010000   ; qtot 23.141281
  695         hx     24    bbb     H3    695 0.12219000   1.008000   ; qtot 23.263471
  696         hx     24    bbb     H4    696 0.12219000   1.008000   ; qtot 23.385661
  697         c3     24    bbb     C3    697 -0.39007700  12.010000   ; qtot 22.995584
  698         hx     24    bbb     H5    698 0.14940300   1.008000   ; qtot 23.144987
  699         hx     24    bbb     H6    699 0.14940300   1.008000   ; qtot 23.294390
  700         c3     24    bbb     C4    700 0.18057300  12.010000   ; qtot 23.474963
  701         hc     24    bbb     H7    701 0.01788900   1.008000   ; qtot 23.492852
  702         hc     24    bbb     H8    702 0.01788900   1.008000   ; qtot 23.510741
  703         c3     24    bbb     C5    703 -0.11337700  12.010000   ; qtot 23.397364
  704         hc     24    bbb     H9    704 0.09515400   1.008000   ; qtot 23.492518
  705         hc     24    bbb    H10    705 0.09515400   1.008000   ; qtot 23.587672
  706         c3     24    bbb     C6    706 -0.11337700  12.010000   ; qtot 23.474295
  707         hc     24    bbb    H11    707 0.09515400   1.008000   ; qtot 23.569449
  708         hc     24    bbb    H12    708 0.09515400   1.008000   ; qtot 23.664603
  709         c3     24    bbb     C7    709 0.21842400  12.010000   ; qtot 23.883027
  710         h1     24    bbb    H13    710 0.04500300   1.008000   ; qtot 23.928030
  711         h1     24    bbb    H14    711 0.04500300   1.008000   ; qtot 23.973033
  712         c3     24    bbb     C8    712 -0.06455200  12.010000   ; qtot 23.908481
  713         h1     24    bbb    H15    713 0.13554100   1.008000   ; qtot 24.044022
  714         h1     24    bbb    H16    714 0.13554100   1.008000   ; qtot 24.179563
  715         c3     24    bbb     C9    715 -0.06455200  12.010000   ; qtot 24.115011
  716         h1     24    bbb    H17    716 0.13554100   1.008000   ; qtot 24.250552
  717         h1     24    bbb    H18    717 0.13554100   1.008000   ; qtot 24.386093
  718         os     24    bbb     O1    718 -0.62587700  16.000000   ; qtot 23.760216
  719         hn     24    bbb    H19    719 0.23982500   1.008000   ; qtot 24.000041
; residue   25 bbb rtp bbb q 1.0
  720         n4     25    bbb     N1    720 0.03726400  14.010000   ; qtot 24.037305
  721         c3     25    bbb     C1    721 -0.07020100  12.010000   ; qtot 23.967104
  722         hx     25    bbb     H1    722 0.12219000   1.008000   ; qtot 24.089294
  723         hx     25    bbb     H2    723 0.12219000   1.008000   ; qtot 24.211484
  724         c3     25    bbb     C2    724 -0.07020100  12.010000   ; qtot 24.141283
  725         hx     25    bbb     H3    725 0.12219000   1.008000   ; qtot 24.263473
  726         hx     25    bbb     H4    726 0.12219000   1.008000   ; qtot 24.385663
  727         c3     25    bbb     C3    727 -0.39007700  12.010000   ; qtot 23.995586
  728         hx     25    bbb     H5    728 0.14940300   1.008000   ; qtot 24.144989
  729         hx     25    bbb     H6    729 0.14940300   1.008000   ; qtot 24.294392
  730         c3     25    bbb     C4    730 0.18057300  12.010000   ; qtot 24.474965
  731         hc     25    bbb     H7    731 0.01788900   1.008000   ; qtot 24.492854
  732         hc     25    bbb     H8    732 0.01788900   1.008000   ; qtot 24.510743
  733         c3     25    bbb     C5    733 -0.11337700  12.010000   ; qtot 24.397366
  734         hc     25    bbb     H9    734 0.09515400   1.008000   ; qtot 24.492520
  735         hc     25    bbb    H10    735 0.09515400   1.008000   ; qtot 24.587674
  736         c3     25    bbb     C6    736 -0.11337700  12.010000   ; qtot 24.474297
  737         hc     25    bbb    H11    737 0.09515400   1.008000   ; qtot 24.569451
  738         hc     25    bbb    H12    738 0.09515400   1.008000   ; qtot 24.664605
  739         c3     25    bbb     C7    739 0.21842400  12.010000   ; qtot 24.883029
  740         h1     25    bbb    H13    740 0.04500300   1.008000   ; qtot 24.928032
  741         h1     25    bbb    H14    741 0.04500300   1.008000   ; qtot 24.973035
  742         c3     25    bbb     C8    742 -0.06455200  12.010000   ; qtot 24.908483
  743         h1     25    bbb    H15    743 0.13554100   1.008000   ; qtot 25.044024
  744         h1     25    bbb    H16    744 0.13554100   1.008000   ; qtot 25.179565
  745         c3     25    bbb     C9    745 -0.06455200  12.010000   ; qtot 25.115013
  746         h1     25    bbb    H17    746 0.13554100   1.008000   ; qtot 25.250554
  747         h1     25    bbb    H18    747 0.13554100   1.008000   ; qtot 25.386095
  748         os     25    bbb     O1    748 -0.62587700  16.000000   ; qtot 24.760218
  749         hn     25    bbb    H19    749 0.23982500   1.008000   ; qtot 25.000043
; residue   26 bbb rtp bbb q 1.0
  750         n4     26    bbb     N1    750 0.03726400  14.010000   ; qtot 25.037307
  751         c3     26    bbb     C1    751 -0.07020100  12.010000   ; qtot 24.967106
  752         hx     26    bbb     H1    752 0.12219000   1.008000   ; qtot 25.089296
  753         hx     26    bbb     H2    753 0.12219000   1.008000   ; qtot 25.211486
  754         c3     26    bbb     C2    754 -0.07020100  12.010000   ; qtot 25.141285
  755         hx     26    bbb     H3    755 0.12219000   1.008000   ; qtot 25.263475
  756         hx     26    bbb     H4    756 0.12219000   1.008000   ; qtot 25.385665
  757         c3     26    bbb     C3    757 -0.39007700  12.010000   ; qtot 24.995588
  758         hx     26    bbb     H5    758 0.14940300   1.008000   ; qtot 25.144991
  759         hx     26    bbb     H6    759 0.14940300   1.008000   ; qtot 25.294394
  760         c3     26    bbb     C4    760 0.18057300  12.010000   ; qtot 25.474967
  761         hc     26    bbb     H7    761 0.01788900   1.008000   ; qtot 25.492856
  762         hc     26    bbb     H8    762 0.01788900   1.008000   ; qtot 25.510745
  763         c3     26    bbb     C5    763 -0.11337700  12.010000   ; qtot 25.397368
  764         hc     26    bbb     H9    764 0.09515400   1.008000   ; qtot 25.492522
  765         hc     26    bbb    H10    765 0.09515400   1.008000   ; qtot 25.587676
  766         c3     26    bbb     C6    766 -0.11337700  12.010000   ; qtot 25.474299
  767         hc     26    bbb    H11    767 0.09515400   1.008000   ; qtot 25.569453
  768         hc     26    bbb    H12    768 0.09515400   1.008000   ; qtot 25.664607
  769         c3     26    bbb     C7    769 0.21842400  12.010000   ; qtot 25.883031
  770         h1     26    bbb    H13    770 0.04500300   1.008000   ; qtot 25.928034
  771         h1     26    bbb    H14    771 0.04500300   1.008000   ; qtot 25.973037
  772         c3     26    bbb     C8    772 -0.06455200  12.010000   ; qtot 25.908485
  773         h1     26    bbb    H15    773 0.13554100   1.008000   ; qtot 26.044026
  774         h1     26    bbb    H16    774 0.13554100   1.008000   ; qtot 26.179567
  775         c3     26    bbb     C9    775 -0.06455200  12.010000   ; qtot 26.115015
  776         h1     26    bbb    H17    776 0.13554100   1.008000   ; qtot 26.250556
  777         h1     26    bbb    H18    777 0.13554100   1.008000   ; qtot 26.386097
  778         os     26    bbb     O1    778 -0.62587700  16.000000   ; qtot 25.760220
  779         hn     26    bbb    H19    779 0.23982500   1.008000   ; qtot 26.000045
; residue   27 bbb rtp bbb q 1.0
  780         n4     27    bbb     N1    780 0.03726400  14.010000   ; qtot 26.037309
  781         c3     27    bbb     C1    781 -0.07020100  12.010000   ; qtot 25.967108
  782         hx     27    bbb     H1    782 0.12219000   1.008000   ; qtot 26.089298
  783         hx     27    bbb     H2    783 0.12219000   1.008000   ; qtot 26.211488
  784         c3     27    bbb     C2    784 -0.07020100  12.010000   ; qtot 26.141287
  785         hx     27    bbb     H3    785 0.12219000   1.008000   ; qtot 26.263477
  786         hx     27    bbb     H4    786 0.12219000   1.008000   ; qtot 26.385667
  787         c3     27    bbb     C3    787 -0.39007700  12.010000   ; qtot 25.995590
  788         hx     27    bbb     H5    788 0.14940300   1.008000   ; qtot 26.144993
  789         hx     27    bbb     H6    789 0.14940300   1.008000   ; qtot 26.294396
  790         c3     27    bbb     C4    790 0.18057300  12.010000   ; qtot 26.474969
  791         hc     27    bbb     H7    791 0.01788900   1.008000   ; qtot 26.492858
  792         hc     27    bbb     H8    792 0.01788900   1.008000   ; qtot 26.510747
  793         c3     27    bbb     C5    793 -0.11337700  12.010000   ; qtot 26.397370
  794         hc     27    bbb     H9    794 0.09515400   1.008000   ; qtot 26.492524
  795         hc     27    bbb    H10    795 0.09515400   1.008000   ; qtot 26.587678
  796         c3     27    bbb     C6    796 -0.11337700  12.010000   ; qtot 26.474301
  797         hc     27    bbb    H11    797 0.09515400   1.008000   ; qtot 26.569455
  798         hc     27    bbb    H12    798 0.09515400   1.008000   ; qtot 26.664609
  799         c3     27    bbb     C7    799 0.21842400  12.010000   ; qtot 26.883033
  800         h1     27    bbb    H13    800 0.04500300   1.008000   ; qtot 26.928036
  801         h1     27    bbb    H14    801 0.04500300   1.008000   ; qtot 26.973039
  802         c3     27    bbb     C8    802 -0.06455200  12.010000   ; qtot 26.908487
  803         h1     27    bbb    H15    803 0.13554100   1.008000   ; qtot 27.044028
  804         h1     27    bbb    H16    804 0.13554100   1.008000   ; qtot 27.179569
  805         c3     27    bbb     C9    805 -0.06455200  12.010000   ; qtot 27.115017
  806         h1     27    bbb    H17    806 0.13554100   1.008000   ; qtot 27.250558
  807         h1     27    bbb    H18    807 0.13554100   1.008000   ; qtot 27.386099
  808         os     27    bbb     O1    808 -0.62587700  16.000000   ; qtot 26.760222
  809         hn     27    bbb    H19    809 0.23982500   1.008000   ; qtot 27.000047
; residue   28 bbb rtp bbb q 1.0
  810         n4     28    bbb     N1    810 0.03726400  14.010000   ; qtot 27.037311
  811         c3     28    bbb     C1    811 -0.07020100  12.010000   ; qtot 26.967110
  812         hx     28    bbb     H1    812 0.12219000   1.008000   ; qtot 27.089300
  813         hx     28    bbb     H2    813 0.12219000   1.008000   ; qtot 27.211490
  814         c3     28    bbb     C2    814 -0.07020100  12.010000   ; qtot 27.141289
  815         hx     28    bbb     H3    815 0.12219000   1.008000   ; qtot 27.263479
  816         hx     28    bbb     H4    816 0.12219000   1.008000   ; qtot 27.385669
  817         c3     28    bbb     C3    817 -0.39007700  12.010000   ; qtot 26.995592
  818         hx     28    bbb     H5    818 0.14940300   1.008000   ; qtot 27.144995
  819         hx     28    bbb     H6    819 0.14940300   1.008000   ; qtot 27.294398
  820         c3     28    bbb     C4    820 0.18057300  12.010000   ; qtot 27.474971
  821         hc     28    bbb     H7    821 0.01788900   1.008000   ; qtot 27.492860
  822         hc     28    bbb     H8    822 0.01788900   1.008000   ; qtot 27.510749
  823         c3     28    bbb     C5    823 -0.11337700  12.010000   ; qtot 27.397372
  824         hc     28    bbb     H9    824 0.09515400   1.008000   ; qtot 27.492526
  825         hc     28    bbb    H10    825 0.09515400   1.008000   ; qtot 27.587680
  826         c3     28    bbb     C6    826 -0.11337700  12.010000   ; qtot 27.474303
  827         hc     28    bbb    H11    827 0.09515400   1.008000   ; qtot 27.569457
  828         hc     28    bbb    H12    828 0.09515400   1.008000   ; qtot 27.664611
  829         c3     28    bbb     C7    829 0.21842400  12.010000   ; qtot 27.883035
  830         h1     28    bbb    H13    830 0.04500300   1.008000   ; qtot 27.928038
  831         h1     28    bbb    H14    831 0.04500300   1.008000   ; qtot 27.973041
  832         c3     28    bbb     C8    832 -0.06455200  12.010000   ; qtot 27.908489
  833         h1     28    bbb    H15    833 0.13554100   1.008000   ; qtot 28.044030
  834         h1     28    bbb    H16    834 0.13554100   1.008000   ; qtot 28.179571
  835         c3     28    bbb     C9    835 -0.06455200  12.010000   ; qtot 28.115019
  836         h1     28    bbb    H17    836 0.13554100   1.008000   ; qtot 28.250560
  837         h1     28    bbb    H18    837 0.13554100   1.008000   ; qtot 28.386101
  838         os     28    bbb     O1    838 -0.62587700  16.000000   ; qtot 27.760224
  839         hn     28    bbb    H19    839 0.23982500   1.008000   ; qtot 28.000049
; residue   29 bbb rtp bbb q 1.0
  840         n4     29    bbb     N1    840 0.03726400  14.010000   ; qtot 28.037313
  841         c3     29    bbb     C1    841 -0.07020100  12.010000   ; qtot 27.967112
  842         hx     29    bbb     H1    842 0.12219000   1.008000   ; qtot 28.089302
  843         hx     29    bbb     H2    843 0.12219000   1.008000   ; qtot 28.211492
  844         c3     29    bbb     C2    844 -0.07020100  12.010000   ; qtot 28.141291
  845         hx     29    bbb     H3    845 0.12219000   1.008000   ; qtot 28.263481
  846         hx     29    bbb     H4    846 0.12219000   1.008000   ; qtot 28.385671
  847         c3     29    bbb     C3    847 -0.39007700  12.010000   ; qtot 27.995594
  848         hx     29    bbb     H5    848 0.14940300   1.008000   ; qtot 28.144997
  849         hx     29    bbb     H6    849 0.14940300   1.008000   ; qtot 28.294400
  850         c3     29    bbb     C4    850 0.18057300  12.010000   ; qtot 28.474973
  851         hc     29    bbb     H7    851 0.01788900   1.008000   ; qtot 28.492862
  852         hc     29    bbb     H8    852 0.01788900   1.008000   ; qtot 28.510751
  853         c3     29    bbb     C5    853 -0.11337700  12.010000   ; qtot 28.397374
  854         hc     29    bbb     H9    854 0.09515400   1.008000   ; qtot 28.492528
  855         hc     29    bbb    H10    855 0.09515400   1.008000   ; qtot 28.587682
  856         c3     29    bbb     C6    856 -0.11337700  12.010000   ; qtot 28.474305
  857         hc     29    bbb    H11    857 0.09515400   1.008000   ; qtot 28.569459
  858         hc     29    bbb    H12    858 0.09515400   1.008000   ; qtot 28.664613
  859         c3     29    bbb     C7    859 0.21842400  12.010000   ; qtot 28.883037
  860         h1     29    bbb    H13    860 0.04500300   1.008000   ; qtot 28.928040
  861         h1     29    bbb    H14    861 0.04500300   1.008000   ; qtot 28.973043
  862         c3     29    bbb     C8    862 -0.06455200  12.010000   ; qtot 28.908491
  863         h1     29    bbb    H15    863 0.13554100   1.008000   ; qtot 29.044032
  864         h1     29    bbb    H16    864 0.13554100   1.008000   ; qtot 29.179573
  865         c3     29    bbb     C9    865 -0.06455200  12.010000   ; qtot 29.115021
  866         h1     29    bbb    H17    866 0.13554100   1.008000   ; qtot 29.250562
  867         h1     29    bbb    H18    867 0.13554100   1.008000   ; qtot 29.386103
  868         os     29    bbb     O1    868 -0.62587700  16.000000   ; qtot 28.760226
  869         hn     29    bbb    H19    869 0.23982500   1.008000   ; qtot 29.000051
; residue   30 bbb rtp bbb q 1.0
  870         n4     30    bbb     N1    870 0.03726400  14.010000   ; qtot 29.037315
  871         c3     30    bbb     C1    871 -0.07020100  12.010000   ; qtot 28.967114
  872         hx     30    bbb     H1    872 0.12219000   1.008000   ; qtot 29.089304
  873         hx     30    bbb     H2    873 0.12219000   1.008000   ; qtot 29.211494
  874         c3     30    bbb     C2    874 -0.07020100  12.010000   ; qtot 29.141293
  875         hx     30    bbb     H3    875 0.12219000   1.008000   ; qtot 29.263483
  876         hx     30    bbb     H4    876 0.12219000   1.008000   ; qtot 29.385673
  877         c3     30    bbb     C3    877 -0.39007700  12.010000   ; qtot 28.995596
  878         hx     30    bbb     H5    878 0.14940300   1.008000   ; qtot 29.144999
  879         hx     30    bbb     H6    879 0.14940300   1.008000   ; qtot 29.294402
  880         c3     30    bbb     C4    880 0.18057300  12.010000   ; qtot 29.474975
  881         hc     30    bbb     H7    881 0.01788900   1.008000   ; qtot 29.492864
  882         hc     30    bbb     H8    882 0.01788900   1.008000   ; qtot 29.510753
  883         c3     30    bbb     C5    883 -0.11337700  12.010000   ; qtot 29.397376
  884         hc     30    bbb     H9    884 0.09515400   1.008000   ; qtot 29.492530
  885         hc     30    bbb    H10    885 0.09515400   1.008000   ; qtot 29.587684
  886         c3     30    bbb     C6    886 -0.11337700  12.010000   ; qtot 29.474307
  887         hc     30    bbb    H11    887 0.09515400   1.008000   ; qtot 29.569461
  888         hc     30    bbb    H12    888 0.09515400   1.008000   ; qtot 29.664615
  889         c3     30    bbb     C7    889 0.21842400  12.010000   ; qtot 29.883039
  890         h1     30    bbb    H13    890 0.04500300   1.008000   ; qtot 29.928042
  891         h1     30    bbb    H14    891 0.04500300   1.008000   ; qtot 29.973045
  892         c3     30    bbb     C8    892 -0.06455200  12.010000   ; qtot 29.908493
  893         h1     30    bbb    H15    893 0.13554100   1.008000   ; qtot 30.044034
  894         h1     30    bbb    H16    894 0.13554100   1.008000   ; qtot 30.179575
  895         c3     30    bbb     C9    895 -0.06455200  12.010000   ; qtot 30.115023
  896         h1     30    bbb    H17    896 0.13554100   1.008000   ; qtot 30.250564
  897         h1     30    bbb    H18    897 0.13554100   1.008000   ; qtot 30.386105
  898         os     30    bbb     O1    898 -0.62587700  16.000000   ; qtot 29.760228
  899         hn     30    bbb    H19    899 0.23982500   1.008000   ; qtot 30.000053
; residue   31 bbb rtp bbb q 1.0
  900         n4     31    bbb     N1    900 0.03726400  14.010000   ; qtot 30.037317
  901         c3     31    bbb     C1    901 -0.07020100  12.010000   ; qtot 29.967116
  902         hx     31    bbb     H1    902 0.12219000   1.008000   ; qtot 30.089306
  903         hx     31    bbb     H2    903 0.12219000   1.008000   ; qtot 30.211496
  904         c3     31    bbb     C2    904 -0.07020100  12.010000   ; qtot 30.141295
  905         hx     31    bbb     H3    905 0.12219000   1.008000   ; qtot 30.263485
  906         hx     31    bbb     H4    906 0.12219000   1.008000   ; qtot 30.385675
  907         c3     31    bbb     C3    907 -0.39007700  12.010000   ; qtot 29.995598
  908         hx     31    bbb     H5    908 0.14940300   1.008000   ; qtot 30.145001
  909         hx     31    bbb     H6    909 0.14940300   1.008000   ; qtot 30.294404
  910         c3     31    bbb     C4    910 0.18057300  12.010000   ; qtot 30.474977
  911         hc     31    bbb     H7    911 0.01788900   1.008000   ; qtot 30.492866
  912         hc     31    bbb     H8    912 0.01788900   1.008000   ; qtot 30.510755
  913         c3     31    bbb     C5    913 -0.11337700  12.010000   ; qtot 30.397378
  914         hc     31    bbb     H9    914 0.09515400   1.008000   ; qtot 30.492532
  915         hc     31    bbb    H10    915 0.09515400   1.008000   ; qtot 30.587686
  916         c3     31    bbb     C6    916 -0.11337700  12.010000   ; qtot 30.474309
  917         hc     31    bbb    H11    917 0.09515400   1.008000   ; qtot 30.569463
  918         hc     31    bbb    H12    918 0.09515400   1.008000   ; qtot 30.664617
  919         c3     31    bbb     C7    919 0.21842400  12.010000   ; qtot 30.883041
  920         h1     31    bbb    H13    920 0.04500300   1.008000   ; qtot 30.928044
  921         h1     31    bbb    H14    921 0.04500300   1.008000   ; qtot 30.973047
  922         c3     31    bbb     C8    922 -0.06455200  12.010000   ; qtot 30.908495
  923         h1     31    bbb    H15    923 0.13554100   1.008000   ; qtot 31.044036
  924         h1     31    bbb    H16    924 0.13554100   1.008000   ; qtot 31.179577
  925         c3     31    bbb     C9    925 -0.06455200  12.010000   ; qtot 31.115025
  926         h1     31    bbb    H17    926 0.13554100   1.008000   ; qtot 31.250566
  927         h1     31    bbb    H18    927 0.13554100   1.008000   ; qtot 31.386107
  928         os     31    bbb     O1    928 -0.62587700  16.000000   ; qtot 30.760230
  929         hn     31    bbb    H19    929 0.23982500   1.008000   ; qtot 31.000055
; residue   32 bbb rtp bbb q 1.0
  930         n4     32    bbb     N1    930 0.03726400  14.010000   ; qtot 31.037319
  931         c3     32    bbb     C1    931 -0.07020100  12.010000   ; qtot 30.967118
  932         hx     32    bbb     H1    932 0.12219000   1.008000   ; qtot 31.089308
  933         hx     32    bbb     H2    933 0.12219000   1.008000   ; qtot 31.211498
  934         c3     32    bbb     C2    934 -0.07020100  12.010000   ; qtot 31.141297
  935         hx     32    bbb     H3    935 0.12219000   1.008000   ; qtot 31.263487
  936         hx     32    bbb     H4    936 0.12219000   1.008000   ; qtot 31.385677
  937         c3     32    bbb     C3    937 -0.39007700  12.010000   ; qtot 30.995600
  938         hx     32    bbb     H5    938 0.14940300   1.008000   ; qtot 31.145003
  939         hx     32    bbb     H6    939 0.14940300   1.008000   ; qtot 31.294406
  940         c3     32    bbb     C4    940 0.18057300  12.010000   ; qtot 31.474979
  941         hc     32    bbb     H7    941 0.01788900   1.008000   ; qtot 31.492868
  942         hc     32    bbb     H8    942 0.01788900   1.008000   ; qtot 31.510757
  943         c3     32    bbb     C5    943 -0.11337700  12.010000   ; qtot 31.397380
  944         hc     32    bbb     H9    944 0.09515400   1.008000   ; qtot 31.492534
  945         hc     32    bbb    H10    945 0.09515400   1.008000   ; qtot 31.587688
  946         c3     32    bbb     C6    946 -0.11337700  12.010000   ; qtot 31.474311
  947         hc     32    bbb    H11    947 0.09515400   1.008000   ; qtot 31.569465
  948         hc     32    bbb    H12    948 0.09515400   1.008000   ; qtot 31.664619
  949         c3     32    bbb     C7    949 0.21842400  12.010000   ; qtot 31.883043
  950         h1     32    bbb    H13    950 0.04500300   1.008000   ; qtot 31.928046
  951         h1     32    bbb    H14    951 0.04500300   1.008000   ; qtot 31.973049
  952         c3     32    bbb     C8    952 -0.06455200  12.010000   ; qtot 31.908497
  953         h1     32    bbb    H15    953 0.13554100   1.008000   ; qtot 32.044038
  954         h1     32    bbb    H16    954 0.13554100   1.008000   ; qtot 32.179579
  955         c3     32    bbb     C9    955 -0.06455200  12.010000   ; qtot 32.115027
  956         h1     32    bbb    H17    956 0.13554100   1.008000   ; qtot 32.250568
  957         h1     32    bbb    H18    957 0.13554100   1.008000   ; qtot 32.386109
  958         os     32    bbb     O1    958 -0.62587700  16.000000   ; qtot 31.760232
  959         hn     32    bbb    H19    959 0.23982500   1.008000   ; qtot 32.000057
; residue   33 bbb rtp bbb q 1.0
  960         n4     33    bbb     N1    960 0.03726400  14.010000   ; qtot 32.037321
  961         c3     33    bbb     C1    961 -0.07020100  12.010000   ; qtot 31.967120
  962         hx     33    bbb     H1    962 0.12219000   1.008000   ; qtot 32.089310
  963         hx     33    bbb     H2    963 0.12219000   1.008000   ; qtot 32.211500
  964         c3     33    bbb     C2    964 -0.07020100  12.010000   ; qtot 32.141299
  965         hx     33    bbb     H3    965 0.12219000   1.008000   ; qtot 32.263489
  966         hx     33    bbb     H4    966 0.12219000   1.008000   ; qtot 32.385679
  967         c3     33    bbb     C3    967 -0.39007700  12.010000   ; qtot 31.995602
  968         hx     33    bbb     H5    968 0.14940300   1.008000   ; qtot 32.145005
  969         hx     33    bbb     H6    969 0.14940300   1.008000   ; qtot 32.294408
  970         c3     33    bbb     C4    970 0.18057300  12.010000   ; qtot 32.474981
  971         hc     33    bbb     H7    971 0.01788900   1.008000   ; qtot 32.492870
  972         hc     33    bbb     H8    972 0.01788900   1.008000   ; qtot 32.510759
  973         c3     33    bbb     C5    973 -0.11337700  12.010000   ; qtot 32.397382
  974         hc     33    bbb     H9    974 0.09515400   1.008000   ; qtot 32.492536
  975         hc     33    bbb    H10    975 0.09515400   1.008000   ; qtot 32.587690
  976         c3     33    bbb     C6    976 -0.11337700  12.010000   ; qtot 32.474313
  977         hc     33    bbb    H11    977 0.09515400   1.008000   ; qtot 32.569467
  978         hc     33    bbb    H12    978 0.09515400   1.008000   ; qtot 32.664621
  979         c3     33    bbb     C7    979 0.21842400  12.010000   ; qtot 32.883045
  980         h1     33    bbb    H13    980 0.04500300   1.008000   ; qtot 32.928048
  981         h1     33    bbb    H14    981 0.04500300   1.008000   ; qtot 32.973051
  982         c3     33    bbb     C8    982 -0.06455200  12.010000   ; qtot 32.908499
  983         h1     33    bbb    H15    983 0.13554100   1.008000   ; qtot 33.044040
  984         h1     33    bbb    H16    984 0.13554100   1.008000   ; qtot 33.179581
  985         c3     33    bbb     C9    985 -0.06455200  12.010000   ; qtot 33.115029
  986         h1     33    bbb    H17    986 0.13554100   1.008000   ; qtot 33.250570
  987         h1     33    bbb    H18    987 0.13554100   1.008000   ; qtot 33.386111
  988         os     33    bbb     O1    988 -0.62587700  16.000000   ; qtot 32.760234
  989         hn     33    bbb    H19    989 0.23982500   1.008000   ; qtot 33.000059
; residue   34 bbb rtp bbb q 1.0
  990         n4     34    bbb     N1    990 0.03726400  14.010000   ; qtot 33.037323
  991         c3     34    bbb     C1    991 -0.07020100  12.010000   ; qtot 32.967122
  992         hx     34    bbb     H1    992 0.12219000   1.008000   ; qtot 33.089312
  993         hx     34    bbb     H2    993 0.12219000   1.008000   ; qtot 33.211502
  994         c3     34    bbb     C2    994 -0.07020100  12.010000   ; qtot 33.141301
  995         hx     34    bbb     H3    995 0.12219000   1.008000   ; qtot 33.263491
  996         hx     34    bbb     H4    996 0.12219000   1.008000   ; qtot 33.385681
  997         c3     34    bbb     C3    997 -0.39007700  12.010000   ; qtot 32.995604
  998         hx     34    bbb     H5    998 0.14940300   1.008000   ; qtot 33.145007
  999         hx     34    bbb     H6    999 0.14940300   1.008000   ; qtot 33.294410
 1000         c3     34    bbb     C4   1000 0.18057300  12.010000   ; qtot 33.474983
 1001         hc     34    bbb     H7   1001 0.01788900   1.008000   ; qtot 33.492872
 1002         hc     34    bbb     H8   1002 0.01788900   1.008000   ; qtot 33.510761
 1003         c3     34    bbb     C5   1003 -0.11337700  12.010000   ; qtot 33.397384
 1004         hc     34    bbb     H9   1004 0.09515400   1.008000   ; qtot 33.492538
 1005         hc     34    bbb    H10   1005 0.09515400   1.008000   ; qtot 33.587692
 1006         c3     34    bbb     C6   1006 -0.11337700  12.010000   ; qtot 33.474315
 1007         hc     34    bbb    H11   1007 0.09515400   1.008000   ; qtot 33.569469
 1008         hc     34    bbb    H12   1008 0.09515400   1.008000   ; qtot 33.664623
 1009         c3     34    bbb     C7   1009 0.21842400  12.010000   ; qtot 33.883047
 1010         h1     34    bbb    H13   1010 0.04500300   1.008000   ; qtot 33.928050
 1011         h1     34    bbb    H14   1011 0.04500300   1.008000   ; qtot 33.973053
 1012         c3     34    bbb     C8   1012 -0.06455200  12.010000   ; qtot 33.908501
 1013         h1     34    bbb    H15   1013 0.13554100   1.008000   ; qtot 34.044042
 1014         h1     34    bbb    H16   1014 0.13554100   1.008000   ; qtot 34.179583
 1015         c3     34    bbb     C9   1015 -0.06455200  12.010000   ; qtot 34.115031
 1016         h1     34    bbb    H17   1016 0.13554100   1.008000   ; qtot 34.250572
 1017         h1     34    bbb    H18   1017 0.13554100   1.008000   ; qtot 34.386113
 1018         os     34    bbb     O1   1018 -0.62587700  16.000000   ; qtot 33.760236
 1019         hn     34    bbb    H19   1019 0.23982500   1.008000   ; qtot 34.000061
; residue   35 bbb rtp bbb q 1.0
 1020         n4     35    bbb     N1   1020 0.03726400  14.010000   ; qtot 34.037325
 1021         c3     35    bbb     C1   1021 -0.07020100  12.010000   ; qtot 33.967124
 1022         hx     35    bbb     H1   1022 0.12219000   1.008000   ; qtot 34.089314
 1023         hx     35    bbb     H2   1023 0.12219000   1.008000   ; qtot 34.211504
 1024         c3     35    bbb     C2   1024 -0.07020100  12.010000   ; qtot 34.141303
 1025         hx     35    bbb     H3   1025 0.12219000   1.008000   ; qtot 34.263493
 1026         hx     35    bbb     H4   1026 0.12219000   1.008000   ; qtot 34.385683
 1027         c3     35    bbb     C3   1027 -0.39007700  12.010000   ; qtot 33.995606
 1028         hx     35    bbb     H5   1028 0.14940300   1.008000   ; qtot 34.145009
 1029         hx     35    bbb     H6   1029 0.14940300   1.008000   ; qtot 34.294412
 1030         c3     35    bbb     C4   1030 0.18057300  12.010000   ; qtot 34.474985
 1031         hc     35    bbb     H7   1031 0.01788900   1.008000   ; qtot 34.492874
 1032         hc     35    bbb     H8   1032 0.01788900   1.008000   ; qtot 34.510763
 1033         c3     35    bbb     C5   1033 -0.11337700  12.010000   ; qtot 34.397386
 1034         hc     35    bbb     H9   1034 0.09515400   1.008000   ; qtot 34.492540
 1035         hc     35    bbb    H10   1035 0.09515400   1.008000   ; qtot 34.587694
 1036         c3     35    bbb     C6   1036 -0.11337700  12.010000   ; qtot 34.474317
 1037         hc     35    bbb    H11   1037 0.09515400   1.008000   ; qtot 34.569471
 1038         hc     35    bbb    H12   1038 0.09515400   1.008000   ; qtot 34.664625
 1039         c3     35    bbb     C7   1039 0.21842400  12.010000   ; qtot 34.883049
 1040         h1     35    bbb    H13   1040 0.04500300   1.008000   ; qtot 34.928052
 1041         h1     35    bbb    H14   1041 0.04500300   1.008000   ; qtot 34.973055
 1042         c3     35    bbb     C8   1042 -0.06455200  12.010000   ; qtot 34.908503
 1043         h1     35    bbb    H15   1043 0.13554100   1.008000   ; qtot 35.044044
 1044         h1     35    bbb    H16   1044 0.13554100   1.008000   ; qtot 35.179585
 1045         c3     35    bbb     C9   1045 -0.06455200  12.010000   ; qtot 35.115033
 1046         h1     35    bbb    H17   1046 0.13554100   1.008000   ; qtot 35.250574
 1047         h1     35    bbb    H18   1047 0.13554100   1.008000   ; qtot 35.386115
 1048         os     35    bbb     O1   1048 -0.62587700  16.000000   ; qtot 34.760238
 1049         hn     35    bbb    H19   1049 0.23982500   1.008000   ; qtot 35.000063
; residue   36 bbb rtp bbb q 1.0
 1050         n4     36    bbb     N1   1050 0.03726400  14.010000   ; qtot 35.037327
 1051         c3     36    bbb     C1   1051 -0.07020100  12.010000   ; qtot 34.967126
 1052         hx     36    bbb     H1   1052 0.12219000   1.008000   ; qtot 35.089316
 1053         hx     36    bbb     H2   1053 0.12219000   1.008000   ; qtot 35.211506
 1054         c3     36    bbb     C2   1054 -0.07020100  12.010000   ; qtot 35.141305
 1055         hx     36    bbb     H3   1055 0.12219000   1.008000   ; qtot 35.263495
 1056         hx     36    bbb     H4   1056 0.12219000   1.008000   ; qtot 35.385685
 1057         c3     36    bbb     C3   1057 -0.39007700  12.010000   ; qtot 34.995608
 1058         hx     36    bbb     H5   1058 0.14940300   1.008000   ; qtot 35.145011
 1059         hx     36    bbb     H6   1059 0.14940300   1.008000   ; qtot 35.294414
 1060         c3     36    bbb     C4   1060 0.18057300  12.010000   ; qtot 35.474987
 1061         hc     36    bbb     H7   1061 0.01788900   1.008000   ; qtot 35.492876
 1062         hc     36    bbb     H8   1062 0.01788900   1.008000   ; qtot 35.510765
 1063         c3     36    bbb     C5   1063 -0.11337700  12.010000   ; qtot 35.397388
 1064         hc     36    bbb     H9   1064 0.09515400   1.008000   ; qtot 35.492542
 1065         hc     36    bbb    H10   1065 0.09515400   1.008000   ; qtot 35.587696
 1066         c3     36    bbb     C6   1066 -0.11337700  12.010000   ; qtot 35.474319
 1067         hc     36    bbb    H11   1067 0.09515400   1.008000   ; qtot 35.569473
 1068         hc     36    bbb    H12   1068 0.09515400   1.008000   ; qtot 35.664627
 1069         c3     36    bbb     C7   1069 0.21842400  12.010000   ; qtot 35.883051
 1070         h1     36    bbb    H13   1070 0.04500300   1.008000   ; qtot 35.928054
 1071         h1     36    bbb    H14   1071 0.04500300   1.008000   ; qtot 35.973057
 1072         c3     36    bbb     C8   1072 -0.06455200  12.010000   ; qtot 35.908505
 1073         h1     36    bbb    H15   1073 0.13554100   1.008000   ; qtot 36.044046
 1074         h1     36    bbb    H16   1074 0.13554100   1.008000   ; qtot 36.179587
 1075         c3     36    bbb     C9   1075 -0.06455200  12.010000   ; qtot 36.115035
 1076         h1     36    bbb    H17   1076 0.13554100   1.008000   ; qtot 36.250576
 1077         h1     36    bbb    H18   1077 0.13554100   1.008000   ; qtot 36.386117
 1078         os     36    bbb     O1   1078 -0.62587700  16.000000   ; qtot 35.760240
 1079         hn     36    bbb    H19   1079 0.23982500   1.008000   ; qtot 36.000065
; residue   37 bbb rtp bbb q 1.0
 1080         n4     37    bbb     N1   1080 0.03726400  14.010000   ; qtot 36.037329
 1081         c3     37    bbb     C1   1081 -0.07020100  12.010000   ; qtot 35.967128
 1082         hx     37    bbb     H1   1082 0.12219000   1.008000   ; qtot 36.089318
 1083         hx     37    bbb     H2   1083 0.12219000   1.008000   ; qtot 36.211508
 1084         c3     37    bbb     C2   1084 -0.07020100  12.010000   ; qtot 36.141307
 1085         hx     37    bbb     H3   1085 0.12219000   1.008000   ; qtot 36.263497
 1086         hx     37    bbb     H4   1086 0.12219000   1.008000   ; qtot 36.385687
 1087         c3     37    bbb     C3   1087 -0.39007700  12.010000   ; qtot 35.995610
 1088         hx     37    bbb     H5   1088 0.14940300   1.008000   ; qtot 36.145013
 1089         hx     37    bbb     H6   1089 0.14940300   1.008000   ; qtot 36.294416
 1090         c3     37    bbb     C4   1090 0.18057300  12.010000   ; qtot 36.474989
 1091         hc     37    bbb     H7   1091 0.01788900   1.008000   ; qtot 36.492878
 1092         hc     37    bbb     H8   1092 0.01788900   1.008000   ; qtot 36.510767
 1093         c3     37    bbb     C5   1093 -0.11337700  12.010000   ; qtot 36.397390
 1094         hc     37    bbb     H9   1094 0.09515400   1.008000   ; qtot 36.492544
 1095         hc     37    bbb    H10   1095 0.09515400   1.008000   ; qtot 36.587698
 1096         c3     37    bbb     C6   1096 -0.11337700  12.010000   ; qtot 36.474321
 1097         hc     37    bbb    H11   1097 0.09515400   1.008000   ; qtot 36.569475
 1098         hc     37    bbb    H12   1098 0.09515400   1.008000   ; qtot 36.664629
 1099         c3     37    bbb     C7   1099 0.21842400  12.010000   ; qtot 36.883053
 1100         h1     37    bbb    H13   1100 0.04500300   1.008000   ; qtot 36.928056
 1101         h1     37    bbb    H14   1101 0.04500300   1.008000   ; qtot 36.973059
 1102         c3     37    bbb     C8   1102 -0.06455200  12.010000   ; qtot 36.908507
 1103         h1     37    bbb    H15   1103 0.13554100   1.008000   ; qtot 37.044048
 1104         h1     37    bbb    H16   1104 0.13554100   1.008000   ; qtot 37.179589
 1105         c3     37    bbb     C9   1105 -0.06455200  12.010000   ; qtot 37.115037
 1106         h1     37    bbb    H17   1106 0.13554100   1.008000   ; qtot 37.250578
 1107         h1     37    bbb    H18   1107 0.13554100   1.008000   ; qtot 37.386119
 1108         os     37    bbb     O1   1108 -0.62587700  16.000000   ; qtot 36.760242
 1109         hn     37    bbb    H19   1109 0.23982500   1.008000   ; qtot 37.000067
; residue   38 bbb rtp bbb q 1.0
 1110         n4     38    bbb     N1   1110 0.03726400  14.010000   ; qtot 37.037331
 1111         c3     38    bbb     C1   1111 -0.07020100  12.010000   ; qtot 36.967130
 1112         hx     38    bbb     H1   1112 0.12219000   1.008000   ; qtot 37.089320
 1113         hx     38    bbb     H2   1113 0.12219000   1.008000   ; qtot 37.211510
 1114         c3     38    bbb     C2   1114 -0.07020100  12.010000   ; qtot 37.141309
 1115         hx     38    bbb     H3   1115 0.12219000   1.008000   ; qtot 37.263499
 1116         hx     38    bbb     H4   1116 0.12219000   1.008000   ; qtot 37.385689
 1117         c3     38    bbb     C3   1117 -0.39007700  12.010000   ; qtot 36.995612
 1118         hx     38    bbb     H5   1118 0.14940300   1.008000   ; qtot 37.145015
 1119         hx     38    bbb     H6   1119 0.14940300   1.008000   ; qtot 37.294418
 1120         c3     38    bbb     C4   1120 0.18057300  12.010000   ; qtot 37.474991
 1121         hc     38    bbb     H7   1121 0.01788900   1.008000   ; qtot 37.492880
 1122         hc     38    bbb     H8   1122 0.01788900   1.008000   ; qtot 37.510769
 1123         c3     38    bbb     C5   1123 -0.11337700  12.010000   ; qtot 37.397392
 1124         hc     38    bbb     H9   1124 0.09515400   1.008000   ; qtot 37.492546
 1125         hc     38    bbb    H10   1125 0.09515400   1.008000   ; qtot 37.587700
 1126         c3     38    bbb     C6   1126 -0.11337700  12.010000   ; qtot 37.474323
 1127         hc     38    bbb    H11   1127 0.09515400   1.008000   ; qtot 37.569477
 1128         hc     38    bbb    H12   1128 0.09515400   1.008000   ; qtot 37.664631
 1129         c3     38    bbb     C7   1129 0.21842400  12.010000   ; qtot 37.883055
 1130         h1     38    bbb    H13   1130 0.04500300   1.008000   ; qtot 37.928058
 1131         h1     38    bbb    H14   1131 0.04500300   1.008000   ; qtot 37.973061
 1132         c3     38    bbb     C8   1132 -0.06455200  12.010000   ; qtot 37.908509
 1133         h1     38    bbb    H15   1133 0.13554100   1.008000   ; qtot 38.044050
 1134         h1     38    bbb    H16   1134 0.13554100   1.008000   ; qtot 38.179591
 1135         c3     38    bbb     C9   1135 -0.06455200  12.010000   ; qtot 38.115039
 1136         h1     38    bbb    H17   1136 0.13554100   1.008000   ; qtot 38.250580
 1137         h1     38    bbb    H18   1137 0.13554100   1.008000   ; qtot 38.386121
 1138         os     38    bbb     O1   1138 -0.62587700  16.000000   ; qtot 37.760244
 1139         hn     38    bbb    H19   1139 0.23982500   1.008000   ; qtot 38.000069
; residue   39 bbb rtp bbb q 1.0
 1140         n4     39    bbb     N1   1140 0.03726400  14.010000   ; qtot 38.037333
 1141         c3     39    bbb     C1   1141 -0.07020100  12.010000   ; qtot 37.967132
 1142         hx     39    bbb     H1   1142 0.12219000   1.008000   ; qtot 38.089322
 1143         hx     39    bbb     H2   1143 0.12219000   1.008000   ; qtot 38.211512
 1144         c3     39    bbb     C2   1144 -0.07020100  12.010000   ; qtot 38.141311
 1145         hx     39    bbb     H3   1145 0.12219000   1.008000   ; qtot 38.263501
 1146         hx     39    bbb     H4   1146 0.12219000   1.008000   ; qtot 38.385691
 1147         c3     39    bbb     C3   1147 -0.39007700  12.010000   ; qtot 37.995614
 1148         hx     39    bbb     H5   1148 0.14940300   1.008000   ; qtot 38.145017
 1149         hx     39    bbb     H6   1149 0.14940300   1.008000   ; qtot 38.294420
 1150         c3     39    bbb     C4   1150 0.18057300  12.010000   ; qtot 38.474993
 1151         hc     39    bbb     H7   1151 0.01788900   1.008000   ; qtot 38.492882
 1152         hc     39    bbb     H8   1152 0.01788900   1.008000   ; qtot 38.510771
 1153         c3     39    bbb     C5   1153 -0.11337700  12.010000   ; qtot 38.397394
 1154         hc     39    bbb     H9   1154 0.09515400   1.008000   ; qtot 38.492548
 1155         hc     39    bbb    H10   1155 0.09515400   1.008000   ; qtot 38.587702
 1156         c3     39    bbb     C6   1156 -0.11337700  12.010000   ; qtot 38.474325
 1157         hc     39    bbb    H11   1157 0.09515400   1.008000   ; qtot 38.569479
 1158         hc     39    bbb    H12   1158 0.09515400   1.008000   ; qtot 38.664633
 1159         c3     39    bbb     C7   1159 0.21842400  12.010000   ; qtot 38.883057
 1160         h1     39    bbb    H13   1160 0.04500300   1.008000   ; qtot 38.928060
 1161         h1     39    bbb    H14   1161 0.04500300   1.008000   ; qtot 38.973063
 1162         c3     39    bbb     C8   1162 -0.06455200  12.010000   ; qtot 38.908511
 1163         h1     39    bbb    H15   1163 0.13554100   1.008000   ; qtot 39.044052
 1164         h1     39    bbb    H16   1164 0.13554100   1.008000   ; qtot 39.179593
 1165         c3     39    bbb     C9   1165 -0.06455200  12.010000   ; qtot 39.115041
 1166         h1     39    bbb    H17   1166 0.13554100   1.008000   ; qtot 39.250582
 1167         h1     39    bbb    H18   1167 0.13554100   1.008000   ; qtot 39.386123
 1168         os     39    bbb     O1   1168 -0.62587700  16.000000   ; qtot 38.760246
 1169         hn     39    bbb    H19   1169 0.23982500   1.008000   ; qtot 39.000071
; residue   40 bbb rtp bbb q 1.0
 1170         n4     40    bbb     N1   1170 0.03726400  14.010000   ; qtot 39.037335
 1171         c3     40    bbb     C1   1171 -0.07020100  12.010000   ; qtot 38.967134
 1172         hx     40    bbb     H1   1172 0.12219000   1.008000   ; qtot 39.089324
 1173         hx     40    bbb     H2   1173 0.12219000   1.008000   ; qtot 39.211514
 1174         c3     40    bbb     C2   1174 -0.07020100  12.010000   ; qtot 39.141313
 1175         hx     40    bbb     H3   1175 0.12219000   1.008000   ; qtot 39.263503
 1176         hx     40    bbb     H4   1176 0.12219000   1.008000   ; qtot 39.385693
 1177         c3     40    bbb     C3   1177 -0.39007700  12.010000   ; qtot 38.995616
 1178         hx     40    bbb     H5   1178 0.14940300   1.008000   ; qtot 39.145019
 1179         hx     40    bbb     H6   1179 0.14940300   1.008000   ; qtot 39.294422
 1180         c3     40    bbb     C4   1180 0.18057300  12.010000   ; qtot 39.474995
 1181         hc     40    bbb     H7   1181 0.01788900   1.008000   ; qtot 39.492884
 1182         hc     40    bbb     H8   1182 0.01788900   1.008000   ; qtot 39.510773
 1183         c3     40    bbb     C5   1183 -0.11337700  12.010000   ; qtot 39.397396
 1184         hc     40    bbb     H9   1184 0.09515400   1.008000   ; qtot 39.492550
 1185         hc     40    bbb    H10   1185 0.09515400   1.008000   ; qtot 39.587704
 1186         c3     40    bbb     C6   1186 -0.11337700  12.010000   ; qtot 39.474327
 1187         hc     40    bbb    H11   1187 0.09515400   1.008000   ; qtot 39.569481
 1188         hc     40    bbb    H12   1188 0.09515400   1.008000   ; qtot 39.664635
 1189         c3     40    bbb     C7   1189 0.21842400  12.010000   ; qtot 39.883059
 1190         h1     40    bbb    H13   1190 0.04500300   1.008000   ; qtot 39.928062
 1191         h1     40    bbb    H14   1191 0.04500300   1.008000   ; qtot 39.973065
 1192         c3     40    bbb     C8   1192 -0.06455200  12.010000   ; qtot 39.908513
 1193         h1     40    bbb    H15   1193 0.13554100   1.008000   ; qtot 40.044054
 1194         h1     40    bbb    H16   1194 0.13554100   1.008000   ; qtot 40.179595
 1195         c3     40    bbb     C9   1195 -0.06455200  12.010000   ; qtot 40.115043
 1196         h1     40    bbb    H17   1196 0.13554100   1.008000   ; qtot 40.250584
 1197         h1     40    bbb    H18   1197 0.13554100   1.008000   ; qtot 40.386125
 1198         os     40    bbb     O1   1198 -0.62587700  16.000000   ; qtot 39.760248
 1199         hn     40    bbb    H19   1199 0.23982500   1.008000   ; qtot 40.000073
; residue   41 bbb rtp bbb q 1.0
 1200         n4     41    bbb     N1   1200 0.03726400  14.010000   ; qtot 40.037337
 1201         c3     41    bbb     C1   1201 -0.07020100  12.010000   ; qtot 39.967136
 1202         hx     41    bbb     H1   1202 0.12219000   1.008000   ; qtot 40.089326
 1203         hx     41    bbb     H2   1203 0.12219000   1.008000   ; qtot 40.211516
 1204         c3     41    bbb     C2   1204 -0.07020100  12.010000   ; qtot 40.141315
 1205         hx     41    bbb     H3   1205 0.12219000   1.008000   ; qtot 40.263505
 1206         hx     41    bbb     H4   1206 0.12219000   1.008000   ; qtot 40.385695
 1207         c3     41    bbb     C3   1207 -0.39007700  12.010000   ; qtot 39.995618
 1208         hx     41    bbb     H5   1208 0.14940300   1.008000   ; qtot 40.145021
 1209         hx     41    bbb     H6   1209 0.14940300   1.008000   ; qtot 40.294424
 1210         c3     41    bbb     C4   1210 0.18057300  12.010000   ; qtot 40.474997
 1211         hc     41    bbb     H7   1211 0.01788900   1.008000   ; qtot 40.492886
 1212         hc     41    bbb     H8   1212 0.01788900   1.008000   ; qtot 40.510775
 1213         c3     41    bbb     C5   1213 -0.11337700  12.010000   ; qtot 40.397398
 1214         hc     41    bbb     H9   1214 0.09515400   1.008000   ; qtot 40.492552
 1215         hc     41    bbb    H10   1215 0.09515400   1.008000   ; qtot 40.587706
 1216         c3     41    bbb     C6   1216 -0.11337700  12.010000   ; qtot 40.474329
 1217         hc     41    bbb    H11   1217 0.09515400   1.008000   ; qtot 40.569483
 1218         hc     41    bbb    H12   1218 0.09515400   1.008000   ; qtot 40.664637
 1219         c3     41    bbb     C7   1219 0.21842400  12.010000   ; qtot 40.883061
 1220         h1     41    bbb    H13   1220 0.04500300   1.008000   ; qtot 40.928064
 1221         h1     41    bbb    H14   1221 0.04500300   1.008000   ; qtot 40.973067
 1222         c3     41    bbb     C8   1222 -0.06455200  12.010000   ; qtot 40.908515
 1223         h1     41    bbb    H15   1223 0.13554100   1.008000   ; qtot 41.044056
 1224         h1     41    bbb    H16   1224 0.13554100   1.008000   ; qtot 41.179597
 1225         c3     41    bbb     C9   1225 -0.06455200  12.010000   ; qtot 41.115045
 1226         h1     41    bbb    H17   1226 0.13554100   1.008000   ; qtot 41.250586
 1227         h1     41    bbb    H18   1227 0.13554100   1.008000   ; qtot 41.386127
 1228         os     41    bbb     O1   1228 -0.62587700  16.000000   ; qtot 40.760250
 1229         hn     41    bbb    H19   1229 0.23982500   1.008000   ; qtot 41.000075
; residue   42 bbb rtp bbb q 1.0
 1230         n4     42    bbb     N1   1230 0.03726400  14.010000   ; qtot 41.037339
 1231         c3     42    bbb     C1   1231 -0.07020100  12.010000   ; qtot 40.967138
 1232         hx     42    bbb     H1   1232 0.12219000   1.008000   ; qtot 41.089328
 1233         hx     42    bbb     H2   1233 0.12219000   1.008000   ; qtot 41.211518
 1234         c3     42    bbb     C2   1234 -0.07020100  12.010000   ; qtot 41.141317
 1235         hx     42    bbb     H3   1235 0.12219000   1.008000   ; qtot 41.263507
 1236         hx     42    bbb     H4   1236 0.12219000   1.008000   ; qtot 41.385697
 1237         c3     42    bbb     C3   1237 -0.39007700  12.010000   ; qtot 40.995620
 1238         hx     42    bbb     H5   1238 0.14940300   1.008000   ; qtot 41.145023
 1239         hx     42    bbb     H6   1239 0.14940300   1.008000   ; qtot 41.294426
 1240         c3     42    bbb     C4   1240 0.18057300  12.010000   ; qtot 41.474999
 1241         hc     42    bbb     H7   1241 0.01788900   1.008000   ; qtot 41.492888
 1242         hc     42    bbb     H8   1242 0.01788900   1.008000   ; qtot 41.510777
 1243         c3     42    bbb     C5   1243 -0.11337700  12.010000   ; qtot 41.397400
 1244         hc     42    bbb     H9   1244 0.09515400   1.008000   ; qtot 41.492554
 1245         hc     42    bbb    H10   1245 0.09515400   1.008000   ; qtot 41.587708
 1246         c3     42    bbb     C6   1246 -0.11337700  12.010000   ; qtot 41.474331
 1247         hc     42    bbb    H11   1247 0.09515400   1.008000   ; qtot 41.569485
 1248         hc     42    bbb    H12   1248 0.09515400   1.008000   ; qtot 41.664639
 1249         c3     42    bbb     C7   1249 0.21842400  12.010000   ; qtot 41.883063
 1250         h1     42    bbb    H13   1250 0.04500300   1.008000   ; qtot 41.928066
 1251         h1     42    bbb    H14   1251 0.04500300   1.008000   ; qtot 41.973069
 1252         c3     42    bbb     C8   1252 -0.06455200  12.010000   ; qtot 41.908517
 1253         h1     42    bbb    H15   1253 0.13554100   1.008000   ; qtot 42.044058
 1254         h1     42    bbb    H16   1254 0.13554100   1.008000   ; qtot 42.179599
 1255         c3     42    bbb     C9   1255 -0.06455200  12.010000   ; qtot 42.115047
 1256         h1     42    bbb    H17   1256 0.13554100   1.008000   ; qtot 42.250588
 1257         h1     42    bbb    H18   1257 0.13554100   1.008000   ; qtot 42.386129
 1258         os     42    bbb     O1   1258 -0.62587700  16.000000   ; qtot 41.760252
 1259         hn     42    bbb    H19   1259 0.23982500   1.008000   ; qtot 42.000077
; residue   43 bbb rtp bbb q 1.0
 1260         n4     43    bbb     N1   1260 0.03726400  14.010000   ; qtot 42.037341
 1261         c3     43    bbb     C1   1261 -0.07020100  12.010000   ; qtot 41.967140
 1262         hx     43    bbb     H1   1262 0.12219000   1.008000   ; qtot 42.089330
 1263         hx     43    bbb     H2   1263 0.12219000   1.008000   ; qtot 42.211520
 1264         c3     43    bbb     C2   1264 -0.07020100  12.010000   ; qtot 42.141319
 1265         hx     43    bbb     H3   1265 0.12219000   1.008000   ; qtot 42.263509
 1266         hx     43    bbb     H4   1266 0.12219000   1.008000   ; qtot 42.385699
 1267         c3     43    bbb     C3   1267 -0.39007700  12.010000   ; qtot 41.995622
 1268         hx     43    bbb     H5   1268 0.14940300   1.008000   ; qtot 42.145025
 1269         hx     43    bbb     H6   1269 0.14940300   1.008000   ; qtot 42.294428
 1270         c3     43    bbb     C4   1270 0.18057300  12.010000   ; qtot 42.475001
 1271         hc     43    bbb     H7   1271 0.01788900   1.008000   ; qtot 42.492890
 1272         hc     43    bbb     H8   1272 0.01788900   1.008000   ; qtot 42.510779
 1273         c3     43    bbb     C5   1273 -0.11337700  12.010000   ; qtot 42.397402
 1274         hc     43    bbb     H9   1274 0.09515400   1.008000   ; qtot 42.492556
 1275         hc     43    bbb    H10   1275 0.09515400   1.008000   ; qtot 42.587710
 1276         c3     43    bbb     C6   1276 -0.11337700  12.010000   ; qtot 42.474333
 1277         hc     43    bbb    H11   1277 0.09515400   1.008000   ; qtot 42.569487
 1278         hc     43    bbb    H12   1278 0.09515400   1.008000   ; qtot 42.664641
 1279         c3     43    bbb     C7   1279 0.21842400  12.010000   ; qtot 42.883065
 1280         h1     43    bbb    H13   1280 0.04500300   1.008000   ; qtot 42.928068
 1281         h1     43    bbb    H14   1281 0.04500300   1.008000   ; qtot 42.973071
 1282         c3     43    bbb     C8   1282 -0.06455200  12.010000   ; qtot 42.908519
 1283         h1     43    bbb    H15   1283 0.13554100   1.008000   ; qtot 43.044060
 1284         h1     43    bbb    H16   1284 0.13554100   1.008000   ; qtot 43.179601
 1285         c3     43    bbb     C9   1285 -0.06455200  12.010000   ; qtot 43.115049
 1286         h1     43    bbb    H17   1286 0.13554100   1.008000   ; qtot 43.250590
 1287         h1     43    bbb    H18   1287 0.13554100   1.008000   ; qtot 43.386131
 1288         os     43    bbb     O1   1288 -0.62587700  16.000000   ; qtot 42.760254
 1289         hn     43    bbb    H19   1289 0.23982500   1.008000   ; qtot 43.000079
; residue   44 bbb rtp bbb q 1.0
 1290         n4     44    bbb     N1   1290 0.03726400  14.010000   ; qtot 43.037343
 1291         c3     44    bbb     C1   1291 -0.07020100  12.010000   ; qtot 42.967142
 1292         hx     44    bbb     H1   1292 0.12219000   1.008000   ; qtot 43.089332
 1293         hx     44    bbb     H2   1293 0.12219000   1.008000   ; qtot 43.211522
 1294         c3     44    bbb     C2   1294 -0.07020100  12.010000   ; qtot 43.141321
 1295         hx     44    bbb     H3   1295 0.12219000   1.008000   ; qtot 43.263511
 1296         hx     44    bbb     H4   1296 0.12219000   1.008000   ; qtot 43.385701
 1297         c3     44    bbb     C3   1297 -0.39007700  12.010000   ; qtot 42.995624
 1298         hx     44    bbb     H5   1298 0.14940300   1.008000   ; qtot 43.145027
 1299         hx     44    bbb     H6   1299 0.14940300   1.008000   ; qtot 43.294430
 1300         c3     44    bbb     C4   1300 0.18057300  12.010000   ; qtot 43.475003
 1301         hc     44    bbb     H7   1301 0.01788900   1.008000   ; qtot 43.492892
 1302         hc     44    bbb     H8   1302 0.01788900   1.008000   ; qtot 43.510781
 1303         c3     44    bbb     C5   1303 -0.11337700  12.010000   ; qtot 43.397404
 1304         hc     44    bbb     H9   1304 0.09515400   1.008000   ; qtot 43.492558
 1305         hc     44    bbb    H10   1305 0.09515400   1.008000   ; qtot 43.587712
 1306         c3     44    bbb     C6   1306 -0.11337700  12.010000   ; qtot 43.474335
 1307         hc     44    bbb    H11   1307 0.09515400   1.008000   ; qtot 43.569489
 1308         hc     44    bbb    H12   1308 0.09515400   1.008000   ; qtot 43.664643
 1309         c3     44    bbb     C7   1309 0.21842400  12.010000   ; qtot 43.883067
 1310         h1     44    bbb    H13   1310 0.04500300   1.008000   ; qtot 43.928070
 1311         h1     44    bbb    H14   1311 0.04500300   1.008000   ; qtot 43.973073
 1312         c3     44    bbb     C8   1312 -0.06455200  12.010000   ; qtot 43.908521
 1313         h1     44    bbb    H15   1313 0.13554100   1.008000   ; qtot 44.044062
 1314         h1     44    bbb    H16   1314 0.13554100   1.008000   ; qtot 44.179603
 1315         c3     44    bbb     C9   1315 -0.06455200  12.010000   ; qtot 44.115051
 1316         h1     44    bbb    H17   1316 0.13554100   1.008000   ; qtot 44.250592
 1317         h1     44    bbb    H18   1317 0.13554100   1.008000   ; qtot 44.386133
 1318         os     44    bbb     O1   1318 -0.62587700  16.000000   ; qtot 43.760256
 1319         hn     44    bbb    H19   1319 0.23982500   1.008000   ; qtot 44.000081
; residue   45 bbb rtp bbb q 1.0
 1320         n4     45    bbb     N1   1320 0.03726400  14.010000   ; qtot 44.037345
 1321         c3     45    bbb     C1   1321 -0.07020100  12.010000   ; qtot 43.967144
 1322         hx     45    bbb     H1   1322 0.12219000   1.008000   ; qtot 44.089334
 1323         hx     45    bbb     H2   1323 0.12219000   1.008000   ; qtot 44.211524
 1324         c3     45    bbb     C2   1324 -0.07020100  12.010000   ; qtot 44.141323
 1325         hx     45    bbb     H3   1325 0.12219000   1.008000   ; qtot 44.263513
 1326         hx     45    bbb     H4   1326 0.12219000   1.008000   ; qtot 44.385703
 1327         c3     45    bbb     C3   1327 -0.39007700  12.010000   ; qtot 43.995626
 1328         hx     45    bbb     H5   1328 0.14940300   1.008000   ; qtot 44.145029
 1329         hx     45    bbb     H6   1329 0.14940300   1.008000   ; qtot 44.294432
 1330         c3     45    bbb     C4   1330 0.18057300  12.010000   ; qtot 44.475005
 1331         hc     45    bbb     H7   1331 0.01788900   1.008000   ; qtot 44.492894
 1332         hc     45    bbb     H8   1332 0.01788900   1.008000   ; qtot 44.510783
 1333         c3     45    bbb     C5   1333 -0.11337700  12.010000   ; qtot 44.397406
 1334         hc     45    bbb     H9   1334 0.09515400   1.008000   ; qtot 44.492560
 1335         hc     45    bbb    H10   1335 0.09515400   1.008000   ; qtot 44.587714
 1336         c3     45    bbb     C6   1336 -0.11337700  12.010000   ; qtot 44.474337
 1337         hc     45    bbb    H11   1337 0.09515400   1.008000   ; qtot 44.569491
 1338         hc     45    bbb    H12   1338 0.09515400   1.008000   ; qtot 44.664645
 1339         c3     45    bbb     C7   1339 0.21842400  12.010000   ; qtot 44.883069
 1340         h1     45    bbb    H13   1340 0.04500300   1.008000   ; qtot 44.928072
 1341         h1     45    bbb    H14   1341 0.04500300   1.008000   ; qtot 44.973075
 1342         c3     45    bbb     C8   1342 -0.06455200  12.010000   ; qtot 44.908523
 1343         h1     45    bbb    H15   1343 0.13554100   1.008000   ; qtot 45.044064
 1344         h1     45    bbb    H16   1344 0.13554100   1.008000   ; qtot 45.179605
 1345         c3     45    bbb     C9   1345 -0.06455200  12.010000   ; qtot 45.115053
 1346         h1     45    bbb    H17   1346 0.13554100   1.008000   ; qtot 45.250594
 1347         h1     45    bbb    H18   1347 0.13554100   1.008000   ; qtot 45.386135
 1348         os     45    bbb     O1   1348 -0.62587700  16.000000   ; qtot 44.760258
 1349         hn     45    bbb    H19   1349 0.23982500   1.008000   ; qtot 45.000083
; residue   46 bbb rtp bbb q 1.0
 1350         n4     46    bbb     N1   1350 0.03726400  14.010000   ; qtot 45.037347
 1351         c3     46    bbb     C1   1351 -0.07020100  12.010000   ; qtot 44.967146
 1352         hx     46    bbb     H1   1352 0.12219000   1.008000   ; qtot 45.089336
 1353         hx     46    bbb     H2   1353 0.12219000   1.008000   ; qtot 45.211526
 1354         c3     46    bbb     C2   1354 -0.07020100  12.010000   ; qtot 45.141325
 1355         hx     46    bbb     H3   1355 0.12219000   1.008000   ; qtot 45.263515
 1356         hx     46    bbb     H4   1356 0.12219000   1.008000   ; qtot 45.385705
 1357         c3     46    bbb     C3   1357 -0.39007700  12.010000   ; qtot 44.995628
 1358         hx     46    bbb     H5   1358 0.14940300   1.008000   ; qtot 45.145031
 1359         hx     46    bbb     H6   1359 0.14940300   1.008000   ; qtot 45.294434
 1360         c3     46    bbb     C4   1360 0.18057300  12.010000   ; qtot 45.475007
 1361         hc     46    bbb     H7   1361 0.01788900   1.008000   ; qtot 45.492896
 1362         hc     46    bbb     H8   1362 0.01788900   1.008000   ; qtot 45.510785
 1363         c3     46    bbb     C5   1363 -0.11337700  12.010000   ; qtot 45.397408
 1364         hc     46    bbb     H9   1364 0.09515400   1.008000   ; qtot 45.492562
 1365         hc     46    bbb    H10   1365 0.09515400   1.008000   ; qtot 45.587716
 1366         c3     46    bbb     C6   1366 -0.11337700  12.010000   ; qtot 45.474339
 1367         hc     46    bbb    H11   1367 0.09515400   1.008000   ; qtot 45.569493
 1368         hc     46    bbb    H12   1368 0.09515400   1.008000   ; qtot 45.664647
 1369         c3     46    bbb     C7   1369 0.21842400  12.010000   ; qtot 45.883071
 1370         h1     46    bbb    H13   1370 0.04500300   1.008000   ; qtot 45.928074
 1371         h1     46    bbb    H14   1371 0.04500300   1.008000   ; qtot 45.973077
 1372         c3     46    bbb     C8   1372 -0.06455200  12.010000   ; qtot 45.908525
 1373         h1     46    bbb    H15   1373 0.13554100   1.008000   ; qtot 46.044066
 1374         h1     46    bbb    H16   1374 0.13554100   1.008000   ; qtot 46.179607
 1375         c3     46    bbb     C9   1375 -0.06455200  12.010000   ; qtot 46.115055
 1376         h1     46    bbb    H17   1376 0.13554100   1.008000   ; qtot 46.250596
 1377         h1     46    bbb    H18   1377 0.13554100   1.008000   ; qtot 46.386137
 1378         os     46    bbb     O1   1378 -0.62587700  16.000000   ; qtot 45.760260
 1379         hn     46    bbb    H19   1379 0.23982500   1.008000   ; qtot 46.000085
; residue   47 bbb rtp bbb q 1.0
 1380         n4     47    bbb     N1   1380 0.03726400  14.010000   ; qtot 46.037349
 1381         c3     47    bbb     C1   1381 -0.07020100  12.010000   ; qtot 45.967148
 1382         hx     47    bbb     H1   1382 0.12219000   1.008000   ; qtot 46.089338
 1383         hx     47    bbb     H2   1383 0.12219000   1.008000   ; qtot 46.211528
 1384         c3     47    bbb     C2   1384 -0.07020100  12.010000   ; qtot 46.141327
 1385         hx     47    bbb     H3   1385 0.12219000   1.008000   ; qtot 46.263517
 1386         hx     47    bbb     H4   1386 0.12219000   1.008000   ; qtot 46.385707
 1387         c3     47    bbb     C3   1387 -0.39007700  12.010000   ; qtot 45.995630
 1388         hx     47    bbb     H5   1388 0.14940300   1.008000   ; qtot 46.145033
 1389         hx     47    bbb     H6   1389 0.14940300   1.008000   ; qtot 46.294436
 1390         c3     47    bbb     C4   1390 0.18057300  12.010000   ; qtot 46.475009
 1391         hc     47    bbb     H7   1391 0.01788900   1.008000   ; qtot 46.492898
 1392         hc     47    bbb     H8   1392 0.01788900   1.008000   ; qtot 46.510787
 1393         c3     47    bbb     C5   1393 -0.11337700  12.010000   ; qtot 46.397410
 1394         hc     47    bbb     H9   1394 0.09515400   1.008000   ; qtot 46.492564
 1395         hc     47    bbb    H10   1395 0.09515400   1.008000   ; qtot 46.587718
 1396         c3     47    bbb     C6   1396 -0.11337700  12.010000   ; qtot 46.474341
 1397         hc     47    bbb    H11   1397 0.09515400   1.008000   ; qtot 46.569495
 1398         hc     47    bbb    H12   1398 0.09515400   1.008000   ; qtot 46.664649
 1399         c3     47    bbb     C7   1399 0.21842400  12.010000   ; qtot 46.883073
 1400         h1     47    bbb    H13   1400 0.04500300   1.008000   ; qtot 46.928076
 1401         h1     47    bbb    H14   1401 0.04500300   1.008000   ; qtot 46.973079
 1402         c3     47    bbb     C8   1402 -0.06455200  12.010000   ; qtot 46.908527
 1403         h1     47    bbb    H15   1403 0.13554100   1.008000   ; qtot 47.044068
 1404         h1     47    bbb    H16   1404 0.13554100   1.008000   ; qtot 47.179609
 1405         c3     47    bbb     C9   1405 -0.06455200  12.010000   ; qtot 47.115057
 1406         h1     47    bbb    H17   1406 0.13554100   1.008000   ; qtot 47.250598
 1407         h1     47    bbb    H18   1407 0.13554100   1.008000   ; qtot 47.386139
 1408         os     47    bbb     O1   1408 -0.62587700  16.000000   ; qtot 46.760262
 1409         hn     47    bbb    H19   1409 0.23982500   1.008000   ; qtot 47.000087
; residue   48 bbb rtp bbb q 1.0
 1410         n4     48    bbb     N1   1410 0.03726400  14.010000   ; qtot 47.037351
 1411         c3     48    bbb     C1   1411 -0.07020100  12.010000   ; qtot 46.967150
 1412         hx     48    bbb     H1   1412 0.12219000   1.008000   ; qtot 47.089340
 1413         hx     48    bbb     H2   1413 0.12219000   1.008000   ; qtot 47.211530
 1414         c3     48    bbb     C2   1414 -0.07020100  12.010000   ; qtot 47.141329
 1415         hx     48    bbb     H3   1415 0.12219000   1.008000   ; qtot 47.263519
 1416         hx     48    bbb     H4   1416 0.12219000   1.008000   ; qtot 47.385709
 1417         c3     48    bbb     C3   1417 -0.39007700  12.010000   ; qtot 46.995632
 1418         hx     48    bbb     H5   1418 0.14940300   1.008000   ; qtot 47.145035
 1419         hx     48    bbb     H6   1419 0.14940300   1.008000   ; qtot 47.294438
 1420         c3     48    bbb     C4   1420 0.18057300  12.010000   ; qtot 47.475011
 1421         hc     48    bbb     H7   1421 0.01788900   1.008000   ; qtot 47.492900
 1422         hc     48    bbb     H8   1422 0.01788900   1.008000   ; qtot 47.510789
 1423         c3     48    bbb     C5   1423 -0.11337700  12.010000   ; qtot 47.397412
 1424         hc     48    bbb     H9   1424 0.09515400   1.008000   ; qtot 47.492566
 1425         hc     48    bbb    H10   1425 0.09515400   1.008000   ; qtot 47.587720
 1426         c3     48    bbb     C6   1426 -0.11337700  12.010000   ; qtot 47.474343
 1427         hc     48    bbb    H11   1427 0.09515400   1.008000   ; qtot 47.569497
 1428         hc     48    bbb    H12   1428 0.09515400   1.008000   ; qtot 47.664651
 1429         c3     48    bbb     C7   1429 0.21842400  12.010000   ; qtot 47.883075
 1430         h1     48    bbb    H13   1430 0.04500300   1.008000   ; qtot 47.928078
 1431         h1     48    bbb    H14   1431 0.04500300   1.008000   ; qtot 47.973081
 1432         c3     48    bbb     C8   1432 -0.06455200  12.010000   ; qtot 47.908529
 1433         h1     48    bbb    H15   1433 0.13554100   1.008000   ; qtot 48.044070
 1434         h1     48    bbb    H16   1434 0.13554100   1.008000   ; qtot 48.179611
 1435         c3     48    bbb     C9   1435 -0.06455200  12.010000   ; qtot 48.115059
 1436         h1     48    bbb    H17   1436 0.13554100   1.008000   ; qtot 48.250600
 1437         h1     48    bbb    H18   1437 0.13554100   1.008000   ; qtot 48.386141
 1438         os     48    bbb     O1   1438 -0.62587700  16.000000   ; qtot 47.760264
 1439         hn     48    bbb    H19   1439 0.23982500   1.008000   ; qtot 48.000089
; residue   49 bbb rtp bbb q 1.0
 1440         n4     49    bbb     N1   1440 0.03726400  14.010000   ; qtot 48.037353
 1441         c3     49    bbb     C1   1441 -0.07020100  12.010000   ; qtot 47.967152
 1442         hx     49    bbb     H1   1442 0.12219000   1.008000   ; qtot 48.089342
 1443         hx     49    bbb     H2   1443 0.12219000   1.008000   ; qtot 48.211532
 1444         c3     49    bbb     C2   1444 -0.07020100  12.010000   ; qtot 48.141331
 1445         hx     49    bbb     H3   1445 0.12219000   1.008000   ; qtot 48.263521
 1446         hx     49    bbb     H4   1446 0.12219000   1.008000   ; qtot 48.385711
 1447         c3     49    bbb     C3   1447 -0.39007700  12.010000   ; qtot 47.995634
 1448         hx     49    bbb     H5   1448 0.14940300   1.008000   ; qtot 48.145037
 1449         hx     49    bbb     H6   1449 0.14940300   1.008000   ; qtot 48.294440
 1450         c3     49    bbb     C4   1450 0.18057300  12.010000   ; qtot 48.475013
 1451         hc     49    bbb     H7   1451 0.01788900   1.008000   ; qtot 48.492902
 1452         hc     49    bbb     H8   1452 0.01788900   1.008000   ; qtot 48.510791
 1453         c3     49    bbb     C5   1453 -0.11337700  12.010000   ; qtot 48.397414
 1454         hc     49    bbb     H9   1454 0.09515400   1.008000   ; qtot 48.492568
 1455         hc     49    bbb    H10   1455 0.09515400   1.008000   ; qtot 48.587722
 1456         c3     49    bbb     C6   1456 -0.11337700  12.010000   ; qtot 48.474345
 1457         hc     49    bbb    H11   1457 0.09515400   1.008000   ; qtot 48.569499
 1458         hc     49    bbb    H12   1458 0.09515400   1.008000   ; qtot 48.664653
 1459         c3     49    bbb     C7   1459 0.21842400  12.010000   ; qtot 48.883077
 1460         h1     49    bbb    H13   1460 0.04500300   1.008000   ; qtot 48.928080
 1461         h1     49    bbb    H14   1461 0.04500300   1.008000   ; qtot 48.973083
 1462         c3     49    bbb     C8   1462 -0.06455200  12.010000   ; qtot 48.908531
 1463         h1     49    bbb    H15   1463 0.13554100   1.008000   ; qtot 49.044072
 1464         h1     49    bbb    H16   1464 0.13554100   1.008000   ; qtot 49.179613
 1465         c3     49    bbb     C9   1465 -0.06455200  12.010000   ; qtot 49.115061
 1466         h1     49    bbb    H17   1466 0.13554100   1.008000   ; qtot 49.250602
 1467         h1     49    bbb    H18   1467 0.13554100   1.008000   ; qtot 49.386143
 1468         os     49    bbb     O1   1468 -0.62587700  16.000000   ; qtot 48.760266
 1469         hn     49    bbb    H19   1469 0.23982500   1.008000   ; qtot 49.000091
; residue   50 bbb rtp bbb q 1.0
 1470         n4     50    bbb     N1   1470 0.03726400  14.010000   ; qtot 49.037355
 1471         c3     50    bbb     C1   1471 -0.07020100  12.010000   ; qtot 48.967154
 1472         hx     50    bbb     H1   1472 0.12219000   1.008000   ; qtot 49.089344
 1473         hx     50    bbb     H2   1473 0.12219000   1.008000   ; qtot 49.211534
 1474         c3     50    bbb     C2   1474 -0.07020100  12.010000   ; qtot 49.141333
 1475         hx     50    bbb     H3   1475 0.12219000   1.008000   ; qtot 49.263523
 1476         hx     50    bbb     H4   1476 0.12219000   1.008000   ; qtot 49.385713
 1477         c3     50    bbb     C3   1477 -0.39007700  12.010000   ; qtot 48.995636
 1478         hx     50    bbb     H5   1478 0.14940300   1.008000   ; qtot 49.145039
 1479         hx     50    bbb     H6   1479 0.14940300   1.008000   ; qtot 49.294442
 1480         c3     50    bbb     C4   1480 0.18057300  12.010000   ; qtot 49.475015
 1481         hc     50    bbb     H7   1481 0.01788900   1.008000   ; qtot 49.492904
 1482         hc     50    bbb     H8   1482 0.01788900   1.008000   ; qtot 49.510793
 1483         c3     50    bbb     C5   1483 -0.11337700  12.010000   ; qtot 49.397416
 1484         hc     50    bbb     H9   1484 0.09515400   1.008000   ; qtot 49.492570
 1485         hc     50    bbb    H10   1485 0.09515400   1.008000   ; qtot 49.587724
 1486         c3     50    bbb     C6   1486 -0.11337700  12.010000   ; qtot 49.474347
 1487         hc     50    bbb    H11   1487 0.09515400   1.008000   ; qtot 49.569501
 1488         hc     50    bbb    H12   1488 0.09515400   1.008000   ; qtot 49.664655
 1489         c3     50    bbb     C7   1489 0.21842400  12.010000   ; qtot 49.883079
 1490         h1     50    bbb    H13   1490 0.04500300   1.008000   ; qtot 49.928082
 1491         h1     50    bbb    H14   1491 0.04500300   1.008000   ; qtot 49.973085
 1492         c3     50    bbb     C8   1492 -0.06455200  12.010000   ; qtot 49.908533
 1493         h1     50    bbb    H15   1493 0.13554100   1.008000   ; qtot 50.044074
 1494         h1     50    bbb    H16   1494 0.13554100   1.008000   ; qtot 50.179615
 1495         c3     50    bbb     C9   1495 -0.06455200  12.010000   ; qtot 50.115063
 1496         h1     50    bbb    H17   1496 0.13554100   1.008000   ; qtot 50.250604
 1497         h1     50    bbb    H18   1497 0.13554100   1.008000   ; qtot 50.386145
 1498         os     50    bbb     O1   1498 -0.62587700  16.000000   ; qtot 49.760268
 1499         hn     50    bbb    H19   1499 0.23982500   1.008000   ; qtot 50.000093
; residue   51 bbb rtp bbb q 1.0
 1500         n4     51    bbb     N1   1500 0.03726400  14.010000   ; qtot 50.037357
 1501         c3     51    bbb     C1   1501 -0.07020100  12.010000   ; qtot 49.967156
 1502         hx     51    bbb     H1   1502 0.12219000   1.008000   ; qtot 50.089346
 1503         hx     51    bbb     H2   1503 0.12219000   1.008000   ; qtot 50.211536
 1504         c3     51    bbb     C2   1504 -0.07020100  12.010000   ; qtot 50.141335
 1505         hx     51    bbb     H3   1505 0.12219000   1.008000   ; qtot 50.263525
 1506         hx     51    bbb     H4   1506 0.12219000   1.008000   ; qtot 50.385715
 1507         c3     51    bbb     C3   1507 -0.39007700  12.010000   ; qtot 49.995638
 1508         hx     51    bbb     H5   1508 0.14940300   1.008000   ; qtot 50.145041
 1509         hx     51    bbb     H6   1509 0.14940300   1.008000   ; qtot 50.294444
 1510         c3     51    bbb     C4   1510 0.18057300  12.010000   ; qtot 50.475017
 1511         hc     51    bbb     H7   1511 0.01788900   1.008000   ; qtot 50.492906
 1512         hc     51    bbb     H8   1512 0.01788900   1.008000   ; qtot 50.510795
 1513         c3     51    bbb     C5   1513 -0.11337700  12.010000   ; qtot 50.397418
 1514         hc     51    bbb     H9   1514 0.09515400   1.008000   ; qtot 50.492572
 1515         hc     51    bbb    H10   1515 0.09515400   1.008000   ; qtot 50.587726
 1516         c3     51    bbb     C6   1516 -0.11337700  12.010000   ; qtot 50.474349
 1517         hc     51    bbb    H11   1517 0.09515400   1.008000   ; qtot 50.569503
 1518         hc     51    bbb    H12   1518 0.09515400   1.008000   ; qtot 50.664657
 1519         c3     51    bbb     C7   1519 0.21842400  12.010000   ; qtot 50.883081
 1520         h1     51    bbb    H13   1520 0.04500300   1.008000   ; qtot 50.928084
 1521         h1     51    bbb    H14   1521 0.04500300   1.008000   ; qtot 50.973087
 1522         c3     51    bbb     C8   1522 -0.06455200  12.010000   ; qtot 50.908535
 1523         h1     51    bbb    H15   1523 0.13554100   1.008000   ; qtot 51.044076
 1524         h1     51    bbb    H16   1524 0.13554100   1.008000   ; qtot 51.179617
 1525         c3     51    bbb     C9   1525 -0.06455200  12.010000   ; qtot 51.115065
 1526         h1     51    bbb    H17   1526 0.13554100   1.008000   ; qtot 51.250606
 1527         h1     51    bbb    H18   1527 0.13554100   1.008000   ; qtot 51.386147
 1528         os     51    bbb     O1   1528 -0.62587700  16.000000   ; qtot 50.760270
 1529         hn     51    bbb    H19   1529 0.23982500   1.008000   ; qtot 51.000095
; residue   52 bbb rtp bbb q 1.0
 1530         n4     52    bbb     N1   1530 0.03726400  14.010000   ; qtot 51.037359
 1531         c3     52    bbb     C1   1531 -0.07020100  12.010000   ; qtot 50.967158
 1532         hx     52    bbb     H1   1532 0.12219000   1.008000   ; qtot 51.089348
 1533         hx     52    bbb     H2   1533 0.12219000   1.008000   ; qtot 51.211538
 1534         c3     52    bbb     C2   1534 -0.07020100  12.010000   ; qtot 51.141337
 1535         hx     52    bbb     H3   1535 0.12219000   1.008000   ; qtot 51.263527
 1536         hx     52    bbb     H4   1536 0.12219000   1.008000   ; qtot 51.385717
 1537         c3     52    bbb     C3   1537 -0.39007700  12.010000   ; qtot 50.995640
 1538         hx     52    bbb     H5   1538 0.14940300   1.008000   ; qtot 51.145043
 1539         hx     52    bbb     H6   1539 0.14940300   1.008000   ; qtot 51.294446
 1540         c3     52    bbb     C4   1540 0.18057300  12.010000   ; qtot 51.475019
 1541         hc     52    bbb     H7   1541 0.01788900   1.008000   ; qtot 51.492908
 1542         hc     52    bbb     H8   1542 0.01788900   1.008000   ; qtot 51.510797
 1543         c3     52    bbb     C5   1543 -0.11337700  12.010000   ; qtot 51.397420
 1544         hc     52    bbb     H9   1544 0.09515400   1.008000   ; qtot 51.492574
 1545         hc     52    bbb    H10   1545 0.09515400   1.008000   ; qtot 51.587728
 1546         c3     52    bbb     C6   1546 -0.11337700  12.010000   ; qtot 51.474351
 1547         hc     52    bbb    H11   1547 0.09515400   1.008000   ; qtot 51.569505
 1548         hc     52    bbb    H12   1548 0.09515400   1.008000   ; qtot 51.664659
 1549         c3     52    bbb     C7   1549 0.21842400  12.010000   ; qtot 51.883083
 1550         h1     52    bbb    H13   1550 0.04500300   1.008000   ; qtot 51.928086
 1551         h1     52    bbb    H14   1551 0.04500300   1.008000   ; qtot 51.973089
 1552         c3     52    bbb     C8   1552 -0.06455200  12.010000   ; qtot 51.908537
 1553         h1     52    bbb    H15   1553 0.13554100   1.008000   ; qtot 52.044078
 1554         h1     52    bbb    H16   1554 0.13554100   1.008000   ; qtot 52.179619
 1555         c3     52    bbb     C9   1555 -0.06455200  12.010000   ; qtot 52.115067
 1556         h1     52    bbb    H17   1556 0.13554100   1.008000   ; qtot 52.250608
 1557         h1     52    bbb    H18   1557 0.13554100   1.008000   ; qtot 52.386149
 1558         os     52    bbb     O1   1558 -0.62587700  16.000000   ; qtot 51.760272
 1559         hn     52    bbb    H19   1559 0.23982500   1.008000   ; qtot 52.000097
; residue   53 bbb rtp bbb q 1.0
 1560         n4     53    bbb     N1   1560 0.03726400  14.010000   ; qtot 52.037361
 1561         c3     53    bbb     C1   1561 -0.07020100  12.010000   ; qtot 51.967160
 1562         hx     53    bbb     H1   1562 0.12219000   1.008000   ; qtot 52.089350
 1563         hx     53    bbb     H2   1563 0.12219000   1.008000   ; qtot 52.211540
 1564         c3     53    bbb     C2   1564 -0.07020100  12.010000   ; qtot 52.141339
 1565         hx     53    bbb     H3   1565 0.12219000   1.008000   ; qtot 52.263529
 1566         hx     53    bbb     H4   1566 0.12219000   1.008000   ; qtot 52.385719
 1567         c3     53    bbb     C3   1567 -0.39007700  12.010000   ; qtot 51.995642
 1568         hx     53    bbb     H5   1568 0.14940300   1.008000   ; qtot 52.145045
 1569         hx     53    bbb     H6   1569 0.14940300   1.008000   ; qtot 52.294448
 1570         c3     53    bbb     C4   1570 0.18057300  12.010000   ; qtot 52.475021
 1571         hc     53    bbb     H7   1571 0.01788900   1.008000   ; qtot 52.492910
 1572         hc     53    bbb     H8   1572 0.01788900   1.008000   ; qtot 52.510799
 1573         c3     53    bbb     C5   1573 -0.11337700  12.010000   ; qtot 52.397422
 1574         hc     53    bbb     H9   1574 0.09515400   1.008000   ; qtot 52.492576
 1575         hc     53    bbb    H10   1575 0.09515400   1.008000   ; qtot 52.587730
 1576         c3     53    bbb     C6   1576 -0.11337700  12.010000   ; qtot 52.474353
 1577         hc     53    bbb    H11   1577 0.09515400   1.008000   ; qtot 52.569507
 1578         hc     53    bbb    H12   1578 0.09515400   1.008000   ; qtot 52.664661
 1579         c3     53    bbb     C7   1579 0.21842400  12.010000   ; qtot 52.883085
 1580         h1     53    bbb    H13   1580 0.04500300   1.008000   ; qtot 52.928088
 1581         h1     53    bbb    H14   1581 0.04500300   1.008000   ; qtot 52.973091
 1582         c3     53    bbb     C8   1582 -0.06455200  12.010000   ; qtot 52.908539
 1583         h1     53    bbb    H15   1583 0.13554100   1.008000   ; qtot 53.044080
 1584         h1     53    bbb    H16   1584 0.13554100   1.008000   ; qtot 53.179621
 1585         c3     53    bbb     C9   1585 -0.06455200  12.010000   ; qtot 53.115069
 1586         h1     53    bbb    H17   1586 0.13554100   1.008000   ; qtot 53.250610
 1587         h1     53    bbb    H18   1587 0.13554100   1.008000   ; qtot 53.386151
 1588         os     53    bbb     O1   1588 -0.62587700  16.000000   ; qtot 52.760274
 1589         hn     53    bbb    H19   1589 0.23982500   1.008000   ; qtot 53.000099
; residue   54 bbb rtp bbb q 1.0
 1590         n4     54    bbb     N1   1590 0.03726400  14.010000   ; qtot 53.037363
 1591         c3     54    bbb     C1   1591 -0.07020100  12.010000   ; qtot 52.967162
 1592         hx     54    bbb     H1   1592 0.12219000   1.008000   ; qtot 53.089352
 1593         hx     54    bbb     H2   1593 0.12219000   1.008000   ; qtot 53.211542
 1594         c3     54    bbb     C2   1594 -0.07020100  12.010000   ; qtot 53.141341
 1595         hx     54    bbb     H3   1595 0.12219000   1.008000   ; qtot 53.263531
 1596         hx     54    bbb     H4   1596 0.12219000   1.008000   ; qtot 53.385721
 1597         c3     54    bbb     C3   1597 -0.39007700  12.010000   ; qtot 52.995644
 1598         hx     54    bbb     H5   1598 0.14940300   1.008000   ; qtot 53.145047
 1599         hx     54    bbb     H6   1599 0.14940300   1.008000   ; qtot 53.294450
 1600         c3     54    bbb     C4   1600 0.18057300  12.010000   ; qtot 53.475023
 1601         hc     54    bbb     H7   1601 0.01788900   1.008000   ; qtot 53.492912
 1602         hc     54    bbb     H8   1602 0.01788900   1.008000   ; qtot 53.510801
 1603         c3     54    bbb     C5   1603 -0.11337700  12.010000   ; qtot 53.397424
 1604         hc     54    bbb     H9   1604 0.09515400   1.008000   ; qtot 53.492578
 1605         hc     54    bbb    H10   1605 0.09515400   1.008000   ; qtot 53.587732
 1606         c3     54    bbb     C6   1606 -0.11337700  12.010000   ; qtot 53.474355
 1607         hc     54    bbb    H11   1607 0.09515400   1.008000   ; qtot 53.569509
 1608         hc     54    bbb    H12   1608 0.09515400   1.008000   ; qtot 53.664663
 1609         c3     54    bbb     C7   1609 0.21842400  12.010000   ; qtot 53.883087
 1610         h1     54    bbb    H13   1610 0.04500300   1.008000   ; qtot 53.928090
 1611         h1     54    bbb    H14   1611 0.04500300   1.008000   ; qtot 53.973093
 1612         c3     54    bbb     C8   1612 -0.06455200  12.010000   ; qtot 53.908541
 1613         h1     54    bbb    H15   1613 0.13554100   1.008000   ; qtot 54.044082
 1614         h1     54    bbb    H16   1614 0.13554100   1.008000   ; qtot 54.179623
 1615         c3     54    bbb     C9   1615 -0.06455200  12.010000   ; qtot 54.115071
 1616         h1     54    bbb    H17   1616 0.13554100   1.008000   ; qtot 54.250612
 1617         h1     54    bbb    H18   1617 0.13554100   1.008000   ; qtot 54.386153
 1618         os     54    bbb     O1   1618 -0.62587700  16.000000   ; qtot 53.760276
 1619         hn     54    bbb    H19   1619 0.23982500   1.008000   ; qtot 54.000101
; residue   55 bbb rtp bbb q 1.0
 1620         n4     55    bbb     N1   1620 0.03726400  14.010000   ; qtot 54.037365
 1621         c3     55    bbb     C1   1621 -0.07020100  12.010000   ; qtot 53.967164
 1622         hx     55    bbb     H1   1622 0.12219000   1.008000   ; qtot 54.089354
 1623         hx     55    bbb     H2   1623 0.12219000   1.008000   ; qtot 54.211544
 1624         c3     55    bbb     C2   1624 -0.07020100  12.010000   ; qtot 54.141343
 1625         hx     55    bbb     H3   1625 0.12219000   1.008000   ; qtot 54.263533
 1626         hx     55    bbb     H4   1626 0.12219000   1.008000   ; qtot 54.385723
 1627         c3     55    bbb     C3   1627 -0.39007700  12.010000   ; qtot 53.995646
 1628         hx     55    bbb     H5   1628 0.14940300   1.008000   ; qtot 54.145049
 1629         hx     55    bbb     H6   1629 0.14940300   1.008000   ; qtot 54.294452
 1630         c3     55    bbb     C4   1630 0.18057300  12.010000   ; qtot 54.475025
 1631         hc     55    bbb     H7   1631 0.01788900   1.008000   ; qtot 54.492914
 1632         hc     55    bbb     H8   1632 0.01788900   1.008000   ; qtot 54.510803
 1633         c3     55    bbb     C5   1633 -0.11337700  12.010000   ; qtot 54.397426
 1634         hc     55    bbb     H9   1634 0.09515400   1.008000   ; qtot 54.492580
 1635         hc     55    bbb    H10   1635 0.09515400   1.008000   ; qtot 54.587734
 1636         c3     55    bbb     C6   1636 -0.11337700  12.010000   ; qtot 54.474357
 1637         hc     55    bbb    H11   1637 0.09515400   1.008000   ; qtot 54.569511
 1638         hc     55    bbb    H12   1638 0.09515400   1.008000   ; qtot 54.664665
 1639         c3     55    bbb     C7   1639 0.21842400  12.010000   ; qtot 54.883089
 1640         h1     55    bbb    H13   1640 0.04500300   1.008000   ; qtot 54.928092
 1641         h1     55    bbb    H14   1641 0.04500300   1.008000   ; qtot 54.973095
 1642         c3     55    bbb     C8   1642 -0.06455200  12.010000   ; qtot 54.908543
 1643         h1     55    bbb    H15   1643 0.13554100   1.008000   ; qtot 55.044084
 1644         h1     55    bbb    H16   1644 0.13554100   1.008000   ; qtot 55.179625
 1645         c3     55    bbb     C9   1645 -0.06455200  12.010000   ; qtot 55.115073
 1646         h1     55    bbb    H17   1646 0.13554100   1.008000   ; qtot 55.250614
 1647         h1     55    bbb    H18   1647 0.13554100   1.008000   ; qtot 55.386155
 1648         os     55    bbb     O1   1648 -0.62587700  16.000000   ; qtot 54.760278
 1649         hn     55    bbb    H19   1649 0.23982500   1.008000   ; qtot 55.000103
; residue   56 bbb rtp bbb q 1.0
 1650         n4     56    bbb     N1   1650 0.03726400  14.010000   ; qtot 55.037367
 1651         c3     56    bbb     C1   1651 -0.07020100  12.010000   ; qtot 54.967166
 1652         hx     56    bbb     H1   1652 0.12219000   1.008000   ; qtot 55.089356
 1653         hx     56    bbb     H2   1653 0.12219000   1.008000   ; qtot 55.211546
 1654         c3     56    bbb     C2   1654 -0.07020100  12.010000   ; qtot 55.141345
 1655         hx     56    bbb     H3   1655 0.12219000   1.008000   ; qtot 55.263535
 1656         hx     56    bbb     H4   1656 0.12219000   1.008000   ; qtot 55.385725
 1657         c3     56    bbb     C3   1657 -0.39007700  12.010000   ; qtot 54.995648
 1658         hx     56    bbb     H5   1658 0.14940300   1.008000   ; qtot 55.145051
 1659         hx     56    bbb     H6   1659 0.14940300   1.008000   ; qtot 55.294454
 1660         c3     56    bbb     C4   1660 0.18057300  12.010000   ; qtot 55.475027
 1661         hc     56    bbb     H7   1661 0.01788900   1.008000   ; qtot 55.492916
 1662         hc     56    bbb     H8   1662 0.01788900   1.008000   ; qtot 55.510805
 1663         c3     56    bbb     C5   1663 -0.11337700  12.010000   ; qtot 55.397428
 1664         hc     56    bbb     H9   1664 0.09515400   1.008000   ; qtot 55.492582
 1665         hc     56    bbb    H10   1665 0.09515400   1.008000   ; qtot 55.587736
 1666         c3     56    bbb     C6   1666 -0.11337700  12.010000   ; qtot 55.474359
 1667         hc     56    bbb    H11   1667 0.09515400   1.008000   ; qtot 55.569513
 1668         hc     56    bbb    H12   1668 0.09515400   1.008000   ; qtot 55.664667
 1669         c3     56    bbb     C7   1669 0.21842400  12.010000   ; qtot 55.883091
 1670         h1     56    bbb    H13   1670 0.04500300   1.008000   ; qtot 55.928094
 1671         h1     56    bbb    H14   1671 0.04500300   1.008000   ; qtot 55.973097
 1672         c3     56    bbb     C8   1672 -0.06455200  12.010000   ; qtot 55.908545
 1673         h1     56    bbb    H15   1673 0.13554100   1.008000   ; qtot 56.044086
 1674         h1     56    bbb    H16   1674 0.13554100   1.008000   ; qtot 56.179627
 1675         c3     56    bbb     C9   1675 -0.06455200  12.010000   ; qtot 56.115075
 1676         h1     56    bbb    H17   1676 0.13554100   1.008000   ; qtot 56.250616
 1677         h1     56    bbb    H18   1677 0.13554100   1.008000   ; qtot 56.386157
 1678         os     56    bbb     O1   1678 -0.62587700  16.000000   ; qtot 55.760280
 1679         hn     56    bbb    H19   1679 0.23982500   1.008000   ; qtot 56.000105
; residue   57 bbb rtp bbb q 1.0
 1680         n4     57    bbb     N1   1680 0.03726400  14.010000   ; qtot 56.037369
 1681         c3     57    bbb     C1   1681 -0.07020100  12.010000   ; qtot 55.967168
 1682         hx     57    bbb     H1   1682 0.12219000   1.008000   ; qtot 56.089358
 1683         hx     57    bbb     H2   1683 0.12219000   1.008000   ; qtot 56.211548
 1684         c3     57    bbb     C2   1684 -0.07020100  12.010000   ; qtot 56.141347
 1685         hx     57    bbb     H3   1685 0.12219000   1.008000   ; qtot 56.263537
 1686         hx     57    bbb     H4   1686 0.12219000   1.008000   ; qtot 56.385727
 1687         c3     57    bbb     C3   1687 -0.39007700  12.010000   ; qtot 55.995650
 1688         hx     57    bbb     H5   1688 0.14940300   1.008000   ; qtot 56.145053
 1689         hx     57    bbb     H6   1689 0.14940300   1.008000   ; qtot 56.294456
 1690         c3     57    bbb     C4   1690 0.18057300  12.010000   ; qtot 56.475029
 1691         hc     57    bbb     H7   1691 0.01788900   1.008000   ; qtot 56.492918
 1692         hc     57    bbb     H8   1692 0.01788900   1.008000   ; qtot 56.510807
 1693         c3     57    bbb     C5   1693 -0.11337700  12.010000   ; qtot 56.397430
 1694         hc     57    bbb     H9   1694 0.09515400   1.008000   ; qtot 56.492584
 1695         hc     57    bbb    H10   1695 0.09515400   1.008000   ; qtot 56.587738
 1696         c3     57    bbb     C6   1696 -0.11337700  12.010000   ; qtot 56.474361
 1697         hc     57    bbb    H11   1697 0.09515400   1.008000   ; qtot 56.569515
 1698         hc     57    bbb    H12   1698 0.09515400   1.008000   ; qtot 56.664669
 1699         c3     57    bbb     C7   1699 0.21842400  12.010000   ; qtot 56.883093
 1700         h1     57    bbb    H13   1700 0.04500300   1.008000   ; qtot 56.928096
 1701         h1     57    bbb    H14   1701 0.04500300   1.008000   ; qtot 56.973099
 1702         c3     57    bbb     C8   1702 -0.06455200  12.010000   ; qtot 56.908547
 1703         h1     57    bbb    H15   1703 0.13554100   1.008000   ; qtot 57.044088
 1704         h1     57    bbb    H16   1704 0.13554100   1.008000   ; qtot 57.179629
 1705         c3     57    bbb     C9   1705 -0.06455200  12.010000   ; qtot 57.115077
 1706         h1     57    bbb    H17   1706 0.13554100   1.008000   ; qtot 57.250618
 1707         h1     57    bbb    H18   1707 0.13554100   1.008000   ; qtot 57.386159
 1708         os     57    bbb     O1   1708 -0.62587700  16.000000   ; qtot 56.760282
 1709         hn     57    bbb    H19   1709 0.23982500   1.008000   ; qtot 57.000107
; residue   58 bbb rtp bbb q 1.0
 1710         n4     58    bbb     N1   1710 0.03726400  14.010000   ; qtot 57.037371
 1711         c3     58    bbb     C1   1711 -0.07020100  12.010000   ; qtot 56.967170
 1712         hx     58    bbb     H1   1712 0.12219000   1.008000   ; qtot 57.089360
 1713         hx     58    bbb     H2   1713 0.12219000   1.008000   ; qtot 57.211550
 1714         c3     58    bbb     C2   1714 -0.07020100  12.010000   ; qtot 57.141349
 1715         hx     58    bbb     H3   1715 0.12219000   1.008000   ; qtot 57.263539
 1716         hx     58    bbb     H4   1716 0.12219000   1.008000   ; qtot 57.385729
 1717         c3     58    bbb     C3   1717 -0.39007700  12.010000   ; qtot 56.995652
 1718         hx     58    bbb     H5   1718 0.14940300   1.008000   ; qtot 57.145055
 1719         hx     58    bbb     H6   1719 0.14940300   1.008000   ; qtot 57.294458
 1720         c3     58    bbb     C4   1720 0.18057300  12.010000   ; qtot 57.475031
 1721         hc     58    bbb     H7   1721 0.01788900   1.008000   ; qtot 57.492920
 1722         hc     58    bbb     H8   1722 0.01788900   1.008000   ; qtot 57.510809
 1723         c3     58    bbb     C5   1723 -0.11337700  12.010000   ; qtot 57.397432
 1724         hc     58    bbb     H9   1724 0.09515400   1.008000   ; qtot 57.492586
 1725         hc     58    bbb    H10   1725 0.09515400   1.008000   ; qtot 57.587740
 1726         c3     58    bbb     C6   1726 -0.11337700  12.010000   ; qtot 57.474363
 1727         hc     58    bbb    H11   1727 0.09515400   1.008000   ; qtot 57.569517
 1728         hc     58    bbb    H12   1728 0.09515400   1.008000   ; qtot 57.664671
 1729         c3     58    bbb     C7   1729 0.21842400  12.010000   ; qtot 57.883095
 1730         h1     58    bbb    H13   1730 0.04500300   1.008000   ; qtot 57.928098
 1731         h1     58    bbb    H14   1731 0.04500300   1.008000   ; qtot 57.973101
 1732         c3     58    bbb     C8   1732 -0.06455200  12.010000   ; qtot 57.908549
 1733         h1     58    bbb    H15   1733 0.13554100   1.008000   ; qtot 58.044090
 1734         h1     58    bbb    H16   1734 0.13554100   1.008000   ; qtot 58.179631
 1735         c3     58    bbb     C9   1735 -0.06455200  12.010000   ; qtot 58.115079
 1736         h1     58    bbb    H17   1736 0.13554100   1.008000   ; qtot 58.250620
 1737         h1     58    bbb    H18   1737 0.13554100   1.008000   ; qtot 58.386161
 1738         os     58    bbb     O1   1738 -0.62587700  16.000000   ; qtot 57.760284
 1739         hn     58    bbb    H19   1739 0.23982500   1.008000   ; qtot 58.000109
; residue   59 bbb rtp bbb q 1.0
 1740         n4     59    bbb     N1   1740 0.03726400  14.010000   ; qtot 58.037373
 1741         c3     59    bbb     C1   1741 -0.07020100  12.010000   ; qtot 57.967172
 1742         hx     59    bbb     H1   1742 0.12219000   1.008000   ; qtot 58.089362
 1743         hx     59    bbb     H2   1743 0.12219000   1.008000   ; qtot 58.211552
 1744         c3     59    bbb     C2   1744 -0.07020100  12.010000   ; qtot 58.141351
 1745         hx     59    bbb     H3   1745 0.12219000   1.008000   ; qtot 58.263541
 1746         hx     59    bbb     H4   1746 0.12219000   1.008000   ; qtot 58.385731
 1747         c3     59    bbb     C3   1747 -0.39007700  12.010000   ; qtot 57.995654
 1748         hx     59    bbb     H5   1748 0.14940300   1.008000   ; qtot 58.145057
 1749         hx     59    bbb     H6   1749 0.14940300   1.008000   ; qtot 58.294460
 1750         c3     59    bbb     C4   1750 0.18057300  12.010000   ; qtot 58.475033
 1751         hc     59    bbb     H7   1751 0.01788900   1.008000   ; qtot 58.492922
 1752         hc     59    bbb     H8   1752 0.01788900   1.008000   ; qtot 58.510811
 1753         c3     59    bbb     C5   1753 -0.11337700  12.010000   ; qtot 58.397434
 1754         hc     59    bbb     H9   1754 0.09515400   1.008000   ; qtot 58.492588
 1755         hc     59    bbb    H10   1755 0.09515400   1.008000   ; qtot 58.587742
 1756         c3     59    bbb     C6   1756 -0.11337700  12.010000   ; qtot 58.474365
 1757         hc     59    bbb    H11   1757 0.09515400   1.008000   ; qtot 58.569519
 1758         hc     59    bbb    H12   1758 0.09515400   1.008000   ; qtot 58.664673
 1759         c3     59    bbb     C7   1759 0.21842400  12.010000   ; qtot 58.883097
 1760         h1     59    bbb    H13   1760 0.04500300   1.008000   ; qtot 58.928100
 1761         h1     59    bbb    H14   1761 0.04500300   1.008000   ; qtot 58.973103
 1762         c3     59    bbb     C8   1762 -0.06455200  12.010000   ; qtot 58.908551
 1763         h1     59    bbb    H15   1763 0.13554100   1.008000   ; qtot 59.044092
 1764         h1     59    bbb    H16   1764 0.13554100   1.008000   ; qtot 59.179633
 1765         c3     59    bbb     C9   1765 -0.06455200  12.010000   ; qtot 59.115081
 1766         h1     59    bbb    H17   1766 0.13554100   1.008000   ; qtot 59.250622
 1767         h1     59    bbb    H18   1767 0.13554100   1.008000   ; qtot 59.386163
 1768         os     59    bbb     O1   1768 -0.62587700  16.000000   ; qtot 58.760286
 1769         hn     59    bbb    H19   1769 0.23982500   1.008000   ; qtot 59.000111
; residue   60 bbb rtp bbb q 1.0
 1770         n4     60    bbb     N1   1770 0.03726400  14.010000   ; qtot 59.037375
 1771         c3     60    bbb     C1   1771 -0.07020100  12.010000   ; qtot 58.967174
 1772         hx     60    bbb     H1   1772 0.12219000   1.008000   ; qtot 59.089364
 1773         hx     60    bbb     H2   1773 0.12219000   1.008000   ; qtot 59.211554
 1774         c3     60    bbb     C2   1774 -0.07020100  12.010000   ; qtot 59.141353
 1775         hx     60    bbb     H3   1775 0.12219000   1.008000   ; qtot 59.263543
 1776         hx     60    bbb     H4   1776 0.12219000   1.008000   ; qtot 59.385733
 1777         c3     60    bbb     C3   1777 -0.39007700  12.010000   ; qtot 58.995656
 1778         hx     60    bbb     H5   1778 0.14940300   1.008000   ; qtot 59.145059
 1779         hx     60    bbb     H6   1779 0.14940300   1.008000   ; qtot 59.294462
 1780         c3     60    bbb     C4   1780 0.18057300  12.010000   ; qtot 59.475035
 1781         hc     60    bbb     H7   1781 0.01788900   1.008000   ; qtot 59.492924
 1782         hc     60    bbb     H8   1782 0.01788900   1.008000   ; qtot 59.510813
 1783         c3     60    bbb     C5   1783 -0.11337700  12.010000   ; qtot 59.397436
 1784         hc     60    bbb     H9   1784 0.09515400   1.008000   ; qtot 59.492590
 1785         hc     60    bbb    H10   1785 0.09515400   1.008000   ; qtot 59.587744
 1786         c3     60    bbb     C6   1786 -0.11337700  12.010000   ; qtot 59.474367
 1787         hc     60    bbb    H11   1787 0.09515400   1.008000   ; qtot 59.569521
 1788         hc     60    bbb    H12   1788 0.09515400   1.008000   ; qtot 59.664675
 1789         c3     60    bbb     C7   1789 0.21842400  12.010000   ; qtot 59.883099
 1790         h1     60    bbb    H13   1790 0.04500300   1.008000   ; qtot 59.928102
 1791         h1     60    bbb    H14   1791 0.04500300   1.008000   ; qtot 59.973105
 1792         c3     60    bbb     C8   1792 -0.06455200  12.010000   ; qtot 59.908553
 1793         h1     60    bbb    H15   1793 0.13554100   1.008000   ; qtot 60.044094
 1794         h1     60    bbb    H16   1794 0.13554100   1.008000   ; qtot 60.179635
 1795         c3     60    bbb     C9   1795 -0.06455200  12.010000   ; qtot 60.115083
 1796         h1     60    bbb    H17   1796 0.13554100   1.008000   ; qtot 60.250624
 1797         h1     60    bbb    H18   1797 0.13554100   1.008000   ; qtot 60.386165
 1798         os     60    bbb     O1   1798 -0.62587700  16.000000   ; qtot 59.760288
 1799         hn     60    bbb    H19   1799 0.23982500   1.008000   ; qtot 60.000113
; residue   61 bbb rtp bbb q 1.0
 1800         n4     61    bbb     N1   1800 0.03726400  14.010000   ; qtot 60.037377
 1801         c3     61    bbb     C1   1801 -0.07020100  12.010000   ; qtot 59.967176
 1802         hx     61    bbb     H1   1802 0.12219000   1.008000   ; qtot 60.089366
 1803         hx     61    bbb     H2   1803 0.12219000   1.008000   ; qtot 60.211556
 1804         c3     61    bbb     C2   1804 -0.07020100  12.010000   ; qtot 60.141355
 1805         hx     61    bbb     H3   1805 0.12219000   1.008000   ; qtot 60.263545
 1806         hx     61    bbb     H4   1806 0.12219000   1.008000   ; qtot 60.385735
 1807         c3     61    bbb     C3   1807 -0.39007700  12.010000   ; qtot 59.995658
 1808         hx     61    bbb     H5   1808 0.14940300   1.008000   ; qtot 60.145061
 1809         hx     61    bbb     H6   1809 0.14940300   1.008000   ; qtot 60.294464
 1810         c3     61    bbb     C4   1810 0.18057300  12.010000   ; qtot 60.475037
 1811         hc     61    bbb     H7   1811 0.01788900   1.008000   ; qtot 60.492926
 1812         hc     61    bbb     H8   1812 0.01788900   1.008000   ; qtot 60.510815
 1813         c3     61    bbb     C5   1813 -0.11337700  12.010000   ; qtot 60.397438
 1814         hc     61    bbb     H9   1814 0.09515400   1.008000   ; qtot 60.492592
 1815         hc     61    bbb    H10   1815 0.09515400   1.008000   ; qtot 60.587746
 1816         c3     61    bbb     C6   1816 -0.11337700  12.010000   ; qtot 60.474369
 1817         hc     61    bbb    H11   1817 0.09515400   1.008000   ; qtot 60.569523
 1818         hc     61    bbb    H12   1818 0.09515400   1.008000   ; qtot 60.664677
 1819         c3     61    bbb     C7   1819 0.21842400  12.010000   ; qtot 60.883101
 1820         h1     61    bbb    H13   1820 0.04500300   1.008000   ; qtot 60.928104
 1821         h1     61    bbb    H14   1821 0.04500300   1.008000   ; qtot 60.973107
 1822         c3     61    bbb     C8   1822 -0.06455200  12.010000   ; qtot 60.908555
 1823         h1     61    bbb    H15   1823 0.13554100   1.008000   ; qtot 61.044096
 1824         h1     61    bbb    H16   1824 0.13554100   1.008000   ; qtot 61.179637
 1825         c3     61    bbb     C9   1825 -0.06455200  12.010000   ; qtot 61.115085
 1826         h1     61    bbb    H17   1826 0.13554100   1.008000   ; qtot 61.250626
 1827         h1     61    bbb    H18   1827 0.13554100   1.008000   ; qtot 61.386167
 1828         os     61    bbb     O1   1828 -0.62587700  16.000000   ; qtot 60.760290
 1829         hn     61    bbb    H19   1829 0.23982500   1.008000   ; qtot 61.000115
; residue   62 bbb rtp bbb q 1.0
 1830         n4     62    bbb     N1   1830 0.03726400  14.010000   ; qtot 61.037379
 1831         c3     62    bbb     C1   1831 -0.07020100  12.010000   ; qtot 60.967178
 1832         hx     62    bbb     H1   1832 0.12219000   1.008000   ; qtot 61.089368
 1833         hx     62    bbb     H2   1833 0.12219000   1.008000   ; qtot 61.211558
 1834         c3     62    bbb     C2   1834 -0.07020100  12.010000   ; qtot 61.141357
 1835         hx     62    bbb     H3   1835 0.12219000   1.008000   ; qtot 61.263547
 1836         hx     62    bbb     H4   1836 0.12219000   1.008000   ; qtot 61.385737
 1837         c3     62    bbb     C3   1837 -0.39007700  12.010000   ; qtot 60.995660
 1838         hx     62    bbb     H5   1838 0.14940300   1.008000   ; qtot 61.145063
 1839         hx     62    bbb     H6   1839 0.14940300   1.008000   ; qtot 61.294466
 1840         c3     62    bbb     C4   1840 0.18057300  12.010000   ; qtot 61.475039
 1841         hc     62    bbb     H7   1841 0.01788900   1.008000   ; qtot 61.492928
 1842         hc     62    bbb     H8   1842 0.01788900   1.008000   ; qtot 61.510817
 1843         c3     62    bbb     C5   1843 -0.11337700  12.010000   ; qtot 61.397440
 1844         hc     62    bbb     H9   1844 0.09515400   1.008000   ; qtot 61.492594
 1845         hc     62    bbb    H10   1845 0.09515400   1.008000   ; qtot 61.587748
 1846         c3     62    bbb     C6   1846 -0.11337700  12.010000   ; qtot 61.474371
 1847         hc     62    bbb    H11   1847 0.09515400   1.008000   ; qtot 61.569525
 1848         hc     62    bbb    H12   1848 0.09515400   1.008000   ; qtot 61.664679
 1849         c3     62    bbb     C7   1849 0.21842400  12.010000   ; qtot 61.883103
 1850         h1     62    bbb    H13   1850 0.04500300   1.008000   ; qtot 61.928106
 1851         h1     62    bbb    H14   1851 0.04500300   1.008000   ; qtot 61.973109
 1852         c3     62    bbb     C8   1852 -0.06455200  12.010000   ; qtot 61.908557
 1853         h1     62    bbb    H15   1853 0.13554100   1.008000   ; qtot 62.044098
 1854         h1     62    bbb    H16   1854 0.13554100   1.008000   ; qtot 62.179639
 1855         c3     62    bbb     C9   1855 -0.06455200  12.010000   ; qtot 62.115087
 1856         h1     62    bbb    H17   1856 0.13554100   1.008000   ; qtot 62.250628
 1857         h1     62    bbb    H18   1857 0.13554100   1.008000   ; qtot 62.386169
 1858         os     62    bbb     O1   1858 -0.62587700  16.000000   ; qtot 61.760292
 1859         hn     62    bbb    H19   1859 0.23982500   1.008000   ; qtot 62.000117
; residue   63 bbb rtp bbb q 1.0
 1860         n4     63    bbb     N1   1860 0.03726400  14.010000   ; qtot 62.037381
 1861         c3     63    bbb     C1   1861 -0.07020100  12.010000   ; qtot 61.967180
 1862         hx     63    bbb     H1   1862 0.12219000   1.008000   ; qtot 62.089370
 1863         hx     63    bbb     H2   1863 0.12219000   1.008000   ; qtot 62.211560
 1864         c3     63    bbb     C2   1864 -0.07020100  12.010000   ; qtot 62.141359
 1865         hx     63    bbb     H3   1865 0.12219000   1.008000   ; qtot 62.263549
 1866         hx     63    bbb     H4   1866 0.12219000   1.008000   ; qtot 62.385739
 1867         c3     63    bbb     C3   1867 -0.39007700  12.010000   ; qtot 61.995662
 1868         hx     63    bbb     H5   1868 0.14940300   1.008000   ; qtot 62.145065
 1869         hx     63    bbb     H6   1869 0.14940300   1.008000   ; qtot 62.294468
 1870         c3     63    bbb     C4   1870 0.18057300  12.010000   ; qtot 62.475041
 1871         hc     63    bbb     H7   1871 0.01788900   1.008000   ; qtot 62.492930
 1872         hc     63    bbb     H8   1872 0.01788900   1.008000   ; qtot 62.510819
 1873         c3     63    bbb     C5   1873 -0.11337700  12.010000   ; qtot 62.397442
 1874         hc     63    bbb     H9   1874 0.09515400   1.008000   ; qtot 62.492596
 1875         hc     63    bbb    H10   1875 0.09515400   1.008000   ; qtot 62.587750
 1876         c3     63    bbb     C6   1876 -0.11337700  12.010000   ; qtot 62.474373
 1877         hc     63    bbb    H11   1877 0.09515400   1.008000   ; qtot 62.569527
 1878         hc     63    bbb    H12   1878 0.09515400   1.008000   ; qtot 62.664681
 1879         c3     63    bbb     C7   1879 0.21842400  12.010000   ; qtot 62.883105
 1880         h1     63    bbb    H13   1880 0.04500300   1.008000   ; qtot 62.928108
 1881         h1     63    bbb    H14   1881 0.04500300   1.008000   ; qtot 62.973111
 1882         c3     63    bbb     C8   1882 -0.06455200  12.010000   ; qtot 62.908559
 1883         h1     63    bbb    H15   1883 0.13554100   1.008000   ; qtot 63.044100
 1884         h1     63    bbb    H16   1884 0.13554100   1.008000   ; qtot 63.179641
 1885         c3     63    bbb     C9   1885 -0.06455200  12.010000   ; qtot 63.115089
 1886         h1     63    bbb    H17   1886 0.13554100   1.008000   ; qtot 63.250630
 1887         h1     63    bbb    H18   1887 0.13554100   1.008000   ; qtot 63.386171
 1888         os     63    bbb     O1   1888 -0.62587700  16.000000   ; qtot 62.760294
 1889         hn     63    bbb    H19   1889 0.23982500   1.008000   ; qtot 63.000119
; residue   64 bbb rtp bbb q 1.0
 1890         n4     64    bbb     N1   1890 0.03726400  14.010000   ; qtot 63.037383
 1891         c3     64    bbb     C1   1891 -0.07020100  12.010000   ; qtot 62.967182
 1892         hx     64    bbb     H1   1892 0.12219000   1.008000   ; qtot 63.089372
 1893         hx     64    bbb     H2   1893 0.12219000   1.008000   ; qtot 63.211562
 1894         c3     64    bbb     C2   1894 -0.07020100  12.010000   ; qtot 63.141361
 1895         hx     64    bbb     H3   1895 0.12219000   1.008000   ; qtot 63.263551
 1896         hx     64    bbb     H4   1896 0.12219000   1.008000   ; qtot 63.385741
 1897         c3     64    bbb     C3   1897 -0.39007700  12.010000   ; qtot 62.995664
 1898         hx     64    bbb     H5   1898 0.14940300   1.008000   ; qtot 63.145067
 1899         hx     64    bbb     H6   1899 0.14940300   1.008000   ; qtot 63.294470
 1900         c3     64    bbb     C4   1900 0.18057300  12.010000   ; qtot 63.475043
 1901         hc     64    bbb     H7   1901 0.01788900   1.008000   ; qtot 63.492932
 1902         hc     64    bbb     H8   1902 0.01788900   1.008000   ; qtot 63.510821
 1903         c3     64    bbb     C5   1903 -0.11337700  12.010000   ; qtot 63.397444
 1904         hc     64    bbb     H9   1904 0.09515400   1.008000   ; qtot 63.492598
 1905         hc     64    bbb    H10   1905 0.09515400   1.008000   ; qtot 63.587752
 1906         c3     64    bbb     C6   1906 -0.11337700  12.010000   ; qtot 63.474375
 1907         hc     64    bbb    H11   1907 0.09515400   1.008000   ; qtot 63.569529
 1908         hc     64    bbb    H12   1908 0.09515400   1.008000   ; qtot 63.664683
 1909         c3     64    bbb     C7   1909 0.21842400  12.010000   ; qtot 63.883107
 1910         h1     64    bbb    H13   1910 0.04500300   1.008000   ; qtot 63.928110
 1911         h1     64    bbb    H14   1911 0.04500300   1.008000   ; qtot 63.973113
 1912         c3     64    bbb     C8   1912 -0.06455200  12.010000   ; qtot 63.908561
 1913         h1     64    bbb    H15   1913 0.13554100   1.008000   ; qtot 64.044102
 1914         h1     64    bbb    H16   1914 0.13554100   1.008000   ; qtot 64.179643
 1915         c3     64    bbb     C9   1915 -0.06455200  12.010000   ; qtot 64.115091
 1916         h1     64    bbb    H17   1916 0.13554100   1.008000   ; qtot 64.250632
 1917         h1     64    bbb    H18   1917 0.13554100   1.008000   ; qtot 64.386173
 1918         os     64    bbb     O1   1918 -0.62587700  16.000000   ; qtot 63.760296
 1919         hn     64    bbb    H19   1919 0.23982500   1.008000   ; qtot 64.000121
; residue   65 bbb rtp bbb q 1.0
 1920         n4     65    bbb     N1   1920 0.03726400  14.010000   ; qtot 64.037385
 1921         c3     65    bbb     C1   1921 -0.07020100  12.010000   ; qtot 63.967184
 1922         hx     65    bbb     H1   1922 0.12219000   1.008000   ; qtot 64.089374
 1923         hx     65    bbb     H2   1923 0.12219000   1.008000   ; qtot 64.211564
 1924         c3     65    bbb     C2   1924 -0.07020100  12.010000   ; qtot 64.141363
 1925         hx     65    bbb     H3   1925 0.12219000   1.008000   ; qtot 64.263553
 1926         hx     65    bbb     H4   1926 0.12219000   1.008000   ; qtot 64.385743
 1927         c3     65    bbb     C3   1927 -0.39007700  12.010000   ; qtot 63.995666
 1928         hx     65    bbb     H5   1928 0.14940300   1.008000   ; qtot 64.145069
 1929         hx     65    bbb     H6   1929 0.14940300   1.008000   ; qtot 64.294472
 1930         c3     65    bbb     C4   1930 0.18057300  12.010000   ; qtot 64.475045
 1931         hc     65    bbb     H7   1931 0.01788900   1.008000   ; qtot 64.492934
 1932         hc     65    bbb     H8   1932 0.01788900   1.008000   ; qtot 64.510823
 1933         c3     65    bbb     C5   1933 -0.11337700  12.010000   ; qtot 64.397446
 1934         hc     65    bbb     H9   1934 0.09515400   1.008000   ; qtot 64.492600
 1935         hc     65    bbb    H10   1935 0.09515400   1.008000   ; qtot 64.587754
 1936         c3     65    bbb     C6   1936 -0.11337700  12.010000   ; qtot 64.474377
 1937         hc     65    bbb    H11   1937 0.09515400   1.008000   ; qtot 64.569531
 1938         hc     65    bbb    H12   1938 0.09515400   1.008000   ; qtot 64.664685
 1939         c3     65    bbb     C7   1939 0.21842400  12.010000   ; qtot 64.883109
 1940         h1     65    bbb    H13   1940 0.04500300   1.008000   ; qtot 64.928112
 1941         h1     65    bbb    H14   1941 0.04500300   1.008000   ; qtot 64.973115
 1942         c3     65    bbb     C8   1942 -0.06455200  12.010000   ; qtot 64.908563
 1943         h1     65    bbb    H15   1943 0.13554100   1.008000   ; qtot 65.044104
 1944         h1     65    bbb    H16   1944 0.13554100   1.008000   ; qtot 65.179645
 1945         c3     65    bbb     C9   1945 -0.06455200  12.010000   ; qtot 65.115093
 1946         h1     65    bbb    H17   1946 0.13554100   1.008000   ; qtot 65.250634
 1947         h1     65    bbb    H18   1947 0.13554100   1.008000   ; qtot 65.386175
 1948         os     65    bbb     O1   1948 -0.62587700  16.000000   ; qtot 64.760298
 1949         hn     65    bbb    H19   1949 0.23982500   1.008000   ; qtot 65.000123
; residue   66 bbb rtp bbb q 1.0
 1950         n4     66    bbb     N1   1950 0.03726400  14.010000   ; qtot 65.037387
 1951         c3     66    bbb     C1   1951 -0.07020100  12.010000   ; qtot 64.967186
 1952         hx     66    bbb     H1   1952 0.12219000   1.008000   ; qtot 65.089376
 1953         hx     66    bbb     H2   1953 0.12219000   1.008000   ; qtot 65.211566
 1954         c3     66    bbb     C2   1954 -0.07020100  12.010000   ; qtot 65.141365
 1955         hx     66    bbb     H3   1955 0.12219000   1.008000   ; qtot 65.263555
 1956         hx     66    bbb     H4   1956 0.12219000   1.008000   ; qtot 65.385745
 1957         c3     66    bbb     C3   1957 -0.39007700  12.010000   ; qtot 64.995668
 1958         hx     66    bbb     H5   1958 0.14940300   1.008000   ; qtot 65.145071
 1959         hx     66    bbb     H6   1959 0.14940300   1.008000   ; qtot 65.294474
 1960         c3     66    bbb     C4   1960 0.18057300  12.010000   ; qtot 65.475047
 1961         hc     66    bbb     H7   1961 0.01788900   1.008000   ; qtot 65.492936
 1962         hc     66    bbb     H8   1962 0.01788900   1.008000   ; qtot 65.510825
 1963         c3     66    bbb     C5   1963 -0.11337700  12.010000   ; qtot 65.397448
 1964         hc     66    bbb     H9   1964 0.09515400   1.008000   ; qtot 65.492602
 1965         hc     66    bbb    H10   1965 0.09515400   1.008000   ; qtot 65.587756
 1966         c3     66    bbb     C6   1966 -0.11337700  12.010000   ; qtot 65.474379
 1967         hc     66    bbb    H11   1967 0.09515400   1.008000   ; qtot 65.569533
 1968         hc     66    bbb    H12   1968 0.09515400   1.008000   ; qtot 65.664687
 1969         c3     66    bbb     C7   1969 0.21842400  12.010000   ; qtot 65.883111
 1970         h1     66    bbb    H13   1970 0.04500300   1.008000   ; qtot 65.928114
 1971         h1     66    bbb    H14   1971 0.04500300   1.008000   ; qtot 65.973117
 1972         c3     66    bbb     C8   1972 -0.06455200  12.010000   ; qtot 65.908565
 1973         h1     66    bbb    H15   1973 0.13554100   1.008000   ; qtot 66.044106
 1974         h1     66    bbb    H16   1974 0.13554100   1.008000   ; qtot 66.179647
 1975         c3     66    bbb     C9   1975 -0.06455200  12.010000   ; qtot 66.115095
 1976         h1     66    bbb    H17   1976 0.13554100   1.008000   ; qtot 66.250636
 1977         h1     66    bbb    H18   1977 0.13554100   1.008000   ; qtot 66.386177
 1978         os     66    bbb     O1   1978 -0.62587700  16.000000   ; qtot 65.760300
 1979         hn     66    bbb    H19   1979 0.23982500   1.008000   ; qtot 66.000125
; residue   67 bbb rtp bbb q 1.0
 1980         n4     67    bbb     N1   1980 0.03726400  14.010000   ; qtot 66.037389
 1981         c3     67    bbb     C1   1981 -0.07020100  12.010000   ; qtot 65.967188
 1982         hx     67    bbb     H1   1982 0.12219000   1.008000   ; qtot 66.089378
 1983         hx     67    bbb     H2   1983 0.12219000   1.008000   ; qtot 66.211568
 1984         c3     67    bbb     C2   1984 -0.07020100  12.010000   ; qtot 66.141367
 1985         hx     67    bbb     H3   1985 0.12219000   1.008000   ; qtot 66.263557
 1986         hx     67    bbb     H4   1986 0.12219000   1.008000   ; qtot 66.385747
 1987         c3     67    bbb     C3   1987 -0.39007700  12.010000   ; qtot 65.995670
 1988         hx     67    bbb     H5   1988 0.14940300   1.008000   ; qtot 66.145073
 1989         hx     67    bbb     H6   1989 0.14940300   1.008000   ; qtot 66.294476
 1990         c3     67    bbb     C4   1990 0.18057300  12.010000   ; qtot 66.475049
 1991         hc     67    bbb     H7   1991 0.01788900   1.008000   ; qtot 66.492938
 1992         hc     67    bbb     H8   1992 0.01788900   1.008000   ; qtot 66.510827
 1993         c3     67    bbb     C5   1993 -0.11337700  12.010000   ; qtot 66.397450
 1994         hc     67    bbb     H9   1994 0.09515400   1.008000   ; qtot 66.492604
 1995         hc     67    bbb    H10   1995 0.09515400   1.008000   ; qtot 66.587758
 1996         c3     67    bbb     C6   1996 -0.11337700  12.010000   ; qtot 66.474381
 1997         hc     67    bbb    H11   1997 0.09515400   1.008000   ; qtot 66.569535
 1998         hc     67    bbb    H12   1998 0.09515400   1.008000   ; qtot 66.664689
 1999         c3     67    bbb     C7   1999 0.21842400  12.010000   ; qtot 66.883113
 2000         h1     67    bbb    H13   2000 0.04500300   1.008000   ; qtot 66.928116
 2001         h1     67    bbb    H14   2001 0.04500300   1.008000   ; qtot 66.973119
 2002         c3     67    bbb     C8   2002 -0.06455200  12.010000   ; qtot 66.908567
 2003         h1     67    bbb    H15   2003 0.13554100   1.008000   ; qtot 67.044108
 2004         h1     67    bbb    H16   2004 0.13554100   1.008000   ; qtot 67.179649
 2005         c3     67    bbb     C9   2005 -0.06455200  12.010000   ; qtot 67.115097
 2006         h1     67    bbb    H17   2006 0.13554100   1.008000   ; qtot 67.250638
 2007         h1     67    bbb    H18   2007 0.13554100   1.008000   ; qtot 67.386179
 2008         os     67    bbb     O1   2008 -0.62587700  16.000000   ; qtot 66.760302
 2009         hn     67    bbb    H19   2009 0.23982500   1.008000   ; qtot 67.000127
; residue   68 bbb rtp bbb q 1.0
 2010         n4     68    bbb     N1   2010 0.03726400  14.010000   ; qtot 67.037391
 2011         c3     68    bbb     C1   2011 -0.07020100  12.010000   ; qtot 66.967190
 2012         hx     68    bbb     H1   2012 0.12219000   1.008000   ; qtot 67.089380
 2013         hx     68    bbb     H2   2013 0.12219000   1.008000   ; qtot 67.211570
 2014         c3     68    bbb     C2   2014 -0.07020100  12.010000   ; qtot 67.141369
 2015         hx     68    bbb     H3   2015 0.12219000   1.008000   ; qtot 67.263559
 2016         hx     68    bbb     H4   2016 0.12219000   1.008000   ; qtot 67.385749
 2017         c3     68    bbb     C3   2017 -0.39007700  12.010000   ; qtot 66.995672
 2018         hx     68    bbb     H5   2018 0.14940300   1.008000   ; qtot 67.145075
 2019         hx     68    bbb     H6   2019 0.14940300   1.008000   ; qtot 67.294478
 2020         c3     68    bbb     C4   2020 0.18057300  12.010000   ; qtot 67.475051
 2021         hc     68    bbb     H7   2021 0.01788900   1.008000   ; qtot 67.492940
 2022         hc     68    bbb     H8   2022 0.01788900   1.008000   ; qtot 67.510829
 2023         c3     68    bbb     C5   2023 -0.11337700  12.010000   ; qtot 67.397452
 2024         hc     68    bbb     H9   2024 0.09515400   1.008000   ; qtot 67.492606
 2025         hc     68    bbb    H10   2025 0.09515400   1.008000   ; qtot 67.587760
 2026         c3     68    bbb     C6   2026 -0.11337700  12.010000   ; qtot 67.474383
 2027         hc     68    bbb    H11   2027 0.09515400   1.008000   ; qtot 67.569537
 2028         hc     68    bbb    H12   2028 0.09515400   1.008000   ; qtot 67.664691
 2029         c3     68    bbb     C7   2029 0.21842400  12.010000   ; qtot 67.883115
 2030         h1     68    bbb    H13   2030 0.04500300   1.008000   ; qtot 67.928118
 2031         h1     68    bbb    H14   2031 0.04500300   1.008000   ; qtot 67.973121
 2032         c3     68    bbb     C8   2032 -0.06455200  12.010000   ; qtot 67.908569
 2033         h1     68    bbb    H15   2033 0.13554100   1.008000   ; qtot 68.044110
 2034         h1     68    bbb    H16   2034 0.13554100   1.008000   ; qtot 68.179651
 2035         c3     68    bbb     C9   2035 -0.06455200  12.010000   ; qtot 68.115099
 2036         h1     68    bbb    H17   2036 0.13554100   1.008000   ; qtot 68.250640
 2037         h1     68    bbb    H18   2037 0.13554100   1.008000   ; qtot 68.386181
 2038         os     68    bbb     O1   2038 -0.62587700  16.000000   ; qtot 67.760304
 2039         hn     68    bbb    H19   2039 0.23982500   1.008000   ; qtot 68.000129
; residue   69 bbb rtp bbb q 1.0
 2040         n4     69    bbb     N1   2040 0.03726400  14.010000   ; qtot 68.037393
 2041         c3     69    bbb     C1   2041 -0.07020100  12.010000   ; qtot 67.967192
 2042         hx     69    bbb     H1   2042 0.12219000   1.008000   ; qtot 68.089382
 2043         hx     69    bbb     H2   2043 0.12219000   1.008000   ; qtot 68.211572
 2044         c3     69    bbb     C2   2044 -0.07020100  12.010000   ; qtot 68.141371
 2045         hx     69    bbb     H3   2045 0.12219000   1.008000   ; qtot 68.263561
 2046         hx     69    bbb     H4   2046 0.12219000   1.008000   ; qtot 68.385751
 2047         c3     69    bbb     C3   2047 -0.39007700  12.010000   ; qtot 67.995674
 2048         hx     69    bbb     H5   2048 0.14940300   1.008000   ; qtot 68.145077
 2049         hx     69    bbb     H6   2049 0.14940300   1.008000   ; qtot 68.294480
 2050         c3     69    bbb     C4   2050 0.18057300  12.010000   ; qtot 68.475053
 2051         hc     69    bbb     H7   2051 0.01788900   1.008000   ; qtot 68.492942
 2052         hc     69    bbb     H8   2052 0.01788900   1.008000   ; qtot 68.510831
 2053         c3     69    bbb     C5   2053 -0.11337700  12.010000   ; qtot 68.397454
 2054         hc     69    bbb     H9   2054 0.09515400   1.008000   ; qtot 68.492608
 2055         hc     69    bbb    H10   2055 0.09515400   1.008000   ; qtot 68.587762
 2056         c3     69    bbb     C6   2056 -0.11337700  12.010000   ; qtot 68.474385
 2057         hc     69    bbb    H11   2057 0.09515400   1.008000   ; qtot 68.569539
 2058         hc     69    bbb    H12   2058 0.09515400   1.008000   ; qtot 68.664693
 2059         c3     69    bbb     C7   2059 0.21842400  12.010000   ; qtot 68.883117
 2060         h1     69    bbb    H13   2060 0.04500300   1.008000   ; qtot 68.928120
 2061         h1     69    bbb    H14   2061 0.04500300   1.008000   ; qtot 68.973123
 2062         c3     69    bbb     C8   2062 -0.06455200  12.010000   ; qtot 68.908571
 2063         h1     69    bbb    H15   2063 0.13554100   1.008000   ; qtot 69.044112
 2064         h1     69    bbb    H16   2064 0.13554100   1.008000   ; qtot 69.179653
 2065         c3     69    bbb     C9   2065 -0.06455200  12.010000   ; qtot 69.115101
 2066         h1     69    bbb    H17   2066 0.13554100   1.008000   ; qtot 69.250642
 2067         h1     69    bbb    H18   2067 0.13554100   1.008000   ; qtot 69.386183
 2068         os     69    bbb     O1   2068 -0.62587700  16.000000   ; qtot 68.760306
 2069         hn     69    bbb    H19   2069 0.23982500   1.008000   ; qtot 69.000131
; residue   70 bbb rtp bbb q 1.0
 2070         n4     70    bbb     N1   2070 0.03726400  14.010000   ; qtot 69.037395
 2071         c3     70    bbb     C1   2071 -0.07020100  12.010000   ; qtot 68.967194
 2072         hx     70    bbb     H1   2072 0.12219000   1.008000   ; qtot 69.089384
 2073         hx     70    bbb     H2   2073 0.12219000   1.008000   ; qtot 69.211574
 2074         c3     70    bbb     C2   2074 -0.07020100  12.010000   ; qtot 69.141373
 2075         hx     70    bbb     H3   2075 0.12219000   1.008000   ; qtot 69.263563
 2076         hx     70    bbb     H4   2076 0.12219000   1.008000   ; qtot 69.385753
 2077         c3     70    bbb     C3   2077 -0.39007700  12.010000   ; qtot 68.995676
 2078         hx     70    bbb     H5   2078 0.14940300   1.008000   ; qtot 69.145079
 2079         hx     70    bbb     H6   2079 0.14940300   1.008000   ; qtot 69.294482
 2080         c3     70    bbb     C4   2080 0.18057300  12.010000   ; qtot 69.475055
 2081         hc     70    bbb     H7   2081 0.01788900   1.008000   ; qtot 69.492944
 2082         hc     70    bbb     H8   2082 0.01788900   1.008000   ; qtot 69.510833
 2083         c3     70    bbb     C5   2083 -0.11337700  12.010000   ; qtot 69.397456
 2084         hc     70    bbb     H9   2084 0.09515400   1.008000   ; qtot 69.492610
 2085         hc     70    bbb    H10   2085 0.09515400   1.008000   ; qtot 69.587764
 2086         c3     70    bbb     C6   2086 -0.11337700  12.010000   ; qtot 69.474387
 2087         hc     70    bbb    H11   2087 0.09515400   1.008000   ; qtot 69.569541
 2088         hc     70    bbb    H12   2088 0.09515400   1.008000   ; qtot 69.664695
 2089         c3     70    bbb     C7   2089 0.21842400  12.010000   ; qtot 69.883119
 2090         h1     70    bbb    H13   2090 0.04500300   1.008000   ; qtot 69.928122
 2091         h1     70    bbb    H14   2091 0.04500300   1.008000   ; qtot 69.973125
 2092         c3     70    bbb     C8   2092 -0.06455200  12.010000   ; qtot 69.908573
 2093         h1     70    bbb    H15   2093 0.13554100   1.008000   ; qtot 70.044114
 2094         h1     70    bbb    H16   2094 0.13554100   1.008000   ; qtot 70.179655
 2095         c3     70    bbb     C9   2095 -0.06455200  12.010000   ; qtot 70.115103
 2096         h1     70    bbb    H17   2096 0.13554100   1.008000   ; qtot 70.250644
 2097         h1     70    bbb    H18   2097 0.13554100   1.008000   ; qtot 70.386185
 2098         os     70    bbb     O1   2098 -0.62587700  16.000000   ; qtot 69.760308
 2099         hn     70    bbb    H19   2099 0.23982500   1.008000   ; qtot 70.000133
; residue   71 bbb rtp bbb q 1.0
 2100         n4     71    bbb     N1   2100 0.03726400  14.010000   ; qtot 70.037397
 2101         c3     71    bbb     C1   2101 -0.07020100  12.010000   ; qtot 69.967196
 2102         hx     71    bbb     H1   2102 0.12219000   1.008000   ; qtot 70.089386
 2103         hx     71    bbb     H2   2103 0.12219000   1.008000   ; qtot 70.211576
 2104         c3     71    bbb     C2   2104 -0.07020100  12.010000   ; qtot 70.141375
 2105         hx     71    bbb     H3   2105 0.12219000   1.008000   ; qtot 70.263565
 2106         hx     71    bbb     H4   2106 0.12219000   1.008000   ; qtot 70.385755
 2107         c3     71    bbb     C3   2107 -0.39007700  12.010000   ; qtot 69.995678
 2108         hx     71    bbb     H5   2108 0.14940300   1.008000   ; qtot 70.145081
 2109         hx     71    bbb     H6   2109 0.14940300   1.008000   ; qtot 70.294484
 2110         c3     71    bbb     C4   2110 0.18057300  12.010000   ; qtot 70.475057
 2111         hc     71    bbb     H7   2111 0.01788900   1.008000   ; qtot 70.492946
 2112         hc     71    bbb     H8   2112 0.01788900   1.008000   ; qtot 70.510835
 2113         c3     71    bbb     C5   2113 -0.11337700  12.010000   ; qtot 70.397458
 2114         hc     71    bbb     H9   2114 0.09515400   1.008000   ; qtot 70.492612
 2115         hc     71    bbb    H10   2115 0.09515400   1.008000   ; qtot 70.587766
 2116         c3     71    bbb     C6   2116 -0.11337700  12.010000   ; qtot 70.474389
 2117         hc     71    bbb    H11   2117 0.09515400   1.008000   ; qtot 70.569543
 2118         hc     71    bbb    H12   2118 0.09515400   1.008000   ; qtot 70.664697
 2119         c3     71    bbb     C7   2119 0.21842400  12.010000   ; qtot 70.883121
 2120         h1     71    bbb    H13   2120 0.04500300   1.008000   ; qtot 70.928124
 2121         h1     71    bbb    H14   2121 0.04500300   1.008000   ; qtot 70.973127
 2122         c3     71    bbb     C8   2122 -0.06455200  12.010000   ; qtot 70.908575
 2123         h1     71    bbb    H15   2123 0.13554100   1.008000   ; qtot 71.044116
 2124         h1     71    bbb    H16   2124 0.13554100   1.008000   ; qtot 71.179657
 2125         c3     71    bbb     C9   2125 -0.06455200  12.010000   ; qtot 71.115105
 2126         h1     71    bbb    H17   2126 0.13554100   1.008000   ; qtot 71.250646
 2127         h1     71    bbb    H18   2127 0.13554100   1.008000   ; qtot 71.386187
 2128         os     71    bbb     O1   2128 -0.62587700  16.000000   ; qtot 70.760310
 2129         hn     71    bbb    H19   2129 0.23982500   1.008000   ; qtot 71.000135
; residue   72 bbb rtp bbb q 1.0
 2130         n4     72    bbb     N1   2130 0.03726400  14.010000   ; qtot 71.037399
 2131         c3     72    bbb     C1   2131 -0.07020100  12.010000   ; qtot 70.967198
 2132         hx     72    bbb     H1   2132 0.12219000   1.008000   ; qtot 71.089388
 2133         hx     72    bbb     H2   2133 0.12219000   1.008000   ; qtot 71.211578
 2134         c3     72    bbb     C2   2134 -0.07020100  12.010000   ; qtot 71.141377
 2135         hx     72    bbb     H3   2135 0.12219000   1.008000   ; qtot 71.263567
 2136         hx     72    bbb     H4   2136 0.12219000   1.008000   ; qtot 71.385757
 2137         c3     72    bbb     C3   2137 -0.39007700  12.010000   ; qtot 70.995680
 2138         hx     72    bbb     H5   2138 0.14940300   1.008000   ; qtot 71.145083
 2139         hx     72    bbb     H6   2139 0.14940300   1.008000   ; qtot 71.294486
 2140         c3     72    bbb     C4   2140 0.18057300  12.010000   ; qtot 71.475059
 2141         hc     72    bbb     H7   2141 0.01788900   1.008000   ; qtot 71.492948
 2142         hc     72    bbb     H8   2142 0.01788900   1.008000   ; qtot 71.510837
 2143         c3     72    bbb     C5   2143 -0.11337700  12.010000   ; qtot 71.397460
 2144         hc     72    bbb     H9   2144 0.09515400   1.008000   ; qtot 71.492614
 2145         hc     72    bbb    H10   2145 0.09515400   1.008000   ; qtot 71.587768
 2146         c3     72    bbb     C6   2146 -0.11337700  12.010000   ; qtot 71.474391
 2147         hc     72    bbb    H11   2147 0.09515400   1.008000   ; qtot 71.569545
 2148         hc     72    bbb    H12   2148 0.09515400   1.008000   ; qtot 71.664699
 2149         c3     72    bbb     C7   2149 0.21842400  12.010000   ; qtot 71.883123
 2150         h1     72    bbb    H13   2150 0.04500300   1.008000   ; qtot 71.928126
 2151         h1     72    bbb    H14   2151 0.04500300   1.008000   ; qtot 71.973129
 2152         c3     72    bbb     C8   2152 -0.06455200  12.010000   ; qtot 71.908577
 2153         h1     72    bbb    H15   2153 0.13554100   1.008000   ; qtot 72.044118
 2154         h1     72    bbb    H16   2154 0.13554100   1.008000   ; qtot 72.179659
 2155         c3     72    bbb     C9   2155 -0.06455200  12.010000   ; qtot 72.115107
 2156         h1     72    bbb    H17   2156 0.13554100   1.008000   ; qtot 72.250648
 2157         h1     72    bbb    H18   2157 0.13554100   1.008000   ; qtot 72.386189
 2158         os     72    bbb     O1   2158 -0.62587700  16.000000   ; qtot 71.760312
 2159         hn     72    bbb    H19   2159 0.23982500   1.008000   ; qtot 72.000137
; residue   73 bbb rtp bbb q 1.0
 2160         n4     73    bbb     N1   2160 0.03726400  14.010000   ; qtot 72.037401
 2161         c3     73    bbb     C1   2161 -0.07020100  12.010000   ; qtot 71.967200
 2162         hx     73    bbb     H1   2162 0.12219000   1.008000   ; qtot 72.089390
 2163         hx     73    bbb     H2   2163 0.12219000   1.008000   ; qtot 72.211580
 2164         c3     73    bbb     C2   2164 -0.07020100  12.010000   ; qtot 72.141379
 2165         hx     73    bbb     H3   2165 0.12219000   1.008000   ; qtot 72.263569
 2166         hx     73    bbb     H4   2166 0.12219000   1.008000   ; qtot 72.385759
 2167         c3     73    bbb     C3   2167 -0.39007700  12.010000   ; qtot 71.995682
 2168         hx     73    bbb     H5   2168 0.14940300   1.008000   ; qtot 72.145085
 2169         hx     73    bbb     H6   2169 0.14940300   1.008000   ; qtot 72.294488
 2170         c3     73    bbb     C4   2170 0.18057300  12.010000   ; qtot 72.475061
 2171         hc     73    bbb     H7   2171 0.01788900   1.008000   ; qtot 72.492950
 2172         hc     73    bbb     H8   2172 0.01788900   1.008000   ; qtot 72.510839
 2173         c3     73    bbb     C5   2173 -0.11337700  12.010000   ; qtot 72.397462
 2174         hc     73    bbb     H9   2174 0.09515400   1.008000   ; qtot 72.492616
 2175         hc     73    bbb    H10   2175 0.09515400   1.008000   ; qtot 72.587770
 2176         c3     73    bbb     C6   2176 -0.11337700  12.010000   ; qtot 72.474393
 2177         hc     73    bbb    H11   2177 0.09515400   1.008000   ; qtot 72.569547
 2178         hc     73    bbb    H12   2178 0.09515400   1.008000   ; qtot 72.664701
 2179         c3     73    bbb     C7   2179 0.21842400  12.010000   ; qtot 72.883125
 2180         h1     73    bbb    H13   2180 0.04500300   1.008000   ; qtot 72.928128
 2181         h1     73    bbb    H14   2181 0.04500300   1.008000   ; qtot 72.973131
 2182         c3     73    bbb     C8   2182 -0.06455200  12.010000   ; qtot 72.908579
 2183         h1     73    bbb    H15   2183 0.13554100   1.008000   ; qtot 73.044120
 2184         h1     73    bbb    H16   2184 0.13554100   1.008000   ; qtot 73.179661
 2185         c3     73    bbb     C9   2185 -0.06455200  12.010000   ; qtot 73.115109
 2186         h1     73    bbb    H17   2186 0.13554100   1.008000   ; qtot 73.250650
 2187         h1     73    bbb    H18   2187 0.13554100   1.008000   ; qtot 73.386191
 2188         os     73    bbb     O1   2188 -0.62587700  16.000000   ; qtot 72.760314
 2189         hn     73    bbb    H19   2189 0.23982500   1.008000   ; qtot 73.000139
; residue   74 bbb rtp bbb q 1.0
 2190         n4     74    bbb     N1   2190 0.03726400  14.010000   ; qtot 73.037403
 2191         c3     74    bbb     C1   2191 -0.07020100  12.010000   ; qtot 72.967202
 2192         hx     74    bbb     H1   2192 0.12219000   1.008000   ; qtot 73.089392
 2193         hx     74    bbb     H2   2193 0.12219000   1.008000   ; qtot 73.211582
 2194         c3     74    bbb     C2   2194 -0.07020100  12.010000   ; qtot 73.141381
 2195         hx     74    bbb     H3   2195 0.12219000   1.008000   ; qtot 73.263571
 2196         hx     74    bbb     H4   2196 0.12219000   1.008000   ; qtot 73.385761
 2197         c3     74    bbb     C3   2197 -0.39007700  12.010000   ; qtot 72.995684
 2198         hx     74    bbb     H5   2198 0.14940300   1.008000   ; qtot 73.145087
 2199         hx     74    bbb     H6   2199 0.14940300   1.008000   ; qtot 73.294490
 2200         c3     74    bbb     C4   2200 0.18057300  12.010000   ; qtot 73.475063
 2201         hc     74    bbb     H7   2201 0.01788900   1.008000   ; qtot 73.492952
 2202         hc     74    bbb     H8   2202 0.01788900   1.008000   ; qtot 73.510841
 2203         c3     74    bbb     C5   2203 -0.11337700  12.010000   ; qtot 73.397464
 2204         hc     74    bbb     H9   2204 0.09515400   1.008000   ; qtot 73.492618
 2205         hc     74    bbb    H10   2205 0.09515400   1.008000   ; qtot 73.587772
 2206         c3     74    bbb     C6   2206 -0.11337700  12.010000   ; qtot 73.474395
 2207         hc     74    bbb    H11   2207 0.09515400   1.008000   ; qtot 73.569549
 2208         hc     74    bbb    H12   2208 0.09515400   1.008000   ; qtot 73.664703
 2209         c3     74    bbb     C7   2209 0.21842400  12.010000   ; qtot 73.883127
 2210         h1     74    bbb    H13   2210 0.04500300   1.008000   ; qtot 73.928130
 2211         h1     74    bbb    H14   2211 0.04500300   1.008000   ; qtot 73.973133
 2212         c3     74    bbb     C8   2212 -0.06455200  12.010000   ; qtot 73.908581
 2213         h1     74    bbb    H15   2213 0.13554100   1.008000   ; qtot 74.044122
 2214         h1     74    bbb    H16   2214 0.13554100   1.008000   ; qtot 74.179663
 2215         c3     74    bbb     C9   2215 -0.06455200  12.010000   ; qtot 74.115111
 2216         h1     74    bbb    H17   2216 0.13554100   1.008000   ; qtot 74.250652
 2217         h1     74    bbb    H18   2217 0.13554100   1.008000   ; qtot 74.386193
 2218         os     74    bbb     O1   2218 -0.62587700  16.000000   ; qtot 73.760316
 2219         hn     74    bbb    H19   2219 0.23982500   1.008000   ; qtot 74.000141
; residue   75 bbb rtp bbb q 1.0
 2220         n4     75    bbb     N1   2220 0.03726400  14.010000   ; qtot 74.037405
 2221         c3     75    bbb     C1   2221 -0.07020100  12.010000   ; qtot 73.967204
 2222         hx     75    bbb     H1   2222 0.12219000   1.008000   ; qtot 74.089394
 2223         hx     75    bbb     H2   2223 0.12219000   1.008000   ; qtot 74.211584
 2224         c3     75    bbb     C2   2224 -0.07020100  12.010000   ; qtot 74.141383
 2225         hx     75    bbb     H3   2225 0.12219000   1.008000   ; qtot 74.263573
 2226         hx     75    bbb     H4   2226 0.12219000   1.008000   ; qtot 74.385763
 2227         c3     75    bbb     C3   2227 -0.39007700  12.010000   ; qtot 73.995686
 2228         hx     75    bbb     H5   2228 0.14940300   1.008000   ; qtot 74.145089
 2229         hx     75    bbb     H6   2229 0.14940300   1.008000   ; qtot 74.294492
 2230         c3     75    bbb     C4   2230 0.18057300  12.010000   ; qtot 74.475065
 2231         hc     75    bbb     H7   2231 0.01788900   1.008000   ; qtot 74.492954
 2232         hc     75    bbb     H8   2232 0.01788900   1.008000   ; qtot 74.510843
 2233         c3     75    bbb     C5   2233 -0.11337700  12.010000   ; qtot 74.397466
 2234         hc     75    bbb     H9   2234 0.09515400   1.008000   ; qtot 74.492620
 2235         hc     75    bbb    H10   2235 0.09515400   1.008000   ; qtot 74.587774
 2236         c3     75    bbb     C6   2236 -0.11337700  12.010000   ; qtot 74.474397
 2237         hc     75    bbb    H11   2237 0.09515400   1.008000   ; qtot 74.569551
 2238         hc     75    bbb    H12   2238 0.09515400   1.008000   ; qtot 74.664705
 2239         c3     75    bbb     C7   2239 0.21842400  12.010000   ; qtot 74.883129
 2240         h1     75    bbb    H13   2240 0.04500300   1.008000   ; qtot 74.928132
 2241         h1     75    bbb    H14   2241 0.04500300   1.008000   ; qtot 74.973135
 2242         c3     75    bbb     C8   2242 -0.06455200  12.010000   ; qtot 74.908583
 2243         h1     75    bbb    H15   2243 0.13554100   1.008000   ; qtot 75.044124
 2244         h1     75    bbb    H16   2244 0.13554100   1.008000   ; qtot 75.179665
 2245         c3     75    bbb     C9   2245 -0.06455200  12.010000   ; qtot 75.115113
 2246         h1     75    bbb    H17   2246 0.13554100   1.008000   ; qtot 75.250654
 2247         h1     75    bbb    H18   2247 0.13554100   1.008000   ; qtot 75.386195
 2248         os     75    bbb     O1   2248 -0.62587700  16.000000   ; qtot 74.760318
 2249         hn     75    bbb    H19   2249 0.23982500   1.008000   ; qtot 75.000143
; residue   76 bbb rtp bbb q 1.0
 2250         n4     76    bbb     N1   2250 0.03726400  14.010000   ; qtot 75.037407
 2251         c3     76    bbb     C1   2251 -0.07020100  12.010000   ; qtot 74.967206
 2252         hx     76    bbb     H1   2252 0.12219000   1.008000   ; qtot 75.089396
 2253         hx     76    bbb     H2   2253 0.12219000   1.008000   ; qtot 75.211586
 2254         c3     76    bbb     C2   2254 -0.07020100  12.010000   ; qtot 75.141385
 2255         hx     76    bbb     H3   2255 0.12219000   1.008000   ; qtot 75.263575
 2256         hx     76    bbb     H4   2256 0.12219000   1.008000   ; qtot 75.385765
 2257         c3     76    bbb     C3   2257 -0.39007700  12.010000   ; qtot 74.995688
 2258         hx     76    bbb     H5   2258 0.14940300   1.008000   ; qtot 75.145091
 2259         hx     76    bbb     H6   2259 0.14940300   1.008000   ; qtot 75.294494
 2260         c3     76    bbb     C4   2260 0.18057300  12.010000   ; qtot 75.475067
 2261         hc     76    bbb     H7   2261 0.01788900   1.008000   ; qtot 75.492956
 2262         hc     76    bbb     H8   2262 0.01788900   1.008000   ; qtot 75.510845
 2263         c3     76    bbb     C5   2263 -0.11337700  12.010000   ; qtot 75.397468
 2264         hc     76    bbb     H9   2264 0.09515400   1.008000   ; qtot 75.492622
 2265         hc     76    bbb    H10   2265 0.09515400   1.008000   ; qtot 75.587776
 2266         c3     76    bbb     C6   2266 -0.11337700  12.010000   ; qtot 75.474399
 2267         hc     76    bbb    H11   2267 0.09515400   1.008000   ; qtot 75.569553
 2268         hc     76    bbb    H12   2268 0.09515400   1.008000   ; qtot 75.664707
 2269         c3     76    bbb     C7   2269 0.21842400  12.010000   ; qtot 75.883131
 2270         h1     76    bbb    H13   2270 0.04500300   1.008000   ; qtot 75.928134
 2271         h1     76    bbb    H14   2271 0.04500300   1.008000   ; qtot 75.973137
 2272         c3     76    bbb     C8   2272 -0.06455200  12.010000   ; qtot 75.908585
 2273         h1     76    bbb    H15   2273 0.13554100   1.008000   ; qtot 76.044126
 2274         h1     76    bbb    H16   2274 0.13554100   1.008000   ; qtot 76.179667
 2275         c3     76    bbb     C9   2275 -0.06455200  12.010000   ; qtot 76.115115
 2276         h1     76    bbb    H17   2276 0.13554100   1.008000   ; qtot 76.250656
 2277         h1     76    bbb    H18   2277 0.13554100   1.008000   ; qtot 76.386197
 2278         os     76    bbb     O1   2278 -0.62587700  16.000000   ; qtot 75.760320
 2279         hn     76    bbb    H19   2279 0.23982500   1.008000   ; qtot 76.000145
; residue   77 bbb rtp bbb q 1.0
 2280         n4     77    bbb     N1   2280 0.03726400  14.010000   ; qtot 76.037409
 2281         c3     77    bbb     C1   2281 -0.07020100  12.010000   ; qtot 75.967208
 2282         hx     77    bbb     H1   2282 0.12219000   1.008000   ; qtot 76.089398
 2283         hx     77    bbb     H2   2283 0.12219000   1.008000   ; qtot 76.211588
 2284         c3     77    bbb     C2   2284 -0.07020100  12.010000   ; qtot 76.141387
 2285         hx     77    bbb     H3   2285 0.12219000   1.008000   ; qtot 76.263577
 2286         hx     77    bbb     H4   2286 0.12219000   1.008000   ; qtot 76.385767
 2287         c3     77    bbb     C3   2287 -0.39007700  12.010000   ; qtot 75.995690
 2288         hx     77    bbb     H5   2288 0.14940300   1.008000   ; qtot 76.145093
 2289         hx     77    bbb     H6   2289 0.14940300   1.008000   ; qtot 76.294496
 2290         c3     77    bbb     C4   2290 0.18057300  12.010000   ; qtot 76.475069
 2291         hc     77    bbb     H7   2291 0.01788900   1.008000   ; qtot 76.492958
 2292         hc     77    bbb     H8   2292 0.01788900   1.008000   ; qtot 76.510847
 2293         c3     77    bbb     C5   2293 -0.11337700  12.010000   ; qtot 76.397470
 2294         hc     77    bbb     H9   2294 0.09515400   1.008000   ; qtot 76.492624
 2295         hc     77    bbb    H10   2295 0.09515400   1.008000   ; qtot 76.587778
 2296         c3     77    bbb     C6   2296 -0.11337700  12.010000   ; qtot 76.474401
 2297         hc     77    bbb    H11   2297 0.09515400   1.008000   ; qtot 76.569555
 2298         hc     77    bbb    H12   2298 0.09515400   1.008000   ; qtot 76.664709
 2299         c3     77    bbb     C7   2299 0.21842400  12.010000   ; qtot 76.883133
 2300         h1     77    bbb    H13   2300 0.04500300   1.008000   ; qtot 76.928136
 2301         h1     77    bbb    H14   2301 0.04500300   1.008000   ; qtot 76.973139
 2302         c3     77    bbb     C8   2302 -0.06455200  12.010000   ; qtot 76.908587
 2303         h1     77    bbb    H15   2303 0.13554100   1.008000   ; qtot 77.044128
 2304         h1     77    bbb    H16   2304 0.13554100   1.008000   ; qtot 77.179669
 2305         c3     77    bbb     C9   2305 -0.06455200  12.010000   ; qtot 77.115117
 2306         h1     77    bbb    H17   2306 0.13554100   1.008000   ; qtot 77.250658
 2307         h1     77    bbb    H18   2307 0.13554100   1.008000   ; qtot 77.386199
 2308         os     77    bbb     O1   2308 -0.62587700  16.000000   ; qtot 76.760322
 2309         hn     77    bbb    H19   2309 0.23982500   1.008000   ; qtot 77.000147
; residue   78 bbb rtp bbb q 1.0
 2310         n4     78    bbb     N1   2310 0.03726400  14.010000   ; qtot 77.037411
 2311         c3     78    bbb     C1   2311 -0.07020100  12.010000   ; qtot 76.967210
 2312         hx     78    bbb     H1   2312 0.12219000   1.008000   ; qtot 77.089400
 2313         hx     78    bbb     H2   2313 0.12219000   1.008000   ; qtot 77.211590
 2314         c3     78    bbb     C2   2314 -0.07020100  12.010000   ; qtot 77.141389
 2315         hx     78    bbb     H3   2315 0.12219000   1.008000   ; qtot 77.263579
 2316         hx     78    bbb     H4   2316 0.12219000   1.008000   ; qtot 77.385769
 2317         c3     78    bbb     C3   2317 -0.39007700  12.010000   ; qtot 76.995692
 2318         hx     78    bbb     H5   2318 0.14940300   1.008000   ; qtot 77.145095
 2319         hx     78    bbb     H6   2319 0.14940300   1.008000   ; qtot 77.294498
 2320         c3     78    bbb     C4   2320 0.18057300  12.010000   ; qtot 77.475071
 2321         hc     78    bbb     H7   2321 0.01788900   1.008000   ; qtot 77.492960
 2322         hc     78    bbb     H8   2322 0.01788900   1.008000   ; qtot 77.510849
 2323         c3     78    bbb     C5   2323 -0.11337700  12.010000   ; qtot 77.397472
 2324         hc     78    bbb     H9   2324 0.09515400   1.008000   ; qtot 77.492626
 2325         hc     78    bbb    H10   2325 0.09515400   1.008000   ; qtot 77.587780
 2326         c3     78    bbb     C6   2326 -0.11337700  12.010000   ; qtot 77.474403
 2327         hc     78    bbb    H11   2327 0.09515400   1.008000   ; qtot 77.569557
 2328         hc     78    bbb    H12   2328 0.09515400   1.008000   ; qtot 77.664711
 2329         c3     78    bbb     C7   2329 0.21842400  12.010000   ; qtot 77.883135
 2330         h1     78    bbb    H13   2330 0.04500300   1.008000   ; qtot 77.928138
 2331         h1     78    bbb    H14   2331 0.04500300   1.008000   ; qtot 77.973141
 2332         c3     78    bbb     C8   2332 -0.06455200  12.010000   ; qtot 77.908589
 2333         h1     78    bbb    H15   2333 0.13554100   1.008000   ; qtot 78.044130
 2334         h1     78    bbb    H16   2334 0.13554100   1.008000   ; qtot 78.179671
 2335         c3     78    bbb     C9   2335 -0.06455200  12.010000   ; qtot 78.115119
 2336         h1     78    bbb    H17   2336 0.13554100   1.008000   ; qtot 78.250660
 2337         h1     78    bbb    H18   2337 0.13554100   1.008000   ; qtot 78.386201
 2338         os     78    bbb     O1   2338 -0.62587700  16.000000   ; qtot 77.760324
 2339         hn     78    bbb    H19   2339 0.23982500   1.008000   ; qtot 78.000149
; residue   79 bbb rtp bbb q 1.0
 2340         n4     79    bbb     N1   2340 0.03726400  14.010000   ; qtot 78.037413
 2341         c3     79    bbb     C1   2341 -0.07020100  12.010000   ; qtot 77.967212
 2342         hx     79    bbb     H1   2342 0.12219000   1.008000   ; qtot 78.089402
 2343         hx     79    bbb     H2   2343 0.12219000   1.008000   ; qtot 78.211592
 2344         c3     79    bbb     C2   2344 -0.07020100  12.010000   ; qtot 78.141391
 2345         hx     79    bbb     H3   2345 0.12219000   1.008000   ; qtot 78.263581
 2346         hx     79    bbb     H4   2346 0.12219000   1.008000   ; qtot 78.385771
 2347         c3     79    bbb     C3   2347 -0.39007700  12.010000   ; qtot 77.995694
 2348         hx     79    bbb     H5   2348 0.14940300   1.008000   ; qtot 78.145097
 2349         hx     79    bbb     H6   2349 0.14940300   1.008000   ; qtot 78.294500
 2350         c3     79    bbb     C4   2350 0.18057300  12.010000   ; qtot 78.475073
 2351         hc     79    bbb     H7   2351 0.01788900   1.008000   ; qtot 78.492962
 2352         hc     79    bbb     H8   2352 0.01788900   1.008000   ; qtot 78.510851
 2353         c3     79    bbb     C5   2353 -0.11337700  12.010000   ; qtot 78.397474
 2354         hc     79    bbb     H9   2354 0.09515400   1.008000   ; qtot 78.492628
 2355         hc     79    bbb    H10   2355 0.09515400   1.008000   ; qtot 78.587782
 2356         c3     79    bbb     C6   2356 -0.11337700  12.010000   ; qtot 78.474405
 2357         hc     79    bbb    H11   2357 0.09515400   1.008000   ; qtot 78.569559
 2358         hc     79    bbb    H12   2358 0.09515400   1.008000   ; qtot 78.664713
 2359         c3     79    bbb     C7   2359 0.21842400  12.010000   ; qtot 78.883137
 2360         h1     79    bbb    H13   2360 0.04500300   1.008000   ; qtot 78.928140
 2361         h1     79    bbb    H14   2361 0.04500300   1.008000   ; qtot 78.973143
 2362         c3     79    bbb     C8   2362 -0.06455200  12.010000   ; qtot 78.908591
 2363         h1     79    bbb    H15   2363 0.13554100   1.008000   ; qtot 79.044132
 2364         h1     79    bbb    H16   2364 0.13554100   1.008000   ; qtot 79.179673
 2365         c3     79    bbb     C9   2365 -0.06455200  12.010000   ; qtot 79.115121
 2366         h1     79    bbb    H17   2366 0.13554100   1.008000   ; qtot 79.250662
 2367         h1     79    bbb    H18   2367 0.13554100   1.008000   ; qtot 79.386203
 2368         os     79    bbb     O1   2368 -0.62587700  16.000000   ; qtot 78.760326
 2369         hn     79    bbb    H19   2369 0.23982500   1.008000   ; qtot 79.000151
; residue   80 bbb rtp bbb q 1.0
 2370         n4     80    bbb     N1   2370 0.03726400  14.010000   ; qtot 79.037415
 2371         c3     80    bbb     C1   2371 -0.07020100  12.010000   ; qtot 78.967214
 2372         hx     80    bbb     H1   2372 0.12219000   1.008000   ; qtot 79.089404
 2373         hx     80    bbb     H2   2373 0.12219000   1.008000   ; qtot 79.211594
 2374         c3     80    bbb     C2   2374 -0.07020100  12.010000   ; qtot 79.141393
 2375         hx     80    bbb     H3   2375 0.12219000   1.008000   ; qtot 79.263583
 2376         hx     80    bbb     H4   2376 0.12219000   1.008000   ; qtot 79.385773
 2377         c3     80    bbb     C3   2377 -0.39007700  12.010000   ; qtot 78.995696
 2378         hx     80    bbb     H5   2378 0.14940300   1.008000   ; qtot 79.145099
 2379         hx     80    bbb     H6   2379 0.14940300   1.008000   ; qtot 79.294502
 2380         c3     80    bbb     C4   2380 0.18057300  12.010000   ; qtot 79.475075
 2381         hc     80    bbb     H7   2381 0.01788900   1.008000   ; qtot 79.492964
 2382         hc     80    bbb     H8   2382 0.01788900   1.008000   ; qtot 79.510853
 2383         c3     80    bbb     C5   2383 -0.11337700  12.010000   ; qtot 79.397476
 2384         hc     80    bbb     H9   2384 0.09515400   1.008000   ; qtot 79.492630
 2385         hc     80    bbb    H10   2385 0.09515400   1.008000   ; qtot 79.587784
 2386         c3     80    bbb     C6   2386 -0.11337700  12.010000   ; qtot 79.474407
 2387         hc     80    bbb    H11   2387 0.09515400   1.008000   ; qtot 79.569561
 2388         hc     80    bbb    H12   2388 0.09515400   1.008000   ; qtot 79.664715
 2389         c3     80    bbb     C7   2389 0.21842400  12.010000   ; qtot 79.883139
 2390         h1     80    bbb    H13   2390 0.04500300   1.008000   ; qtot 79.928142
 2391         h1     80    bbb    H14   2391 0.04500300   1.008000   ; qtot 79.973145
 2392         c3     80    bbb     C8   2392 -0.06455200  12.010000   ; qtot 79.908593
 2393         h1     80    bbb    H15   2393 0.13554100   1.008000   ; qtot 80.044134
 2394         h1     80    bbb    H16   2394 0.13554100   1.008000   ; qtot 80.179675
 2395         c3     80    bbb     C9   2395 -0.06455200  12.010000   ; qtot 80.115123
 2396         h1     80    bbb    H17   2396 0.13554100   1.008000   ; qtot 80.250664
 2397         h1     80    bbb    H18   2397 0.13554100   1.008000   ; qtot 80.386205
 2398         os     80    bbb     O1   2398 -0.62587700  16.000000   ; qtot 79.760328
 2399         hn     80    bbb    H19   2399 0.23982500   1.008000   ; qtot 80.000153
; residue   81 bbb rtp bbb q 1.0
 2400         n4     81    bbb     N1   2400 0.03726400  14.010000   ; qtot 80.037417
 2401         c3     81    bbb     C1   2401 -0.07020100  12.010000   ; qtot 79.967216
 2402         hx     81    bbb     H1   2402 0.12219000   1.008000   ; qtot 80.089406
 2403         hx     81    bbb     H2   2403 0.12219000   1.008000   ; qtot 80.211596
 2404         c3     81    bbb     C2   2404 -0.07020100  12.010000   ; qtot 80.141395
 2405         hx     81    bbb     H3   2405 0.12219000   1.008000   ; qtot 80.263585
 2406         hx     81    bbb     H4   2406 0.12219000   1.008000   ; qtot 80.385775
 2407         c3     81    bbb     C3   2407 -0.39007700  12.010000   ; qtot 79.995698
 2408         hx     81    bbb     H5   2408 0.14940300   1.008000   ; qtot 80.145101
 2409         hx     81    bbb     H6   2409 0.14940300   1.008000   ; qtot 80.294504
 2410         c3     81    bbb     C4   2410 0.18057300  12.010000   ; qtot 80.475077
 2411         hc     81    bbb     H7   2411 0.01788900   1.008000   ; qtot 80.492966
 2412         hc     81    bbb     H8   2412 0.01788900   1.008000   ; qtot 80.510855
 2413         c3     81    bbb     C5   2413 -0.11337700  12.010000   ; qtot 80.397478
 2414         hc     81    bbb     H9   2414 0.09515400   1.008000   ; qtot 80.492632
 2415         hc     81    bbb    H10   2415 0.09515400   1.008000   ; qtot 80.587786
 2416         c3     81    bbb     C6   2416 -0.11337700  12.010000   ; qtot 80.474409
 2417         hc     81    bbb    H11   2417 0.09515400   1.008000   ; qtot 80.569563
 2418         hc     81    bbb    H12   2418 0.09515400   1.008000   ; qtot 80.664717
 2419         c3     81    bbb     C7   2419 0.21842400  12.010000   ; qtot 80.883141
 2420         h1     81    bbb    H13   2420 0.04500300   1.008000   ; qtot 80.928144
 2421         h1     81    bbb    H14   2421 0.04500300   1.008000   ; qtot 80.973147
 2422         c3     81    bbb     C8   2422 -0.06455200  12.010000   ; qtot 80.908595
 2423         h1     81    bbb    H15   2423 0.13554100   1.008000   ; qtot 81.044136
 2424         h1     81    bbb    H16   2424 0.13554100   1.008000   ; qtot 81.179677
 2425         c3     81    bbb     C9   2425 -0.06455200  12.010000   ; qtot 81.115125
 2426         h1     81    bbb    H17   2426 0.13554100   1.008000   ; qtot 81.250666
 2427         h1     81    bbb    H18   2427 0.13554100   1.008000   ; qtot 81.386207
 2428         os     81    bbb     O1   2428 -0.62587700  16.000000   ; qtot 80.760330
 2429         hn     81    bbb    H19   2429 0.23982500   1.008000   ; qtot 81.000155
; residue   82 bbb rtp bbb q 1.0
 2430         n4     82    bbb     N1   2430 0.03726400  14.010000   ; qtot 81.037419
 2431         c3     82    bbb     C1   2431 -0.07020100  12.010000   ; qtot 80.967218
 2432         hx     82    bbb     H1   2432 0.12219000   1.008000   ; qtot 81.089408
 2433         hx     82    bbb     H2   2433 0.12219000   1.008000   ; qtot 81.211598
 2434         c3     82    bbb     C2   2434 -0.07020100  12.010000   ; qtot 81.141397
 2435         hx     82    bbb     H3   2435 0.12219000   1.008000   ; qtot 81.263587
 2436         hx     82    bbb     H4   2436 0.12219000   1.008000   ; qtot 81.385777
 2437         c3     82    bbb     C3   2437 -0.39007700  12.010000   ; qtot 80.995700
 2438         hx     82    bbb     H5   2438 0.14940300   1.008000   ; qtot 81.145103
 2439         hx     82    bbb     H6   2439 0.14940300   1.008000   ; qtot 81.294506
 2440         c3     82    bbb     C4   2440 0.18057300  12.010000   ; qtot 81.475079
 2441         hc     82    bbb     H7   2441 0.01788900   1.008000   ; qtot 81.492968
 2442         hc     82    bbb     H8   2442 0.01788900   1.008000   ; qtot 81.510857
 2443         c3     82    bbb     C5   2443 -0.11337700  12.010000   ; qtot 81.397480
 2444         hc     82    bbb     H9   2444 0.09515400   1.008000   ; qtot 81.492634
 2445         hc     82    bbb    H10   2445 0.09515400   1.008000   ; qtot 81.587788
 2446         c3     82    bbb     C6   2446 -0.11337700  12.010000   ; qtot 81.474411
 2447         hc     82    bbb    H11   2447 0.09515400   1.008000   ; qtot 81.569565
 2448         hc     82    bbb    H12   2448 0.09515400   1.008000   ; qtot 81.664719
 2449         c3     82    bbb     C7   2449 0.21842400  12.010000   ; qtot 81.883143
 2450         h1     82    bbb    H13   2450 0.04500300   1.008000   ; qtot 81.928146
 2451         h1     82    bbb    H14   2451 0.04500300   1.008000   ; qtot 81.973149
 2452         c3     82    bbb     C8   2452 -0.06455200  12.010000   ; qtot 81.908597
 2453         h1     82    bbb    H15   2453 0.13554100   1.008000   ; qtot 82.044138
 2454         h1     82    bbb    H16   2454 0.13554100   1.008000   ; qtot 82.179679
 2455         c3     82    bbb     C9   2455 -0.06455200  12.010000   ; qtot 82.115127
 2456         h1     82    bbb    H17   2456 0.13554100   1.008000   ; qtot 82.250668
 2457         h1     82    bbb    H18   2457 0.13554100   1.008000   ; qtot 82.386209
 2458         os     82    bbb     O1   2458 -0.62587700  16.000000   ; qtot 81.760332
 2459         hn     82    bbb    H19   2459 0.23982500   1.008000   ; qtot 82.000157
; residue   83 bbb rtp bbb q 1.0
 2460         n4     83    bbb     N1   2460 0.03726400  14.010000   ; qtot 82.037421
 2461         c3     83    bbb     C1   2461 -0.07020100  12.010000   ; qtot 81.967220
 2462         hx     83    bbb     H1   2462 0.12219000   1.008000   ; qtot 82.089410
 2463         hx     83    bbb     H2   2463 0.12219000   1.008000   ; qtot 82.211600
 2464         c3     83    bbb     C2   2464 -0.07020100  12.010000   ; qtot 82.141399
 2465         hx     83    bbb     H3   2465 0.12219000   1.008000   ; qtot 82.263589
 2466         hx     83    bbb     H4   2466 0.12219000   1.008000   ; qtot 82.385779
 2467         c3     83    bbb     C3   2467 -0.39007700  12.010000   ; qtot 81.995702
 2468         hx     83    bbb     H5   2468 0.14940300   1.008000   ; qtot 82.145105
 2469         hx     83    bbb     H6   2469 0.14940300   1.008000   ; qtot 82.294508
 2470         c3     83    bbb     C4   2470 0.18057300  12.010000   ; qtot 82.475081
 2471         hc     83    bbb     H7   2471 0.01788900   1.008000   ; qtot 82.492970
 2472         hc     83    bbb     H8   2472 0.01788900   1.008000   ; qtot 82.510859
 2473         c3     83    bbb     C5   2473 -0.11337700  12.010000   ; qtot 82.397482
 2474         hc     83    bbb     H9   2474 0.09515400   1.008000   ; qtot 82.492636
 2475         hc     83    bbb    H10   2475 0.09515400   1.008000   ; qtot 82.587790
 2476         c3     83    bbb     C6   2476 -0.11337700  12.010000   ; qtot 82.474413
 2477         hc     83    bbb    H11   2477 0.09515400   1.008000   ; qtot 82.569567
 2478         hc     83    bbb    H12   2478 0.09515400   1.008000   ; qtot 82.664721
 2479         c3     83    bbb     C7   2479 0.21842400  12.010000   ; qtot 82.883145
 2480         h1     83    bbb    H13   2480 0.04500300   1.008000   ; qtot 82.928148
 2481         h1     83    bbb    H14   2481 0.04500300   1.008000   ; qtot 82.973151
 2482         c3     83    bbb     C8   2482 -0.06455200  12.010000   ; qtot 82.908599
 2483         h1     83    bbb    H15   2483 0.13554100   1.008000   ; qtot 83.044140
 2484         h1     83    bbb    H16   2484 0.13554100   1.008000   ; qtot 83.179681
 2485         c3     83    bbb     C9   2485 -0.06455200  12.010000   ; qtot 83.115129
 2486         h1     83    bbb    H17   2486 0.13554100   1.008000   ; qtot 83.250670
 2487         h1     83    bbb    H18   2487 0.13554100   1.008000   ; qtot 83.386211
 2488         os     83    bbb     O1   2488 -0.62587700  16.000000   ; qtot 82.760334
 2489         hn     83    bbb    H19   2489 0.23982500   1.008000   ; qtot 83.000159
; residue   84 bbb rtp bbb q 1.0
 2490         n4     84    bbb     N1   2490 0.03726400  14.010000   ; qtot 83.037423
 2491         c3     84    bbb     C1   2491 -0.07020100  12.010000   ; qtot 82.967222
 2492         hx     84    bbb     H1   2492 0.12219000   1.008000   ; qtot 83.089412
 2493         hx     84    bbb     H2   2493 0.12219000   1.008000   ; qtot 83.211602
 2494         c3     84    bbb     C2   2494 -0.07020100  12.010000   ; qtot 83.141401
 2495         hx     84    bbb     H3   2495 0.12219000   1.008000   ; qtot 83.263591
 2496         hx     84    bbb     H4   2496 0.12219000   1.008000   ; qtot 83.385781
 2497         c3     84    bbb     C3   2497 -0.39007700  12.010000   ; qtot 82.995704
 2498         hx     84    bbb     H5   2498 0.14940300   1.008000   ; qtot 83.145107
 2499         hx     84    bbb     H6   2499 0.14940300   1.008000   ; qtot 83.294510
 2500         c3     84    bbb     C4   2500 0.18057300  12.010000   ; qtot 83.475083
 2501         hc     84    bbb     H7   2501 0.01788900   1.008000   ; qtot 83.492972
 2502         hc     84    bbb     H8   2502 0.01788900   1.008000   ; qtot 83.510861
 2503         c3     84    bbb     C5   2503 -0.11337700  12.010000   ; qtot 83.397484
 2504         hc     84    bbb     H9   2504 0.09515400   1.008000   ; qtot 83.492638
 2505         hc     84    bbb    H10   2505 0.09515400   1.008000   ; qtot 83.587792
 2506         c3     84    bbb     C6   2506 -0.11337700  12.010000   ; qtot 83.474415
 2507         hc     84    bbb    H11   2507 0.09515400   1.008000   ; qtot 83.569569
 2508         hc     84    bbb    H12   2508 0.09515400   1.008000   ; qtot 83.664723
 2509         c3     84    bbb     C7   2509 0.21842400  12.010000   ; qtot 83.883147
 2510         h1     84    bbb    H13   2510 0.04500300   1.008000   ; qtot 83.928150
 2511         h1     84    bbb    H14   2511 0.04500300   1.008000   ; qtot 83.973153
 2512         c3     84    bbb     C8   2512 -0.06455200  12.010000   ; qtot 83.908601
 2513         h1     84    bbb    H15   2513 0.13554100   1.008000   ; qtot 84.044142
 2514         h1     84    bbb    H16   2514 0.13554100   1.008000   ; qtot 84.179683
 2515         c3     84    bbb     C9   2515 -0.06455200  12.010000   ; qtot 84.115131
 2516         h1     84    bbb    H17   2516 0.13554100   1.008000   ; qtot 84.250672
 2517         h1     84    bbb    H18   2517 0.13554100   1.008000   ; qtot 84.386213
 2518         os     84    bbb     O1   2518 -0.62587700  16.000000   ; qtot 83.760336
 2519         hn     84    bbb    H19   2519 0.23982500   1.008000   ; qtot 84.000161
; residue   85 bbb rtp bbb q 1.0
 2520         n4     85    bbb     N1   2520 0.03726400  14.010000   ; qtot 84.037425
 2521         c3     85    bbb     C1   2521 -0.07020100  12.010000   ; qtot 83.967224
 2522         hx     85    bbb     H1   2522 0.12219000   1.008000   ; qtot 84.089414
 2523         hx     85    bbb     H2   2523 0.12219000   1.008000   ; qtot 84.211604
 2524         c3     85    bbb     C2   2524 -0.07020100  12.010000   ; qtot 84.141403
 2525         hx     85    bbb     H3   2525 0.12219000   1.008000   ; qtot 84.263593
 2526         hx     85    bbb     H4   2526 0.12219000   1.008000   ; qtot 84.385783
 2527         c3     85    bbb     C3   2527 -0.39007700  12.010000   ; qtot 83.995706
 2528         hx     85    bbb     H5   2528 0.14940300   1.008000   ; qtot 84.145109
 2529         hx     85    bbb     H6   2529 0.14940300   1.008000   ; qtot 84.294512
 2530         c3     85    bbb     C4   2530 0.18057300  12.010000   ; qtot 84.475085
 2531         hc     85    bbb     H7   2531 0.01788900   1.008000   ; qtot 84.492974
 2532         hc     85    bbb     H8   2532 0.01788900   1.008000   ; qtot 84.510863
 2533         c3     85    bbb     C5   2533 -0.11337700  12.010000   ; qtot 84.397486
 2534         hc     85    bbb     H9   2534 0.09515400   1.008000   ; qtot 84.492640
 2535         hc     85    bbb    H10   2535 0.09515400   1.008000   ; qtot 84.587794
 2536         c3     85    bbb     C6   2536 -0.11337700  12.010000   ; qtot 84.474417
 2537         hc     85    bbb    H11   2537 0.09515400   1.008000   ; qtot 84.569571
 2538         hc     85    bbb    H12   2538 0.09515400   1.008000   ; qtot 84.664725
 2539         c3     85    bbb     C7   2539 0.21842400  12.010000   ; qtot 84.883149
 2540         h1     85    bbb    H13   2540 0.04500300   1.008000   ; qtot 84.928152
 2541         h1     85    bbb    H14   2541 0.04500300   1.008000   ; qtot 84.973155
 2542         c3     85    bbb     C8   2542 -0.06455200  12.010000   ; qtot 84.908603
 2543         h1     85    bbb    H15   2543 0.13554100   1.008000   ; qtot 85.044144
 2544         h1     85    bbb    H16   2544 0.13554100   1.008000   ; qtot 85.179685
 2545         c3     85    bbb     C9   2545 -0.06455200  12.010000   ; qtot 85.115133
 2546         h1     85    bbb    H17   2546 0.13554100   1.008000   ; qtot 85.250674
 2547         h1     85    bbb    H18   2547 0.13554100   1.008000   ; qtot 85.386215
 2548         os     85    bbb     O1   2548 -0.62587700  16.000000   ; qtot 84.760338
 2549         hn     85    bbb    H19   2549 0.23982500   1.008000   ; qtot 85.000163
; residue   86 bbb rtp bbb q 1.0
 2550         n4     86    bbb     N1   2550 0.03726400  14.010000   ; qtot 85.037427
 2551         c3     86    bbb     C1   2551 -0.07020100  12.010000   ; qtot 84.967226
 2552         hx     86    bbb     H1   2552 0.12219000   1.008000   ; qtot 85.089416
 2553         hx     86    bbb     H2   2553 0.12219000   1.008000   ; qtot 85.211606
 2554         c3     86    bbb     C2   2554 -0.07020100  12.010000   ; qtot 85.141405
 2555         hx     86    bbb     H3   2555 0.12219000   1.008000   ; qtot 85.263595
 2556         hx     86    bbb     H4   2556 0.12219000   1.008000   ; qtot 85.385785
 2557         c3     86    bbb     C3   2557 -0.39007700  12.010000   ; qtot 84.995708
 2558         hx     86    bbb     H5   2558 0.14940300   1.008000   ; qtot 85.145111
 2559         hx     86    bbb     H6   2559 0.14940300   1.008000   ; qtot 85.294514
 2560         c3     86    bbb     C4   2560 0.18057300  12.010000   ; qtot 85.475087
 2561         hc     86    bbb     H7   2561 0.01788900   1.008000   ; qtot 85.492976
 2562         hc     86    bbb     H8   2562 0.01788900   1.008000   ; qtot 85.510865
 2563         c3     86    bbb     C5   2563 -0.11337700  12.010000   ; qtot 85.397488
 2564         hc     86    bbb     H9   2564 0.09515400   1.008000   ; qtot 85.492642
 2565         hc     86    bbb    H10   2565 0.09515400   1.008000   ; qtot 85.587796
 2566         c3     86    bbb     C6   2566 -0.11337700  12.010000   ; qtot 85.474419
 2567         hc     86    bbb    H11   2567 0.09515400   1.008000   ; qtot 85.569573
 2568         hc     86    bbb    H12   2568 0.09515400   1.008000   ; qtot 85.664727
 2569         c3     86    bbb     C7   2569 0.21842400  12.010000   ; qtot 85.883151
 2570         h1     86    bbb    H13   2570 0.04500300   1.008000   ; qtot 85.928154
 2571         h1     86    bbb    H14   2571 0.04500300   1.008000   ; qtot 85.973157
 2572         c3     86    bbb     C8   2572 -0.06455200  12.010000   ; qtot 85.908605
 2573         h1     86    bbb    H15   2573 0.13554100   1.008000   ; qtot 86.044146
 2574         h1     86    bbb    H16   2574 0.13554100   1.008000   ; qtot 86.179687
 2575         c3     86    bbb     C9   2575 -0.06455200  12.010000   ; qtot 86.115135
 2576         h1     86    bbb    H17   2576 0.13554100   1.008000   ; qtot 86.250676
 2577         h1     86    bbb    H18   2577 0.13554100   1.008000   ; qtot 86.386217
 2578         os     86    bbb     O1   2578 -0.62587700  16.000000   ; qtot 85.760340
 2579         hn     86    bbb    H19   2579 0.23982500   1.008000   ; qtot 86.000165
; residue   87 bbb rtp bbb q 1.0
 2580         n4     87    bbb     N1   2580 0.03726400  14.010000   ; qtot 86.037429
 2581         c3     87    bbb     C1   2581 -0.07020100  12.010000   ; qtot 85.967228
 2582         hx     87    bbb     H1   2582 0.12219000   1.008000   ; qtot 86.089418
 2583         hx     87    bbb     H2   2583 0.12219000   1.008000   ; qtot 86.211608
 2584         c3     87    bbb     C2   2584 -0.07020100  12.010000   ; qtot 86.141407
 2585         hx     87    bbb     H3   2585 0.12219000   1.008000   ; qtot 86.263597
 2586         hx     87    bbb     H4   2586 0.12219000   1.008000   ; qtot 86.385787
 2587         c3     87    bbb     C3   2587 -0.39007700  12.010000   ; qtot 85.995710
 2588         hx     87    bbb     H5   2588 0.14940300   1.008000   ; qtot 86.145113
 2589         hx     87    bbb     H6   2589 0.14940300   1.008000   ; qtot 86.294516
 2590         c3     87    bbb     C4   2590 0.18057300  12.010000   ; qtot 86.475089
 2591         hc     87    bbb     H7   2591 0.01788900   1.008000   ; qtot 86.492978
 2592         hc     87    bbb     H8   2592 0.01788900   1.008000   ; qtot 86.510867
 2593         c3     87    bbb     C5   2593 -0.11337700  12.010000   ; qtot 86.397490
 2594         hc     87    bbb     H9   2594 0.09515400   1.008000   ; qtot 86.492644
 2595         hc     87    bbb    H10   2595 0.09515400   1.008000   ; qtot 86.587798
 2596         c3     87    bbb     C6   2596 -0.11337700  12.010000   ; qtot 86.474421
 2597         hc     87    bbb    H11   2597 0.09515400   1.008000   ; qtot 86.569575
 2598         hc     87    bbb    H12   2598 0.09515400   1.008000   ; qtot 86.664729
 2599         c3     87    bbb     C7   2599 0.21842400  12.010000   ; qtot 86.883153
 2600         h1     87    bbb    H13   2600 0.04500300   1.008000   ; qtot 86.928156
 2601         h1     87    bbb    H14   2601 0.04500300   1.008000   ; qtot 86.973159
 2602         c3     87    bbb     C8   2602 -0.06455200  12.010000   ; qtot 86.908607
 2603         h1     87    bbb    H15   2603 0.13554100   1.008000   ; qtot 87.044148
 2604         h1     87    bbb    H16   2604 0.13554100   1.008000   ; qtot 87.179689
 2605         c3     87    bbb     C9   2605 -0.06455200  12.010000   ; qtot 87.115137
 2606         h1     87    bbb    H17   2606 0.13554100   1.008000   ; qtot 87.250678
 2607         h1     87    bbb    H18   2607 0.13554100   1.008000   ; qtot 87.386219
 2608         os     87    bbb     O1   2608 -0.62587700  16.000000   ; qtot 86.760342
 2609         hn     87    bbb    H19   2609 0.23982500   1.008000   ; qtot 87.000167
; residue   88 bbb rtp bbb q 1.0
 2610         n4     88    bbb     N1   2610 0.03726400  14.010000   ; qtot 87.037431
 2611         c3     88    bbb     C1   2611 -0.07020100  12.010000   ; qtot 86.967230
 2612         hx     88    bbb     H1   2612 0.12219000   1.008000   ; qtot 87.089420
 2613         hx     88    bbb     H2   2613 0.12219000   1.008000   ; qtot 87.211610
 2614         c3     88    bbb     C2   2614 -0.07020100  12.010000   ; qtot 87.141409
 2615         hx     88    bbb     H3   2615 0.12219000   1.008000   ; qtot 87.263599
 2616         hx     88    bbb     H4   2616 0.12219000   1.008000   ; qtot 87.385789
 2617         c3     88    bbb     C3   2617 -0.39007700  12.010000   ; qtot 86.995712
 2618         hx     88    bbb     H5   2618 0.14940300   1.008000   ; qtot 87.145115
 2619         hx     88    bbb     H6   2619 0.14940300   1.008000   ; qtot 87.294518
 2620         c3     88    bbb     C4   2620 0.18057300  12.010000   ; qtot 87.475091
 2621         hc     88    bbb     H7   2621 0.01788900   1.008000   ; qtot 87.492980
 2622         hc     88    bbb     H8   2622 0.01788900   1.008000   ; qtot 87.510869
 2623         c3     88    bbb     C5   2623 -0.11337700  12.010000   ; qtot 87.397492
 2624         hc     88    bbb     H9   2624 0.09515400   1.008000   ; qtot 87.492646
 2625         hc     88    bbb    H10   2625 0.09515400   1.008000   ; qtot 87.587800
 2626         c3     88    bbb     C6   2626 -0.11337700  12.010000   ; qtot 87.474423
 2627         hc     88    bbb    H11   2627 0.09515400   1.008000   ; qtot 87.569577
 2628         hc     88    bbb    H12   2628 0.09515400   1.008000   ; qtot 87.664731
 2629         c3     88    bbb     C7   2629 0.21842400  12.010000   ; qtot 87.883155
 2630         h1     88    bbb    H13   2630 0.04500300   1.008000   ; qtot 87.928158
 2631         h1     88    bbb    H14   2631 0.04500300   1.008000   ; qtot 87.973161
 2632         c3     88    bbb     C8   2632 -0.06455200  12.010000   ; qtot 87.908609
 2633         h1     88    bbb    H15   2633 0.13554100   1.008000   ; qtot 88.044150
 2634         h1     88    bbb    H16   2634 0.13554100   1.008000   ; qtot 88.179691
 2635         c3     88    bbb     C9   2635 -0.06455200  12.010000   ; qtot 88.115139
 2636         h1     88    bbb    H17   2636 0.13554100   1.008000   ; qtot 88.250680
 2637         h1     88    bbb    H18   2637 0.13554100   1.008000   ; qtot 88.386221
 2638         os     88    bbb     O1   2638 -0.62587700  16.000000   ; qtot 87.760344
 2639         hn     88    bbb    H19   2639 0.23982500   1.008000   ; qtot 88.000169
; residue   89 bbb rtp bbb q 1.0
 2640         n4     89    bbb     N1   2640 0.03726400  14.010000   ; qtot 88.037433
 2641         c3     89    bbb     C1   2641 -0.07020100  12.010000   ; qtot 87.967232
 2642         hx     89    bbb     H1   2642 0.12219000   1.008000   ; qtot 88.089422
 2643         hx     89    bbb     H2   2643 0.12219000   1.008000   ; qtot 88.211612
 2644         c3     89    bbb     C2   2644 -0.07020100  12.010000   ; qtot 88.141411
 2645         hx     89    bbb     H3   2645 0.12219000   1.008000   ; qtot 88.263601
 2646         hx     89    bbb     H4   2646 0.12219000   1.008000   ; qtot 88.385791
 2647         c3     89    bbb     C3   2647 -0.39007700  12.010000   ; qtot 87.995714
 2648         hx     89    bbb     H5   2648 0.14940300   1.008000   ; qtot 88.145117
 2649         hx     89    bbb     H6   2649 0.14940300   1.008000   ; qtot 88.294520
 2650         c3     89    bbb     C4   2650 0.18057300  12.010000   ; qtot 88.475093
 2651         hc     89    bbb     H7   2651 0.01788900   1.008000   ; qtot 88.492982
 2652         hc     89    bbb     H8   2652 0.01788900   1.008000   ; qtot 88.510871
 2653         c3     89    bbb     C5   2653 -0.11337700  12.010000   ; qtot 88.397494
 2654         hc     89    bbb     H9   2654 0.09515400   1.008000   ; qtot 88.492648
 2655         hc     89    bbb    H10   2655 0.09515400   1.008000   ; qtot 88.587802
 2656         c3     89    bbb     C6   2656 -0.11337700  12.010000   ; qtot 88.474425
 2657         hc     89    bbb    H11   2657 0.09515400   1.008000   ; qtot 88.569579
 2658         hc     89    bbb    H12   2658 0.09515400   1.008000   ; qtot 88.664733
 2659         c3     89    bbb     C7   2659 0.21842400  12.010000   ; qtot 88.883157
 2660         h1     89    bbb    H13   2660 0.04500300   1.008000   ; qtot 88.928160
 2661         h1     89    bbb    H14   2661 0.04500300   1.008000   ; qtot 88.973163
 2662         c3     89    bbb     C8   2662 -0.06455200  12.010000   ; qtot 88.908611
 2663         h1     89    bbb    H15   2663 0.13554100   1.008000   ; qtot 89.044152
 2664         h1     89    bbb    H16   2664 0.13554100   1.008000   ; qtot 89.179693
 2665         c3     89    bbb     C9   2665 -0.06455200  12.010000   ; qtot 89.115141
 2666         h1     89    bbb    H17   2666 0.13554100   1.008000   ; qtot 89.250682
 2667         h1     89    bbb    H18   2667 0.13554100   1.008000   ; qtot 89.386223
 2668         os     89    bbb     O1   2668 -0.62587700  16.000000   ; qtot 88.760346
 2669         hn     89    bbb    H19   2669 0.23982500   1.008000   ; qtot 89.000171
; residue   90 bbb rtp bbb q 1.0
 2670         n4     90    bbb     N1   2670 0.03726400  14.010000   ; qtot 89.037435
 2671         c3     90    bbb     C1   2671 -0.07020100  12.010000   ; qtot 88.967234
 2672         hx     90    bbb     H1   2672 0.12219000   1.008000   ; qtot 89.089424
 2673         hx     90    bbb     H2   2673 0.12219000   1.008000   ; qtot 89.211614
 2674         c3     90    bbb     C2   2674 -0.07020100  12.010000   ; qtot 89.141413
 2675         hx     90    bbb     H3   2675 0.12219000   1.008000   ; qtot 89.263603
 2676         hx     90    bbb     H4   2676 0.12219000   1.008000   ; qtot 89.385793
 2677         c3     90    bbb     C3   2677 -0.39007700  12.010000   ; qtot 88.995716
 2678         hx     90    bbb     H5   2678 0.14940300   1.008000   ; qtot 89.145119
 2679         hx     90    bbb     H6   2679 0.14940300   1.008000   ; qtot 89.294522
 2680         c3     90    bbb     C4   2680 0.18057300  12.010000   ; qtot 89.475095
 2681         hc     90    bbb     H7   2681 0.01788900   1.008000   ; qtot 89.492984
 2682         hc     90    bbb     H8   2682 0.01788900   1.008000   ; qtot 89.510873
 2683         c3     90    bbb     C5   2683 -0.11337700  12.010000   ; qtot 89.397496
 2684         hc     90    bbb     H9   2684 0.09515400   1.008000   ; qtot 89.492650
 2685         hc     90    bbb    H10   2685 0.09515400   1.008000   ; qtot 89.587804
 2686         c3     90    bbb     C6   2686 -0.11337700  12.010000   ; qtot 89.474427
 2687         hc     90    bbb    H11   2687 0.09515400   1.008000   ; qtot 89.569581
 2688         hc     90    bbb    H12   2688 0.09515400   1.008000   ; qtot 89.664735
 2689         c3     90    bbb     C7   2689 0.21842400  12.010000   ; qtot 89.883159
 2690         h1     90    bbb    H13   2690 0.04500300   1.008000   ; qtot 89.928162
 2691         h1     90    bbb    H14   2691 0.04500300   1.008000   ; qtot 89.973165
 2692         c3     90    bbb     C8   2692 -0.06455200  12.010000   ; qtot 89.908613
 2693         h1     90    bbb    H15   2693 0.13554100   1.008000   ; qtot 90.044154
 2694         h1     90    bbb    H16   2694 0.13554100   1.008000   ; qtot 90.179695
 2695         c3     90    bbb     C9   2695 -0.06455200  12.010000   ; qtot 90.115143
 2696         h1     90    bbb    H17   2696 0.13554100   1.008000   ; qtot 90.250684
 2697         h1     90    bbb    H18   2697 0.13554100   1.008000   ; qtot 90.386225
 2698         os     90    bbb     O1   2698 -0.62587700  16.000000   ; qtot 89.760348
 2699         hn     90    bbb    H19   2699 0.23982500   1.008000   ; qtot 90.000173
; residue   91 bbb rtp bbb q 1.0
 2700         n4     91    bbb     N1   2700 0.03726400  14.010000   ; qtot 90.037437
 2701         c3     91    bbb     C1   2701 -0.07020100  12.010000   ; qtot 89.967236
 2702         hx     91    bbb     H1   2702 0.12219000   1.008000   ; qtot 90.089426
 2703         hx     91    bbb     H2   2703 0.12219000   1.008000   ; qtot 90.211616
 2704         c3     91    bbb     C2   2704 -0.07020100  12.010000   ; qtot 90.141415
 2705         hx     91    bbb     H3   2705 0.12219000   1.008000   ; qtot 90.263605
 2706         hx     91    bbb     H4   2706 0.12219000   1.008000   ; qtot 90.385795
 2707         c3     91    bbb     C3   2707 -0.39007700  12.010000   ; qtot 89.995718
 2708         hx     91    bbb     H5   2708 0.14940300   1.008000   ; qtot 90.145121
 2709         hx     91    bbb     H6   2709 0.14940300   1.008000   ; qtot 90.294524
 2710         c3     91    bbb     C4   2710 0.18057300  12.010000   ; qtot 90.475097
 2711         hc     91    bbb     H7   2711 0.01788900   1.008000   ; qtot 90.492986
 2712         hc     91    bbb     H8   2712 0.01788900   1.008000   ; qtot 90.510875
 2713         c3     91    bbb     C5   2713 -0.11337700  12.010000   ; qtot 90.397498
 2714         hc     91    bbb     H9   2714 0.09515400   1.008000   ; qtot 90.492652
 2715         hc     91    bbb    H10   2715 0.09515400   1.008000   ; qtot 90.587806
 2716         c3     91    bbb     C6   2716 -0.11337700  12.010000   ; qtot 90.474429
 2717         hc     91    bbb    H11   2717 0.09515400   1.008000   ; qtot 90.569583
 2718         hc     91    bbb    H12   2718 0.09515400   1.008000   ; qtot 90.664737
 2719         c3     91    bbb     C7   2719 0.21842400  12.010000   ; qtot 90.883161
 2720         h1     91    bbb    H13   2720 0.04500300   1.008000   ; qtot 90.928164
 2721         h1     91    bbb    H14   2721 0.04500300   1.008000   ; qtot 90.973167
 2722         c3     91    bbb     C8   2722 -0.06455200  12.010000   ; qtot 90.908615
 2723         h1     91    bbb    H15   2723 0.13554100   1.008000   ; qtot 91.044156
 2724         h1     91    bbb    H16   2724 0.13554100   1.008000   ; qtot 91.179697
 2725         c3     91    bbb     C9   2725 -0.06455200  12.010000   ; qtot 91.115145
 2726         h1     91    bbb    H17   2726 0.13554100   1.008000   ; qtot 91.250686
 2727         h1     91    bbb    H18   2727 0.13554100   1.008000   ; qtot 91.386227
 2728         os     91    bbb     O1   2728 -0.62587700  16.000000   ; qtot 90.760350
 2729         hn     91    bbb    H19   2729 0.23982500   1.008000   ; qtot 91.000175
; residue   92 bbb rtp bbb q 1.0
 2730         n4     92    bbb     N1   2730 0.03726400  14.010000   ; qtot 91.037439
 2731         c3     92    bbb     C1   2731 -0.07020100  12.010000   ; qtot 90.967238
 2732         hx     92    bbb     H1   2732 0.12219000   1.008000   ; qtot 91.089428
 2733         hx     92    bbb     H2   2733 0.12219000   1.008000   ; qtot 91.211618
 2734         c3     92    bbb     C2   2734 -0.07020100  12.010000   ; qtot 91.141417
 2735         hx     92    bbb     H3   2735 0.12219000   1.008000   ; qtot 91.263607
 2736         hx     92    bbb     H4   2736 0.12219000   1.008000   ; qtot 91.385797
 2737         c3     92    bbb     C3   2737 -0.39007700  12.010000   ; qtot 90.995720
 2738         hx     92    bbb     H5   2738 0.14940300   1.008000   ; qtot 91.145123
 2739         hx     92    bbb     H6   2739 0.14940300   1.008000   ; qtot 91.294526
 2740         c3     92    bbb     C4   2740 0.18057300  12.010000   ; qtot 91.475099
 2741         hc     92    bbb     H7   2741 0.01788900   1.008000   ; qtot 91.492988
 2742         hc     92    bbb     H8   2742 0.01788900   1.008000   ; qtot 91.510877
 2743         c3     92    bbb     C5   2743 -0.11337700  12.010000   ; qtot 91.397500
 2744         hc     92    bbb     H9   2744 0.09515400   1.008000   ; qtot 91.492654
 2745         hc     92    bbb    H10   2745 0.09515400   1.008000   ; qtot 91.587808
 2746         c3     92    bbb     C6   2746 -0.11337700  12.010000   ; qtot 91.474431
 2747         hc     92    bbb    H11   2747 0.09515400   1.008000   ; qtot 91.569585
 2748         hc     92    bbb    H12   2748 0.09515400   1.008000   ; qtot 91.664739
 2749         c3     92    bbb     C7   2749 0.21842400  12.010000   ; qtot 91.883163
 2750         h1     92    bbb    H13   2750 0.04500300   1.008000   ; qtot 91.928166
 2751         h1     92    bbb    H14   2751 0.04500300   1.008000   ; qtot 91.973169
 2752         c3     92    bbb     C8   2752 -0.06455200  12.010000   ; qtot 91.908617
 2753         h1     92    bbb    H15   2753 0.13554100   1.008000   ; qtot 92.044158
 2754         h1     92    bbb    H16   2754 0.13554100   1.008000   ; qtot 92.179699
 2755         c3     92    bbb     C9   2755 -0.06455200  12.010000   ; qtot 92.115147
 2756         h1     92    bbb    H17   2756 0.13554100   1.008000   ; qtot 92.250688
 2757         h1     92    bbb    H18   2757 0.13554100   1.008000   ; qtot 92.386229
 2758         os     92    bbb     O1   2758 -0.62587700  16.000000   ; qtot 91.760352
 2759         hn     92    bbb    H19   2759 0.23982500   1.008000   ; qtot 92.000177
; residue   93 bbb rtp bbb q 1.0
 2760         n4     93    bbb     N1   2760 0.03726400  14.010000   ; qtot 92.037441
 2761         c3     93    bbb     C1   2761 -0.07020100  12.010000   ; qtot 91.967240
 2762         hx     93    bbb     H1   2762 0.12219000   1.008000   ; qtot 92.089430
 2763         hx     93    bbb     H2   2763 0.12219000   1.008000   ; qtot 92.211620
 2764         c3     93    bbb     C2   2764 -0.07020100  12.010000   ; qtot 92.141419
 2765         hx     93    bbb     H3   2765 0.12219000   1.008000   ; qtot 92.263609
 2766         hx     93    bbb     H4   2766 0.12219000   1.008000   ; qtot 92.385799
 2767         c3     93    bbb     C3   2767 -0.39007700  12.010000   ; qtot 91.995722
 2768         hx     93    bbb     H5   2768 0.14940300   1.008000   ; qtot 92.145125
 2769         hx     93    bbb     H6   2769 0.14940300   1.008000   ; qtot 92.294528
 2770         c3     93    bbb     C4   2770 0.18057300  12.010000   ; qtot 92.475101
 2771         hc     93    bbb     H7   2771 0.01788900   1.008000   ; qtot 92.492990
 2772         hc     93    bbb     H8   2772 0.01788900   1.008000   ; qtot 92.510879
 2773         c3     93    bbb     C5   2773 -0.11337700  12.010000   ; qtot 92.397502
 2774         hc     93    bbb     H9   2774 0.09515400   1.008000   ; qtot 92.492656
 2775         hc     93    bbb    H10   2775 0.09515400   1.008000   ; qtot 92.587810
 2776         c3     93    bbb     C6   2776 -0.11337700  12.010000   ; qtot 92.474433
 2777         hc     93    bbb    H11   2777 0.09515400   1.008000   ; qtot 92.569587
 2778         hc     93    bbb    H12   2778 0.09515400   1.008000   ; qtot 92.664741
 2779         c3     93    bbb     C7   2779 0.21842400  12.010000   ; qtot 92.883165
 2780         h1     93    bbb    H13   2780 0.04500300   1.008000   ; qtot 92.928168
 2781         h1     93    bbb    H14   2781 0.04500300   1.008000   ; qtot 92.973171
 2782         c3     93    bbb     C8   2782 -0.06455200  12.010000   ; qtot 92.908619
 2783         h1     93    bbb    H15   2783 0.13554100   1.008000   ; qtot 93.044160
 2784         h1     93    bbb    H16   2784 0.13554100   1.008000   ; qtot 93.179701
 2785         c3     93    bbb     C9   2785 -0.06455200  12.010000   ; qtot 93.115149
 2786         h1     93    bbb    H17   2786 0.13554100   1.008000   ; qtot 93.250690
 2787         h1     93    bbb    H18   2787 0.13554100   1.008000   ; qtot 93.386231
 2788         os     93    bbb     O1   2788 -0.62587700  16.000000   ; qtot 92.760354
 2789         hn     93    bbb    H19   2789 0.23982500   1.008000   ; qtot 93.000179
; residue   94 bbb rtp bbb q 1.0
 2790         n4     94    bbb     N1   2790 0.03726400  14.010000   ; qtot 93.037443
 2791         c3     94    bbb     C1   2791 -0.07020100  12.010000   ; qtot 92.967242
 2792         hx     94    bbb     H1   2792 0.12219000   1.008000   ; qtot 93.089432
 2793         hx     94    bbb     H2   2793 0.12219000   1.008000   ; qtot 93.211622
 2794         c3     94    bbb     C2   2794 -0.07020100  12.010000   ; qtot 93.141421
 2795         hx     94    bbb     H3   2795 0.12219000   1.008000   ; qtot 93.263611
 2796         hx     94    bbb     H4   2796 0.12219000   1.008000   ; qtot 93.385801
 2797         c3     94    bbb     C3   2797 -0.39007700  12.010000   ; qtot 92.995724
 2798         hx     94    bbb     H5   2798 0.14940300   1.008000   ; qtot 93.145127
 2799         hx     94    bbb     H6   2799 0.14940300   1.008000   ; qtot 93.294530
 2800         c3     94    bbb     C4   2800 0.18057300  12.010000   ; qtot 93.475103
 2801         hc     94    bbb     H7   2801 0.01788900   1.008000   ; qtot 93.492992
 2802         hc     94    bbb     H8   2802 0.01788900   1.008000   ; qtot 93.510881
 2803         c3     94    bbb     C5   2803 -0.11337700  12.010000   ; qtot 93.397504
 2804         hc     94    bbb     H9   2804 0.09515400   1.008000   ; qtot 93.492658
 2805         hc     94    bbb    H10   2805 0.09515400   1.008000   ; qtot 93.587812
 2806         c3     94    bbb     C6   2806 -0.11337700  12.010000   ; qtot 93.474435
 2807         hc     94    bbb    H11   2807 0.09515400   1.008000   ; qtot 93.569589
 2808         hc     94    bbb    H12   2808 0.09515400   1.008000   ; qtot 93.664743
 2809         c3     94    bbb     C7   2809 0.21842400  12.010000   ; qtot 93.883167
 2810         h1     94    bbb    H13   2810 0.04500300   1.008000   ; qtot 93.928170
 2811         h1     94    bbb    H14   2811 0.04500300   1.008000   ; qtot 93.973173
 2812         c3     94    bbb     C8   2812 -0.06455200  12.010000   ; qtot 93.908621
 2813         h1     94    bbb    H15   2813 0.13554100   1.008000   ; qtot 94.044162
 2814         h1     94    bbb    H16   2814 0.13554100   1.008000   ; qtot 94.179703
 2815         c3     94    bbb     C9   2815 -0.06455200  12.010000   ; qtot 94.115151
 2816         h1     94    bbb    H17   2816 0.13554100   1.008000   ; qtot 94.250692
 2817         h1     94    bbb    H18   2817 0.13554100   1.008000   ; qtot 94.386233
 2818         os     94    bbb     O1   2818 -0.62587700  16.000000   ; qtot 93.760356
 2819         hn     94    bbb    H19   2819 0.23982500   1.008000   ; qtot 94.000181
; residue   95 bbb rtp bbb q 1.0
 2820         n4     95    bbb     N1   2820 0.03726400  14.010000   ; qtot 94.037445
 2821         c3     95    bbb     C1   2821 -0.07020100  12.010000   ; qtot 93.967244
 2822         hx     95    bbb     H1   2822 0.12219000   1.008000   ; qtot 94.089434
 2823         hx     95    bbb     H2   2823 0.12219000   1.008000   ; qtot 94.211624
 2824         c3     95    bbb     C2   2824 -0.07020100  12.010000   ; qtot 94.141423
 2825         hx     95    bbb     H3   2825 0.12219000   1.008000   ; qtot 94.263613
 2826         hx     95    bbb     H4   2826 0.12219000   1.008000   ; qtot 94.385803
 2827         c3     95    bbb     C3   2827 -0.39007700  12.010000   ; qtot 93.995726
 2828         hx     95    bbb     H5   2828 0.14940300   1.008000   ; qtot 94.145129
 2829         hx     95    bbb     H6   2829 0.14940300   1.008000   ; qtot 94.294532
 2830         c3     95    bbb     C4   2830 0.18057300  12.010000   ; qtot 94.475105
 2831         hc     95    bbb     H7   2831 0.01788900   1.008000   ; qtot 94.492994
 2832         hc     95    bbb     H8   2832 0.01788900   1.008000   ; qtot 94.510883
 2833         c3     95    bbb     C5   2833 -0.11337700  12.010000   ; qtot 94.397506
 2834         hc     95    bbb     H9   2834 0.09515400   1.008000   ; qtot 94.492660
 2835         hc     95    bbb    H10   2835 0.09515400   1.008000   ; qtot 94.587814
 2836         c3     95    bbb     C6   2836 -0.11337700  12.010000   ; qtot 94.474437
 2837         hc     95    bbb    H11   2837 0.09515400   1.008000   ; qtot 94.569591
 2838         hc     95    bbb    H12   2838 0.09515400   1.008000   ; qtot 94.664745
 2839         c3     95    bbb     C7   2839 0.21842400  12.010000   ; qtot 94.883169
 2840         h1     95    bbb    H13   2840 0.04500300   1.008000   ; qtot 94.928172
 2841         h1     95    bbb    H14   2841 0.04500300   1.008000   ; qtot 94.973175
 2842         c3     95    bbb     C8   2842 -0.06455200  12.010000   ; qtot 94.908623
 2843         h1     95    bbb    H15   2843 0.13554100   1.008000   ; qtot 95.044164
 2844         h1     95    bbb    H16   2844 0.13554100   1.008000   ; qtot 95.179705
 2845         c3     95    bbb     C9   2845 -0.06455200  12.010000   ; qtot 95.115153
 2846         h1     95    bbb    H17   2846 0.13554100   1.008000   ; qtot 95.250694
 2847         h1     95    bbb    H18   2847 0.13554100   1.008000   ; qtot 95.386235
 2848         os     95    bbb     O1   2848 -0.62587700  16.000000   ; qtot 94.760358
 2849         hn     95    bbb    H19   2849 0.23982500   1.008000   ; qtot 95.000183
; residue   96 bbb rtp bbb q 1.0
 2850         n4     96    bbb     N1   2850 0.03726400  14.010000   ; qtot 95.037447
 2851         c3     96    bbb     C1   2851 -0.07020100  12.010000   ; qtot 94.967246
 2852         hx     96    bbb     H1   2852 0.12219000   1.008000   ; qtot 95.089436
 2853         hx     96    bbb     H2   2853 0.12219000   1.008000   ; qtot 95.211626
 2854         c3     96    bbb     C2   2854 -0.07020100  12.010000   ; qtot 95.141425
 2855         hx     96    bbb     H3   2855 0.12219000   1.008000   ; qtot 95.263615
 2856         hx     96    bbb     H4   2856 0.12219000   1.008000   ; qtot 95.385805
 2857         c3     96    bbb     C3   2857 -0.39007700  12.010000   ; qtot 94.995728
 2858         hx     96    bbb     H5   2858 0.14940300   1.008000   ; qtot 95.145131
 2859         hx     96    bbb     H6   2859 0.14940300   1.008000   ; qtot 95.294534
 2860         c3     96    bbb     C4   2860 0.18057300  12.010000   ; qtot 95.475107
 2861         hc     96    bbb     H7   2861 0.01788900   1.008000   ; qtot 95.492996
 2862         hc     96    bbb     H8   2862 0.01788900   1.008000   ; qtot 95.510885
 2863         c3     96    bbb     C5   2863 -0.11337700  12.010000   ; qtot 95.397508
 2864         hc     96    bbb     H9   2864 0.09515400   1.008000   ; qtot 95.492662
 2865         hc     96    bbb    H10   2865 0.09515400   1.008000   ; qtot 95.587816
 2866         c3     96    bbb     C6   2866 -0.11337700  12.010000   ; qtot 95.474439
 2867         hc     96    bbb    H11   2867 0.09515400   1.008000   ; qtot 95.569593
 2868         hc     96    bbb    H12   2868 0.09515400   1.008000   ; qtot 95.664747
 2869         c3     96    bbb     C7   2869 0.21842400  12.010000   ; qtot 95.883171
 2870         h1     96    bbb    H13   2870 0.04500300   1.008000   ; qtot 95.928174
 2871         h1     96    bbb    H14   2871 0.04500300   1.008000   ; qtot 95.973177
 2872         c3     96    bbb     C8   2872 -0.06455200  12.010000   ; qtot 95.908625
 2873         h1     96    bbb    H15   2873 0.13554100   1.008000   ; qtot 96.044166
 2874         h1     96    bbb    H16   2874 0.13554100   1.008000   ; qtot 96.179707
 2875         c3     96    bbb     C9   2875 -0.06455200  12.010000   ; qtot 96.115155
 2876         h1     96    bbb    H17   2876 0.13554100   1.008000   ; qtot 96.250696
 2877         h1     96    bbb    H18   2877 0.13554100   1.008000   ; qtot 96.386237
 2878         os     96    bbb     O1   2878 -0.62587700  16.000000   ; qtot 95.760360
 2879         hn     96    bbb    H19   2879 0.23982500   1.008000   ; qtot 96.000185
; residue   97 bbb rtp bbb q 1.0
 2880         n4     97    bbb     N1   2880 0.03726400  14.010000   ; qtot 96.037449
 2881         c3     97    bbb     C1   2881 -0.07020100  12.010000   ; qtot 95.967248
 2882         hx     97    bbb     H1   2882 0.12219000   1.008000   ; qtot 96.089438
 2883         hx     97    bbb     H2   2883 0.12219000   1.008000   ; qtot 96.211628
 2884         c3     97    bbb     C2   2884 -0.07020100  12.010000   ; qtot 96.141427
 2885         hx     97    bbb     H3   2885 0.12219000   1.008000   ; qtot 96.263617
 2886         hx     97    bbb     H4   2886 0.12219000   1.008000   ; qtot 96.385807
 2887         c3     97    bbb     C3   2887 -0.39007700  12.010000   ; qtot 95.995730
 2888         hx     97    bbb     H5   2888 0.14940300   1.008000   ; qtot 96.145133
 2889         hx     97    bbb     H6   2889 0.14940300   1.008000   ; qtot 96.294536
 2890         c3     97    bbb     C4   2890 0.18057300  12.010000   ; qtot 96.475109
 2891         hc     97    bbb     H7   2891 0.01788900   1.008000   ; qtot 96.492998
 2892         hc     97    bbb     H8   2892 0.01788900   1.008000   ; qtot 96.510887
 2893         c3     97    bbb     C5   2893 -0.11337700  12.010000   ; qtot 96.397510
 2894         hc     97    bbb     H9   2894 0.09515400   1.008000   ; qtot 96.492664
 2895         hc     97    bbb    H10   2895 0.09515400   1.008000   ; qtot 96.587818
 2896         c3     97    bbb     C6   2896 -0.11337700  12.010000   ; qtot 96.474441
 2897         hc     97    bbb    H11   2897 0.09515400   1.008000   ; qtot 96.569595
 2898         hc     97    bbb    H12   2898 0.09515400   1.008000   ; qtot 96.664749
 2899         c3     97    bbb     C7   2899 0.21842400  12.010000   ; qtot 96.883173
 2900         h1     97    bbb    H13   2900 0.04500300   1.008000   ; qtot 96.928176
 2901         h1     97    bbb    H14   2901 0.04500300   1.008000   ; qtot 96.973179
 2902         c3     97    bbb     C8   2902 -0.06455200  12.010000   ; qtot 96.908627
 2903         h1     97    bbb    H15   2903 0.13554100   1.008000   ; qtot 97.044168
 2904         h1     97    bbb    H16   2904 0.13554100   1.008000   ; qtot 97.179709
 2905         c3     97    bbb     C9   2905 -0.06455200  12.010000   ; qtot 97.115157
 2906         h1     97    bbb    H17   2906 0.13554100   1.008000   ; qtot 97.250698
 2907         h1     97    bbb    H18   2907 0.13554100   1.008000   ; qtot 97.386239
 2908         os     97    bbb     O1   2908 -0.62587700  16.000000   ; qtot 96.760362
 2909         hn     97    bbb    H19   2909 0.23982500   1.008000   ; qtot 97.000187
; residue   98 bbb rtp bbb q 1.0
 2910         n4     98    bbb     N1   2910 0.03726400  14.010000   ; qtot 97.037451
 2911         c3     98    bbb     C1   2911 -0.07020100  12.010000   ; qtot 96.967250
 2912         hx     98    bbb     H1   2912 0.12219000   1.008000   ; qtot 97.089440
 2913         hx     98    bbb     H2   2913 0.12219000   1.008000   ; qtot 97.211630
 2914         c3     98    bbb     C2   2914 -0.07020100  12.010000   ; qtot 97.141429
 2915         hx     98    bbb     H3   2915 0.12219000   1.008000   ; qtot 97.263619
 2916         hx     98    bbb     H4   2916 0.12219000   1.008000   ; qtot 97.385809
 2917         c3     98    bbb     C3   2917 -0.39007700  12.010000   ; qtot 96.995732
 2918         hx     98    bbb     H5   2918 0.14940300   1.008000   ; qtot 97.145135
 2919         hx     98    bbb     H6   2919 0.14940300   1.008000   ; qtot 97.294538
 2920         c3     98    bbb     C4   2920 0.18057300  12.010000   ; qtot 97.475111
 2921         hc     98    bbb     H7   2921 0.01788900   1.008000   ; qtot 97.493000
 2922         hc     98    bbb     H8   2922 0.01788900   1.008000   ; qtot 97.510889
 2923         c3     98    bbb     C5   2923 -0.11337700  12.010000   ; qtot 97.397512
 2924         hc     98    bbb     H9   2924 0.09515400   1.008000   ; qtot 97.492666
 2925         hc     98    bbb    H10   2925 0.09515400   1.008000   ; qtot 97.587820
 2926         c3     98    bbb     C6   2926 -0.11337700  12.010000   ; qtot 97.474443
 2927         hc     98    bbb    H11   2927 0.09515400   1.008000   ; qtot 97.569597
 2928         hc     98    bbb    H12   2928 0.09515400   1.008000   ; qtot 97.664751
 2929         c3     98    bbb     C7   2929 0.21842400  12.010000   ; qtot 97.883175
 2930         h1     98    bbb    H13   2930 0.04500300   1.008000   ; qtot 97.928178
 2931         h1     98    bbb    H14   2931 0.04500300   1.008000   ; qtot 97.973181
 2932         c3     98    bbb     C8   2932 -0.06455200  12.010000   ; qtot 97.908629
 2933         h1     98    bbb    H15   2933 0.13554100   1.008000   ; qtot 98.044170
 2934         h1     98    bbb    H16   2934 0.13554100   1.008000   ; qtot 98.179711
 2935         c3     98    bbb     C9   2935 -0.06455200  12.010000   ; qtot 98.115159
 2936         h1     98    bbb    H17   2936 0.13554100   1.008000   ; qtot 98.250700
 2937         h1     98    bbb    H18   2937 0.13554100   1.008000   ; qtot 98.386241
 2938         os     98    bbb     O1   2938 -0.62587700  16.000000   ; qtot 97.760364
 2939         hn     98    bbb    H19   2939 0.23982500   1.008000   ; qtot 98.000189
; residue   99 bbb rtp bbb q 1.0
 2940         n4     99    bbb     N1   2940 0.03726400  14.010000   ; qtot 98.037453
 2941         c3     99    bbb     C1   2941 -0.07020100  12.010000   ; qtot 97.967252
 2942         hx     99    bbb     H1   2942 0.12219000   1.008000   ; qtot 98.089442
 2943         hx     99    bbb     H2   2943 0.12219000   1.008000   ; qtot 98.211632
 2944         c3     99    bbb     C2   2944 -0.07020100  12.010000   ; qtot 98.141431
 2945         hx     99    bbb     H3   2945 0.12219000   1.008000   ; qtot 98.263621
 2946         hx     99    bbb     H4   2946 0.12219000   1.008000   ; qtot 98.385811
 2947         c3     99    bbb     C3   2947 -0.39007700  12.010000   ; qtot 97.995734
 2948         hx     99    bbb     H5   2948 0.14940300   1.008000   ; qtot 98.145137
 2949         hx     99    bbb     H6   2949 0.14940300   1.008000   ; qtot 98.294540
 2950         c3     99    bbb     C4   2950 0.18057300  12.010000   ; qtot 98.475113
 2951         hc     99    bbb     H7   2951 0.01788900   1.008000   ; qtot 98.493002
 2952         hc     99    bbb     H8   2952 0.01788900   1.008000   ; qtot 98.510891
 2953         c3     99    bbb     C5   2953 -0.11337700  12.010000   ; qtot 98.397514
 2954         hc     99    bbb     H9   2954 0.09515400   1.008000   ; qtot 98.492668
 2955         hc     99    bbb    H10   2955 0.09515400   1.008000   ; qtot 98.587822
 2956         c3     99    bbb     C6   2956 -0.11337700  12.010000   ; qtot 98.474445
 2957         hc     99    bbb    H11   2957 0.09515400   1.008000   ; qtot 98.569599
 2958         hc     99    bbb    H12   2958 0.09515400   1.008000   ; qtot 98.664753
 2959         c3     99    bbb     C7   2959 0.21842400  12.010000   ; qtot 98.883177
 2960         h1     99    bbb    H13   2960 0.04500300   1.008000   ; qtot 98.928180
 2961         h1     99    bbb    H14   2961 0.04500300   1.008000   ; qtot 98.973183
 2962         c3     99    bbb     C8   2962 -0.06455200  12.010000   ; qtot 98.908631
 2963         h1     99    bbb    H15   2963 0.13554100   1.008000   ; qtot 99.044172
 2964         h1     99    bbb    H16   2964 0.13554100   1.008000   ; qtot 99.179713
 2965         c3     99    bbb     C9   2965 -0.06455200  12.010000   ; qtot 99.115161
 2966         h1     99    bbb    H17   2966 0.13554100   1.008000   ; qtot 99.250702
 2967         h1     99    bbb    H18   2967 0.13554100   1.008000   ; qtot 99.386243
 2968         os     99    bbb     O1   2968 -0.62587700  16.000000   ; qtot 98.760366
 2969         hn     99    bbb    H19   2969 0.23982500   1.008000   ; qtot 99.000191
; residue  100 bbb rtp bbb q 1.0
 2970         n4    100    bbb     N1   2970 0.03726400  14.010000   ; qtot 99.037455
 2971         c3    100    bbb     C1   2971 -0.07020100  12.010000   ; qtot 98.967254
 2972         hx    100    bbb     H1   2972 0.12219000   1.008000   ; qtot 99.089444
 2973         hx    100    bbb     H2   2973 0.12219000   1.008000   ; qtot 99.211634
 2974         c3    100    bbb     C2   2974 -0.07020100  12.010000   ; qtot 99.141433
 2975         hx    100    bbb     H3   2975 0.12219000   1.008000   ; qtot 99.263623
 2976         hx    100    bbb     H4   2976 0.12219000   1.008000   ; qtot 99.385813
 2977         c3    100    bbb     C3   2977 -0.39007700  12.010000   ; qtot 98.995736
 2978         hx    100    bbb     H5   2978 0.14940300   1.008000   ; qtot 99.145139
 2979         hx    100    bbb     H6   2979 0.14940300   1.008000   ; qtot 99.294542
 2980         c3    100    bbb     C4   2980 0.18057300  12.010000   ; qtot 99.475115
 2981         hc    100    bbb     H7   2981 0.01788900   1.008000   ; qtot 99.493004
 2982         hc    100    bbb     H8   2982 0.01788900   1.008000   ; qtot 99.510893
 2983         c3    100    bbb     C5   2983 -0.11337700  12.010000   ; qtot 99.397516
 2984         hc    100    bbb     H9   2984 0.09515400   1.008000   ; qtot 99.492670
 2985         hc    100    bbb    H10   2985 0.09515400   1.008000   ; qtot 99.587824
 2986         c3    100    bbb     C6   2986 -0.11337700  12.010000   ; qtot 99.474447
 2987         hc    100    bbb    H11   2987 0.09515400   1.008000   ; qtot 99.569601
 2988         hc    100    bbb    H12   2988 0.09515400   1.008000   ; qtot 99.664755
 2989         c3    100    bbb     C7   2989 0.21842400  12.010000   ; qtot 99.883179
 2990         h1    100    bbb    H13   2990 0.04500300   1.008000   ; qtot 99.928182
 2991         h1    100    bbb    H14   2991 0.04500300   1.008000   ; qtot 99.973185
 2992         c3    100    bbb     C8   2992 -0.06455200  12.010000   ; qtot 99.908633
 2993         h1    100    bbb    H15   2993 0.13554100   1.008000   ; qtot 100.044174
 2994         h1    100    bbb    H16   2994 0.13554100   1.008000   ; qtot 100.179715
 2995         c3    100    bbb     C9   2995 -0.06455200  12.010000   ; qtot 100.115163
 2996         h1    100    bbb    H17   2996 0.13554100   1.008000   ; qtot 100.250704
 2997         h1    100    bbb    H18   2997 0.13554100   1.008000   ; qtot 100.386245
 2998         os    100    bbb     O1   2998 -0.62587700  16.000000   ; qtot 99.760368
 2999         hn    100    bbb    H19   2999 0.23982500   1.008000   ; qtot 100.000193
; residue  101 bbb rtp bbb q 1.0
 3000         n4    101    bbb     N1   3000 0.03726400  14.010000   ; qtot 100.037457
 3001         c3    101    bbb     C1   3001 -0.07020100  12.010000   ; qtot 99.967256
 3002         hx    101    bbb     H1   3002 0.12219000   1.008000   ; qtot 100.089446
 3003         hx    101    bbb     H2   3003 0.12219000   1.008000   ; qtot 100.211636
 3004         c3    101    bbb     C2   3004 -0.07020100  12.010000   ; qtot 100.141435
 3005         hx    101    bbb     H3   3005 0.12219000   1.008000   ; qtot 100.263625
 3006         hx    101    bbb     H4   3006 0.12219000   1.008000   ; qtot 100.385815
 3007         c3    101    bbb     C3   3007 -0.39007700  12.010000   ; qtot 99.995738
 3008         hx    101    bbb     H5   3008 0.14940300   1.008000   ; qtot 100.145141
 3009         hx    101    bbb     H6   3009 0.14940300   1.008000   ; qtot 100.294544
 3010         c3    101    bbb     C4   3010 0.18057300  12.010000   ; qtot 100.475117
 3011         hc    101    bbb     H7   3011 0.01788900   1.008000   ; qtot 100.493006
 3012         hc    101    bbb     H8   3012 0.01788900   1.008000   ; qtot 100.510895
 3013         c3    101    bbb     C5   3013 -0.11337700  12.010000   ; qtot 100.397518
 3014         hc    101    bbb     H9   3014 0.09515400   1.008000   ; qtot 100.492672
 3015         hc    101    bbb    H10   3015 0.09515400   1.008000   ; qtot 100.587826
 3016         c3    101    bbb     C6   3016 -0.11337700  12.010000   ; qtot 100.474449
 3017         hc    101    bbb    H11   3017 0.09515400   1.008000   ; qtot 100.569603
 3018         hc    101    bbb    H12   3018 0.09515400   1.008000   ; qtot 100.664757
 3019         c3    101    bbb     C7   3019 0.21842400  12.010000   ; qtot 100.883181
 3020         h1    101    bbb    H13   3020 0.04500300   1.008000   ; qtot 100.928184
 3021         h1    101    bbb    H14   3021 0.04500300   1.008000   ; qtot 100.973187
 3022         c3    101    bbb     C8   3022 -0.06455200  12.010000   ; qtot 100.908635
 3023         h1    101    bbb    H15   3023 0.13554100   1.008000   ; qtot 101.044176
 3024         h1    101    bbb    H16   3024 0.13554100   1.008000   ; qtot 101.179717
 3025         c3    101    bbb     C9   3025 -0.06455200  12.010000   ; qtot 101.115165
 3026         h1    101    bbb    H17   3026 0.13554100   1.008000   ; qtot 101.250706
 3027         h1    101    bbb    H18   3027 0.13554100   1.008000   ; qtot 101.386247
 3028         os    101    bbb     O1   3028 -0.62587700  16.000000   ; qtot 100.760370
 3029         hn    101    bbb    H19   3029 0.23982500   1.008000   ; qtot 101.000195
; residue  102 bbb rtp bbb q 1.0
 3030         n4    102    bbb     N1   3030 0.03726400  14.010000   ; qtot 101.037459
 3031         c3    102    bbb     C1   3031 -0.07020100  12.010000   ; qtot 100.967258
 3032         hx    102    bbb     H1   3032 0.12219000   1.008000   ; qtot 101.089448
 3033         hx    102    bbb     H2   3033 0.12219000   1.008000   ; qtot 101.211638
 3034         c3    102    bbb     C2   3034 -0.07020100  12.010000   ; qtot 101.141437
 3035         hx    102    bbb     H3   3035 0.12219000   1.008000   ; qtot 101.263627
 3036         hx    102    bbb     H4   3036 0.12219000   1.008000   ; qtot 101.385817
 3037         c3    102    bbb     C3   3037 -0.39007700  12.010000   ; qtot 100.995740
 3038         hx    102    bbb     H5   3038 0.14940300   1.008000   ; qtot 101.145143
 3039         hx    102    bbb     H6   3039 0.14940300   1.008000   ; qtot 101.294546
 3040         c3    102    bbb     C4   3040 0.18057300  12.010000   ; qtot 101.475119
 3041         hc    102    bbb     H7   3041 0.01788900   1.008000   ; qtot 101.493008
 3042         hc    102    bbb     H8   3042 0.01788900   1.008000   ; qtot 101.510897
 3043         c3    102    bbb     C5   3043 -0.11337700  12.010000   ; qtot 101.397520
 3044         hc    102    bbb     H9   3044 0.09515400   1.008000   ; qtot 101.492674
 3045         hc    102    bbb    H10   3045 0.09515400   1.008000   ; qtot 101.587828
 3046         c3    102    bbb     C6   3046 -0.11337700  12.010000   ; qtot 101.474451
 3047         hc    102    bbb    H11   3047 0.09515400   1.008000   ; qtot 101.569605
 3048         hc    102    bbb    H12   3048 0.09515400   1.008000   ; qtot 101.664759
 3049         c3    102    bbb     C7   3049 0.21842400  12.010000   ; qtot 101.883183
 3050         h1    102    bbb    H13   3050 0.04500300   1.008000   ; qtot 101.928186
 3051         h1    102    bbb    H14   3051 0.04500300   1.008000   ; qtot 101.973189
 3052         c3    102    bbb     C8   3052 -0.06455200  12.010000   ; qtot 101.908637
 3053         h1    102    bbb    H15   3053 0.13554100   1.008000   ; qtot 102.044178
 3054         h1    102    bbb    H16   3054 0.13554100   1.008000   ; qtot 102.179719
 3055         c3    102    bbb     C9   3055 -0.06455200  12.010000   ; qtot 102.115167
 3056         h1    102    bbb    H17   3056 0.13554100   1.008000   ; qtot 102.250708
 3057         h1    102    bbb    H18   3057 0.13554100   1.008000   ; qtot 102.386249
 3058         os    102    bbb     O1   3058 -0.62587700  16.000000   ; qtot 101.760372
 3059         hn    102    bbb    H19   3059 0.23982500   1.008000   ; qtot 102.000197
; residue  103 bbb rtp bbb q 1.0
 3060         n4    103    bbb     N1   3060 0.03726400  14.010000   ; qtot 102.037461
 3061         c3    103    bbb     C1   3061 -0.07020100  12.010000   ; qtot 101.967260
 3062         hx    103    bbb     H1   3062 0.12219000   1.008000   ; qtot 102.089450
 3063         hx    103    bbb     H2   3063 0.12219000   1.008000   ; qtot 102.211640
 3064         c3    103    bbb     C2   3064 -0.07020100  12.010000   ; qtot 102.141439
 3065         hx    103    bbb     H3   3065 0.12219000   1.008000   ; qtot 102.263629
 3066         hx    103    bbb     H4   3066 0.12219000   1.008000   ; qtot 102.385819
 3067         c3    103    bbb     C3   3067 -0.39007700  12.010000   ; qtot 101.995742
 3068         hx    103    bbb     H5   3068 0.14940300   1.008000   ; qtot 102.145145
 3069         hx    103    bbb     H6   3069 0.14940300   1.008000   ; qtot 102.294548
 3070         c3    103    bbb     C4   3070 0.18057300  12.010000   ; qtot 102.475121
 3071         hc    103    bbb     H7   3071 0.01788900   1.008000   ; qtot 102.493010
 3072         hc    103    bbb     H8   3072 0.01788900   1.008000   ; qtot 102.510899
 3073         c3    103    bbb     C5   3073 -0.11337700  12.010000   ; qtot 102.397522
 3074         hc    103    bbb     H9   3074 0.09515400   1.008000   ; qtot 102.492676
 3075         hc    103    bbb    H10   3075 0.09515400   1.008000   ; qtot 102.587830
 3076         c3    103    bbb     C6   3076 -0.11337700  12.010000   ; qtot 102.474453
 3077         hc    103    bbb    H11   3077 0.09515400   1.008000   ; qtot 102.569607
 3078         hc    103    bbb    H12   3078 0.09515400   1.008000   ; qtot 102.664761
 3079         c3    103    bbb     C7   3079 0.21842400  12.010000   ; qtot 102.883185
 3080         h1    103    bbb    H13   3080 0.04500300   1.008000   ; qtot 102.928188
 3081         h1    103    bbb    H14   3081 0.04500300   1.008000   ; qtot 102.973191
 3082         c3    103    bbb     C8   3082 -0.06455200  12.010000   ; qtot 102.908639
 3083         h1    103    bbb    H15   3083 0.13554100   1.008000   ; qtot 103.044180
 3084         h1    103    bbb    H16   3084 0.13554100   1.008000   ; qtot 103.179721
 3085         c3    103    bbb     C9   3085 -0.06455200  12.010000   ; qtot 103.115169
 3086         h1    103    bbb    H17   3086 0.13554100   1.008000   ; qtot 103.250710
 3087         h1    103    bbb    H18   3087 0.13554100   1.008000   ; qtot 103.386251
 3088         os    103    bbb     O1   3088 -0.62587700  16.000000   ; qtot 102.760374
 3089         hn    103    bbb    H19   3089 0.23982500   1.008000   ; qtot 103.000199
; residue  104 bbb rtp bbb q 1.0
 3090         n4    104    bbb     N1   3090 0.03726400  14.010000   ; qtot 103.037463
 3091         c3    104    bbb     C1   3091 -0.07020100  12.010000   ; qtot 102.967262
 3092         hx    104    bbb     H1   3092 0.12219000   1.008000   ; qtot 103.089452
 3093         hx    104    bbb     H2   3093 0.12219000   1.008000   ; qtot 103.211642
 3094         c3    104    bbb     C2   3094 -0.07020100  12.010000   ; qtot 103.141441
 3095         hx    104    bbb     H3   3095 0.12219000   1.008000   ; qtot 103.263631
 3096         hx    104    bbb     H4   3096 0.12219000   1.008000   ; qtot 103.385821
 3097         c3    104    bbb     C3   3097 -0.39007700  12.010000   ; qtot 102.995744
 3098         hx    104    bbb     H5   3098 0.14940300   1.008000   ; qtot 103.145147
 3099         hx    104    bbb     H6   3099 0.14940300   1.008000   ; qtot 103.294550
 3100         c3    104    bbb     C4   3100 0.18057300  12.010000   ; qtot 103.475123
 3101         hc    104    bbb     H7   3101 0.01788900   1.008000   ; qtot 103.493012
 3102         hc    104    bbb     H8   3102 0.01788900   1.008000   ; qtot 103.510901
 3103         c3    104    bbb     C5   3103 -0.11337700  12.010000   ; qtot 103.397524
 3104         hc    104    bbb     H9   3104 0.09515400   1.008000   ; qtot 103.492678
 3105         hc    104    bbb    H10   3105 0.09515400   1.008000   ; qtot 103.587832
 3106         c3    104    bbb     C6   3106 -0.11337700  12.010000   ; qtot 103.474455
 3107         hc    104    bbb    H11   3107 0.09515400   1.008000   ; qtot 103.569609
 3108         hc    104    bbb    H12   3108 0.09515400   1.008000   ; qtot 103.664763
 3109         c3    104    bbb     C7   3109 0.21842400  12.010000   ; qtot 103.883187
 3110         h1    104    bbb    H13   3110 0.04500300   1.008000   ; qtot 103.928190
 3111         h1    104    bbb    H14   3111 0.04500300   1.008000   ; qtot 103.973193
 3112         c3    104    bbb     C8   3112 -0.06455200  12.010000   ; qtot 103.908641
 3113         h1    104    bbb    H15   3113 0.13554100   1.008000   ; qtot 104.044182
 3114         h1    104    bbb    H16   3114 0.13554100   1.008000   ; qtot 104.179723
 3115         c3    104    bbb     C9   3115 -0.06455200  12.010000   ; qtot 104.115171
 3116         h1    104    bbb    H17   3116 0.13554100   1.008000   ; qtot 104.250712
 3117         h1    104    bbb    H18   3117 0.13554100   1.008000   ; qtot 104.386253
 3118         os    104    bbb     O1   3118 -0.62587700  16.000000   ; qtot 103.760376
 3119         hn    104    bbb    H19   3119 0.23982500   1.008000   ; qtot 104.000201
; residue  105 bbb rtp bbb q 1.0
 3120         n4    105    bbb     N1   3120 0.03726400  14.010000   ; qtot 104.037465
 3121         c3    105    bbb     C1   3121 -0.07020100  12.010000   ; qtot 103.967264
 3122         hx    105    bbb     H1   3122 0.12219000   1.008000   ; qtot 104.089454
 3123         hx    105    bbb     H2   3123 0.12219000   1.008000   ; qtot 104.211644
 3124         c3    105    bbb     C2   3124 -0.07020100  12.010000   ; qtot 104.141443
 3125         hx    105    bbb     H3   3125 0.12219000   1.008000   ; qtot 104.263633
 3126         hx    105    bbb     H4   3126 0.12219000   1.008000   ; qtot 104.385823
 3127         c3    105    bbb     C3   3127 -0.39007700  12.010000   ; qtot 103.995746
 3128         hx    105    bbb     H5   3128 0.14940300   1.008000   ; qtot 104.145149
 3129         hx    105    bbb     H6   3129 0.14940300   1.008000   ; qtot 104.294552
 3130         c3    105    bbb     C4   3130 0.18057300  12.010000   ; qtot 104.475125
 3131         hc    105    bbb     H7   3131 0.01788900   1.008000   ; qtot 104.493014
 3132         hc    105    bbb     H8   3132 0.01788900   1.008000   ; qtot 104.510903
 3133         c3    105    bbb     C5   3133 -0.11337700  12.010000   ; qtot 104.397526
 3134         hc    105    bbb     H9   3134 0.09515400   1.008000   ; qtot 104.492680
 3135         hc    105    bbb    H10   3135 0.09515400   1.008000   ; qtot 104.587834
 3136         c3    105    bbb     C6   3136 -0.11337700  12.010000   ; qtot 104.474457
 3137         hc    105    bbb    H11   3137 0.09515400   1.008000   ; qtot 104.569611
 3138         hc    105    bbb    H12   3138 0.09515400   1.008000   ; qtot 104.664765
 3139         c3    105    bbb     C7   3139 0.21842400  12.010000   ; qtot 104.883189
 3140         h1    105    bbb    H13   3140 0.04500300   1.008000   ; qtot 104.928192
 3141         h1    105    bbb    H14   3141 0.04500300   1.008000   ; qtot 104.973195
 3142         c3    105    bbb     C8   3142 -0.06455200  12.010000   ; qtot 104.908643
 3143         h1    105    bbb    H15   3143 0.13554100   1.008000   ; qtot 105.044184
 3144         h1    105    bbb    H16   3144 0.13554100   1.008000   ; qtot 105.179725
 3145         c3    105    bbb     C9   3145 -0.06455200  12.010000   ; qtot 105.115173
 3146         h1    105    bbb    H17   3146 0.13554100   1.008000   ; qtot 105.250714
 3147         h1    105    bbb    H18   3147 0.13554100   1.008000   ; qtot 105.386255
 3148         os    105    bbb     O1   3148 -0.62587700  16.000000   ; qtot 104.760378
 3149         hn    105    bbb    H19   3149 0.23982500   1.008000   ; qtot 105.000203
; residue  106 bbb rtp bbb q 1.0
 3150         n4    106    bbb     N1   3150 0.03726400  14.010000   ; qtot 105.037467
 3151         c3    106    bbb     C1   3151 -0.07020100  12.010000   ; qtot 104.967266
 3152         hx    106    bbb     H1   3152 0.12219000   1.008000   ; qtot 105.089456
 3153         hx    106    bbb     H2   3153 0.12219000   1.008000   ; qtot 105.211646
 3154         c3    106    bbb     C2   3154 -0.07020100  12.010000   ; qtot 105.141445
 3155         hx    106    bbb     H3   3155 0.12219000   1.008000   ; qtot 105.263635
 3156         hx    106    bbb     H4   3156 0.12219000   1.008000   ; qtot 105.385825
 3157         c3    106    bbb     C3   3157 -0.39007700  12.010000   ; qtot 104.995748
 3158         hx    106    bbb     H5   3158 0.14940300   1.008000   ; qtot 105.145151
 3159         hx    106    bbb     H6   3159 0.14940300   1.008000   ; qtot 105.294554
 3160         c3    106    bbb     C4   3160 0.18057300  12.010000   ; qtot 105.475127
 3161         hc    106    bbb     H7   3161 0.01788900   1.008000   ; qtot 105.493016
 3162         hc    106    bbb     H8   3162 0.01788900   1.008000   ; qtot 105.510905
 3163         c3    106    bbb     C5   3163 -0.11337700  12.010000   ; qtot 105.397528
 3164         hc    106    bbb     H9   3164 0.09515400   1.008000   ; qtot 105.492682
 3165         hc    106    bbb    H10   3165 0.09515400   1.008000   ; qtot 105.587836
 3166         c3    106    bbb     C6   3166 -0.11337700  12.010000   ; qtot 105.474459
 3167         hc    106    bbb    H11   3167 0.09515400   1.008000   ; qtot 105.569613
 3168         hc    106    bbb    H12   3168 0.09515400   1.008000   ; qtot 105.664767
 3169         c3    106    bbb     C7   3169 0.21842400  12.010000   ; qtot 105.883191
 3170         h1    106    bbb    H13   3170 0.04500300   1.008000   ; qtot 105.928194
 3171         h1    106    bbb    H14   3171 0.04500300   1.008000   ; qtot 105.973197
 3172         c3    106    bbb     C8   3172 -0.06455200  12.010000   ; qtot 105.908645
 3173         h1    106    bbb    H15   3173 0.13554100   1.008000   ; qtot 106.044186
 3174         h1    106    bbb    H16   3174 0.13554100   1.008000   ; qtot 106.179727
 3175         c3    106    bbb     C9   3175 -0.06455200  12.010000   ; qtot 106.115175
 3176         h1    106    bbb    H17   3176 0.13554100   1.008000   ; qtot 106.250716
 3177         h1    106    bbb    H18   3177 0.13554100   1.008000   ; qtot 106.386257
 3178         os    106    bbb     O1   3178 -0.62587700  16.000000   ; qtot 105.760380
 3179         hn    106    bbb    H19   3179 0.23982500   1.008000   ; qtot 106.000205
; residue  107 bbb rtp bbb q 1.0
 3180         n4    107    bbb     N1   3180 0.03726400  14.010000   ; qtot 106.037469
 3181         c3    107    bbb     C1   3181 -0.07020100  12.010000   ; qtot 105.967268
 3182         hx    107    bbb     H1   3182 0.12219000   1.008000   ; qtot 106.089458
 3183         hx    107    bbb     H2   3183 0.12219000   1.008000   ; qtot 106.211648
 3184         c3    107    bbb     C2   3184 -0.07020100  12.010000   ; qtot 106.141447
 3185         hx    107    bbb     H3   3185 0.12219000   1.008000   ; qtot 106.263637
 3186         hx    107    bbb     H4   3186 0.12219000   1.008000   ; qtot 106.385827
 3187         c3    107    bbb     C3   3187 -0.39007700  12.010000   ; qtot 105.995750
 3188         hx    107    bbb     H5   3188 0.14940300   1.008000   ; qtot 106.145153
 3189         hx    107    bbb     H6   3189 0.14940300   1.008000   ; qtot 106.294556
 3190         c3    107    bbb     C4   3190 0.18057300  12.010000   ; qtot 106.475129
 3191         hc    107    bbb     H7   3191 0.01788900   1.008000   ; qtot 106.493018
 3192         hc    107    bbb     H8   3192 0.01788900   1.008000   ; qtot 106.510907
 3193         c3    107    bbb     C5   3193 -0.11337700  12.010000   ; qtot 106.397530
 3194         hc    107    bbb     H9   3194 0.09515400   1.008000   ; qtot 106.492684
 3195         hc    107    bbb    H10   3195 0.09515400   1.008000   ; qtot 106.587838
 3196         c3    107    bbb     C6   3196 -0.11337700  12.010000   ; qtot 106.474461
 3197         hc    107    bbb    H11   3197 0.09515400   1.008000   ; qtot 106.569615
 3198         hc    107    bbb    H12   3198 0.09515400   1.008000   ; qtot 106.664769
 3199         c3    107    bbb     C7   3199 0.21842400  12.010000   ; qtot 106.883193
 3200         h1    107    bbb    H13   3200 0.04500300   1.008000   ; qtot 106.928196
 3201         h1    107    bbb    H14   3201 0.04500300   1.008000   ; qtot 106.973199
 3202         c3    107    bbb     C8   3202 -0.06455200  12.010000   ; qtot 106.908647
 3203         h1    107    bbb    H15   3203 0.13554100   1.008000   ; qtot 107.044188
 3204         h1    107    bbb    H16   3204 0.13554100   1.008000   ; qtot 107.179729
 3205         c3    107    bbb     C9   3205 -0.06455200  12.010000   ; qtot 107.115177
 3206         h1    107    bbb    H17   3206 0.13554100   1.008000   ; qtot 107.250718
 3207         h1    107    bbb    H18   3207 0.13554100   1.008000   ; qtot 107.386259
 3208         os    107    bbb     O1   3208 -0.62587700  16.000000   ; qtot 106.760382
 3209         hn    107    bbb    H19   3209 0.23982500   1.008000   ; qtot 107.000207
; residue  108 bbb rtp bbb q 1.0
 3210         n4    108    bbb     N1   3210 0.03726400  14.010000   ; qtot 107.037471
 3211         c3    108    bbb     C1   3211 -0.07020100  12.010000   ; qtot 106.967270
 3212         hx    108    bbb     H1   3212 0.12219000   1.008000   ; qtot 107.089460
 3213         hx    108    bbb     H2   3213 0.12219000   1.008000   ; qtot 107.211650
 3214         c3    108    bbb     C2   3214 -0.07020100  12.010000   ; qtot 107.141449
 3215         hx    108    bbb     H3   3215 0.12219000   1.008000   ; qtot 107.263639
 3216         hx    108    bbb     H4   3216 0.12219000   1.008000   ; qtot 107.385829
 3217         c3    108    bbb     C3   3217 -0.39007700  12.010000   ; qtot 106.995752
 3218         hx    108    bbb     H5   3218 0.14940300   1.008000   ; qtot 107.145155
 3219         hx    108    bbb     H6   3219 0.14940300   1.008000   ; qtot 107.294558
 3220         c3    108    bbb     C4   3220 0.18057300  12.010000   ; qtot 107.475131
 3221         hc    108    bbb     H7   3221 0.01788900   1.008000   ; qtot 107.493020
 3222         hc    108    bbb     H8   3222 0.01788900   1.008000   ; qtot 107.510909
 3223         c3    108    bbb     C5   3223 -0.11337700  12.010000   ; qtot 107.397532
 3224         hc    108    bbb     H9   3224 0.09515400   1.008000   ; qtot 107.492686
 3225         hc    108    bbb    H10   3225 0.09515400   1.008000   ; qtot 107.587840
 3226         c3    108    bbb     C6   3226 -0.11337700  12.010000   ; qtot 107.474463
 3227         hc    108    bbb    H11   3227 0.09515400   1.008000   ; qtot 107.569617
 3228         hc    108    bbb    H12   3228 0.09515400   1.008000   ; qtot 107.664771
 3229         c3    108    bbb     C7   3229 0.21842400  12.010000   ; qtot 107.883195
 3230         h1    108    bbb    H13   3230 0.04500300   1.008000   ; qtot 107.928198
 3231         h1    108    bbb    H14   3231 0.04500300   1.008000   ; qtot 107.973201
 3232         c3    108    bbb     C8   3232 -0.06455200  12.010000   ; qtot 107.908649
 3233         h1    108    bbb    H15   3233 0.13554100   1.008000   ; qtot 108.044190
 3234         h1    108    bbb    H16   3234 0.13554100   1.008000   ; qtot 108.179731
 3235         c3    108    bbb     C9   3235 -0.06455200  12.010000   ; qtot 108.115179
 3236         h1    108    bbb    H17   3236 0.13554100   1.008000   ; qtot 108.250720
 3237         h1    108    bbb    H18   3237 0.13554100   1.008000   ; qtot 108.386261
 3238         os    108    bbb     O1   3238 -0.62587700  16.000000   ; qtot 107.760384
 3239         hn    108    bbb    H19   3239 0.23982500   1.008000   ; qtot 108.000209
; residue  109 bbb rtp bbb q 1.0
 3240         n4    109    bbb     N1   3240 0.03726400  14.010000   ; qtot 108.037473
 3241         c3    109    bbb     C1   3241 -0.07020100  12.010000   ; qtot 107.967272
 3242         hx    109    bbb     H1   3242 0.12219000   1.008000   ; qtot 108.089462
 3243         hx    109    bbb     H2   3243 0.12219000   1.008000   ; qtot 108.211652
 3244         c3    109    bbb     C2   3244 -0.07020100  12.010000   ; qtot 108.141451
 3245         hx    109    bbb     H3   3245 0.12219000   1.008000   ; qtot 108.263641
 3246         hx    109    bbb     H4   3246 0.12219000   1.008000   ; qtot 108.385831
 3247         c3    109    bbb     C3   3247 -0.39007700  12.010000   ; qtot 107.995754
 3248         hx    109    bbb     H5   3248 0.14940300   1.008000   ; qtot 108.145157
 3249         hx    109    bbb     H6   3249 0.14940300   1.008000   ; qtot 108.294560
 3250         c3    109    bbb     C4   3250 0.18057300  12.010000   ; qtot 108.475133
 3251         hc    109    bbb     H7   3251 0.01788900   1.008000   ; qtot 108.493022
 3252         hc    109    bbb     H8   3252 0.01788900   1.008000   ; qtot 108.510911
 3253         c3    109    bbb     C5   3253 -0.11337700  12.010000   ; qtot 108.397534
 3254         hc    109    bbb     H9   3254 0.09515400   1.008000   ; qtot 108.492688
 3255         hc    109    bbb    H10   3255 0.09515400   1.008000   ; qtot 108.587842
 3256         c3    109    bbb     C6   3256 -0.11337700  12.010000   ; qtot 108.474465
 3257         hc    109    bbb    H11   3257 0.09515400   1.008000   ; qtot 108.569619
 3258         hc    109    bbb    H12   3258 0.09515400   1.008000   ; qtot 108.664773
 3259         c3    109    bbb     C7   3259 0.21842400  12.010000   ; qtot 108.883197
 3260         h1    109    bbb    H13   3260 0.04500300   1.008000   ; qtot 108.928200
 3261         h1    109    bbb    H14   3261 0.04500300   1.008000   ; qtot 108.973203
 3262         c3    109    bbb     C8   3262 -0.06455200  12.010000   ; qtot 108.908651
 3263         h1    109    bbb    H15   3263 0.13554100   1.008000   ; qtot 109.044192
 3264         h1    109    bbb    H16   3264 0.13554100   1.008000   ; qtot 109.179733
 3265         c3    109    bbb     C9   3265 -0.06455200  12.010000   ; qtot 109.115181
 3266         h1    109    bbb    H17   3266 0.13554100   1.008000   ; qtot 109.250722
 3267         h1    109    bbb    H18   3267 0.13554100   1.008000   ; qtot 109.386263
 3268         os    109    bbb     O1   3268 -0.62587700  16.000000   ; qtot 108.760386
 3269         hn    109    bbb    H19   3269 0.23982500   1.008000   ; qtot 109.000211
; residue  110 bbb rtp bbb q 1.0
 3270         n4    110    bbb     N1   3270 0.03726400  14.010000   ; qtot 109.037475
 3271         c3    110    bbb     C1   3271 -0.07020100  12.010000   ; qtot 108.967274
 3272         hx    110    bbb     H1   3272 0.12219000   1.008000   ; qtot 109.089464
 3273         hx    110    bbb     H2   3273 0.12219000   1.008000   ; qtot 109.211654
 3274         c3    110    bbb     C2   3274 -0.07020100  12.010000   ; qtot 109.141453
 3275         hx    110    bbb     H3   3275 0.12219000   1.008000   ; qtot 109.263643
 3276         hx    110    bbb     H4   3276 0.12219000   1.008000   ; qtot 109.385833
 3277         c3    110    bbb     C3   3277 -0.39007700  12.010000   ; qtot 108.995756
 3278         hx    110    bbb     H5   3278 0.14940300   1.008000   ; qtot 109.145159
 3279         hx    110    bbb     H6   3279 0.14940300   1.008000   ; qtot 109.294562
 3280         c3    110    bbb     C4   3280 0.18057300  12.010000   ; qtot 109.475135
 3281         hc    110    bbb     H7   3281 0.01788900   1.008000   ; qtot 109.493024
 3282         hc    110    bbb     H8   3282 0.01788900   1.008000   ; qtot 109.510913
 3283         c3    110    bbb     C5   3283 -0.11337700  12.010000   ; qtot 109.397536
 3284         hc    110    bbb     H9   3284 0.09515400   1.008000   ; qtot 109.492690
 3285         hc    110    bbb    H10   3285 0.09515400   1.008000   ; qtot 109.587844
 3286         c3    110    bbb     C6   3286 -0.11337700  12.010000   ; qtot 109.474467
 3287         hc    110    bbb    H11   3287 0.09515400   1.008000   ; qtot 109.569621
 3288         hc    110    bbb    H12   3288 0.09515400   1.008000   ; qtot 109.664775
 3289         c3    110    bbb     C7   3289 0.21842400  12.010000   ; qtot 109.883199
 3290         h1    110    bbb    H13   3290 0.04500300   1.008000   ; qtot 109.928202
 3291         h1    110    bbb    H14   3291 0.04500300   1.008000   ; qtot 109.973205
 3292         c3    110    bbb     C8   3292 -0.06455200  12.010000   ; qtot 109.908653
 3293         h1    110    bbb    H15   3293 0.13554100   1.008000   ; qtot 110.044194
 3294         h1    110    bbb    H16   3294 0.13554100   1.008000   ; qtot 110.179735
 3295         c3    110    bbb     C9   3295 -0.06455200  12.010000   ; qtot 110.115183
 3296         h1    110    bbb    H17   3296 0.13554100   1.008000   ; qtot 110.250724
 3297         h1    110    bbb    H18   3297 0.13554100   1.008000   ; qtot 110.386265
 3298         os    110    bbb     O1   3298 -0.62587700  16.000000   ; qtot 109.760388
 3299         hn    110    bbb    H19   3299 0.23982500   1.008000   ; qtot 110.000213
; residue  111 bbb rtp bbb q 1.0
 3300         n4    111    bbb     N1   3300 0.03726400  14.010000   ; qtot 110.037477
 3301         c3    111    bbb     C1   3301 -0.07020100  12.010000   ; qtot 109.967276
 3302         hx    111    bbb     H1   3302 0.12219000   1.008000   ; qtot 110.089466
 3303         hx    111    bbb     H2   3303 0.12219000   1.008000   ; qtot 110.211656
 3304         c3    111    bbb     C2   3304 -0.07020100  12.010000   ; qtot 110.141455
 3305         hx    111    bbb     H3   3305 0.12219000   1.008000   ; qtot 110.263645
 3306         hx    111    bbb     H4   3306 0.12219000   1.008000   ; qtot 110.385835
 3307         c3    111    bbb     C3   3307 -0.39007700  12.010000   ; qtot 109.995758
 3308         hx    111    bbb     H5   3308 0.14940300   1.008000   ; qtot 110.145161
 3309         hx    111    bbb     H6   3309 0.14940300   1.008000   ; qtot 110.294564
 3310         c3    111    bbb     C4   3310 0.18057300  12.010000   ; qtot 110.475137
 3311         hc    111    bbb     H7   3311 0.01788900   1.008000   ; qtot 110.493026
 3312         hc    111    bbb     H8   3312 0.01788900   1.008000   ; qtot 110.510915
 3313         c3    111    bbb     C5   3313 -0.11337700  12.010000   ; qtot 110.397538
 3314         hc    111    bbb     H9   3314 0.09515400   1.008000   ; qtot 110.492692
 3315         hc    111    bbb    H10   3315 0.09515400   1.008000   ; qtot 110.587846
 3316         c3    111    bbb     C6   3316 -0.11337700  12.010000   ; qtot 110.474469
 3317         hc    111    bbb    H11   3317 0.09515400   1.008000   ; qtot 110.569623
 3318         hc    111    bbb    H12   3318 0.09515400   1.008000   ; qtot 110.664777
 3319         c3    111    bbb     C7   3319 0.21842400  12.010000   ; qtot 110.883201
 3320         h1    111    bbb    H13   3320 0.04500300   1.008000   ; qtot 110.928204
 3321         h1    111    bbb    H14   3321 0.04500300   1.008000   ; qtot 110.973207
 3322         c3    111    bbb     C8   3322 -0.06455200  12.010000   ; qtot 110.908655
 3323         h1    111    bbb    H15   3323 0.13554100   1.008000   ; qtot 111.044196
 3324         h1    111    bbb    H16   3324 0.13554100   1.008000   ; qtot 111.179737
 3325         c3    111    bbb     C9   3325 -0.06455200  12.010000   ; qtot 111.115185
 3326         h1    111    bbb    H17   3326 0.13554100   1.008000   ; qtot 111.250726
 3327         h1    111    bbb    H18   3327 0.13554100   1.008000   ; qtot 111.386267
 3328         os    111    bbb     O1   3328 -0.62587700  16.000000   ; qtot 110.760390
 3329         hn    111    bbb    H19   3329 0.23982500   1.008000   ; qtot 111.000215
; residue  112 bbb rtp bbb q 1.0
 3330         n4    112    bbb     N1   3330 0.03726400  14.010000   ; qtot 111.037479
 3331         c3    112    bbb     C1   3331 -0.07020100  12.010000   ; qtot 110.967278
 3332         hx    112    bbb     H1   3332 0.12219000   1.008000   ; qtot 111.089468
 3333         hx    112    bbb     H2   3333 0.12219000   1.008000   ; qtot 111.211658
 3334         c3    112    bbb     C2   3334 -0.07020100  12.010000   ; qtot 111.141457
 3335         hx    112    bbb     H3   3335 0.12219000   1.008000   ; qtot 111.263647
 3336         hx    112    bbb     H4   3336 0.12219000   1.008000   ; qtot 111.385837
 3337         c3    112    bbb     C3   3337 -0.39007700  12.010000   ; qtot 110.995760
 3338         hx    112    bbb     H5   3338 0.14940300   1.008000   ; qtot 111.145163
 3339         hx    112    bbb     H6   3339 0.14940300   1.008000   ; qtot 111.294566
 3340         c3    112    bbb     C4   3340 0.18057300  12.010000   ; qtot 111.475139
 3341         hc    112    bbb     H7   3341 0.01788900   1.008000   ; qtot 111.493028
 3342         hc    112    bbb     H8   3342 0.01788900   1.008000   ; qtot 111.510917
 3343         c3    112    bbb     C5   3343 -0.11337700  12.010000   ; qtot 111.397540
 3344         hc    112    bbb     H9   3344 0.09515400   1.008000   ; qtot 111.492694
 3345         hc    112    bbb    H10   3345 0.09515400   1.008000   ; qtot 111.587848
 3346         c3    112    bbb     C6   3346 -0.11337700  12.010000   ; qtot 111.474471
 3347         hc    112    bbb    H11   3347 0.09515400   1.008000   ; qtot 111.569625
 3348         hc    112    bbb    H12   3348 0.09515400   1.008000   ; qtot 111.664779
 3349         c3    112    bbb     C7   3349 0.21842400  12.010000   ; qtot 111.883203
 3350         h1    112    bbb    H13   3350 0.04500300   1.008000   ; qtot 111.928206
 3351         h1    112    bbb    H14   3351 0.04500300   1.008000   ; qtot 111.973209
 3352         c3    112    bbb     C8   3352 -0.06455200  12.010000   ; qtot 111.908657
 3353         h1    112    bbb    H15   3353 0.13554100   1.008000   ; qtot 112.044198
 3354         h1    112    bbb    H16   3354 0.13554100   1.008000   ; qtot 112.179739
 3355         c3    112    bbb     C9   3355 -0.06455200  12.010000   ; qtot 112.115187
 3356         h1    112    bbb    H17   3356 0.13554100   1.008000   ; qtot 112.250728
 3357         h1    112    bbb    H18   3357 0.13554100   1.008000   ; qtot 112.386269
 3358         os    112    bbb     O1   3358 -0.62587700  16.000000   ; qtot 111.760392
 3359         hn    112    bbb    H19   3359 0.23982500   1.008000   ; qtot 112.000217
; residue  113 bbb rtp bbb q 1.0
 3360         n4    113    bbb     N1   3360 0.03726400  14.010000   ; qtot 112.037481
 3361         c3    113    bbb     C1   3361 -0.07020100  12.010000   ; qtot 111.967280
 3362         hx    113    bbb     H1   3362 0.12219000   1.008000   ; qtot 112.089470
 3363         hx    113    bbb     H2   3363 0.12219000   1.008000   ; qtot 112.211660
 3364         c3    113    bbb     C2   3364 -0.07020100  12.010000   ; qtot 112.141459
 3365         hx    113    bbb     H3   3365 0.12219000   1.008000   ; qtot 112.263649
 3366         hx    113    bbb     H4   3366 0.12219000   1.008000   ; qtot 112.385839
 3367         c3    113    bbb     C3   3367 -0.39007700  12.010000   ; qtot 111.995762
 3368         hx    113    bbb     H5   3368 0.14940300   1.008000   ; qtot 112.145165
 3369         hx    113    bbb     H6   3369 0.14940300   1.008000   ; qtot 112.294568
 3370         c3    113    bbb     C4   3370 0.18057300  12.010000   ; qtot 112.475141
 3371         hc    113    bbb     H7   3371 0.01788900   1.008000   ; qtot 112.493030
 3372         hc    113    bbb     H8   3372 0.01788900   1.008000   ; qtot 112.510919
 3373         c3    113    bbb     C5   3373 -0.11337700  12.010000   ; qtot 112.397542
 3374         hc    113    bbb     H9   3374 0.09515400   1.008000   ; qtot 112.492696
 3375         hc    113    bbb    H10   3375 0.09515400   1.008000   ; qtot 112.587850
 3376         c3    113    bbb     C6   3376 -0.11337700  12.010000   ; qtot 112.474473
 3377         hc    113    bbb    H11   3377 0.09515400   1.008000   ; qtot 112.569627
 3378         hc    113    bbb    H12   3378 0.09515400   1.008000   ; qtot 112.664781
 3379         c3    113    bbb     C7   3379 0.21842400  12.010000   ; qtot 112.883205
 3380         h1    113    bbb    H13   3380 0.04500300   1.008000   ; qtot 112.928208
 3381         h1    113    bbb    H14   3381 0.04500300   1.008000   ; qtot 112.973211
 3382         c3    113    bbb     C8   3382 -0.06455200  12.010000   ; qtot 112.908659
 3383         h1    113    bbb    H15   3383 0.13554100   1.008000   ; qtot 113.044200
 3384         h1    113    bbb    H16   3384 0.13554100   1.008000   ; qtot 113.179741
 3385         c3    113    bbb     C9   3385 -0.06455200  12.010000   ; qtot 113.115189
 3386         h1    113    bbb    H17   3386 0.13554100   1.008000   ; qtot 113.250730
 3387         h1    113    bbb    H18   3387 0.13554100   1.008000   ; qtot 113.386271
 3388         os    113    bbb     O1   3388 -0.62587700  16.000000   ; qtot 112.760394
 3389         hn    113    bbb    H19   3389 0.23982500   1.008000   ; qtot 113.000219
; residue  114 bbb rtp bbb q 1.0
 3390         n4    114    bbb     N1   3390 0.03726400  14.010000   ; qtot 113.037483
 3391         c3    114    bbb     C1   3391 -0.07020100  12.010000   ; qtot 112.967282
 3392         hx    114    bbb     H1   3392 0.12219000   1.008000   ; qtot 113.089472
 3393         hx    114    bbb     H2   3393 0.12219000   1.008000   ; qtot 113.211662
 3394         c3    114    bbb     C2   3394 -0.07020100  12.010000   ; qtot 113.141461
 3395         hx    114    bbb     H3   3395 0.12219000   1.008000   ; qtot 113.263651
 3396         hx    114    bbb     H4   3396 0.12219000   1.008000   ; qtot 113.385841
 3397         c3    114    bbb     C3   3397 -0.39007700  12.010000   ; qtot 112.995764
 3398         hx    114    bbb     H5   3398 0.14940300   1.008000   ; qtot 113.145167
 3399         hx    114    bbb     H6   3399 0.14940300   1.008000   ; qtot 113.294570
 3400         c3    114    bbb     C4   3400 0.18057300  12.010000   ; qtot 113.475143
 3401         hc    114    bbb     H7   3401 0.01788900   1.008000   ; qtot 113.493032
 3402         hc    114    bbb     H8   3402 0.01788900   1.008000   ; qtot 113.510921
 3403         c3    114    bbb     C5   3403 -0.11337700  12.010000   ; qtot 113.397544
 3404         hc    114    bbb     H9   3404 0.09515400   1.008000   ; qtot 113.492698
 3405         hc    114    bbb    H10   3405 0.09515400   1.008000   ; qtot 113.587852
 3406         c3    114    bbb     C6   3406 -0.11337700  12.010000   ; qtot 113.474475
 3407         hc    114    bbb    H11   3407 0.09515400   1.008000   ; qtot 113.569629
 3408         hc    114    bbb    H12   3408 0.09515400   1.008000   ; qtot 113.664783
 3409         c3    114    bbb     C7   3409 0.21842400  12.010000   ; qtot 113.883207
 3410         h1    114    bbb    H13   3410 0.04500300   1.008000   ; qtot 113.928210
 3411         h1    114    bbb    H14   3411 0.04500300   1.008000   ; qtot 113.973213
 3412         c3    114    bbb     C8   3412 -0.06455200  12.010000   ; qtot 113.908661
 3413         h1    114    bbb    H15   3413 0.13554100   1.008000   ; qtot 114.044202
 3414         h1    114    bbb    H16   3414 0.13554100   1.008000   ; qtot 114.179743
 3415         c3    114    bbb     C9   3415 -0.06455200  12.010000   ; qtot 114.115191
 3416         h1    114    bbb    H17   3416 0.13554100   1.008000   ; qtot 114.250732
 3417         h1    114    bbb    H18   3417 0.13554100   1.008000   ; qtot 114.386273
 3418         os    114    bbb     O1   3418 -0.62587700  16.000000   ; qtot 113.760396
 3419         hn    114    bbb    H19   3419 0.23982500   1.008000   ; qtot 114.000221
; residue  115 bbb rtp bbb q 1.0
 3420         n4    115    bbb     N1   3420 0.03726400  14.010000   ; qtot 114.037485
 3421         c3    115    bbb     C1   3421 -0.07020100  12.010000   ; qtot 113.967284
 3422         hx    115    bbb     H1   3422 0.12219000   1.008000   ; qtot 114.089474
 3423         hx    115    bbb     H2   3423 0.12219000   1.008000   ; qtot 114.211664
 3424         c3    115    bbb     C2   3424 -0.07020100  12.010000   ; qtot 114.141463
 3425         hx    115    bbb     H3   3425 0.12219000   1.008000   ; qtot 114.263653
 3426         hx    115    bbb     H4   3426 0.12219000   1.008000   ; qtot 114.385843
 3427         c3    115    bbb     C3   3427 -0.39007700  12.010000   ; qtot 113.995766
 3428         hx    115    bbb     H5   3428 0.14940300   1.008000   ; qtot 114.145169
 3429         hx    115    bbb     H6   3429 0.14940300   1.008000   ; qtot 114.294572
 3430         c3    115    bbb     C4   3430 0.18057300  12.010000   ; qtot 114.475145
 3431         hc    115    bbb     H7   3431 0.01788900   1.008000   ; qtot 114.493034
 3432         hc    115    bbb     H8   3432 0.01788900   1.008000   ; qtot 114.510923
 3433         c3    115    bbb     C5   3433 -0.11337700  12.010000   ; qtot 114.397546
 3434         hc    115    bbb     H9   3434 0.09515400   1.008000   ; qtot 114.492700
 3435         hc    115    bbb    H10   3435 0.09515400   1.008000   ; qtot 114.587854
 3436         c3    115    bbb     C6   3436 -0.11337700  12.010000   ; qtot 114.474477
 3437         hc    115    bbb    H11   3437 0.09515400   1.008000   ; qtot 114.569631
 3438         hc    115    bbb    H12   3438 0.09515400   1.008000   ; qtot 114.664785
 3439         c3    115    bbb     C7   3439 0.21842400  12.010000   ; qtot 114.883209
 3440         h1    115    bbb    H13   3440 0.04500300   1.008000   ; qtot 114.928212
 3441         h1    115    bbb    H14   3441 0.04500300   1.008000   ; qtot 114.973215
 3442         c3    115    bbb     C8   3442 -0.06455200  12.010000   ; qtot 114.908663
 3443         h1    115    bbb    H15   3443 0.13554100   1.008000   ; qtot 115.044204
 3444         h1    115    bbb    H16   3444 0.13554100   1.008000   ; qtot 115.179745
 3445         c3    115    bbb     C9   3445 -0.06455200  12.010000   ; qtot 115.115193
 3446         h1    115    bbb    H17   3446 0.13554100   1.008000   ; qtot 115.250734
 3447         h1    115    bbb    H18   3447 0.13554100   1.008000   ; qtot 115.386275
 3448         os    115    bbb     O1   3448 -0.62587700  16.000000   ; qtot 114.760398
 3449         hn    115    bbb    H19   3449 0.23982500   1.008000   ; qtot 115.000223
; residue  116 bbb rtp bbb q 1.0
 3450         n4    116    bbb     N1   3450 0.03726400  14.010000   ; qtot 115.037487
 3451         c3    116    bbb     C1   3451 -0.07020100  12.010000   ; qtot 114.967286
 3452         hx    116    bbb     H1   3452 0.12219000   1.008000   ; qtot 115.089476
 3453         hx    116    bbb     H2   3453 0.12219000   1.008000   ; qtot 115.211666
 3454         c3    116    bbb     C2   3454 -0.07020100  12.010000   ; qtot 115.141465
 3455         hx    116    bbb     H3   3455 0.12219000   1.008000   ; qtot 115.263655
 3456         hx    116    bbb     H4   3456 0.12219000   1.008000   ; qtot 115.385845
 3457         c3    116    bbb     C3   3457 -0.39007700  12.010000   ; qtot 114.995768
 3458         hx    116    bbb     H5   3458 0.14940300   1.008000   ; qtot 115.145171
 3459         hx    116    bbb     H6   3459 0.14940300   1.008000   ; qtot 115.294574
 3460         c3    116    bbb     C4   3460 0.18057300  12.010000   ; qtot 115.475147
 3461         hc    116    bbb     H7   3461 0.01788900   1.008000   ; qtot 115.493036
 3462         hc    116    bbb     H8   3462 0.01788900   1.008000   ; qtot 115.510925
 3463         c3    116    bbb     C5   3463 -0.11337700  12.010000   ; qtot 115.397548
 3464         hc    116    bbb     H9   3464 0.09515400   1.008000   ; qtot 115.492702
 3465         hc    116    bbb    H10   3465 0.09515400   1.008000   ; qtot 115.587856
 3466         c3    116    bbb     C6   3466 -0.11337700  12.010000   ; qtot 115.474479
 3467         hc    116    bbb    H11   3467 0.09515400   1.008000   ; qtot 115.569633
 3468         hc    116    bbb    H12   3468 0.09515400   1.008000   ; qtot 115.664787
 3469         c3    116    bbb     C7   3469 0.21842400  12.010000   ; qtot 115.883211
 3470         h1    116    bbb    H13   3470 0.04500300   1.008000   ; qtot 115.928214
 3471         h1    116    bbb    H14   3471 0.04500300   1.008000   ; qtot 115.973217
 3472         c3    116    bbb     C8   3472 -0.06455200  12.010000   ; qtot 115.908665
 3473         h1    116    bbb    H15   3473 0.13554100   1.008000   ; qtot 116.044206
 3474         h1    116    bbb    H16   3474 0.13554100   1.008000   ; qtot 116.179747
 3475         c3    116    bbb     C9   3475 -0.06455200  12.010000   ; qtot 116.115195
 3476         h1    116    bbb    H17   3476 0.13554100   1.008000   ; qtot 116.250736
 3477         h1    116    bbb    H18   3477 0.13554100   1.008000   ; qtot 116.386277
 3478         os    116    bbb     O1   3478 -0.62587700  16.000000   ; qtot 115.760400
 3479         hn    116    bbb    H19   3479 0.23982500   1.008000   ; qtot 116.000225
; residue  117 bbb rtp bbb q 1.0
 3480         n4    117    bbb     N1   3480 0.03726400  14.010000   ; qtot 116.037489
 3481         c3    117    bbb     C1   3481 -0.07020100  12.010000   ; qtot 115.967288
 3482         hx    117    bbb     H1   3482 0.12219000   1.008000   ; qtot 116.089478
 3483         hx    117    bbb     H2   3483 0.12219000   1.008000   ; qtot 116.211668
 3484         c3    117    bbb     C2   3484 -0.07020100  12.010000   ; qtot 116.141467
 3485         hx    117    bbb     H3   3485 0.12219000   1.008000   ; qtot 116.263657
 3486         hx    117    bbb     H4   3486 0.12219000   1.008000   ; qtot 116.385847
 3487         c3    117    bbb     C3   3487 -0.39007700  12.010000   ; qtot 115.995770
 3488         hx    117    bbb     H5   3488 0.14940300   1.008000   ; qtot 116.145173
 3489         hx    117    bbb     H6   3489 0.14940300   1.008000   ; qtot 116.294576
 3490         c3    117    bbb     C4   3490 0.18057300  12.010000   ; qtot 116.475149
 3491         hc    117    bbb     H7   3491 0.01788900   1.008000   ; qtot 116.493038
 3492         hc    117    bbb     H8   3492 0.01788900   1.008000   ; qtot 116.510927
 3493         c3    117    bbb     C5   3493 -0.11337700  12.010000   ; qtot 116.397550
 3494         hc    117    bbb     H9   3494 0.09515400   1.008000   ; qtot 116.492704
 3495         hc    117    bbb    H10   3495 0.09515400   1.008000   ; qtot 116.587858
 3496         c3    117    bbb     C6   3496 -0.11337700  12.010000   ; qtot 116.474481
 3497         hc    117    bbb    H11   3497 0.09515400   1.008000   ; qtot 116.569635
 3498         hc    117    bbb    H12   3498 0.09515400   1.008000   ; qtot 116.664789
 3499         c3    117    bbb     C7   3499 0.21842400  12.010000   ; qtot 116.883213
 3500         h1    117    bbb    H13   3500 0.04500300   1.008000   ; qtot 116.928216
 3501         h1    117    bbb    H14   3501 0.04500300   1.008000   ; qtot 116.973219
 3502         c3    117    bbb     C8   3502 -0.06455200  12.010000   ; qtot 116.908667
 3503         h1    117    bbb    H15   3503 0.13554100   1.008000   ; qtot 117.044208
 3504         h1    117    bbb    H16   3504 0.13554100   1.008000   ; qtot 117.179749
 3505         c3    117    bbb     C9   3505 -0.06455200  12.010000   ; qtot 117.115197
 3506         h1    117    bbb    H17   3506 0.13554100   1.008000   ; qtot 117.250738
 3507         h1    117    bbb    H18   3507 0.13554100   1.008000   ; qtot 117.386279
 3508         os    117    bbb     O1   3508 -0.62587700  16.000000   ; qtot 116.760402
 3509         hn    117    bbb    H19   3509 0.23982500   1.008000   ; qtot 117.000227
; residue  118 bbb rtp bbb q 1.0
 3510         n4    118    bbb     N1   3510 0.03726400  14.010000   ; qtot 117.037491
 3511         c3    118    bbb     C1   3511 -0.07020100  12.010000   ; qtot 116.967290
 3512         hx    118    bbb     H1   3512 0.12219000   1.008000   ; qtot 117.089480
 3513         hx    118    bbb     H2   3513 0.12219000   1.008000   ; qtot 117.211670
 3514         c3    118    bbb     C2   3514 -0.07020100  12.010000   ; qtot 117.141469
 3515         hx    118    bbb     H3   3515 0.12219000   1.008000   ; qtot 117.263659
 3516         hx    118    bbb     H4   3516 0.12219000   1.008000   ; qtot 117.385849
 3517         c3    118    bbb     C3   3517 -0.39007700  12.010000   ; qtot 116.995772
 3518         hx    118    bbb     H5   3518 0.14940300   1.008000   ; qtot 117.145175
 3519         hx    118    bbb     H6   3519 0.14940300   1.008000   ; qtot 117.294578
 3520         c3    118    bbb     C4   3520 0.18057300  12.010000   ; qtot 117.475151
 3521         hc    118    bbb     H7   3521 0.01788900   1.008000   ; qtot 117.493040
 3522         hc    118    bbb     H8   3522 0.01788900   1.008000   ; qtot 117.510929
 3523         c3    118    bbb     C5   3523 -0.11337700  12.010000   ; qtot 117.397552
 3524         hc    118    bbb     H9   3524 0.09515400   1.008000   ; qtot 117.492706
 3525         hc    118    bbb    H10   3525 0.09515400   1.008000   ; qtot 117.587860
 3526         c3    118    bbb     C6   3526 -0.11337700  12.010000   ; qtot 117.474483
 3527         hc    118    bbb    H11   3527 0.09515400   1.008000   ; qtot 117.569637
 3528         hc    118    bbb    H12   3528 0.09515400   1.008000   ; qtot 117.664791
 3529         c3    118    bbb     C7   3529 0.21842400  12.010000   ; qtot 117.883215
 3530         h1    118    bbb    H13   3530 0.04500300   1.008000   ; qtot 117.928218
 3531         h1    118    bbb    H14   3531 0.04500300   1.008000   ; qtot 117.973221
 3532         c3    118    bbb     C8   3532 -0.06455200  12.010000   ; qtot 117.908669
 3533         h1    118    bbb    H15   3533 0.13554100   1.008000   ; qtot 118.044210
 3534         h1    118    bbb    H16   3534 0.13554100   1.008000   ; qtot 118.179751
 3535         c3    118    bbb     C9   3535 -0.06455200  12.010000   ; qtot 118.115199
 3536         h1    118    bbb    H17   3536 0.13554100   1.008000   ; qtot 118.250740
 3537         h1    118    bbb    H18   3537 0.13554100   1.008000   ; qtot 118.386281
 3538         os    118    bbb     O1   3538 -0.62587700  16.000000   ; qtot 117.760404
 3539         hn    118    bbb    H19   3539 0.23982500   1.008000   ; qtot 118.000229
; residue  119 bbb rtp bbb q 1.0
 3540         n4    119    bbb     N1   3540 0.03726400  14.010000   ; qtot 118.037493
 3541         c3    119    bbb     C1   3541 -0.07020100  12.010000   ; qtot 117.967292
 3542         hx    119    bbb     H1   3542 0.12219000   1.008000   ; qtot 118.089482
 3543         hx    119    bbb     H2   3543 0.12219000   1.008000   ; qtot 118.211672
 3544         c3    119    bbb     C2   3544 -0.07020100  12.010000   ; qtot 118.141471
 3545         hx    119    bbb     H3   3545 0.12219000   1.008000   ; qtot 118.263661
 3546         hx    119    bbb     H4   3546 0.12219000   1.008000   ; qtot 118.385851
 3547         c3    119    bbb     C3   3547 -0.39007700  12.010000   ; qtot 117.995774
 3548         hx    119    bbb     H5   3548 0.14940300   1.008000   ; qtot 118.145177
 3549         hx    119    bbb     H6   3549 0.14940300   1.008000   ; qtot 118.294580
 3550         c3    119    bbb     C4   3550 0.18057300  12.010000   ; qtot 118.475153
 3551         hc    119    bbb     H7   3551 0.01788900   1.008000   ; qtot 118.493042
 3552         hc    119    bbb     H8   3552 0.01788900   1.008000   ; qtot 118.510931
 3553         c3    119    bbb     C5   3553 -0.11337700  12.010000   ; qtot 118.397554
 3554         hc    119    bbb     H9   3554 0.09515400   1.008000   ; qtot 118.492708
 3555         hc    119    bbb    H10   3555 0.09515400   1.008000   ; qtot 118.587862
 3556         c3    119    bbb     C6   3556 -0.11337700  12.010000   ; qtot 118.474485
 3557         hc    119    bbb    H11   3557 0.09515400   1.008000   ; qtot 118.569639
 3558         hc    119    bbb    H12   3558 0.09515400   1.008000   ; qtot 118.664793
 3559         c3    119    bbb     C7   3559 0.21842400  12.010000   ; qtot 118.883217
 3560         h1    119    bbb    H13   3560 0.04500300   1.008000   ; qtot 118.928220
 3561         h1    119    bbb    H14   3561 0.04500300   1.008000   ; qtot 118.973223
 3562         c3    119    bbb     C8   3562 -0.06455200  12.010000   ; qtot 118.908671
 3563         h1    119    bbb    H15   3563 0.13554100   1.008000   ; qtot 119.044212
 3564         h1    119    bbb    H16   3564 0.13554100   1.008000   ; qtot 119.179753
 3565         c3    119    bbb     C9   3565 -0.06455200  12.010000   ; qtot 119.115201
 3566         h1    119    bbb    H17   3566 0.13554100   1.008000   ; qtot 119.250742
 3567         h1    119    bbb    H18   3567 0.13554100   1.008000   ; qtot 119.386283
 3568         os    119    bbb     O1   3568 -0.62587700  16.000000   ; qtot 118.760406
 3569         hn    119    bbb    H19   3569 0.23982500   1.008000   ; qtot 119.000231
; residue  120 bbb rtp bbb q 1.0
 3570         n4    120    bbb     N1   3570 0.03726400  14.010000   ; qtot 119.037495
 3571         c3    120    bbb     C1   3571 -0.07020100  12.010000   ; qtot 118.967294
 3572         hx    120    bbb     H1   3572 0.12219000   1.008000   ; qtot 119.089484
 3573         hx    120    bbb     H2   3573 0.12219000   1.008000   ; qtot 119.211674
 3574         c3    120    bbb     C2   3574 -0.07020100  12.010000   ; qtot 119.141473
 3575         hx    120    bbb     H3   3575 0.12219000   1.008000   ; qtot 119.263663
 3576         hx    120    bbb     H4   3576 0.12219000   1.008000   ; qtot 119.385853
 3577         c3    120    bbb     C3   3577 -0.39007700  12.010000   ; qtot 118.995776
 3578         hx    120    bbb     H5   3578 0.14940300   1.008000   ; qtot 119.145179
 3579         hx    120    bbb     H6   3579 0.14940300   1.008000   ; qtot 119.294582
 3580         c3    120    bbb     C4   3580 0.18057300  12.010000   ; qtot 119.475155
 3581         hc    120    bbb     H7   3581 0.01788900   1.008000   ; qtot 119.493044
 3582         hc    120    bbb     H8   3582 0.01788900   1.008000   ; qtot 119.510933
 3583         c3    120    bbb     C5   3583 -0.11337700  12.010000   ; qtot 119.397556
 3584         hc    120    bbb     H9   3584 0.09515400   1.008000   ; qtot 119.492710
 3585         hc    120    bbb    H10   3585 0.09515400   1.008000   ; qtot 119.587864
 3586         c3    120    bbb     C6   3586 -0.11337700  12.010000   ; qtot 119.474487
 3587         hc    120    bbb    H11   3587 0.09515400   1.008000   ; qtot 119.569641
 3588         hc    120    bbb    H12   3588 0.09515400   1.008000   ; qtot 119.664795
 3589         c3    120    bbb     C7   3589 0.21842400  12.010000   ; qtot 119.883219
 3590         h1    120    bbb    H13   3590 0.04500300   1.008000   ; qtot 119.928222
 3591         h1    120    bbb    H14   3591 0.04500300   1.008000   ; qtot 119.973225
 3592         c3    120    bbb     C8   3592 -0.06455200  12.010000   ; qtot 119.908673
 3593         h1    120    bbb    H15   3593 0.13554100   1.008000   ; qtot 120.044214
 3594         h1    120    bbb    H16   3594 0.13554100   1.008000   ; qtot 120.179755
 3595         c3    120    bbb     C9   3595 -0.06455200  12.010000   ; qtot 120.115203
 3596         h1    120    bbb    H17   3596 0.13554100   1.008000   ; qtot 120.250744
 3597         h1    120    bbb    H18   3597 0.13554100   1.008000   ; qtot 120.386285
 3598         os    120    bbb     O1   3598 -0.62587700  16.000000   ; qtot 119.760408
 3599         hn    120    bbb    H19   3599 0.23982500   1.008000   ; qtot 120.000233
; residue  121 bbb rtp bbb q 1.0
 3600         n4    121    bbb     N1   3600 0.03726400  14.010000   ; qtot 120.037497
 3601         c3    121    bbb     C1   3601 -0.07020100  12.010000   ; qtot 119.967296
 3602         hx    121    bbb     H1   3602 0.12219000   1.008000   ; qtot 120.089486
 3603         hx    121    bbb     H2   3603 0.12219000   1.008000   ; qtot 120.211676
 3604         c3    121    bbb     C2   3604 -0.07020100  12.010000   ; qtot 120.141475
 3605         hx    121    bbb     H3   3605 0.12219000   1.008000   ; qtot 120.263665
 3606         hx    121    bbb     H4   3606 0.12219000   1.008000   ; qtot 120.385855
 3607         c3    121    bbb     C3   3607 -0.39007700  12.010000   ; qtot 119.995778
 3608         hx    121    bbb     H5   3608 0.14940300   1.008000   ; qtot 120.145181
 3609         hx    121    bbb     H6   3609 0.14940300   1.008000   ; qtot 120.294584
 3610         c3    121    bbb     C4   3610 0.18057300  12.010000   ; qtot 120.475157
 3611         hc    121    bbb     H7   3611 0.01788900   1.008000   ; qtot 120.493046
 3612         hc    121    bbb     H8   3612 0.01788900   1.008000   ; qtot 120.510935
 3613         c3    121    bbb     C5   3613 -0.11337700  12.010000   ; qtot 120.397558
 3614         hc    121    bbb     H9   3614 0.09515400   1.008000   ; qtot 120.492712
 3615         hc    121    bbb    H10   3615 0.09515400   1.008000   ; qtot 120.587866
 3616         c3    121    bbb     C6   3616 -0.11337700  12.010000   ; qtot 120.474489
 3617         hc    121    bbb    H11   3617 0.09515400   1.008000   ; qtot 120.569643
 3618         hc    121    bbb    H12   3618 0.09515400   1.008000   ; qtot 120.664797
 3619         c3    121    bbb     C7   3619 0.21842400  12.010000   ; qtot 120.883221
 3620         h1    121    bbb    H13   3620 0.04500300   1.008000   ; qtot 120.928224
 3621         h1    121    bbb    H14   3621 0.04500300   1.008000   ; qtot 120.973227
 3622         c3    121    bbb     C8   3622 -0.06455200  12.010000   ; qtot 120.908675
 3623         h1    121    bbb    H15   3623 0.13554100   1.008000   ; qtot 121.044216
 3624         h1    121    bbb    H16   3624 0.13554100   1.008000   ; qtot 121.179757
 3625         c3    121    bbb     C9   3625 -0.06455200  12.010000   ; qtot 121.115205
 3626         h1    121    bbb    H17   3626 0.13554100   1.008000   ; qtot 121.250746
 3627         h1    121    bbb    H18   3627 0.13554100   1.008000   ; qtot 121.386287
 3628         os    121    bbb     O1   3628 -0.62587700  16.000000   ; qtot 120.760410
 3629         hn    121    bbb    H19   3629 0.23982500   1.008000   ; qtot 121.000235
; residue  122 bbb rtp bbb q 1.0
 3630         n4    122    bbb     N1   3630 0.03726400  14.010000   ; qtot 121.037499
 3631         c3    122    bbb     C1   3631 -0.07020100  12.010000   ; qtot 120.967298
 3632         hx    122    bbb     H1   3632 0.12219000   1.008000   ; qtot 121.089488
 3633         hx    122    bbb     H2   3633 0.12219000   1.008000   ; qtot 121.211678
 3634         c3    122    bbb     C2   3634 -0.07020100  12.010000   ; qtot 121.141477
 3635         hx    122    bbb     H3   3635 0.12219000   1.008000   ; qtot 121.263667
 3636         hx    122    bbb     H4   3636 0.12219000   1.008000   ; qtot 121.385857
 3637         c3    122    bbb     C3   3637 -0.39007700  12.010000   ; qtot 120.995780
 3638         hx    122    bbb     H5   3638 0.14940300   1.008000   ; qtot 121.145183
 3639         hx    122    bbb     H6   3639 0.14940300   1.008000   ; qtot 121.294586
 3640         c3    122    bbb     C4   3640 0.18057300  12.010000   ; qtot 121.475159
 3641         hc    122    bbb     H7   3641 0.01788900   1.008000   ; qtot 121.493048
 3642         hc    122    bbb     H8   3642 0.01788900   1.008000   ; qtot 121.510937
 3643         c3    122    bbb     C5   3643 -0.11337700  12.010000   ; qtot 121.397560
 3644         hc    122    bbb     H9   3644 0.09515400   1.008000   ; qtot 121.492714
 3645         hc    122    bbb    H10   3645 0.09515400   1.008000   ; qtot 121.587868
 3646         c3    122    bbb     C6   3646 -0.11337700  12.010000   ; qtot 121.474491
 3647         hc    122    bbb    H11   3647 0.09515400   1.008000   ; qtot 121.569645
 3648         hc    122    bbb    H12   3648 0.09515400   1.008000   ; qtot 121.664799
 3649         c3    122    bbb     C7   3649 0.21842400  12.010000   ; qtot 121.883223
 3650         h1    122    bbb    H13   3650 0.04500300   1.008000   ; qtot 121.928226
 3651         h1    122    bbb    H14   3651 0.04500300   1.008000   ; qtot 121.973229
 3652         c3    122    bbb     C8   3652 -0.06455200  12.010000   ; qtot 121.908677
 3653         h1    122    bbb    H15   3653 0.13554100   1.008000   ; qtot 122.044218
 3654         h1    122    bbb    H16   3654 0.13554100   1.008000   ; qtot 122.179759
 3655         c3    122    bbb     C9   3655 -0.06455200  12.010000   ; qtot 122.115207
 3656         h1    122    bbb    H17   3656 0.13554100   1.008000   ; qtot 122.250748
 3657         h1    122    bbb    H18   3657 0.13554100   1.008000   ; qtot 122.386289
 3658         os    122    bbb     O1   3658 -0.62587700  16.000000   ; qtot 121.760412
 3659         hn    122    bbb    H19   3659 0.23982500   1.008000   ; qtot 122.000237
; residue  123 bbb rtp bbb q 1.0
 3660         n4    123    bbb     N1   3660 0.03726400  14.010000   ; qtot 122.037501
 3661         c3    123    bbb     C1   3661 -0.07020100  12.010000   ; qtot 121.967300
 3662         hx    123    bbb     H1   3662 0.12219000   1.008000   ; qtot 122.089490
 3663         hx    123    bbb     H2   3663 0.12219000   1.008000   ; qtot 122.211680
 3664         c3    123    bbb     C2   3664 -0.07020100  12.010000   ; qtot 122.141479
 3665         hx    123    bbb     H3   3665 0.12219000   1.008000   ; qtot 122.263669
 3666         hx    123    bbb     H4   3666 0.12219000   1.008000   ; qtot 122.385859
 3667         c3    123    bbb     C3   3667 -0.39007700  12.010000   ; qtot 121.995782
 3668         hx    123    bbb     H5   3668 0.14940300   1.008000   ; qtot 122.145185
 3669         hx    123    bbb     H6   3669 0.14940300   1.008000   ; qtot 122.294588
 3670         c3    123    bbb     C4   3670 0.18057300  12.010000   ; qtot 122.475161
 3671         hc    123    bbb     H7   3671 0.01788900   1.008000   ; qtot 122.493050
 3672         hc    123    bbb     H8   3672 0.01788900   1.008000   ; qtot 122.510939
 3673         c3    123    bbb     C5   3673 -0.11337700  12.010000   ; qtot 122.397562
 3674         hc    123    bbb     H9   3674 0.09515400   1.008000   ; qtot 122.492716
 3675         hc    123    bbb    H10   3675 0.09515400   1.008000   ; qtot 122.587870
 3676         c3    123    bbb     C6   3676 -0.11337700  12.010000   ; qtot 122.474493
 3677         hc    123    bbb    H11   3677 0.09515400   1.008000   ; qtot 122.569647
 3678         hc    123    bbb    H12   3678 0.09515400   1.008000   ; qtot 122.664801
 3679         c3    123    bbb     C7   3679 0.21842400  12.010000   ; qtot 122.883225
 3680         h1    123    bbb    H13   3680 0.04500300   1.008000   ; qtot 122.928228
 3681         h1    123    bbb    H14   3681 0.04500300   1.008000   ; qtot 122.973231
 3682         c3    123    bbb     C8   3682 -0.06455200  12.010000   ; qtot 122.908679
 3683         h1    123    bbb    H15   3683 0.13554100   1.008000   ; qtot 123.044220
 3684         h1    123    bbb    H16   3684 0.13554100   1.008000   ; qtot 123.179761
 3685         c3    123    bbb     C9   3685 -0.06455200  12.010000   ; qtot 123.115209
 3686         h1    123    bbb    H17   3686 0.13554100   1.008000   ; qtot 123.250750
 3687         h1    123    bbb    H18   3687 0.13554100   1.008000   ; qtot 123.386291
 3688         os    123    bbb     O1   3688 -0.62587700  16.000000   ; qtot 122.760414
 3689         hn    123    bbb    H19   3689 0.23982500   1.008000   ; qtot 123.000239
; residue  124 bbb rtp bbb q 1.0
 3690         n4    124    bbb     N1   3690 0.03726400  14.010000   ; qtot 123.037503
 3691         c3    124    bbb     C1   3691 -0.07020100  12.010000   ; qtot 122.967302
 3692         hx    124    bbb     H1   3692 0.12219000   1.008000   ; qtot 123.089492
 3693         hx    124    bbb     H2   3693 0.12219000   1.008000   ; qtot 123.211682
 3694         c3    124    bbb     C2   3694 -0.07020100  12.010000   ; qtot 123.141481
 3695         hx    124    bbb     H3   3695 0.12219000   1.008000   ; qtot 123.263671
 3696         hx    124    bbb     H4   3696 0.12219000   1.008000   ; qtot 123.385861
 3697         c3    124    bbb     C3   3697 -0.39007700  12.010000   ; qtot 122.995784
 3698         hx    124    bbb     H5   3698 0.14940300   1.008000   ; qtot 123.145187
 3699         hx    124    bbb     H6   3699 0.14940300   1.008000   ; qtot 123.294590
 3700         c3    124    bbb     C4   3700 0.18057300  12.010000   ; qtot 123.475163
 3701         hc    124    bbb     H7   3701 0.01788900   1.008000   ; qtot 123.493052
 3702         hc    124    bbb     H8   3702 0.01788900   1.008000   ; qtot 123.510941
 3703         c3    124    bbb     C5   3703 -0.11337700  12.010000   ; qtot 123.397564
 3704         hc    124    bbb     H9   3704 0.09515400   1.008000   ; qtot 123.492718
 3705         hc    124    bbb    H10   3705 0.09515400   1.008000   ; qtot 123.587872
 3706         c3    124    bbb     C6   3706 -0.11337700  12.010000   ; qtot 123.474495
 3707         hc    124    bbb    H11   3707 0.09515400   1.008000   ; qtot 123.569649
 3708         hc    124    bbb    H12   3708 0.09515400   1.008000   ; qtot 123.664803
 3709         c3    124    bbb     C7   3709 0.21842400  12.010000   ; qtot 123.883227
 3710         h1    124    bbb    H13   3710 0.04500300   1.008000   ; qtot 123.928230
 3711         h1    124    bbb    H14   3711 0.04500300   1.008000   ; qtot 123.973233
 3712         c3    124    bbb     C8   3712 -0.06455200  12.010000   ; qtot 123.908681
 3713         h1    124    bbb    H15   3713 0.13554100   1.008000   ; qtot 124.044222
 3714         h1    124    bbb    H16   3714 0.13554100   1.008000   ; qtot 124.179763
 3715         c3    124    bbb     C9   3715 -0.06455200  12.010000   ; qtot 124.115211
 3716         h1    124    bbb    H17   3716 0.13554100   1.008000   ; qtot 124.250752
 3717         h1    124    bbb    H18   3717 0.13554100   1.008000   ; qtot 124.386293
 3718         os    124    bbb     O1   3718 -0.62587700  16.000000   ; qtot 123.760416
 3719         hn    124    bbb    H19   3719 0.23982500   1.008000   ; qtot 124.000241
; residue  125 bbb rtp bbb q 1.0
 3720         n4    125    bbb     N1   3720 0.03726400  14.010000   ; qtot 124.037505
 3721         c3    125    bbb     C1   3721 -0.07020100  12.010000   ; qtot 123.967304
 3722         hx    125    bbb     H1   3722 0.12219000   1.008000   ; qtot 124.089494
 3723         hx    125    bbb     H2   3723 0.12219000   1.008000   ; qtot 124.211684
 3724         c3    125    bbb     C2   3724 -0.07020100  12.010000   ; qtot 124.141483
 3725         hx    125    bbb     H3   3725 0.12219000   1.008000   ; qtot 124.263673
 3726         hx    125    bbb     H4   3726 0.12219000   1.008000   ; qtot 124.385863
 3727         c3    125    bbb     C3   3727 -0.39007700  12.010000   ; qtot 123.995786
 3728         hx    125    bbb     H5   3728 0.14940300   1.008000   ; qtot 124.145189
 3729         hx    125    bbb     H6   3729 0.14940300   1.008000   ; qtot 124.294592
 3730         c3    125    bbb     C4   3730 0.18057300  12.010000   ; qtot 124.475165
 3731         hc    125    bbb     H7   3731 0.01788900   1.008000   ; qtot 124.493054
 3732         hc    125    bbb     H8   3732 0.01788900   1.008000   ; qtot 124.510943
 3733         c3    125    bbb     C5   3733 -0.11337700  12.010000   ; qtot 124.397566
 3734         hc    125    bbb     H9   3734 0.09515400   1.008000   ; qtot 124.492720
 3735         hc    125    bbb    H10   3735 0.09515400   1.008000   ; qtot 124.587874
 3736         c3    125    bbb     C6   3736 -0.11337700  12.010000   ; qtot 124.474497
 3737         hc    125    bbb    H11   3737 0.09515400   1.008000   ; qtot 124.569651
 3738         hc    125    bbb    H12   3738 0.09515400   1.008000   ; qtot 124.664805
 3739         c3    125    bbb     C7   3739 0.21842400  12.010000   ; qtot 124.883229
 3740         h1    125    bbb    H13   3740 0.04500300   1.008000   ; qtot 124.928232
 3741         h1    125    bbb    H14   3741 0.04500300   1.008000   ; qtot 124.973235
 3742         c3    125    bbb     C8   3742 -0.06455200  12.010000   ; qtot 124.908683
 3743         h1    125    bbb    H15   3743 0.13554100   1.008000   ; qtot 125.044224
 3744         h1    125    bbb    H16   3744 0.13554100   1.008000   ; qtot 125.179765
 3745         c3    125    bbb     C9   3745 -0.06455200  12.010000   ; qtot 125.115213
 3746         h1    125    bbb    H17   3746 0.13554100   1.008000   ; qtot 125.250754
 3747         h1    125    bbb    H18   3747 0.13554100   1.008000   ; qtot 125.386295
 3748         os    125    bbb     O1   3748 -0.62587700  16.000000   ; qtot 124.760418
 3749         hn    125    bbb    H19   3749 0.23982500   1.008000   ; qtot 125.000243
; residue  126 bbb rtp bbb q 1.0
 3750         n4    126    bbb     N1   3750 0.03726400  14.010000   ; qtot 125.037507
 3751         c3    126    bbb     C1   3751 -0.07020100  12.010000   ; qtot 124.967306
 3752         hx    126    bbb     H1   3752 0.12219000   1.008000   ; qtot 125.089496
 3753         hx    126    bbb     H2   3753 0.12219000   1.008000   ; qtot 125.211686
 3754         c3    126    bbb     C2   3754 -0.07020100  12.010000   ; qtot 125.141485
 3755         hx    126    bbb     H3   3755 0.12219000   1.008000   ; qtot 125.263675
 3756         hx    126    bbb     H4   3756 0.12219000   1.008000   ; qtot 125.385865
 3757         c3    126    bbb     C3   3757 -0.39007700  12.010000   ; qtot 124.995788
 3758         hx    126    bbb     H5   3758 0.14940300   1.008000   ; qtot 125.145191
 3759         hx    126    bbb     H6   3759 0.14940300   1.008000   ; qtot 125.294594
 3760         c3    126    bbb     C4   3760 0.18057300  12.010000   ; qtot 125.475167
 3761         hc    126    bbb     H7   3761 0.01788900   1.008000   ; qtot 125.493056
 3762         hc    126    bbb     H8   3762 0.01788900   1.008000   ; qtot 125.510945
 3763         c3    126    bbb     C5   3763 -0.11337700  12.010000   ; qtot 125.397568
 3764         hc    126    bbb     H9   3764 0.09515400   1.008000   ; qtot 125.492722
 3765         hc    126    bbb    H10   3765 0.09515400   1.008000   ; qtot 125.587876
 3766         c3    126    bbb     C6   3766 -0.11337700  12.010000   ; qtot 125.474499
 3767         hc    126    bbb    H11   3767 0.09515400   1.008000   ; qtot 125.569653
 3768         hc    126    bbb    H12   3768 0.09515400   1.008000   ; qtot 125.664807
 3769         c3    126    bbb     C7   3769 0.21842400  12.010000   ; qtot 125.883231
 3770         h1    126    bbb    H13   3770 0.04500300   1.008000   ; qtot 125.928234
 3771         h1    126    bbb    H14   3771 0.04500300   1.008000   ; qtot 125.973237
 3772         c3    126    bbb     C8   3772 -0.06455200  12.010000   ; qtot 125.908685
 3773         h1    126    bbb    H15   3773 0.13554100   1.008000   ; qtot 126.044226
 3774         h1    126    bbb    H16   3774 0.13554100   1.008000   ; qtot 126.179767
 3775         c3    126    bbb     C9   3775 -0.06455200  12.010000   ; qtot 126.115215
 3776         h1    126    bbb    H17   3776 0.13554100   1.008000   ; qtot 126.250756
 3777         h1    126    bbb    H18   3777 0.13554100   1.008000   ; qtot 126.386297
 3778         os    126    bbb     O1   3778 -0.62587700  16.000000   ; qtot 125.760420
 3779         hn    126    bbb    H19   3779 0.23982500   1.008000   ; qtot 126.000245
; residue  127 bbb rtp bbb q 1.0
 3780         n4    127    bbb     N1   3780 0.03726400  14.010000   ; qtot 126.037509
 3781         c3    127    bbb     C1   3781 -0.07020100  12.010000   ; qtot 125.967308
 3782         hx    127    bbb     H1   3782 0.12219000   1.008000   ; qtot 126.089498
 3783         hx    127    bbb     H2   3783 0.12219000   1.008000   ; qtot 126.211688
 3784         c3    127    bbb     C2   3784 -0.07020100  12.010000   ; qtot 126.141487
 3785         hx    127    bbb     H3   3785 0.12219000   1.008000   ; qtot 126.263677
 3786         hx    127    bbb     H4   3786 0.12219000   1.008000   ; qtot 126.385867
 3787         c3    127    bbb     C3   3787 -0.39007700  12.010000   ; qtot 125.995790
 3788         hx    127    bbb     H5   3788 0.14940300   1.008000   ; qtot 126.145193
 3789         hx    127    bbb     H6   3789 0.14940300   1.008000   ; qtot 126.294596
 3790         c3    127    bbb     C4   3790 0.18057300  12.010000   ; qtot 126.475169
 3791         hc    127    bbb     H7   3791 0.01788900   1.008000   ; qtot 126.493058
 3792         hc    127    bbb     H8   3792 0.01788900   1.008000   ; qtot 126.510947
 3793         c3    127    bbb     C5   3793 -0.11337700  12.010000   ; qtot 126.397570
 3794         hc    127    bbb     H9   3794 0.09515400   1.008000   ; qtot 126.492724
 3795         hc    127    bbb    H10   3795 0.09515400   1.008000   ; qtot 126.587878
 3796         c3    127    bbb     C6   3796 -0.11337700  12.010000   ; qtot 126.474501
 3797         hc    127    bbb    H11   3797 0.09515400   1.008000   ; qtot 126.569655
 3798         hc    127    bbb    H12   3798 0.09515400   1.008000   ; qtot 126.664809
 3799         c3    127    bbb     C7   3799 0.21842400  12.010000   ; qtot 126.883233
 3800         h1    127    bbb    H13   3800 0.04500300   1.008000   ; qtot 126.928236
 3801         h1    127    bbb    H14   3801 0.04500300   1.008000   ; qtot 126.973239
 3802         c3    127    bbb     C8   3802 -0.06455200  12.010000   ; qtot 126.908687
 3803         h1    127    bbb    H15   3803 0.13554100   1.008000   ; qtot 127.044228
 3804         h1    127    bbb    H16   3804 0.13554100   1.008000   ; qtot 127.179769
 3805         c3    127    bbb     C9   3805 -0.06455200  12.010000   ; qtot 127.115217
 3806         h1    127    bbb    H17   3806 0.13554100   1.008000   ; qtot 127.250758
 3807         h1    127    bbb    H18   3807 0.13554100   1.008000   ; qtot 127.386299
 3808         os    127    bbb     O1   3808 -0.62587700  16.000000   ; qtot 126.760422
 3809         hn    127    bbb    H19   3809 0.23982500   1.008000   ; qtot 127.000247
; residue  128 bbb rtp bbb q 1.0
 3810         n4    128    bbb     N1   3810 0.03726400  14.010000   ; qtot 127.037511
 3811         c3    128    bbb     C1   3811 -0.07020100  12.010000   ; qtot 126.967310
 3812         hx    128    bbb     H1   3812 0.12219000   1.008000   ; qtot 127.089500
 3813         hx    128    bbb     H2   3813 0.12219000   1.008000   ; qtot 127.211690
 3814         c3    128    bbb     C2   3814 -0.07020100  12.010000   ; qtot 127.141489
 3815         hx    128    bbb     H3   3815 0.12219000   1.008000   ; qtot 127.263679
 3816         hx    128    bbb     H4   3816 0.12219000   1.008000   ; qtot 127.385869
 3817         c3    128    bbb     C3   3817 -0.39007700  12.010000   ; qtot 126.995792
 3818         hx    128    bbb     H5   3818 0.14940300   1.008000   ; qtot 127.145195
 3819         hx    128    bbb     H6   3819 0.14940300   1.008000   ; qtot 127.294598
 3820         c3    128    bbb     C4   3820 0.18057300  12.010000   ; qtot 127.475171
 3821         hc    128    bbb     H7   3821 0.01788900   1.008000   ; qtot 127.493060
 3822         hc    128    bbb     H8   3822 0.01788900   1.008000   ; qtot 127.510949
 3823         c3    128    bbb     C5   3823 -0.11337700  12.010000   ; qtot 127.397572
 3824         hc    128    bbb     H9   3824 0.09515400   1.008000   ; qtot 127.492726
 3825         hc    128    bbb    H10   3825 0.09515400   1.008000   ; qtot 127.587880
 3826         c3    128    bbb     C6   3826 -0.11337700  12.010000   ; qtot 127.474503
 3827         hc    128    bbb    H11   3827 0.09515400   1.008000   ; qtot 127.569657
 3828         hc    128    bbb    H12   3828 0.09515400   1.008000   ; qtot 127.664811
 3829         c3    128    bbb     C7   3829 0.21842400  12.010000   ; qtot 127.883235
 3830         h1    128    bbb    H13   3830 0.04500300   1.008000   ; qtot 127.928238
 3831         h1    128    bbb    H14   3831 0.04500300   1.008000   ; qtot 127.973241
 3832         c3    128    bbb     C8   3832 -0.06455200  12.010000   ; qtot 127.908689
 3833         h1    128    bbb    H15   3833 0.13554100   1.008000   ; qtot 128.044230
 3834         h1    128    bbb    H16   3834 0.13554100   1.008000   ; qtot 128.179771
 3835         c3    128    bbb     C9   3835 -0.06455200  12.010000   ; qtot 128.115219
 3836         h1    128    bbb    H17   3836 0.13554100   1.008000   ; qtot 128.250760
 3837         h1    128    bbb    H18   3837 0.13554100   1.008000   ; qtot 128.386301
 3838         os    128    bbb     O1   3838 -0.62587700  16.000000   ; qtot 127.760424
 3839         hn    128    bbb    H19   3839 0.23982500   1.008000   ; qtot 128.000249
; residue  129 bbb rtp bbb q 1.0
 3840         n4    129    bbb     N1   3840 0.03726400  14.010000   ; qtot 128.037513
 3841         c3    129    bbb     C1   3841 -0.07020100  12.010000   ; qtot 127.967312
 3842         hx    129    bbb     H1   3842 0.12219000   1.008000   ; qtot 128.089502
 3843         hx    129    bbb     H2   3843 0.12219000   1.008000   ; qtot 128.211692
 3844         c3    129    bbb     C2   3844 -0.07020100  12.010000   ; qtot 128.141491
 3845         hx    129    bbb     H3   3845 0.12219000   1.008000   ; qtot 128.263681
 3846         hx    129    bbb     H4   3846 0.12219000   1.008000   ; qtot 128.385871
 3847         c3    129    bbb     C3   3847 -0.39007700  12.010000   ; qtot 127.995794
 3848         hx    129    bbb     H5   3848 0.14940300   1.008000   ; qtot 128.145197
 3849         hx    129    bbb     H6   3849 0.14940300   1.008000   ; qtot 128.294600
 3850         c3    129    bbb     C4   3850 0.18057300  12.010000   ; qtot 128.475173
 3851         hc    129    bbb     H7   3851 0.01788900   1.008000   ; qtot 128.493062
 3852         hc    129    bbb     H8   3852 0.01788900   1.008000   ; qtot 128.510951
 3853         c3    129    bbb     C5   3853 -0.11337700  12.010000   ; qtot 128.397574
 3854         hc    129    bbb     H9   3854 0.09515400   1.008000   ; qtot 128.492728
 3855         hc    129    bbb    H10   3855 0.09515400   1.008000   ; qtot 128.587882
 3856         c3    129    bbb     C6   3856 -0.11337700  12.010000   ; qtot 128.474505
 3857         hc    129    bbb    H11   3857 0.09515400   1.008000   ; qtot 128.569659
 3858         hc    129    bbb    H12   3858 0.09515400   1.008000   ; qtot 128.664813
 3859         c3    129    bbb     C7   3859 0.21842400  12.010000   ; qtot 128.883237
 3860         h1    129    bbb    H13   3860 0.04500300   1.008000   ; qtot 128.928240
 3861         h1    129    bbb    H14   3861 0.04500300   1.008000   ; qtot 128.973243
 3862         c3    129    bbb     C8   3862 -0.06455200  12.010000   ; qtot 128.908691
 3863         h1    129    bbb    H15   3863 0.13554100   1.008000   ; qtot 129.044232
 3864         h1    129    bbb    H16   3864 0.13554100   1.008000   ; qtot 129.179773
 3865         c3    129    bbb     C9   3865 -0.06455200  12.010000   ; qtot 129.115221
 3866         h1    129    bbb    H17   3866 0.13554100   1.008000   ; qtot 129.250762
 3867         h1    129    bbb    H18   3867 0.13554100   1.008000   ; qtot 129.386303
 3868         os    129    bbb     O1   3868 -0.62587700  16.000000   ; qtot 128.760426
 3869         hn    129    bbb    H19   3869 0.23982500   1.008000   ; qtot 129.000251
; residue  130 bbb rtp bbb q 1.0
 3870         n4    130    bbb     N1   3870 0.03726400  14.010000   ; qtot 129.037515
 3871         c3    130    bbb     C1   3871 -0.07020100  12.010000   ; qtot 128.967314
 3872         hx    130    bbb     H1   3872 0.12219000   1.008000   ; qtot 129.089504
 3873         hx    130    bbb     H2   3873 0.12219000   1.008000   ; qtot 129.211694
 3874         c3    130    bbb     C2   3874 -0.07020100  12.010000   ; qtot 129.141493
 3875         hx    130    bbb     H3   3875 0.12219000   1.008000   ; qtot 129.263683
 3876         hx    130    bbb     H4   3876 0.12219000   1.008000   ; qtot 129.385873
 3877         c3    130    bbb     C3   3877 -0.39007700  12.010000   ; qtot 128.995796
 3878         hx    130    bbb     H5   3878 0.14940300   1.008000   ; qtot 129.145199
 3879         hx    130    bbb     H6   3879 0.14940300   1.008000   ; qtot 129.294602
 3880         c3    130    bbb     C4   3880 0.18057300  12.010000   ; qtot 129.475175
 3881         hc    130    bbb     H7   3881 0.01788900   1.008000   ; qtot 129.493064
 3882         hc    130    bbb     H8   3882 0.01788900   1.008000   ; qtot 129.510953
 3883         c3    130    bbb     C5   3883 -0.11337700  12.010000   ; qtot 129.397576
 3884         hc    130    bbb     H9   3884 0.09515400   1.008000   ; qtot 129.492730
 3885         hc    130    bbb    H10   3885 0.09515400   1.008000   ; qtot 129.587884
 3886         c3    130    bbb     C6   3886 -0.11337700  12.010000   ; qtot 129.474507
 3887         hc    130    bbb    H11   3887 0.09515400   1.008000   ; qtot 129.569661
 3888         hc    130    bbb    H12   3888 0.09515400   1.008000   ; qtot 129.664815
 3889         c3    130    bbb     C7   3889 0.21842400  12.010000   ; qtot 129.883239
 3890         h1    130    bbb    H13   3890 0.04500300   1.008000   ; qtot 129.928242
 3891         h1    130    bbb    H14   3891 0.04500300   1.008000   ; qtot 129.973245
 3892         c3    130    bbb     C8   3892 -0.06455200  12.010000   ; qtot 129.908693
 3893         h1    130    bbb    H15   3893 0.13554100   1.008000   ; qtot 130.044234
 3894         h1    130    bbb    H16   3894 0.13554100   1.008000   ; qtot 130.179775
 3895         c3    130    bbb     C9   3895 -0.06455200  12.010000   ; qtot 130.115223
 3896         h1    130    bbb    H17   3896 0.13554100   1.008000   ; qtot 130.250764
 3897         h1    130    bbb    H18   3897 0.13554100   1.008000   ; qtot 130.386305
 3898         os    130    bbb     O1   3898 -0.62587700  16.000000   ; qtot 129.760428
 3899         hn    130    bbb    H19   3899 0.23982500   1.008000   ; qtot 130.000253
; residue  131 bbb rtp bbb q 1.0
 3900         n4    131    bbb     N1   3900 0.03726400  14.010000   ; qtot 130.037517
 3901         c3    131    bbb     C1   3901 -0.07020100  12.010000   ; qtot 129.967316
 3902         hx    131    bbb     H1   3902 0.12219000   1.008000   ; qtot 130.089506
 3903         hx    131    bbb     H2   3903 0.12219000   1.008000   ; qtot 130.211696
 3904         c3    131    bbb     C2   3904 -0.07020100  12.010000   ; qtot 130.141495
 3905         hx    131    bbb     H3   3905 0.12219000   1.008000   ; qtot 130.263685
 3906         hx    131    bbb     H4   3906 0.12219000   1.008000   ; qtot 130.385875
 3907         c3    131    bbb     C3   3907 -0.39007700  12.010000   ; qtot 129.995798
 3908         hx    131    bbb     H5   3908 0.14940300   1.008000   ; qtot 130.145201
 3909         hx    131    bbb     H6   3909 0.14940300   1.008000   ; qtot 130.294604
 3910         c3    131    bbb     C4   3910 0.18057300  12.010000   ; qtot 130.475177
 3911         hc    131    bbb     H7   3911 0.01788900   1.008000   ; qtot 130.493066
 3912         hc    131    bbb     H8   3912 0.01788900   1.008000   ; qtot 130.510955
 3913         c3    131    bbb     C5   3913 -0.11337700  12.010000   ; qtot 130.397578
 3914         hc    131    bbb     H9   3914 0.09515400   1.008000   ; qtot 130.492732
 3915         hc    131    bbb    H10   3915 0.09515400   1.008000   ; qtot 130.587886
 3916         c3    131    bbb     C6   3916 -0.11337700  12.010000   ; qtot 130.474509
 3917         hc    131    bbb    H11   3917 0.09515400   1.008000   ; qtot 130.569663
 3918         hc    131    bbb    H12   3918 0.09515400   1.008000   ; qtot 130.664817
 3919         c3    131    bbb     C7   3919 0.21842400  12.010000   ; qtot 130.883241
 3920         h1    131    bbb    H13   3920 0.04500300   1.008000   ; qtot 130.928244
 3921         h1    131    bbb    H14   3921 0.04500300   1.008000   ; qtot 130.973247
 3922         c3    131    bbb     C8   3922 -0.06455200  12.010000   ; qtot 130.908695
 3923         h1    131    bbb    H15   3923 0.13554100   1.008000   ; qtot 131.044236
 3924         h1    131    bbb    H16   3924 0.13554100   1.008000   ; qtot 131.179777
 3925         c3    131    bbb     C9   3925 -0.06455200  12.010000   ; qtot 131.115225
 3926         h1    131    bbb    H17   3926 0.13554100   1.008000   ; qtot 131.250766
 3927         h1    131    bbb    H18   3927 0.13554100   1.008000   ; qtot 131.386307
 3928         os    131    bbb     O1   3928 -0.62587700  16.000000   ; qtot 130.760430
 3929         hn    131    bbb    H19   3929 0.23982500   1.008000   ; qtot 131.000255
; residue  132 bbb rtp bbb q 1.0
 3930         n4    132    bbb     N1   3930 0.03726400  14.010000   ; qtot 131.037519
 3931         c3    132    bbb     C1   3931 -0.07020100  12.010000   ; qtot 130.967318
 3932         hx    132    bbb     H1   3932 0.12219000   1.008000   ; qtot 131.089508
 3933         hx    132    bbb     H2   3933 0.12219000   1.008000   ; qtot 131.211698
 3934         c3    132    bbb     C2   3934 -0.07020100  12.010000   ; qtot 131.141497
 3935         hx    132    bbb     H3   3935 0.12219000   1.008000   ; qtot 131.263687
 3936         hx    132    bbb     H4   3936 0.12219000   1.008000   ; qtot 131.385877
 3937         c3    132    bbb     C3   3937 -0.39007700  12.010000   ; qtot 130.995800
 3938         hx    132    bbb     H5   3938 0.14940300   1.008000   ; qtot 131.145203
 3939         hx    132    bbb     H6   3939 0.14940300   1.008000   ; qtot 131.294606
 3940         c3    132    bbb     C4   3940 0.18057300  12.010000   ; qtot 131.475179
 3941         hc    132    bbb     H7   3941 0.01788900   1.008000   ; qtot 131.493068
 3942         hc    132    bbb     H8   3942 0.01788900   1.008000   ; qtot 131.510957
 3943         c3    132    bbb     C5   3943 -0.11337700  12.010000   ; qtot 131.397580
 3944         hc    132    bbb     H9   3944 0.09515400   1.008000   ; qtot 131.492734
 3945         hc    132    bbb    H10   3945 0.09515400   1.008000   ; qtot 131.587888
 3946         c3    132    bbb     C6   3946 -0.11337700  12.010000   ; qtot 131.474511
 3947         hc    132    bbb    H11   3947 0.09515400   1.008000   ; qtot 131.569665
 3948         hc    132    bbb    H12   3948 0.09515400   1.008000   ; qtot 131.664819
 3949         c3    132    bbb     C7   3949 0.21842400  12.010000   ; qtot 131.883243
 3950         h1    132    bbb    H13   3950 0.04500300   1.008000   ; qtot 131.928246
 3951         h1    132    bbb    H14   3951 0.04500300   1.008000   ; qtot 131.973249
 3952         c3    132    bbb     C8   3952 -0.06455200  12.010000   ; qtot 131.908697
 3953         h1    132    bbb    H15   3953 0.13554100   1.008000   ; qtot 132.044238
 3954         h1    132    bbb    H16   3954 0.13554100   1.008000   ; qtot 132.179779
 3955         c3    132    bbb     C9   3955 -0.06455200  12.010000   ; qtot 132.115227
 3956         h1    132    bbb    H17   3956 0.13554100   1.008000   ; qtot 132.250768
 3957         h1    132    bbb    H18   3957 0.13554100   1.008000   ; qtot 132.386309
 3958         os    132    bbb     O1   3958 -0.62587700  16.000000   ; qtot 131.760432
 3959         hn    132    bbb    H19   3959 0.23982500   1.008000   ; qtot 132.000257
; residue  133 bbb rtp bbb q 1.0
 3960         n4    133    bbb     N1   3960 0.03726400  14.010000   ; qtot 132.037521
 3961         c3    133    bbb     C1   3961 -0.07020100  12.010000   ; qtot 131.967320
 3962         hx    133    bbb     H1   3962 0.12219000   1.008000   ; qtot 132.089510
 3963         hx    133    bbb     H2   3963 0.12219000   1.008000   ; qtot 132.211700
 3964         c3    133    bbb     C2   3964 -0.07020100  12.010000   ; qtot 132.141499
 3965         hx    133    bbb     H3   3965 0.12219000   1.008000   ; qtot 132.263689
 3966         hx    133    bbb     H4   3966 0.12219000   1.008000   ; qtot 132.385879
 3967         c3    133    bbb     C3   3967 -0.39007700  12.010000   ; qtot 131.995802
 3968         hx    133    bbb     H5   3968 0.14940300   1.008000   ; qtot 132.145205
 3969         hx    133    bbb     H6   3969 0.14940300   1.008000   ; qtot 132.294608
 3970         c3    133    bbb     C4   3970 0.18057300  12.010000   ; qtot 132.475181
 3971         hc    133    bbb     H7   3971 0.01788900   1.008000   ; qtot 132.493070
 3972         hc    133    bbb     H8   3972 0.01788900   1.008000   ; qtot 132.510959
 3973         c3    133    bbb     C5   3973 -0.11337700  12.010000   ; qtot 132.397582
 3974         hc    133    bbb     H9   3974 0.09515400   1.008000   ; qtot 132.492736
 3975         hc    133    bbb    H10   3975 0.09515400   1.008000   ; qtot 132.587890
 3976         c3    133    bbb     C6   3976 -0.11337700  12.010000   ; qtot 132.474513
 3977         hc    133    bbb    H11   3977 0.09515400   1.008000   ; qtot 132.569667
 3978         hc    133    bbb    H12   3978 0.09515400   1.008000   ; qtot 132.664821
 3979         c3    133    bbb     C7   3979 0.21842400  12.010000   ; qtot 132.883245
 3980         h1    133    bbb    H13   3980 0.04500300   1.008000   ; qtot 132.928248
 3981         h1    133    bbb    H14   3981 0.04500300   1.008000   ; qtot 132.973251
 3982         c3    133    bbb     C8   3982 -0.06455200  12.010000   ; qtot 132.908699
 3983         h1    133    bbb    H15   3983 0.13554100   1.008000   ; qtot 133.044240
 3984         h1    133    bbb    H16   3984 0.13554100   1.008000   ; qtot 133.179781
 3985         c3    133    bbb     C9   3985 -0.06455200  12.010000   ; qtot 133.115229
 3986         h1    133    bbb    H17   3986 0.13554100   1.008000   ; qtot 133.250770
 3987         h1    133    bbb    H18   3987 0.13554100   1.008000   ; qtot 133.386311
 3988         os    133    bbb     O1   3988 -0.62587700  16.000000   ; qtot 132.760434
 3989         hn    133    bbb    H19   3989 0.23982500   1.008000   ; qtot 133.000259
; residue  134 bbb rtp bbb q 1.0
 3990         n4    134    bbb     N1   3990 0.03726400  14.010000   ; qtot 133.037523
 3991         c3    134    bbb     C1   3991 -0.07020100  12.010000   ; qtot 132.967322
 3992         hx    134    bbb     H1   3992 0.12219000   1.008000   ; qtot 133.089512
 3993         hx    134    bbb     H2   3993 0.12219000   1.008000   ; qtot 133.211702
 3994         c3    134    bbb     C2   3994 -0.07020100  12.010000   ; qtot 133.141501
 3995         hx    134    bbb     H3   3995 0.12219000   1.008000   ; qtot 133.263691
 3996         hx    134    bbb     H4   3996 0.12219000   1.008000   ; qtot 133.385881
 3997         c3    134    bbb     C3   3997 -0.39007700  12.010000   ; qtot 132.995804
 3998         hx    134    bbb     H5   3998 0.14940300   1.008000   ; qtot 133.145207
 3999         hx    134    bbb     H6   3999 0.14940300   1.008000   ; qtot 133.294610
 4000         c3    134    bbb     C4   4000 0.18057300  12.010000   ; qtot 133.475183
 4001         hc    134    bbb     H7   4001 0.01788900   1.008000   ; qtot 133.493072
 4002         hc    134    bbb     H8   4002 0.01788900   1.008000   ; qtot 133.510961
 4003         c3    134    bbb     C5   4003 -0.11337700  12.010000   ; qtot 133.397584
 4004         hc    134    bbb     H9   4004 0.09515400   1.008000   ; qtot 133.492738
 4005         hc    134    bbb    H10   4005 0.09515400   1.008000   ; qtot 133.587892
 4006         c3    134    bbb     C6   4006 -0.11337700  12.010000   ; qtot 133.474515
 4007         hc    134    bbb    H11   4007 0.09515400   1.008000   ; qtot 133.569669
 4008         hc    134    bbb    H12   4008 0.09515400   1.008000   ; qtot 133.664823
 4009         c3    134    bbb     C7   4009 0.21842400  12.010000   ; qtot 133.883247
 4010         h1    134    bbb    H13   4010 0.04500300   1.008000   ; qtot 133.928250
 4011         h1    134    bbb    H14   4011 0.04500300   1.008000   ; qtot 133.973253
 4012         c3    134    bbb     C8   4012 -0.06455200  12.010000   ; qtot 133.908701
 4013         h1    134    bbb    H15   4013 0.13554100   1.008000   ; qtot 134.044242
 4014         h1    134    bbb    H16   4014 0.13554100   1.008000   ; qtot 134.179783
 4015         c3    134    bbb     C9   4015 -0.06455200  12.010000   ; qtot 134.115231
 4016         h1    134    bbb    H17   4016 0.13554100   1.008000   ; qtot 134.250772
 4017         h1    134    bbb    H18   4017 0.13554100   1.008000   ; qtot 134.386313
 4018         os    134    bbb     O1   4018 -0.62587700  16.000000   ; qtot 133.760436
 4019         hn    134    bbb    H19   4019 0.23982500   1.008000   ; qtot 134.000261
; residue  135 bbb rtp bbb q 1.0
 4020         n4    135    bbb     N1   4020 0.03726400  14.010000   ; qtot 134.037525
 4021         c3    135    bbb     C1   4021 -0.07020100  12.010000   ; qtot 133.967324
 4022         hx    135    bbb     H1   4022 0.12219000   1.008000   ; qtot 134.089514
 4023         hx    135    bbb     H2   4023 0.12219000   1.008000   ; qtot 134.211704
 4024         c3    135    bbb     C2   4024 -0.07020100  12.010000   ; qtot 134.141503
 4025         hx    135    bbb     H3   4025 0.12219000   1.008000   ; qtot 134.263693
 4026         hx    135    bbb     H4   4026 0.12219000   1.008000   ; qtot 134.385883
 4027         c3    135    bbb     C3   4027 -0.39007700  12.010000   ; qtot 133.995806
 4028         hx    135    bbb     H5   4028 0.14940300   1.008000   ; qtot 134.145209
 4029         hx    135    bbb     H6   4029 0.14940300   1.008000   ; qtot 134.294612
 4030         c3    135    bbb     C4   4030 0.18057300  12.010000   ; qtot 134.475185
 4031         hc    135    bbb     H7   4031 0.01788900   1.008000   ; qtot 134.493074
 4032         hc    135    bbb     H8   4032 0.01788900   1.008000   ; qtot 134.510963
 4033         c3    135    bbb     C5   4033 -0.11337700  12.010000   ; qtot 134.397586
 4034         hc    135    bbb     H9   4034 0.09515400   1.008000   ; qtot 134.492740
 4035         hc    135    bbb    H10   4035 0.09515400   1.008000   ; qtot 134.587894
 4036         c3    135    bbb     C6   4036 -0.11337700  12.010000   ; qtot 134.474517
 4037         hc    135    bbb    H11   4037 0.09515400   1.008000   ; qtot 134.569671
 4038         hc    135    bbb    H12   4038 0.09515400   1.008000   ; qtot 134.664825
 4039         c3    135    bbb     C7   4039 0.21842400  12.010000   ; qtot 134.883249
 4040         h1    135    bbb    H13   4040 0.04500300   1.008000   ; qtot 134.928252
 4041         h1    135    bbb    H14   4041 0.04500300   1.008000   ; qtot 134.973255
 4042         c3    135    bbb     C8   4042 -0.06455200  12.010000   ; qtot 134.908703
 4043         h1    135    bbb    H15   4043 0.13554100   1.008000   ; qtot 135.044244
 4044         h1    135    bbb    H16   4044 0.13554100   1.008000   ; qtot 135.179785
 4045         c3    135    bbb     C9   4045 -0.06455200  12.010000   ; qtot 135.115233
 4046         h1    135    bbb    H17   4046 0.13554100   1.008000   ; qtot 135.250774
 4047         h1    135    bbb    H18   4047 0.13554100   1.008000   ; qtot 135.386315
 4048         os    135    bbb     O1   4048 -0.62587700  16.000000   ; qtot 134.760438
 4049         hn    135    bbb    H19   4049 0.23982500   1.008000   ; qtot 135.000263
; residue  136 bbb rtp bbb q 1.0
 4050         n4    136    bbb     N1   4050 0.03726400  14.010000   ; qtot 135.037527
 4051         c3    136    bbb     C1   4051 -0.07020100  12.010000   ; qtot 134.967326
 4052         hx    136    bbb     H1   4052 0.12219000   1.008000   ; qtot 135.089516
 4053         hx    136    bbb     H2   4053 0.12219000   1.008000   ; qtot 135.211706
 4054         c3    136    bbb     C2   4054 -0.07020100  12.010000   ; qtot 135.141505
 4055         hx    136    bbb     H3   4055 0.12219000   1.008000   ; qtot 135.263695
 4056         hx    136    bbb     H4   4056 0.12219000   1.008000   ; qtot 135.385885
 4057         c3    136    bbb     C3   4057 -0.39007700  12.010000   ; qtot 134.995808
 4058         hx    136    bbb     H5   4058 0.14940300   1.008000   ; qtot 135.145211
 4059         hx    136    bbb     H6   4059 0.14940300   1.008000   ; qtot 135.294614
 4060         c3    136    bbb     C4   4060 0.18057300  12.010000   ; qtot 135.475187
 4061         hc    136    bbb     H7   4061 0.01788900   1.008000   ; qtot 135.493076
 4062         hc    136    bbb     H8   4062 0.01788900   1.008000   ; qtot 135.510965
 4063         c3    136    bbb     C5   4063 -0.11337700  12.010000   ; qtot 135.397588
 4064         hc    136    bbb     H9   4064 0.09515400   1.008000   ; qtot 135.492742
 4065         hc    136    bbb    H10   4065 0.09515400   1.008000   ; qtot 135.587896
 4066         c3    136    bbb     C6   4066 -0.11337700  12.010000   ; qtot 135.474519
 4067         hc    136    bbb    H11   4067 0.09515400   1.008000   ; qtot 135.569673
 4068         hc    136    bbb    H12   4068 0.09515400   1.008000   ; qtot 135.664827
 4069         c3    136    bbb     C7   4069 0.21842400  12.010000   ; qtot 135.883251
 4070         h1    136    bbb    H13   4070 0.04500300   1.008000   ; qtot 135.928254
 4071         h1    136    bbb    H14   4071 0.04500300   1.008000   ; qtot 135.973257
 4072         c3    136    bbb     C8   4072 -0.06455200  12.010000   ; qtot 135.908705
 4073         h1    136    bbb    H15   4073 0.13554100   1.008000   ; qtot 136.044246
 4074         h1    136    bbb    H16   4074 0.13554100   1.008000   ; qtot 136.179787
 4075         c3    136    bbb     C9   4075 -0.06455200  12.010000   ; qtot 136.115235
 4076         h1    136    bbb    H17   4076 0.13554100   1.008000   ; qtot 136.250776
 4077         h1    136    bbb    H18   4077 0.13554100   1.008000   ; qtot 136.386317
 4078         os    136    bbb     O1   4078 -0.62587700  16.000000   ; qtot 135.760440
 4079         hn    136    bbb    H19   4079 0.23982500   1.008000   ; qtot 136.000265
; residue  137 bbb rtp bbb q 1.0
 4080         n4    137    bbb     N1   4080 0.03726400  14.010000   ; qtot 136.037529
 4081         c3    137    bbb     C1   4081 -0.07020100  12.010000   ; qtot 135.967328
 4082         hx    137    bbb     H1   4082 0.12219000   1.008000   ; qtot 136.089518
 4083         hx    137    bbb     H2   4083 0.12219000   1.008000   ; qtot 136.211708
 4084         c3    137    bbb     C2   4084 -0.07020100  12.010000   ; qtot 136.141507
 4085         hx    137    bbb     H3   4085 0.12219000   1.008000   ; qtot 136.263697
 4086         hx    137    bbb     H4   4086 0.12219000   1.008000   ; qtot 136.385887
 4087         c3    137    bbb     C3   4087 -0.39007700  12.010000   ; qtot 135.995810
 4088         hx    137    bbb     H5   4088 0.14940300   1.008000   ; qtot 136.145213
 4089         hx    137    bbb     H6   4089 0.14940300   1.008000   ; qtot 136.294616
 4090         c3    137    bbb     C4   4090 0.18057300  12.010000   ; qtot 136.475189
 4091         hc    137    bbb     H7   4091 0.01788900   1.008000   ; qtot 136.493078
 4092         hc    137    bbb     H8   4092 0.01788900   1.008000   ; qtot 136.510967
 4093         c3    137    bbb     C5   4093 -0.11337700  12.010000   ; qtot 136.397590
 4094         hc    137    bbb     H9   4094 0.09515400   1.008000   ; qtot 136.492744
 4095         hc    137    bbb    H10   4095 0.09515400   1.008000   ; qtot 136.587898
 4096         c3    137    bbb     C6   4096 -0.11337700  12.010000   ; qtot 136.474521
 4097         hc    137    bbb    H11   4097 0.09515400   1.008000   ; qtot 136.569675
 4098         hc    137    bbb    H12   4098 0.09515400   1.008000   ; qtot 136.664829
 4099         c3    137    bbb     C7   4099 0.21842400  12.010000   ; qtot 136.883253
 4100         h1    137    bbb    H13   4100 0.04500300   1.008000   ; qtot 136.928256
 4101         h1    137    bbb    H14   4101 0.04500300   1.008000   ; qtot 136.973259
 4102         c3    137    bbb     C8   4102 -0.06455200  12.010000   ; qtot 136.908707
 4103         h1    137    bbb    H15   4103 0.13554100   1.008000   ; qtot 137.044248
 4104         h1    137    bbb    H16   4104 0.13554100   1.008000   ; qtot 137.179789
 4105         c3    137    bbb     C9   4105 -0.06455200  12.010000   ; qtot 137.115237
 4106         h1    137    bbb    H17   4106 0.13554100   1.008000   ; qtot 137.250778
 4107         h1    137    bbb    H18   4107 0.13554100   1.008000   ; qtot 137.386319
 4108         os    137    bbb     O1   4108 -0.62587700  16.000000   ; qtot 136.760442
 4109         hn    137    bbb    H19   4109 0.23982500   1.008000   ; qtot 137.000267
; residue  138 bbb rtp bbb q 1.0
 4110         n4    138    bbb     N1   4110 0.03726400  14.010000   ; qtot 137.037531
 4111         c3    138    bbb     C1   4111 -0.07020100  12.010000   ; qtot 136.967330
 4112         hx    138    bbb     H1   4112 0.12219000   1.008000   ; qtot 137.089520
 4113         hx    138    bbb     H2   4113 0.12219000   1.008000   ; qtot 137.211710
 4114         c3    138    bbb     C2   4114 -0.07020100  12.010000   ; qtot 137.141509
 4115         hx    138    bbb     H3   4115 0.12219000   1.008000   ; qtot 137.263699
 4116         hx    138    bbb     H4   4116 0.12219000   1.008000   ; qtot 137.385889
 4117         c3    138    bbb     C3   4117 -0.39007700  12.010000   ; qtot 136.995812
 4118         hx    138    bbb     H5   4118 0.14940300   1.008000   ; qtot 137.145215
 4119         hx    138    bbb     H6   4119 0.14940300   1.008000   ; qtot 137.294618
 4120         c3    138    bbb     C4   4120 0.18057300  12.010000   ; qtot 137.475191
 4121         hc    138    bbb     H7   4121 0.01788900   1.008000   ; qtot 137.493080
 4122         hc    138    bbb     H8   4122 0.01788900   1.008000   ; qtot 137.510969
 4123         c3    138    bbb     C5   4123 -0.11337700  12.010000   ; qtot 137.397592
 4124         hc    138    bbb     H9   4124 0.09515400   1.008000   ; qtot 137.492746
 4125         hc    138    bbb    H10   4125 0.09515400   1.008000   ; qtot 137.587900
 4126         c3    138    bbb     C6   4126 -0.11337700  12.010000   ; qtot 137.474523
 4127         hc    138    bbb    H11   4127 0.09515400   1.008000   ; qtot 137.569677
 4128         hc    138    bbb    H12   4128 0.09515400   1.008000   ; qtot 137.664831
 4129         c3    138    bbb     C7   4129 0.21842400  12.010000   ; qtot 137.883255
 4130         h1    138    bbb    H13   4130 0.04500300   1.008000   ; qtot 137.928258
 4131         h1    138    bbb    H14   4131 0.04500300   1.008000   ; qtot 137.973261
 4132         c3    138    bbb     C8   4132 -0.06455200  12.010000   ; qtot 137.908709
 4133         h1    138    bbb    H15   4133 0.13554100   1.008000   ; qtot 138.044250
 4134         h1    138    bbb    H16   4134 0.13554100   1.008000   ; qtot 138.179791
 4135         c3    138    bbb     C9   4135 -0.06455200  12.010000   ; qtot 138.115239
 4136         h1    138    bbb    H17   4136 0.13554100   1.008000   ; qtot 138.250780
 4137         h1    138    bbb    H18   4137 0.13554100   1.008000   ; qtot 138.386321
 4138         os    138    bbb     O1   4138 -0.62587700  16.000000   ; qtot 137.760444
 4139         hn    138    bbb    H19   4139 0.23982500   1.008000   ; qtot 138.000269
; residue  139 bbb rtp bbb q 1.0
 4140         n4    139    bbb     N1   4140 0.03726400  14.010000   ; qtot 138.037533
 4141         c3    139    bbb     C1   4141 -0.07020100  12.010000   ; qtot 137.967332
 4142         hx    139    bbb     H1   4142 0.12219000   1.008000   ; qtot 138.089522
 4143         hx    139    bbb     H2   4143 0.12219000   1.008000   ; qtot 138.211712
 4144         c3    139    bbb     C2   4144 -0.07020100  12.010000   ; qtot 138.141511
 4145         hx    139    bbb     H3   4145 0.12219000   1.008000   ; qtot 138.263701
 4146         hx    139    bbb     H4   4146 0.12219000   1.008000   ; qtot 138.385891
 4147         c3    139    bbb     C3   4147 -0.39007700  12.010000   ; qtot 137.995814
 4148         hx    139    bbb     H5   4148 0.14940300   1.008000   ; qtot 138.145217
 4149         hx    139    bbb     H6   4149 0.14940300   1.008000   ; qtot 138.294620
 4150         c3    139    bbb     C4   4150 0.18057300  12.010000   ; qtot 138.475193
 4151         hc    139    bbb     H7   4151 0.01788900   1.008000   ; qtot 138.493082
 4152         hc    139    bbb     H8   4152 0.01788900   1.008000   ; qtot 138.510971
 4153         c3    139    bbb     C5   4153 -0.11337700  12.010000   ; qtot 138.397594
 4154         hc    139    bbb     H9   4154 0.09515400   1.008000   ; qtot 138.492748
 4155         hc    139    bbb    H10   4155 0.09515400   1.008000   ; qtot 138.587902
 4156         c3    139    bbb     C6   4156 -0.11337700  12.010000   ; qtot 138.474525
 4157         hc    139    bbb    H11   4157 0.09515400   1.008000   ; qtot 138.569679
 4158         hc    139    bbb    H12   4158 0.09515400   1.008000   ; qtot 138.664833
 4159         c3    139    bbb     C7   4159 0.21842400  12.010000   ; qtot 138.883257
 4160         h1    139    bbb    H13   4160 0.04500300   1.008000   ; qtot 138.928260
 4161         h1    139    bbb    H14   4161 0.04500300   1.008000   ; qtot 138.973263
 4162         c3    139    bbb     C8   4162 -0.06455200  12.010000   ; qtot 138.908711
 4163         h1    139    bbb    H15   4163 0.13554100   1.008000   ; qtot 139.044252
 4164         h1    139    bbb    H16   4164 0.13554100   1.008000   ; qtot 139.179793
 4165         c3    139    bbb     C9   4165 -0.06455200  12.010000   ; qtot 139.115241
 4166         h1    139    bbb    H17   4166 0.13554100   1.008000   ; qtot 139.250782
 4167         h1    139    bbb    H18   4167 0.13554100   1.008000   ; qtot 139.386323
 4168         os    139    bbb     O1   4168 -0.62587700  16.000000   ; qtot 138.760446
 4169         hn    139    bbb    H19   4169 0.23982500   1.008000   ; qtot 139.000271
; residue  140 bbb rtp bbb q 1.0
 4170         n4    140    bbb     N1   4170 0.03726400  14.010000   ; qtot 139.037535
 4171         c3    140    bbb     C1   4171 -0.07020100  12.010000   ; qtot 138.967334
 4172         hx    140    bbb     H1   4172 0.12219000   1.008000   ; qtot 139.089524
 4173         hx    140    bbb     H2   4173 0.12219000   1.008000   ; qtot 139.211714
 4174         c3    140    bbb     C2   4174 -0.07020100  12.010000   ; qtot 139.141513
 4175         hx    140    bbb     H3   4175 0.12219000   1.008000   ; qtot 139.263703
 4176         hx    140    bbb     H4   4176 0.12219000   1.008000   ; qtot 139.385893
 4177         c3    140    bbb     C3   4177 -0.39007700  12.010000   ; qtot 138.995816
 4178         hx    140    bbb     H5   4178 0.14940300   1.008000   ; qtot 139.145219
 4179         hx    140    bbb     H6   4179 0.14940300   1.008000   ; qtot 139.294622
 4180         c3    140    bbb     C4   4180 0.18057300  12.010000   ; qtot 139.475195
 4181         hc    140    bbb     H7   4181 0.01788900   1.008000   ; qtot 139.493084
 4182         hc    140    bbb     H8   4182 0.01788900   1.008000   ; qtot 139.510973
 4183         c3    140    bbb     C5   4183 -0.11337700  12.010000   ; qtot 139.397596
 4184         hc    140    bbb     H9   4184 0.09515400   1.008000   ; qtot 139.492750
 4185         hc    140    bbb    H10   4185 0.09515400   1.008000   ; qtot 139.587904
 4186         c3    140    bbb     C6   4186 -0.11337700  12.010000   ; qtot 139.474527
 4187         hc    140    bbb    H11   4187 0.09515400   1.008000   ; qtot 139.569681
 4188         hc    140    bbb    H12   4188 0.09515400   1.008000   ; qtot 139.664835
 4189         c3    140    bbb     C7   4189 0.21842400  12.010000   ; qtot 139.883259
 4190         h1    140    bbb    H13   4190 0.04500300   1.008000   ; qtot 139.928262
 4191         h1    140    bbb    H14   4191 0.04500300   1.008000   ; qtot 139.973265
 4192         c3    140    bbb     C8   4192 -0.06455200  12.010000   ; qtot 139.908713
 4193         h1    140    bbb    H15   4193 0.13554100   1.008000   ; qtot 140.044254
 4194         h1    140    bbb    H16   4194 0.13554100   1.008000   ; qtot 140.179795
 4195         c3    140    bbb     C9   4195 -0.06455200  12.010000   ; qtot 140.115243
 4196         h1    140    bbb    H17   4196 0.13554100   1.008000   ; qtot 140.250784
 4197         h1    140    bbb    H18   4197 0.13554100   1.008000   ; qtot 140.386325
 4198         os    140    bbb     O1   4198 -0.62587700  16.000000   ; qtot 139.760448
 4199         hn    140    bbb    H19   4199 0.23982500   1.008000   ; qtot 140.000273
; residue  141 bbb rtp bbb q 1.0
 4200         n4    141    bbb     N1   4200 0.03726400  14.010000   ; qtot 140.037537
 4201         c3    141    bbb     C1   4201 -0.07020100  12.010000   ; qtot 139.967336
 4202         hx    141    bbb     H1   4202 0.12219000   1.008000   ; qtot 140.089526
 4203         hx    141    bbb     H2   4203 0.12219000   1.008000   ; qtot 140.211716
 4204         c3    141    bbb     C2   4204 -0.07020100  12.010000   ; qtot 140.141515
 4205         hx    141    bbb     H3   4205 0.12219000   1.008000   ; qtot 140.263705
 4206         hx    141    bbb     H4   4206 0.12219000   1.008000   ; qtot 140.385895
 4207         c3    141    bbb     C3   4207 -0.39007700  12.010000   ; qtot 139.995818
 4208         hx    141    bbb     H5   4208 0.14940300   1.008000   ; qtot 140.145221
 4209         hx    141    bbb     H6   4209 0.14940300   1.008000   ; qtot 140.294624
 4210         c3    141    bbb     C4   4210 0.18057300  12.010000   ; qtot 140.475197
 4211         hc    141    bbb     H7   4211 0.01788900   1.008000   ; qtot 140.493086
 4212         hc    141    bbb     H8   4212 0.01788900   1.008000   ; qtot 140.510975
 4213         c3    141    bbb     C5   4213 -0.11337700  12.010000   ; qtot 140.397598
 4214         hc    141    bbb     H9   4214 0.09515400   1.008000   ; qtot 140.492752
 4215         hc    141    bbb    H10   4215 0.09515400   1.008000   ; qtot 140.587906
 4216         c3    141    bbb     C6   4216 -0.11337700  12.010000   ; qtot 140.474529
 4217         hc    141    bbb    H11   4217 0.09515400   1.008000   ; qtot 140.569683
 4218         hc    141    bbb    H12   4218 0.09515400   1.008000   ; qtot 140.664837
 4219         c3    141    bbb     C7   4219 0.21842400  12.010000   ; qtot 140.883261
 4220         h1    141    bbb    H13   4220 0.04500300   1.008000   ; qtot 140.928264
 4221         h1    141    bbb    H14   4221 0.04500300   1.008000   ; qtot 140.973267
 4222         c3    141    bbb     C8   4222 -0.06455200  12.010000   ; qtot 140.908715
 4223         h1    141    bbb    H15   4223 0.13554100   1.008000   ; qtot 141.044256
 4224         h1    141    bbb    H16   4224 0.13554100   1.008000   ; qtot 141.179797
 4225         c3    141    bbb     C9   4225 -0.06455200  12.010000   ; qtot 141.115245
 4226         h1    141    bbb    H17   4226 0.13554100   1.008000   ; qtot 141.250786
 4227         h1    141    bbb    H18   4227 0.13554100   1.008000   ; qtot 141.386327
 4228         os    141    bbb     O1   4228 -0.62587700  16.000000   ; qtot 140.760450
 4229         hn    141    bbb    H19   4229 0.23982500   1.008000   ; qtot 141.000275
; residue  142 bbb rtp bbb q 1.0
 4230         n4    142    bbb     N1   4230 0.03726400  14.010000   ; qtot 141.037539
 4231         c3    142    bbb     C1   4231 -0.07020100  12.010000   ; qtot 140.967338
 4232         hx    142    bbb     H1   4232 0.12219000   1.008000   ; qtot 141.089528
 4233         hx    142    bbb     H2   4233 0.12219000   1.008000   ; qtot 141.211718
 4234         c3    142    bbb     C2   4234 -0.07020100  12.010000   ; qtot 141.141517
 4235         hx    142    bbb     H3   4235 0.12219000   1.008000   ; qtot 141.263707
 4236         hx    142    bbb     H4   4236 0.12219000   1.008000   ; qtot 141.385897
 4237         c3    142    bbb     C3   4237 -0.39007700  12.010000   ; qtot 140.995820
 4238         hx    142    bbb     H5   4238 0.14940300   1.008000   ; qtot 141.145223
 4239         hx    142    bbb     H6   4239 0.14940300   1.008000   ; qtot 141.294626
 4240         c3    142    bbb     C4   4240 0.18057300  12.010000   ; qtot 141.475199
 4241         hc    142    bbb     H7   4241 0.01788900   1.008000   ; qtot 141.493088
 4242         hc    142    bbb     H8   4242 0.01788900   1.008000   ; qtot 141.510977
 4243         c3    142    bbb     C5   4243 -0.11337700  12.010000   ; qtot 141.397600
 4244         hc    142    bbb     H9   4244 0.09515400   1.008000   ; qtot 141.492754
 4245         hc    142    bbb    H10   4245 0.09515400   1.008000   ; qtot 141.587908
 4246         c3    142    bbb     C6   4246 -0.11337700  12.010000   ; qtot 141.474531
 4247         hc    142    bbb    H11   4247 0.09515400   1.008000   ; qtot 141.569685
 4248         hc    142    bbb    H12   4248 0.09515400   1.008000   ; qtot 141.664839
 4249         c3    142    bbb     C7   4249 0.21842400  12.010000   ; qtot 141.883263
 4250         h1    142    bbb    H13   4250 0.04500300   1.008000   ; qtot 141.928266
 4251         h1    142    bbb    H14   4251 0.04500300   1.008000   ; qtot 141.973269
 4252         c3    142    bbb     C8   4252 -0.06455200  12.010000   ; qtot 141.908717
 4253         h1    142    bbb    H15   4253 0.13554100   1.008000   ; qtot 142.044258
 4254         h1    142    bbb    H16   4254 0.13554100   1.008000   ; qtot 142.179799
 4255         c3    142    bbb     C9   4255 -0.06455200  12.010000   ; qtot 142.115247
 4256         h1    142    bbb    H17   4256 0.13554100   1.008000   ; qtot 142.250788
 4257         h1    142    bbb    H18   4257 0.13554100   1.008000   ; qtot 142.386329
 4258         os    142    bbb     O1   4258 -0.62587700  16.000000   ; qtot 141.760452
 4259         hn    142    bbb    H19   4259 0.23982500   1.008000   ; qtot 142.000277
; residue  143 bbb rtp bbb q 1.0
 4260         n4    143    bbb     N1   4260 0.03726400  14.010000   ; qtot 142.037541
 4261         c3    143    bbb     C1   4261 -0.07020100  12.010000   ; qtot 141.967340
 4262         hx    143    bbb     H1   4262 0.12219000   1.008000   ; qtot 142.089530
 4263         hx    143    bbb     H2   4263 0.12219000   1.008000   ; qtot 142.211720
 4264         c3    143    bbb     C2   4264 -0.07020100  12.010000   ; qtot 142.141519
 4265         hx    143    bbb     H3   4265 0.12219000   1.008000   ; qtot 142.263709
 4266         hx    143    bbb     H4   4266 0.12219000   1.008000   ; qtot 142.385899
 4267         c3    143    bbb     C3   4267 -0.39007700  12.010000   ; qtot 141.995822
 4268         hx    143    bbb     H5   4268 0.14940300   1.008000   ; qtot 142.145225
 4269         hx    143    bbb     H6   4269 0.14940300   1.008000   ; qtot 142.294628
 4270         c3    143    bbb     C4   4270 0.18057300  12.010000   ; qtot 142.475201
 4271         hc    143    bbb     H7   4271 0.01788900   1.008000   ; qtot 142.493090
 4272         hc    143    bbb     H8   4272 0.01788900   1.008000   ; qtot 142.510979
 4273         c3    143    bbb     C5   4273 -0.11337700  12.010000   ; qtot 142.397602
 4274         hc    143    bbb     H9   4274 0.09515400   1.008000   ; qtot 142.492756
 4275         hc    143    bbb    H10   4275 0.09515400   1.008000   ; qtot 142.587910
 4276         c3    143    bbb     C6   4276 -0.11337700  12.010000   ; qtot 142.474533
 4277         hc    143    bbb    H11   4277 0.09515400   1.008000   ; qtot 142.569687
 4278         hc    143    bbb    H12   4278 0.09515400   1.008000   ; qtot 142.664841
 4279         c3    143    bbb     C7   4279 0.21842400  12.010000   ; qtot 142.883265
 4280         h1    143    bbb    H13   4280 0.04500300   1.008000   ; qtot 142.928268
 4281         h1    143    bbb    H14   4281 0.04500300   1.008000   ; qtot 142.973271
 4282         c3    143    bbb     C8   4282 -0.06455200  12.010000   ; qtot 142.908719
 4283         h1    143    bbb    H15   4283 0.13554100   1.008000   ; qtot 143.044260
 4284         h1    143    bbb    H16   4284 0.13554100   1.008000   ; qtot 143.179801
 4285         c3    143    bbb     C9   4285 -0.06455200  12.010000   ; qtot 143.115249
 4286         h1    143    bbb    H17   4286 0.13554100   1.008000   ; qtot 143.250790
 4287         h1    143    bbb    H18   4287 0.13554100   1.008000   ; qtot 143.386331
 4288         os    143    bbb     O1   4288 -0.62587700  16.000000   ; qtot 142.760454
 4289         hn    143    bbb    H19   4289 0.23982500   1.008000   ; qtot 143.000279
; residue  144 bbb rtp bbb q 1.0
 4290         n4    144    bbb     N1   4290 0.03726400  14.010000   ; qtot 143.037543
 4291         c3    144    bbb     C1   4291 -0.07020100  12.010000   ; qtot 142.967342
 4292         hx    144    bbb     H1   4292 0.12219000   1.008000   ; qtot 143.089532
 4293         hx    144    bbb     H2   4293 0.12219000   1.008000   ; qtot 143.211722
 4294         c3    144    bbb     C2   4294 -0.07020100  12.010000   ; qtot 143.141521
 4295         hx    144    bbb     H3   4295 0.12219000   1.008000   ; qtot 143.263711
 4296         hx    144    bbb     H4   4296 0.12219000   1.008000   ; qtot 143.385901
 4297         c3    144    bbb     C3   4297 -0.39007700  12.010000   ; qtot 142.995824
 4298         hx    144    bbb     H5   4298 0.14940300   1.008000   ; qtot 143.145227
 4299         hx    144    bbb     H6   4299 0.14940300   1.008000   ; qtot 143.294630
 4300         c3    144    bbb     C4   4300 0.18057300  12.010000   ; qtot 143.475203
 4301         hc    144    bbb     H7   4301 0.01788900   1.008000   ; qtot 143.493092
 4302         hc    144    bbb     H8   4302 0.01788900   1.008000   ; qtot 143.510981
 4303         c3    144    bbb     C5   4303 -0.11337700  12.010000   ; qtot 143.397604
 4304         hc    144    bbb     H9   4304 0.09515400   1.008000   ; qtot 143.492758
 4305         hc    144    bbb    H10   4305 0.09515400   1.008000   ; qtot 143.587912
 4306         c3    144    bbb     C6   4306 -0.11337700  12.010000   ; qtot 143.474535
 4307         hc    144    bbb    H11   4307 0.09515400   1.008000   ; qtot 143.569689
 4308         hc    144    bbb    H12   4308 0.09515400   1.008000   ; qtot 143.664843
 4309         c3    144    bbb     C7   4309 0.21842400  12.010000   ; qtot 143.883267
 4310         h1    144    bbb    H13   4310 0.04500300   1.008000   ; qtot 143.928270
 4311         h1    144    bbb    H14   4311 0.04500300   1.008000   ; qtot 143.973273
 4312         c3    144    bbb     C8   4312 -0.06455200  12.010000   ; qtot 143.908721
 4313         h1    144    bbb    H15   4313 0.13554100   1.008000   ; qtot 144.044262
 4314         h1    144    bbb    H16   4314 0.13554100   1.008000   ; qtot 144.179803
 4315         c3    144    bbb     C9   4315 -0.06455200  12.010000   ; qtot 144.115251
 4316         h1    144    bbb    H17   4316 0.13554100   1.008000   ; qtot 144.250792
 4317         h1    144    bbb    H18   4317 0.13554100   1.008000   ; qtot 144.386333
 4318         os    144    bbb     O1   4318 -0.62587700  16.000000   ; qtot 143.760456
 4319         hn    144    bbb    H19   4319 0.23982500   1.008000   ; qtot 144.000281
; residue  145 bbb rtp bbb q 1.0
 4320         n4    145    bbb     N1   4320 0.03726400  14.010000   ; qtot 144.037545
 4321         c3    145    bbb     C1   4321 -0.07020100  12.010000   ; qtot 143.967344
 4322         hx    145    bbb     H1   4322 0.12219000   1.008000   ; qtot 144.089534
 4323         hx    145    bbb     H2   4323 0.12219000   1.008000   ; qtot 144.211724
 4324         c3    145    bbb     C2   4324 -0.07020100  12.010000   ; qtot 144.141523
 4325         hx    145    bbb     H3   4325 0.12219000   1.008000   ; qtot 144.263713
 4326         hx    145    bbb     H4   4326 0.12219000   1.008000   ; qtot 144.385903
 4327         c3    145    bbb     C3   4327 -0.39007700  12.010000   ; qtot 143.995826
 4328         hx    145    bbb     H5   4328 0.14940300   1.008000   ; qtot 144.145229
 4329         hx    145    bbb     H6   4329 0.14940300   1.008000   ; qtot 144.294632
 4330         c3    145    bbb     C4   4330 0.18057300  12.010000   ; qtot 144.475205
 4331         hc    145    bbb     H7   4331 0.01788900   1.008000   ; qtot 144.493094
 4332         hc    145    bbb     H8   4332 0.01788900   1.008000   ; qtot 144.510983
 4333         c3    145    bbb     C5   4333 -0.11337700  12.010000   ; qtot 144.397606
 4334         hc    145    bbb     H9   4334 0.09515400   1.008000   ; qtot 144.492760
 4335         hc    145    bbb    H10   4335 0.09515400   1.008000   ; qtot 144.587914
 4336         c3    145    bbb     C6   4336 -0.11337700  12.010000   ; qtot 144.474537
 4337         hc    145    bbb    H11   4337 0.09515400   1.008000   ; qtot 144.569691
 4338         hc    145    bbb    H12   4338 0.09515400   1.008000   ; qtot 144.664845
 4339         c3    145    bbb     C7   4339 0.21842400  12.010000   ; qtot 144.883269
 4340         h1    145    bbb    H13   4340 0.04500300   1.008000   ; qtot 144.928272
 4341         h1    145    bbb    H14   4341 0.04500300   1.008000   ; qtot 144.973275
 4342         c3    145    bbb     C8   4342 -0.06455200  12.010000   ; qtot 144.908723
 4343         h1    145    bbb    H15   4343 0.13554100   1.008000   ; qtot 145.044264
 4344         h1    145    bbb    H16   4344 0.13554100   1.008000   ; qtot 145.179805
 4345         c3    145    bbb     C9   4345 -0.06455200  12.010000   ; qtot 145.115253
 4346         h1    145    bbb    H17   4346 0.13554100   1.008000   ; qtot 145.250794
 4347         h1    145    bbb    H18   4347 0.13554100   1.008000   ; qtot 145.386335
 4348         os    145    bbb     O1   4348 -0.62587700  16.000000   ; qtot 144.760458
 4349         hn    145    bbb    H19   4349 0.23982500   1.008000   ; qtot 145.000283
; residue  146 bbb rtp bbb q 1.0
 4350         n4    146    bbb     N1   4350 0.03726400  14.010000   ; qtot 145.037547
 4351         c3    146    bbb     C1   4351 -0.07020100  12.010000   ; qtot 144.967346
 4352         hx    146    bbb     H1   4352 0.12219000   1.008000   ; qtot 145.089536
 4353         hx    146    bbb     H2   4353 0.12219000   1.008000   ; qtot 145.211726
 4354         c3    146    bbb     C2   4354 -0.07020100  12.010000   ; qtot 145.141525
 4355         hx    146    bbb     H3   4355 0.12219000   1.008000   ; qtot 145.263715
 4356         hx    146    bbb     H4   4356 0.12219000   1.008000   ; qtot 145.385905
 4357         c3    146    bbb     C3   4357 -0.39007700  12.010000   ; qtot 144.995828
 4358         hx    146    bbb     H5   4358 0.14940300   1.008000   ; qtot 145.145231
 4359         hx    146    bbb     H6   4359 0.14940300   1.008000   ; qtot 145.294634
 4360         c3    146    bbb     C4   4360 0.18057300  12.010000   ; qtot 145.475207
 4361         hc    146    bbb     H7   4361 0.01788900   1.008000   ; qtot 145.493096
 4362         hc    146    bbb     H8   4362 0.01788900   1.008000   ; qtot 145.510985
 4363         c3    146    bbb     C5   4363 -0.11337700  12.010000   ; qtot 145.397608
 4364         hc    146    bbb     H9   4364 0.09515400   1.008000   ; qtot 145.492762
 4365         hc    146    bbb    H10   4365 0.09515400   1.008000   ; qtot 145.587916
 4366         c3    146    bbb     C6   4366 -0.11337700  12.010000   ; qtot 145.474539
 4367         hc    146    bbb    H11   4367 0.09515400   1.008000   ; qtot 145.569693
 4368         hc    146    bbb    H12   4368 0.09515400   1.008000   ; qtot 145.664847
 4369         c3    146    bbb     C7   4369 0.21842400  12.010000   ; qtot 145.883271
 4370         h1    146    bbb    H13   4370 0.04500300   1.008000   ; qtot 145.928274
 4371         h1    146    bbb    H14   4371 0.04500300   1.008000   ; qtot 145.973277
 4372         c3    146    bbb     C8   4372 -0.06455200  12.010000   ; qtot 145.908725
 4373         h1    146    bbb    H15   4373 0.13554100   1.008000   ; qtot 146.044266
 4374         h1    146    bbb    H16   4374 0.13554100   1.008000   ; qtot 146.179807
 4375         c3    146    bbb     C9   4375 -0.06455200  12.010000   ; qtot 146.115255
 4376         h1    146    bbb    H17   4376 0.13554100   1.008000   ; qtot 146.250796
 4377         h1    146    bbb    H18   4377 0.13554100   1.008000   ; qtot 146.386337
 4378         os    146    bbb     O1   4378 -0.62587700  16.000000   ; qtot 145.760460
 4379         hn    146    bbb    H19   4379 0.23982500   1.008000   ; qtot 146.000285
; residue  147 bbb rtp bbb q 1.0
 4380         n4    147    bbb     N1   4380 0.03726400  14.010000   ; qtot 146.037549
 4381         c3    147    bbb     C1   4381 -0.07020100  12.010000   ; qtot 145.967348
 4382         hx    147    bbb     H1   4382 0.12219000   1.008000   ; qtot 146.089538
 4383         hx    147    bbb     H2   4383 0.12219000   1.008000   ; qtot 146.211728
 4384         c3    147    bbb     C2   4384 -0.07020100  12.010000   ; qtot 146.141527
 4385         hx    147    bbb     H3   4385 0.12219000   1.008000   ; qtot 146.263717
 4386         hx    147    bbb     H4   4386 0.12219000   1.008000   ; qtot 146.385907
 4387         c3    147    bbb     C3   4387 -0.39007700  12.010000   ; qtot 145.995830
 4388         hx    147    bbb     H5   4388 0.14940300   1.008000   ; qtot 146.145233
 4389         hx    147    bbb     H6   4389 0.14940300   1.008000   ; qtot 146.294636
 4390         c3    147    bbb     C4   4390 0.18057300  12.010000   ; qtot 146.475209
 4391         hc    147    bbb     H7   4391 0.01788900   1.008000   ; qtot 146.493098
 4392         hc    147    bbb     H8   4392 0.01788900   1.008000   ; qtot 146.510987
 4393         c3    147    bbb     C5   4393 -0.11337700  12.010000   ; qtot 146.397610
 4394         hc    147    bbb     H9   4394 0.09515400   1.008000   ; qtot 146.492764
 4395         hc    147    bbb    H10   4395 0.09515400   1.008000   ; qtot 146.587918
 4396         c3    147    bbb     C6   4396 -0.11337700  12.010000   ; qtot 146.474541
 4397         hc    147    bbb    H11   4397 0.09515400   1.008000   ; qtot 146.569695
 4398         hc    147    bbb    H12   4398 0.09515400   1.008000   ; qtot 146.664849
 4399         c3    147    bbb     C7   4399 0.21842400  12.010000   ; qtot 146.883273
 4400         h1    147    bbb    H13   4400 0.04500300   1.008000   ; qtot 146.928276
 4401         h1    147    bbb    H14   4401 0.04500300   1.008000   ; qtot 146.973279
 4402         c3    147    bbb     C8   4402 -0.06455200  12.010000   ; qtot 146.908727
 4403         h1    147    bbb    H15   4403 0.13554100   1.008000   ; qtot 147.044268
 4404         h1    147    bbb    H16   4404 0.13554100   1.008000   ; qtot 147.179809
 4405         c3    147    bbb     C9   4405 -0.06455200  12.010000   ; qtot 147.115257
 4406         h1    147    bbb    H17   4406 0.13554100   1.008000   ; qtot 147.250798
 4407         h1    147    bbb    H18   4407 0.13554100   1.008000   ; qtot 147.386339
 4408         os    147    bbb     O1   4408 -0.62587700  16.000000   ; qtot 146.760462
 4409         hn    147    bbb    H19   4409 0.23982500   1.008000   ; qtot 147.000287
; residue  148 bbb rtp bbb q 1.0
 4410         n4    148    bbb     N1   4410 0.03726400  14.010000   ; qtot 147.037551
 4411         c3    148    bbb     C1   4411 -0.07020100  12.010000   ; qtot 146.967350
 4412         hx    148    bbb     H1   4412 0.12219000   1.008000   ; qtot 147.089540
 4413         hx    148    bbb     H2   4413 0.12219000   1.008000   ; qtot 147.211730
 4414         c3    148    bbb     C2   4414 -0.07020100  12.010000   ; qtot 147.141529
 4415         hx    148    bbb     H3   4415 0.12219000   1.008000   ; qtot 147.263719
 4416         hx    148    bbb     H4   4416 0.12219000   1.008000   ; qtot 147.385909
 4417         c3    148    bbb     C3   4417 -0.39007700  12.010000   ; qtot 146.995832
 4418         hx    148    bbb     H5   4418 0.14940300   1.008000   ; qtot 147.145235
 4419         hx    148    bbb     H6   4419 0.14940300   1.008000   ; qtot 147.294638
 4420         c3    148    bbb     C4   4420 0.18057300  12.010000   ; qtot 147.475211
 4421         hc    148    bbb     H7   4421 0.01788900   1.008000   ; qtot 147.493100
 4422         hc    148    bbb     H8   4422 0.01788900   1.008000   ; qtot 147.510989
 4423         c3    148    bbb     C5   4423 -0.11337700  12.010000   ; qtot 147.397612
 4424         hc    148    bbb     H9   4424 0.09515400   1.008000   ; qtot 147.492766
 4425         hc    148    bbb    H10   4425 0.09515400   1.008000   ; qtot 147.587920
 4426         c3    148    bbb     C6   4426 -0.11337700  12.010000   ; qtot 147.474543
 4427         hc    148    bbb    H11   4427 0.09515400   1.008000   ; qtot 147.569697
 4428         hc    148    bbb    H12   4428 0.09515400   1.008000   ; qtot 147.664851
 4429         c3    148    bbb     C7   4429 0.21842400  12.010000   ; qtot 147.883275
 4430         h1    148    bbb    H13   4430 0.04500300   1.008000   ; qtot 147.928278
 4431         h1    148    bbb    H14   4431 0.04500300   1.008000   ; qtot 147.973281
 4432         c3    148    bbb     C8   4432 -0.06455200  12.010000   ; qtot 147.908729
 4433         h1    148    bbb    H15   4433 0.13554100   1.008000   ; qtot 148.044270
 4434         h1    148    bbb    H16   4434 0.13554100   1.008000   ; qtot 148.179811
 4435         c3    148    bbb     C9   4435 -0.06455200  12.010000   ; qtot 148.115259
 4436         h1    148    bbb    H17   4436 0.13554100   1.008000   ; qtot 148.250800
 4437         h1    148    bbb    H18   4437 0.13554100   1.008000   ; qtot 148.386341
 4438         os    148    bbb     O1   4438 -0.62587700  16.000000   ; qtot 147.760464
 4439         hn    148    bbb    H19   4439 0.23982500   1.008000   ; qtot 148.000289
; residue  149 bbb rtp bbb q 1.0
 4440         n4    149    bbb     N1   4440 0.03726400  14.010000   ; qtot 148.037553
 4441         c3    149    bbb     C1   4441 -0.07020100  12.010000   ; qtot 147.967352
 4442         hx    149    bbb     H1   4442 0.12219000   1.008000   ; qtot 148.089542
 4443         hx    149    bbb     H2   4443 0.12219000   1.008000   ; qtot 148.211732
 4444         c3    149    bbb     C2   4444 -0.07020100  12.010000   ; qtot 148.141531
 4445         hx    149    bbb     H3   4445 0.12219000   1.008000   ; qtot 148.263721
 4446         hx    149    bbb     H4   4446 0.12219000   1.008000   ; qtot 148.385911
 4447         c3    149    bbb     C3   4447 -0.39007700  12.010000   ; qtot 147.995834
 4448         hx    149    bbb     H5   4448 0.14940300   1.008000   ; qtot 148.145237
 4449         hx    149    bbb     H6   4449 0.14940300   1.008000   ; qtot 148.294640
 4450         c3    149    bbb     C4   4450 0.18057300  12.010000   ; qtot 148.475213
 4451         hc    149    bbb     H7   4451 0.01788900   1.008000   ; qtot 148.493102
 4452         hc    149    bbb     H8   4452 0.01788900   1.008000   ; qtot 148.510991
 4453         c3    149    bbb     C5   4453 -0.11337700  12.010000   ; qtot 148.397614
 4454         hc    149    bbb     H9   4454 0.09515400   1.008000   ; qtot 148.492768
 4455         hc    149    bbb    H10   4455 0.09515400   1.008000   ; qtot 148.587922
 4456         c3    149    bbb     C6   4456 -0.11337700  12.010000   ; qtot 148.474545
 4457         hc    149    bbb    H11   4457 0.09515400   1.008000   ; qtot 148.569699
 4458         hc    149    bbb    H12   4458 0.09515400   1.008000   ; qtot 148.664853
 4459         c3    149    bbb     C7   4459 0.21842400  12.010000   ; qtot 148.883277
 4460         h1    149    bbb    H13   4460 0.04500300   1.008000   ; qtot 148.928280
 4461         h1    149    bbb    H14   4461 0.04500300   1.008000   ; qtot 148.973283
 4462         c3    149    bbb     C8   4462 -0.06455200  12.010000   ; qtot 148.908731
 4463         h1    149    bbb    H15   4463 0.13554100   1.008000   ; qtot 149.044272
 4464         h1    149    bbb    H16   4464 0.13554100   1.008000   ; qtot 149.179813
 4465         c3    149    bbb     C9   4465 -0.06455200  12.010000   ; qtot 149.115261
 4466         h1    149    bbb    H17   4466 0.13554100   1.008000   ; qtot 149.250802
 4467         h1    149    bbb    H18   4467 0.13554100   1.008000   ; qtot 149.386343
 4468         os    149    bbb     O1   4468 -0.62587700  16.000000   ; qtot 148.760466
 4469         hn    149    bbb    H19   4469 0.23982500   1.008000   ; qtot 149.000291
; residue  150 bbb rtp bbb q 1.0
 4470         n4    150    bbb     N1   4470 0.03726400  14.010000   ; qtot 149.037555
 4471         c3    150    bbb     C1   4471 -0.07020100  12.010000   ; qtot 148.967354
 4472         hx    150    bbb     H1   4472 0.12219000   1.008000   ; qtot 149.089544
 4473         hx    150    bbb     H2   4473 0.12219000   1.008000   ; qtot 149.211734
 4474         c3    150    bbb     C2   4474 -0.07020100  12.010000   ; qtot 149.141533
 4475         hx    150    bbb     H3   4475 0.12219000   1.008000   ; qtot 149.263723
 4476         hx    150    bbb     H4   4476 0.12219000   1.008000   ; qtot 149.385913
 4477         c3    150    bbb     C3   4477 -0.39007700  12.010000   ; qtot 148.995836
 4478         hx    150    bbb     H5   4478 0.14940300   1.008000   ; qtot 149.145239
 4479         hx    150    bbb     H6   4479 0.14940300   1.008000   ; qtot 149.294642
 4480         c3    150    bbb     C4   4480 0.18057300  12.010000   ; qtot 149.475215
 4481         hc    150    bbb     H7   4481 0.01788900   1.008000   ; qtot 149.493104
 4482         hc    150    bbb     H8   4482 0.01788900   1.008000   ; qtot 149.510993
 4483         c3    150    bbb     C5   4483 -0.11337700  12.010000   ; qtot 149.397616
 4484         hc    150    bbb     H9   4484 0.09515400   1.008000   ; qtot 149.492770
 4485         hc    150    bbb    H10   4485 0.09515400   1.008000   ; qtot 149.587924
 4486         c3    150    bbb     C6   4486 -0.11337700  12.010000   ; qtot 149.474547
 4487         hc    150    bbb    H11   4487 0.09515400   1.008000   ; qtot 149.569701
 4488         hc    150    bbb    H12   4488 0.09515400   1.008000   ; qtot 149.664855
 4489         c3    150    bbb     C7   4489 0.21842400  12.010000   ; qtot 149.883279
 4490         h1    150    bbb    H13   4490 0.04500300   1.008000   ; qtot 149.928282
 4491         h1    150    bbb    H14   4491 0.04500300   1.008000   ; qtot 149.973285
 4492         c3    150    bbb     C8   4492 -0.06455200  12.010000   ; qtot 149.908733
 4493         h1    150    bbb    H15   4493 0.13554100   1.008000   ; qtot 150.044274
 4494         h1    150    bbb    H16   4494 0.13554100   1.008000   ; qtot 150.179815
 4495         c3    150    bbb     C9   4495 -0.06455200  12.010000   ; qtot 150.115263
 4496         h1    150    bbb    H17   4496 0.13554100   1.008000   ; qtot 150.250804
 4497         h1    150    bbb    H18   4497 0.13554100   1.008000   ; qtot 150.386345
 4498         os    150    bbb     O1   4498 -0.62587700  16.000000   ; qtot 149.760468
 4499         hn    150    bbb    H19   4499 0.23982500   1.008000   ; qtot 150.000293
; residue  151 bbb rtp bbb q 1.0
 4500         n4    151    bbb     N1   4500 0.03726400  14.010000   ; qtot 150.037557
 4501         c3    151    bbb     C1   4501 -0.07020100  12.010000   ; qtot 149.967356
 4502         hx    151    bbb     H1   4502 0.12219000   1.008000   ; qtot 150.089546
 4503         hx    151    bbb     H2   4503 0.12219000   1.008000   ; qtot 150.211736
 4504         c3    151    bbb     C2   4504 -0.07020100  12.010000   ; qtot 150.141535
 4505         hx    151    bbb     H3   4505 0.12219000   1.008000   ; qtot 150.263725
 4506         hx    151    bbb     H4   4506 0.12219000   1.008000   ; qtot 150.385915
 4507         c3    151    bbb     C3   4507 -0.39007700  12.010000   ; qtot 149.995838
 4508         hx    151    bbb     H5   4508 0.14940300   1.008000   ; qtot 150.145241
 4509         hx    151    bbb     H6   4509 0.14940300   1.008000   ; qtot 150.294644
 4510         c3    151    bbb     C4   4510 0.18057300  12.010000   ; qtot 150.475217
 4511         hc    151    bbb     H7   4511 0.01788900   1.008000   ; qtot 150.493106
 4512         hc    151    bbb     H8   4512 0.01788900   1.008000   ; qtot 150.510995
 4513         c3    151    bbb     C5   4513 -0.11337700  12.010000   ; qtot 150.397618
 4514         hc    151    bbb     H9   4514 0.09515400   1.008000   ; qtot 150.492772
 4515         hc    151    bbb    H10   4515 0.09515400   1.008000   ; qtot 150.587926
 4516         c3    151    bbb     C6   4516 -0.11337700  12.010000   ; qtot 150.474549
 4517         hc    151    bbb    H11   4517 0.09515400   1.008000   ; qtot 150.569703
 4518         hc    151    bbb    H12   4518 0.09515400   1.008000   ; qtot 150.664857
 4519         c3    151    bbb     C7   4519 0.21842400  12.010000   ; qtot 150.883281
 4520         h1    151    bbb    H13   4520 0.04500300   1.008000   ; qtot 150.928284
 4521         h1    151    bbb    H14   4521 0.04500300   1.008000   ; qtot 150.973287
 4522         c3    151    bbb     C8   4522 -0.06455200  12.010000   ; qtot 150.908735
 4523         h1    151    bbb    H15   4523 0.13554100   1.008000   ; qtot 151.044276
 4524         h1    151    bbb    H16   4524 0.13554100   1.008000   ; qtot 151.179817
 4525         c3    151    bbb     C9   4525 -0.06455200  12.010000   ; qtot 151.115265
 4526         h1    151    bbb    H17   4526 0.13554100   1.008000   ; qtot 151.250806
 4527         h1    151    bbb    H18   4527 0.13554100   1.008000   ; qtot 151.386347
 4528         os    151    bbb     O1   4528 -0.62587700  16.000000   ; qtot 150.760470
 4529         hn    151    bbb    H19   4529 0.23982500   1.008000   ; qtot 151.000295
; residue  152 bbb rtp bbb q 1.0
 4530         n4    152    bbb     N1   4530 0.03726400  14.010000   ; qtot 151.037559
 4531         c3    152    bbb     C1   4531 -0.07020100  12.010000   ; qtot 150.967358
 4532         hx    152    bbb     H1   4532 0.12219000   1.008000   ; qtot 151.089548
 4533         hx    152    bbb     H2   4533 0.12219000   1.008000   ; qtot 151.211738
 4534         c3    152    bbb     C2   4534 -0.07020100  12.010000   ; qtot 151.141537
 4535         hx    152    bbb     H3   4535 0.12219000   1.008000   ; qtot 151.263727
 4536         hx    152    bbb     H4   4536 0.12219000   1.008000   ; qtot 151.385917
 4537         c3    152    bbb     C3   4537 -0.39007700  12.010000   ; qtot 150.995840
 4538         hx    152    bbb     H5   4538 0.14940300   1.008000   ; qtot 151.145243
 4539         hx    152    bbb     H6   4539 0.14940300   1.008000   ; qtot 151.294646
 4540         c3    152    bbb     C4   4540 0.18057300  12.010000   ; qtot 151.475219
 4541         hc    152    bbb     H7   4541 0.01788900   1.008000   ; qtot 151.493108
 4542         hc    152    bbb     H8   4542 0.01788900   1.008000   ; qtot 151.510997
 4543         c3    152    bbb     C5   4543 -0.11337700  12.010000   ; qtot 151.397620
 4544         hc    152    bbb     H9   4544 0.09515400   1.008000   ; qtot 151.492774
 4545         hc    152    bbb    H10   4545 0.09515400   1.008000   ; qtot 151.587928
 4546         c3    152    bbb     C6   4546 -0.11337700  12.010000   ; qtot 151.474551
 4547         hc    152    bbb    H11   4547 0.09515400   1.008000   ; qtot 151.569705
 4548         hc    152    bbb    H12   4548 0.09515400   1.008000   ; qtot 151.664859
 4549         c3    152    bbb     C7   4549 0.21842400  12.010000   ; qtot 151.883283
 4550         h1    152    bbb    H13   4550 0.04500300   1.008000   ; qtot 151.928286
 4551         h1    152    bbb    H14   4551 0.04500300   1.008000   ; qtot 151.973289
 4552         c3    152    bbb     C8   4552 -0.06455200  12.010000   ; qtot 151.908737
 4553         h1    152    bbb    H15   4553 0.13554100   1.008000   ; qtot 152.044278
 4554         h1    152    bbb    H16   4554 0.13554100   1.008000   ; qtot 152.179819
 4555         c3    152    bbb     C9   4555 -0.06455200  12.010000   ; qtot 152.115267
 4556         h1    152    bbb    H17   4556 0.13554100   1.008000   ; qtot 152.250808
 4557         h1    152    bbb    H18   4557 0.13554100   1.008000   ; qtot 152.386349
 4558         os    152    bbb     O1   4558 -0.62587700  16.000000   ; qtot 151.760472
 4559         hn    152    bbb    H19   4559 0.23982500   1.008000   ; qtot 152.000297
; residue  153 bbb rtp bbb q 1.0
 4560         n4    153    bbb     N1   4560 0.03726400  14.010000   ; qtot 152.037561
 4561         c3    153    bbb     C1   4561 -0.07020100  12.010000   ; qtot 151.967360
 4562         hx    153    bbb     H1   4562 0.12219000   1.008000   ; qtot 152.089550
 4563         hx    153    bbb     H2   4563 0.12219000   1.008000   ; qtot 152.211740
 4564         c3    153    bbb     C2   4564 -0.07020100  12.010000   ; qtot 152.141539
 4565         hx    153    bbb     H3   4565 0.12219000   1.008000   ; qtot 152.263729
 4566         hx    153    bbb     H4   4566 0.12219000   1.008000   ; qtot 152.385919
 4567         c3    153    bbb     C3   4567 -0.39007700  12.010000   ; qtot 151.995842
 4568         hx    153    bbb     H5   4568 0.14940300   1.008000   ; qtot 152.145245
 4569         hx    153    bbb     H6   4569 0.14940300   1.008000   ; qtot 152.294648
 4570         c3    153    bbb     C4   4570 0.18057300  12.010000   ; qtot 152.475221
 4571         hc    153    bbb     H7   4571 0.01788900   1.008000   ; qtot 152.493110
 4572         hc    153    bbb     H8   4572 0.01788900   1.008000   ; qtot 152.510999
 4573         c3    153    bbb     C5   4573 -0.11337700  12.010000   ; qtot 152.397622
 4574         hc    153    bbb     H9   4574 0.09515400   1.008000   ; qtot 152.492776
 4575         hc    153    bbb    H10   4575 0.09515400   1.008000   ; qtot 152.587930
 4576         c3    153    bbb     C6   4576 -0.11337700  12.010000   ; qtot 152.474553
 4577         hc    153    bbb    H11   4577 0.09515400   1.008000   ; qtot 152.569707
 4578         hc    153    bbb    H12   4578 0.09515400   1.008000   ; qtot 152.664861
 4579         c3    153    bbb     C7   4579 0.21842400  12.010000   ; qtot 152.883285
 4580         h1    153    bbb    H13   4580 0.04500300   1.008000   ; qtot 152.928288
 4581         h1    153    bbb    H14   4581 0.04500300   1.008000   ; qtot 152.973291
 4582         c3    153    bbb     C8   4582 -0.06455200  12.010000   ; qtot 152.908739
 4583         h1    153    bbb    H15   4583 0.13554100   1.008000   ; qtot 153.044280
 4584         h1    153    bbb    H16   4584 0.13554100   1.008000   ; qtot 153.179821
 4585         c3    153    bbb     C9   4585 -0.06455200  12.010000   ; qtot 153.115269
 4586         h1    153    bbb    H17   4586 0.13554100   1.008000   ; qtot 153.250810
 4587         h1    153    bbb    H18   4587 0.13554100   1.008000   ; qtot 153.386351
 4588         os    153    bbb     O1   4588 -0.62587700  16.000000   ; qtot 152.760474
 4589         hn    153    bbb    H19   4589 0.23982500   1.008000   ; qtot 153.000299
; residue  154 bbb rtp bbb q 1.0
 4590         n4    154    bbb     N1   4590 0.03726400  14.010000   ; qtot 153.037563
 4591         c3    154    bbb     C1   4591 -0.07020100  12.010000   ; qtot 152.967362
 4592         hx    154    bbb     H1   4592 0.12219000   1.008000   ; qtot 153.089552
 4593         hx    154    bbb     H2   4593 0.12219000   1.008000   ; qtot 153.211742
 4594         c3    154    bbb     C2   4594 -0.07020100  12.010000   ; qtot 153.141541
 4595         hx    154    bbb     H3   4595 0.12219000   1.008000   ; qtot 153.263731
 4596         hx    154    bbb     H4   4596 0.12219000   1.008000   ; qtot 153.385921
 4597         c3    154    bbb     C3   4597 -0.39007700  12.010000   ; qtot 152.995844
 4598         hx    154    bbb     H5   4598 0.14940300   1.008000   ; qtot 153.145247
 4599         hx    154    bbb     H6   4599 0.14940300   1.008000   ; qtot 153.294650
 4600         c3    154    bbb     C4   4600 0.18057300  12.010000   ; qtot 153.475223
 4601         hc    154    bbb     H7   4601 0.01788900   1.008000   ; qtot 153.493112
 4602         hc    154    bbb     H8   4602 0.01788900   1.008000   ; qtot 153.511001
 4603         c3    154    bbb     C5   4603 -0.11337700  12.010000   ; qtot 153.397624
 4604         hc    154    bbb     H9   4604 0.09515400   1.008000   ; qtot 153.492778
 4605         hc    154    bbb    H10   4605 0.09515400   1.008000   ; qtot 153.587932
 4606         c3    154    bbb     C6   4606 -0.11337700  12.010000   ; qtot 153.474555
 4607         hc    154    bbb    H11   4607 0.09515400   1.008000   ; qtot 153.569709
 4608         hc    154    bbb    H12   4608 0.09515400   1.008000   ; qtot 153.664863
 4609         c3    154    bbb     C7   4609 0.21842400  12.010000   ; qtot 153.883287
 4610         h1    154    bbb    H13   4610 0.04500300   1.008000   ; qtot 153.928290
 4611         h1    154    bbb    H14   4611 0.04500300   1.008000   ; qtot 153.973293
 4612         c3    154    bbb     C8   4612 -0.06455200  12.010000   ; qtot 153.908741
 4613         h1    154    bbb    H15   4613 0.13554100   1.008000   ; qtot 154.044282
 4614         h1    154    bbb    H16   4614 0.13554100   1.008000   ; qtot 154.179823
 4615         c3    154    bbb     C9   4615 -0.06455200  12.010000   ; qtot 154.115271
 4616         h1    154    bbb    H17   4616 0.13554100   1.008000   ; qtot 154.250812
 4617         h1    154    bbb    H18   4617 0.13554100   1.008000   ; qtot 154.386353
 4618         os    154    bbb     O1   4618 -0.62587700  16.000000   ; qtot 153.760476
 4619         hn    154    bbb    H19   4619 0.23982500   1.008000   ; qtot 154.000301
; residue  155 bbb rtp bbb q 1.0
 4620         n4    155    bbb     N1   4620 0.03726400  14.010000   ; qtot 154.037565
 4621         c3    155    bbb     C1   4621 -0.07020100  12.010000   ; qtot 153.967364
 4622         hx    155    bbb     H1   4622 0.12219000   1.008000   ; qtot 154.089554
 4623         hx    155    bbb     H2   4623 0.12219000   1.008000   ; qtot 154.211744
 4624         c3    155    bbb     C2   4624 -0.07020100  12.010000   ; qtot 154.141543
 4625         hx    155    bbb     H3   4625 0.12219000   1.008000   ; qtot 154.263733
 4626         hx    155    bbb     H4   4626 0.12219000   1.008000   ; qtot 154.385923
 4627         c3    155    bbb     C3   4627 -0.39007700  12.010000   ; qtot 153.995846
 4628         hx    155    bbb     H5   4628 0.14940300   1.008000   ; qtot 154.145249
 4629         hx    155    bbb     H6   4629 0.14940300   1.008000   ; qtot 154.294652
 4630         c3    155    bbb     C4   4630 0.18057300  12.010000   ; qtot 154.475225
 4631         hc    155    bbb     H7   4631 0.01788900   1.008000   ; qtot 154.493114
 4632         hc    155    bbb     H8   4632 0.01788900   1.008000   ; qtot 154.511003
 4633         c3    155    bbb     C5   4633 -0.11337700  12.010000   ; qtot 154.397626
 4634         hc    155    bbb     H9   4634 0.09515400   1.008000   ; qtot 154.492780
 4635         hc    155    bbb    H10   4635 0.09515400   1.008000   ; qtot 154.587934
 4636         c3    155    bbb     C6   4636 -0.11337700  12.010000   ; qtot 154.474557
 4637         hc    155    bbb    H11   4637 0.09515400   1.008000   ; qtot 154.569711
 4638         hc    155    bbb    H12   4638 0.09515400   1.008000   ; qtot 154.664865
 4639         c3    155    bbb     C7   4639 0.21842400  12.010000   ; qtot 154.883289
 4640         h1    155    bbb    H13   4640 0.04500300   1.008000   ; qtot 154.928292
 4641         h1    155    bbb    H14   4641 0.04500300   1.008000   ; qtot 154.973295
 4642         c3    155    bbb     C8   4642 -0.06455200  12.010000   ; qtot 154.908743
 4643         h1    155    bbb    H15   4643 0.13554100   1.008000   ; qtot 155.044284
 4644         h1    155    bbb    H16   4644 0.13554100   1.008000   ; qtot 155.179825
 4645         c3    155    bbb     C9   4645 -0.06455200  12.010000   ; qtot 155.115273
 4646         h1    155    bbb    H17   4646 0.13554100   1.008000   ; qtot 155.250814
 4647         h1    155    bbb    H18   4647 0.13554100   1.008000   ; qtot 155.386355
 4648         os    155    bbb     O1   4648 -0.62587700  16.000000   ; qtot 154.760478
 4649         hn    155    bbb    H19   4649 0.23982500   1.008000   ; qtot 155.000303
; residue  156 bbb rtp bbb q 1.0
 4650         n4    156    bbb     N1   4650 0.03726400  14.010000   ; qtot 155.037567
 4651         c3    156    bbb     C1   4651 -0.07020100  12.010000   ; qtot 154.967366
 4652         hx    156    bbb     H1   4652 0.12219000   1.008000   ; qtot 155.089556
 4653         hx    156    bbb     H2   4653 0.12219000   1.008000   ; qtot 155.211746
 4654         c3    156    bbb     C2   4654 -0.07020100  12.010000   ; qtot 155.141545
 4655         hx    156    bbb     H3   4655 0.12219000   1.008000   ; qtot 155.263735
 4656         hx    156    bbb     H4   4656 0.12219000   1.008000   ; qtot 155.385925
 4657         c3    156    bbb     C3   4657 -0.39007700  12.010000   ; qtot 154.995848
 4658         hx    156    bbb     H5   4658 0.14940300   1.008000   ; qtot 155.145251
 4659         hx    156    bbb     H6   4659 0.14940300   1.008000   ; qtot 155.294654
 4660         c3    156    bbb     C4   4660 0.18057300  12.010000   ; qtot 155.475227
 4661         hc    156    bbb     H7   4661 0.01788900   1.008000   ; qtot 155.493116
 4662         hc    156    bbb     H8   4662 0.01788900   1.008000   ; qtot 155.511005
 4663         c3    156    bbb     C5   4663 -0.11337700  12.010000   ; qtot 155.397628
 4664         hc    156    bbb     H9   4664 0.09515400   1.008000   ; qtot 155.492782
 4665         hc    156    bbb    H10   4665 0.09515400   1.008000   ; qtot 155.587936
 4666         c3    156    bbb     C6   4666 -0.11337700  12.010000   ; qtot 155.474559
 4667         hc    156    bbb    H11   4667 0.09515400   1.008000   ; qtot 155.569713
 4668         hc    156    bbb    H12   4668 0.09515400   1.008000   ; qtot 155.664867
 4669         c3    156    bbb     C7   4669 0.21842400  12.010000   ; qtot 155.883291
 4670         h1    156    bbb    H13   4670 0.04500300   1.008000   ; qtot 155.928294
 4671         h1    156    bbb    H14   4671 0.04500300   1.008000   ; qtot 155.973297
 4672         c3    156    bbb     C8   4672 -0.06455200  12.010000   ; qtot 155.908745
 4673         h1    156    bbb    H15   4673 0.13554100   1.008000   ; qtot 156.044286
 4674         h1    156    bbb    H16   4674 0.13554100   1.008000   ; qtot 156.179827
 4675         c3    156    bbb     C9   4675 -0.06455200  12.010000   ; qtot 156.115275
 4676         h1    156    bbb    H17   4676 0.13554100   1.008000   ; qtot 156.250816
 4677         h1    156    bbb    H18   4677 0.13554100   1.008000   ; qtot 156.386357
 4678         os    156    bbb     O1   4678 -0.62587700  16.000000   ; qtot 155.760480
 4679         hn    156    bbb    H19   4679 0.23982500   1.008000   ; qtot 156.000305
; residue  157 bbb rtp bbb q 1.0
 4680         n4    157    bbb     N1   4680 0.03726400  14.010000   ; qtot 156.037569
 4681         c3    157    bbb     C1   4681 -0.07020100  12.010000   ; qtot 155.967368
 4682         hx    157    bbb     H1   4682 0.12219000   1.008000   ; qtot 156.089558
 4683         hx    157    bbb     H2   4683 0.12219000   1.008000   ; qtot 156.211748
 4684         c3    157    bbb     C2   4684 -0.07020100  12.010000   ; qtot 156.141547
 4685         hx    157    bbb     H3   4685 0.12219000   1.008000   ; qtot 156.263737
 4686         hx    157    bbb     H4   4686 0.12219000   1.008000   ; qtot 156.385927
 4687         c3    157    bbb     C3   4687 -0.39007700  12.010000   ; qtot 155.995850
 4688         hx    157    bbb     H5   4688 0.14940300   1.008000   ; qtot 156.145253
 4689         hx    157    bbb     H6   4689 0.14940300   1.008000   ; qtot 156.294656
 4690         c3    157    bbb     C4   4690 0.18057300  12.010000   ; qtot 156.475229
 4691         hc    157    bbb     H7   4691 0.01788900   1.008000   ; qtot 156.493118
 4692         hc    157    bbb     H8   4692 0.01788900   1.008000   ; qtot 156.511007
 4693         c3    157    bbb     C5   4693 -0.11337700  12.010000   ; qtot 156.397630
 4694         hc    157    bbb     H9   4694 0.09515400   1.008000   ; qtot 156.492784
 4695         hc    157    bbb    H10   4695 0.09515400   1.008000   ; qtot 156.587938
 4696         c3    157    bbb     C6   4696 -0.11337700  12.010000   ; qtot 156.474561
 4697         hc    157    bbb    H11   4697 0.09515400   1.008000   ; qtot 156.569715
 4698         hc    157    bbb    H12   4698 0.09515400   1.008000   ; qtot 156.664869
 4699         c3    157    bbb     C7   4699 0.21842400  12.010000   ; qtot 156.883293
 4700         h1    157    bbb    H13   4700 0.04500300   1.008000   ; qtot 156.928296
 4701         h1    157    bbb    H14   4701 0.04500300   1.008000   ; qtot 156.973299
 4702         c3    157    bbb     C8   4702 -0.06455200  12.010000   ; qtot 156.908747
 4703         h1    157    bbb    H15   4703 0.13554100   1.008000   ; qtot 157.044288
 4704         h1    157    bbb    H16   4704 0.13554100   1.008000   ; qtot 157.179829
 4705         c3    157    bbb     C9   4705 -0.06455200  12.010000   ; qtot 157.115277
 4706         h1    157    bbb    H17   4706 0.13554100   1.008000   ; qtot 157.250818
 4707         h1    157    bbb    H18   4707 0.13554100   1.008000   ; qtot 157.386359
 4708         os    157    bbb     O1   4708 -0.62587700  16.000000   ; qtot 156.760482
 4709         hn    157    bbb    H19   4709 0.23982500   1.008000   ; qtot 157.000307
; residue  158 bbb rtp bbb q 1.0
 4710         n4    158    bbb     N1   4710 0.03726400  14.010000   ; qtot 157.037571
 4711         c3    158    bbb     C1   4711 -0.07020100  12.010000   ; qtot 156.967370
 4712         hx    158    bbb     H1   4712 0.12219000   1.008000   ; qtot 157.089560
 4713         hx    158    bbb     H2   4713 0.12219000   1.008000   ; qtot 157.211750
 4714         c3    158    bbb     C2   4714 -0.07020100  12.010000   ; qtot 157.141549
 4715         hx    158    bbb     H3   4715 0.12219000   1.008000   ; qtot 157.263739
 4716         hx    158    bbb     H4   4716 0.12219000   1.008000   ; qtot 157.385929
 4717         c3    158    bbb     C3   4717 -0.39007700  12.010000   ; qtot 156.995852
 4718         hx    158    bbb     H5   4718 0.14940300   1.008000   ; qtot 157.145255
 4719         hx    158    bbb     H6   4719 0.14940300   1.008000   ; qtot 157.294658
 4720         c3    158    bbb     C4   4720 0.18057300  12.010000   ; qtot 157.475231
 4721         hc    158    bbb     H7   4721 0.01788900   1.008000   ; qtot 157.493120
 4722         hc    158    bbb     H8   4722 0.01788900   1.008000   ; qtot 157.511009
 4723         c3    158    bbb     C5   4723 -0.11337700  12.010000   ; qtot 157.397632
 4724         hc    158    bbb     H9   4724 0.09515400   1.008000   ; qtot 157.492786
 4725         hc    158    bbb    H10   4725 0.09515400   1.008000   ; qtot 157.587940
 4726         c3    158    bbb     C6   4726 -0.11337700  12.010000   ; qtot 157.474563
 4727         hc    158    bbb    H11   4727 0.09515400   1.008000   ; qtot 157.569717
 4728         hc    158    bbb    H12   4728 0.09515400   1.008000   ; qtot 157.664871
 4729         c3    158    bbb     C7   4729 0.21842400  12.010000   ; qtot 157.883295
 4730         h1    158    bbb    H13   4730 0.04500300   1.008000   ; qtot 157.928298
 4731         h1    158    bbb    H14   4731 0.04500300   1.008000   ; qtot 157.973301
 4732         c3    158    bbb     C8   4732 -0.06455200  12.010000   ; qtot 157.908749
 4733         h1    158    bbb    H15   4733 0.13554100   1.008000   ; qtot 158.044290
 4734         h1    158    bbb    H16   4734 0.13554100   1.008000   ; qtot 158.179831
 4735         c3    158    bbb     C9   4735 -0.06455200  12.010000   ; qtot 158.115279
 4736         h1    158    bbb    H17   4736 0.13554100   1.008000   ; qtot 158.250820
 4737         h1    158    bbb    H18   4737 0.13554100   1.008000   ; qtot 158.386361
 4738         os    158    bbb     O1   4738 -0.62587700  16.000000   ; qtot 157.760484
 4739         hn    158    bbb    H19   4739 0.23982500   1.008000   ; qtot 158.000309
; residue  159 bbb rtp bbb q 1.0
 4740         n4    159    bbb     N1   4740 0.03726400  14.010000   ; qtot 158.037573
 4741         c3    159    bbb     C1   4741 -0.07020100  12.010000   ; qtot 157.967372
 4742         hx    159    bbb     H1   4742 0.12219000   1.008000   ; qtot 158.089562
 4743         hx    159    bbb     H2   4743 0.12219000   1.008000   ; qtot 158.211752
 4744         c3    159    bbb     C2   4744 -0.07020100  12.010000   ; qtot 158.141551
 4745         hx    159    bbb     H3   4745 0.12219000   1.008000   ; qtot 158.263741
 4746         hx    159    bbb     H4   4746 0.12219000   1.008000   ; qtot 158.385931
 4747         c3    159    bbb     C3   4747 -0.39007700  12.010000   ; qtot 157.995854
 4748         hx    159    bbb     H5   4748 0.14940300   1.008000   ; qtot 158.145257
 4749         hx    159    bbb     H6   4749 0.14940300   1.008000   ; qtot 158.294660
 4750         c3    159    bbb     C4   4750 0.18057300  12.010000   ; qtot 158.475233
 4751         hc    159    bbb     H7   4751 0.01788900   1.008000   ; qtot 158.493122
 4752         hc    159    bbb     H8   4752 0.01788900   1.008000   ; qtot 158.511011
 4753         c3    159    bbb     C5   4753 -0.11337700  12.010000   ; qtot 158.397634
 4754         hc    159    bbb     H9   4754 0.09515400   1.008000   ; qtot 158.492788
 4755         hc    159    bbb    H10   4755 0.09515400   1.008000   ; qtot 158.587942
 4756         c3    159    bbb     C6   4756 -0.11337700  12.010000   ; qtot 158.474565
 4757         hc    159    bbb    H11   4757 0.09515400   1.008000   ; qtot 158.569719
 4758         hc    159    bbb    H12   4758 0.09515400   1.008000   ; qtot 158.664873
 4759         c3    159    bbb     C7   4759 0.21842400  12.010000   ; qtot 158.883297
 4760         h1    159    bbb    H13   4760 0.04500300   1.008000   ; qtot 158.928300
 4761         h1    159    bbb    H14   4761 0.04500300   1.008000   ; qtot 158.973303
 4762         c3    159    bbb     C8   4762 -0.06455200  12.010000   ; qtot 158.908751
 4763         h1    159    bbb    H15   4763 0.13554100   1.008000   ; qtot 159.044292
 4764         h1    159    bbb    H16   4764 0.13554100   1.008000   ; qtot 159.179833
 4765         c3    159    bbb     C9   4765 -0.06455200  12.010000   ; qtot 159.115281
 4766         h1    159    bbb    H17   4766 0.13554100   1.008000   ; qtot 159.250822
 4767         h1    159    bbb    H18   4767 0.13554100   1.008000   ; qtot 159.386363
 4768         os    159    bbb     O1   4768 -0.62587700  16.000000   ; qtot 158.760486
 4769         hn    159    bbb    H19   4769 0.23982500   1.008000   ; qtot 159.000311
; residue  160 bbb rtp bbb q 1.0
 4770         n4    160    bbb     N1   4770 0.03726400  14.010000   ; qtot 159.037575
 4771         c3    160    bbb     C1   4771 -0.07020100  12.010000   ; qtot 158.967374
 4772         hx    160    bbb     H1   4772 0.12219000   1.008000   ; qtot 159.089564
 4773         hx    160    bbb     H2   4773 0.12219000   1.008000   ; qtot 159.211754
 4774         c3    160    bbb     C2   4774 -0.07020100  12.010000   ; qtot 159.141553
 4775         hx    160    bbb     H3   4775 0.12219000   1.008000   ; qtot 159.263743
 4776         hx    160    bbb     H4   4776 0.12219000   1.008000   ; qtot 159.385933
 4777         c3    160    bbb     C3   4777 -0.39007700  12.010000   ; qtot 158.995856
 4778         hx    160    bbb     H5   4778 0.14940300   1.008000   ; qtot 159.145259
 4779         hx    160    bbb     H6   4779 0.14940300   1.008000   ; qtot 159.294662
 4780         c3    160    bbb     C4   4780 0.18057300  12.010000   ; qtot 159.475235
 4781         hc    160    bbb     H7   4781 0.01788900   1.008000   ; qtot 159.493124
 4782         hc    160    bbb     H8   4782 0.01788900   1.008000   ; qtot 159.511013
 4783         c3    160    bbb     C5   4783 -0.11337700  12.010000   ; qtot 159.397636
 4784         hc    160    bbb     H9   4784 0.09515400   1.008000   ; qtot 159.492790
 4785         hc    160    bbb    H10   4785 0.09515400   1.008000   ; qtot 159.587944
 4786         c3    160    bbb     C6   4786 -0.11337700  12.010000   ; qtot 159.474567
 4787         hc    160    bbb    H11   4787 0.09515400   1.008000   ; qtot 159.569721
 4788         hc    160    bbb    H12   4788 0.09515400   1.008000   ; qtot 159.664875
 4789         c3    160    bbb     C7   4789 0.21842400  12.010000   ; qtot 159.883299
 4790         h1    160    bbb    H13   4790 0.04500300   1.008000   ; qtot 159.928302
 4791         h1    160    bbb    H14   4791 0.04500300   1.008000   ; qtot 159.973305
 4792         c3    160    bbb     C8   4792 -0.06455200  12.010000   ; qtot 159.908753
 4793         h1    160    bbb    H15   4793 0.13554100   1.008000   ; qtot 160.044294
 4794         h1    160    bbb    H16   4794 0.13554100   1.008000   ; qtot 160.179835
 4795         c3    160    bbb     C9   4795 -0.06455200  12.010000   ; qtot 160.115283
 4796         h1    160    bbb    H17   4796 0.13554100   1.008000   ; qtot 160.250824
 4797         h1    160    bbb    H18   4797 0.13554100   1.008000   ; qtot 160.386365
 4798         os    160    bbb     O1   4798 -0.62587700  16.000000   ; qtot 159.760488
 4799         hn    160    bbb    H19   4799 0.23982500   1.008000   ; qtot 160.000313
; residue  161 bbb rtp bbb q 1.0
 4800         n4    161    bbb     N1   4800 0.03726400  14.010000   ; qtot 160.037577
 4801         c3    161    bbb     C1   4801 -0.07020100  12.010000   ; qtot 159.967376
 4802         hx    161    bbb     H1   4802 0.12219000   1.008000   ; qtot 160.089566
 4803         hx    161    bbb     H2   4803 0.12219000   1.008000   ; qtot 160.211756
 4804         c3    161    bbb     C2   4804 -0.07020100  12.010000   ; qtot 160.141555
 4805         hx    161    bbb     H3   4805 0.12219000   1.008000   ; qtot 160.263745
 4806         hx    161    bbb     H4   4806 0.12219000   1.008000   ; qtot 160.385935
 4807         c3    161    bbb     C3   4807 -0.39007700  12.010000   ; qtot 159.995858
 4808         hx    161    bbb     H5   4808 0.14940300   1.008000   ; qtot 160.145261
 4809         hx    161    bbb     H6   4809 0.14940300   1.008000   ; qtot 160.294664
 4810         c3    161    bbb     C4   4810 0.18057300  12.010000   ; qtot 160.475237
 4811         hc    161    bbb     H7   4811 0.01788900   1.008000   ; qtot 160.493126
 4812         hc    161    bbb     H8   4812 0.01788900   1.008000   ; qtot 160.511015
 4813         c3    161    bbb     C5   4813 -0.11337700  12.010000   ; qtot 160.397638
 4814         hc    161    bbb     H9   4814 0.09515400   1.008000   ; qtot 160.492792
 4815         hc    161    bbb    H10   4815 0.09515400   1.008000   ; qtot 160.587946
 4816         c3    161    bbb     C6   4816 -0.11337700  12.010000   ; qtot 160.474569
 4817         hc    161    bbb    H11   4817 0.09515400   1.008000   ; qtot 160.569723
 4818         hc    161    bbb    H12   4818 0.09515400   1.008000   ; qtot 160.664877
 4819         c3    161    bbb     C7   4819 0.21842400  12.010000   ; qtot 160.883301
 4820         h1    161    bbb    H13   4820 0.04500300   1.008000   ; qtot 160.928304
 4821         h1    161    bbb    H14   4821 0.04500300   1.008000   ; qtot 160.973307
 4822         c3    161    bbb     C8   4822 -0.06455200  12.010000   ; qtot 160.908755
 4823         h1    161    bbb    H15   4823 0.13554100   1.008000   ; qtot 161.044296
 4824         h1    161    bbb    H16   4824 0.13554100   1.008000   ; qtot 161.179837
 4825         c3    161    bbb     C9   4825 -0.06455200  12.010000   ; qtot 161.115285
 4826         h1    161    bbb    H17   4826 0.13554100   1.008000   ; qtot 161.250826
 4827         h1    161    bbb    H18   4827 0.13554100   1.008000   ; qtot 161.386367
 4828         os    161    bbb     O1   4828 -0.62587700  16.000000   ; qtot 160.760490
 4829         hn    161    bbb    H19   4829 0.23982500   1.008000   ; qtot 161.000315
; residue  162 bbb rtp bbb q 1.0
 4830         n4    162    bbb     N1   4830 0.03726400  14.010000   ; qtot 161.037579
 4831         c3    162    bbb     C1   4831 -0.07020100  12.010000   ; qtot 160.967378
 4832         hx    162    bbb     H1   4832 0.12219000   1.008000   ; qtot 161.089568
 4833         hx    162    bbb     H2   4833 0.12219000   1.008000   ; qtot 161.211758
 4834         c3    162    bbb     C2   4834 -0.07020100  12.010000   ; qtot 161.141557
 4835         hx    162    bbb     H3   4835 0.12219000   1.008000   ; qtot 161.263747
 4836         hx    162    bbb     H4   4836 0.12219000   1.008000   ; qtot 161.385937
 4837         c3    162    bbb     C3   4837 -0.39007700  12.010000   ; qtot 160.995860
 4838         hx    162    bbb     H5   4838 0.14940300   1.008000   ; qtot 161.145263
 4839         hx    162    bbb     H6   4839 0.14940300   1.008000   ; qtot 161.294666
 4840         c3    162    bbb     C4   4840 0.18057300  12.010000   ; qtot 161.475239
 4841         hc    162    bbb     H7   4841 0.01788900   1.008000   ; qtot 161.493128
 4842         hc    162    bbb     H8   4842 0.01788900   1.008000   ; qtot 161.511017
 4843         c3    162    bbb     C5   4843 -0.11337700  12.010000   ; qtot 161.397640
 4844         hc    162    bbb     H9   4844 0.09515400   1.008000   ; qtot 161.492794
 4845         hc    162    bbb    H10   4845 0.09515400   1.008000   ; qtot 161.587948
 4846         c3    162    bbb     C6   4846 -0.11337700  12.010000   ; qtot 161.474571
 4847         hc    162    bbb    H11   4847 0.09515400   1.008000   ; qtot 161.569725
 4848         hc    162    bbb    H12   4848 0.09515400   1.008000   ; qtot 161.664879
 4849         c3    162    bbb     C7   4849 0.21842400  12.010000   ; qtot 161.883303
 4850         h1    162    bbb    H13   4850 0.04500300   1.008000   ; qtot 161.928306
 4851         h1    162    bbb    H14   4851 0.04500300   1.008000   ; qtot 161.973309
 4852         c3    162    bbb     C8   4852 -0.06455200  12.010000   ; qtot 161.908757
 4853         h1    162    bbb    H15   4853 0.13554100   1.008000   ; qtot 162.044298
 4854         h1    162    bbb    H16   4854 0.13554100   1.008000   ; qtot 162.179839
 4855         c3    162    bbb     C9   4855 -0.06455200  12.010000   ; qtot 162.115287
 4856         h1    162    bbb    H17   4856 0.13554100   1.008000   ; qtot 162.250828
 4857         h1    162    bbb    H18   4857 0.13554100   1.008000   ; qtot 162.386369
 4858         os    162    bbb     O1   4858 -0.62587700  16.000000   ; qtot 161.760492
 4859         hn    162    bbb    H19   4859 0.23982500   1.008000   ; qtot 162.000317
; residue  163 bbb rtp bbb q 1.0
 4860         n4    163    bbb     N1   4860 0.03726400  14.010000   ; qtot 162.037581
 4861         c3    163    bbb     C1   4861 -0.07020100  12.010000   ; qtot 161.967380
 4862         hx    163    bbb     H1   4862 0.12219000   1.008000   ; qtot 162.089570
 4863         hx    163    bbb     H2   4863 0.12219000   1.008000   ; qtot 162.211760
 4864         c3    163    bbb     C2   4864 -0.07020100  12.010000   ; qtot 162.141559
 4865         hx    163    bbb     H3   4865 0.12219000   1.008000   ; qtot 162.263749
 4866         hx    163    bbb     H4   4866 0.12219000   1.008000   ; qtot 162.385939
 4867         c3    163    bbb     C3   4867 -0.39007700  12.010000   ; qtot 161.995862
 4868         hx    163    bbb     H5   4868 0.14940300   1.008000   ; qtot 162.145265
 4869         hx    163    bbb     H6   4869 0.14940300   1.008000   ; qtot 162.294668
 4870         c3    163    bbb     C4   4870 0.18057300  12.010000   ; qtot 162.475241
 4871         hc    163    bbb     H7   4871 0.01788900   1.008000   ; qtot 162.493130
 4872         hc    163    bbb     H8   4872 0.01788900   1.008000   ; qtot 162.511019
 4873         c3    163    bbb     C5   4873 -0.11337700  12.010000   ; qtot 162.397642
 4874         hc    163    bbb     H9   4874 0.09515400   1.008000   ; qtot 162.492796
 4875         hc    163    bbb    H10   4875 0.09515400   1.008000   ; qtot 162.587950
 4876         c3    163    bbb     C6   4876 -0.11337700  12.010000   ; qtot 162.474573
 4877         hc    163    bbb    H11   4877 0.09515400   1.008000   ; qtot 162.569727
 4878         hc    163    bbb    H12   4878 0.09515400   1.008000   ; qtot 162.664881
 4879         c3    163    bbb     C7   4879 0.21842400  12.010000   ; qtot 162.883305
 4880         h1    163    bbb    H13   4880 0.04500300   1.008000   ; qtot 162.928308
 4881         h1    163    bbb    H14   4881 0.04500300   1.008000   ; qtot 162.973311
 4882         c3    163    bbb     C8   4882 -0.06455200  12.010000   ; qtot 162.908759
 4883         h1    163    bbb    H15   4883 0.13554100   1.008000   ; qtot 163.044300
 4884         h1    163    bbb    H16   4884 0.13554100   1.008000   ; qtot 163.179841
 4885         c3    163    bbb     C9   4885 -0.06455200  12.010000   ; qtot 163.115289
 4886         h1    163    bbb    H17   4886 0.13554100   1.008000   ; qtot 163.250830
 4887         h1    163    bbb    H18   4887 0.13554100   1.008000   ; qtot 163.386371
 4888         os    163    bbb     O1   4888 -0.62587700  16.000000   ; qtot 162.760494
 4889         hn    163    bbb    H19   4889 0.23982500   1.008000   ; qtot 163.000319
; residue  164 bbb rtp bbb q 1.0
 4890         n4    164    bbb     N1   4890 0.03726400  14.010000   ; qtot 163.037583
 4891         c3    164    bbb     C1   4891 -0.07020100  12.010000   ; qtot 162.967382
 4892         hx    164    bbb     H1   4892 0.12219000   1.008000   ; qtot 163.089572
 4893         hx    164    bbb     H2   4893 0.12219000   1.008000   ; qtot 163.211762
 4894         c3    164    bbb     C2   4894 -0.07020100  12.010000   ; qtot 163.141561
 4895         hx    164    bbb     H3   4895 0.12219000   1.008000   ; qtot 163.263751
 4896         hx    164    bbb     H4   4896 0.12219000   1.008000   ; qtot 163.385941
 4897         c3    164    bbb     C3   4897 -0.39007700  12.010000   ; qtot 162.995864
 4898         hx    164    bbb     H5   4898 0.14940300   1.008000   ; qtot 163.145267
 4899         hx    164    bbb     H6   4899 0.14940300   1.008000   ; qtot 163.294670
 4900         c3    164    bbb     C4   4900 0.18057300  12.010000   ; qtot 163.475243
 4901         hc    164    bbb     H7   4901 0.01788900   1.008000   ; qtot 163.493132
 4902         hc    164    bbb     H8   4902 0.01788900   1.008000   ; qtot 163.511021
 4903         c3    164    bbb     C5   4903 -0.11337700  12.010000   ; qtot 163.397644
 4904         hc    164    bbb     H9   4904 0.09515400   1.008000   ; qtot 163.492798
 4905         hc    164    bbb    H10   4905 0.09515400   1.008000   ; qtot 163.587952
 4906         c3    164    bbb     C6   4906 -0.11337700  12.010000   ; qtot 163.474575
 4907         hc    164    bbb    H11   4907 0.09515400   1.008000   ; qtot 163.569729
 4908         hc    164    bbb    H12   4908 0.09515400   1.008000   ; qtot 163.664883
 4909         c3    164    bbb     C7   4909 0.21842400  12.010000   ; qtot 163.883307
 4910         h1    164    bbb    H13   4910 0.04500300   1.008000   ; qtot 163.928310
 4911         h1    164    bbb    H14   4911 0.04500300   1.008000   ; qtot 163.973313
 4912         c3    164    bbb     C8   4912 -0.06455200  12.010000   ; qtot 163.908761
 4913         h1    164    bbb    H15   4913 0.13554100   1.008000   ; qtot 164.044302
 4914         h1    164    bbb    H16   4914 0.13554100   1.008000   ; qtot 164.179843
 4915         c3    164    bbb     C9   4915 -0.06455200  12.010000   ; qtot 164.115291
 4916         h1    164    bbb    H17   4916 0.13554100   1.008000   ; qtot 164.250832
 4917         h1    164    bbb    H18   4917 0.13554100   1.008000   ; qtot 164.386373
 4918         os    164    bbb     O1   4918 -0.62587700  16.000000   ; qtot 163.760496
 4919         hn    164    bbb    H19   4919 0.23982500   1.008000   ; qtot 164.000321
; residue  165 bbb rtp bbb q 1.0
 4920         n4    165    bbb     N1   4920 0.03726400  14.010000   ; qtot 164.037585
 4921         c3    165    bbb     C1   4921 -0.07020100  12.010000   ; qtot 163.967384
 4922         hx    165    bbb     H1   4922 0.12219000   1.008000   ; qtot 164.089574
 4923         hx    165    bbb     H2   4923 0.12219000   1.008000   ; qtot 164.211764
 4924         c3    165    bbb     C2   4924 -0.07020100  12.010000   ; qtot 164.141563
 4925         hx    165    bbb     H3   4925 0.12219000   1.008000   ; qtot 164.263753
 4926         hx    165    bbb     H4   4926 0.12219000   1.008000   ; qtot 164.385943
 4927         c3    165    bbb     C3   4927 -0.39007700  12.010000   ; qtot 163.995866
 4928         hx    165    bbb     H5   4928 0.14940300   1.008000   ; qtot 164.145269
 4929         hx    165    bbb     H6   4929 0.14940300   1.008000   ; qtot 164.294672
 4930         c3    165    bbb     C4   4930 0.18057300  12.010000   ; qtot 164.475245
 4931         hc    165    bbb     H7   4931 0.01788900   1.008000   ; qtot 164.493134
 4932         hc    165    bbb     H8   4932 0.01788900   1.008000   ; qtot 164.511023
 4933         c3    165    bbb     C5   4933 -0.11337700  12.010000   ; qtot 164.397646
 4934         hc    165    bbb     H9   4934 0.09515400   1.008000   ; qtot 164.492800
 4935         hc    165    bbb    H10   4935 0.09515400   1.008000   ; qtot 164.587954
 4936         c3    165    bbb     C6   4936 -0.11337700  12.010000   ; qtot 164.474577
 4937         hc    165    bbb    H11   4937 0.09515400   1.008000   ; qtot 164.569731
 4938         hc    165    bbb    H12   4938 0.09515400   1.008000   ; qtot 164.664885
 4939         c3    165    bbb     C7   4939 0.21842400  12.010000   ; qtot 164.883309
 4940         h1    165    bbb    H13   4940 0.04500300   1.008000   ; qtot 164.928312
 4941         h1    165    bbb    H14   4941 0.04500300   1.008000   ; qtot 164.973315
 4942         c3    165    bbb     C8   4942 -0.06455200  12.010000   ; qtot 164.908763
 4943         h1    165    bbb    H15   4943 0.13554100   1.008000   ; qtot 165.044304
 4944         h1    165    bbb    H16   4944 0.13554100   1.008000   ; qtot 165.179845
 4945         c3    165    bbb     C9   4945 -0.06455200  12.010000   ; qtot 165.115293
 4946         h1    165    bbb    H17   4946 0.13554100   1.008000   ; qtot 165.250834
 4947         h1    165    bbb    H18   4947 0.13554100   1.008000   ; qtot 165.386375
 4948         os    165    bbb     O1   4948 -0.62587700  16.000000   ; qtot 164.760498
 4949         hn    165    bbb    H19   4949 0.23982500   1.008000   ; qtot 165.000323
; residue  166 bbb rtp bbb q 1.0
 4950         n4    166    bbb     N1   4950 0.03726400  14.010000   ; qtot 165.037587
 4951         c3    166    bbb     C1   4951 -0.07020100  12.010000   ; qtot 164.967386
 4952         hx    166    bbb     H1   4952 0.12219000   1.008000   ; qtot 165.089576
 4953         hx    166    bbb     H2   4953 0.12219000   1.008000   ; qtot 165.211766
 4954         c3    166    bbb     C2   4954 -0.07020100  12.010000   ; qtot 165.141565
 4955         hx    166    bbb     H3   4955 0.12219000   1.008000   ; qtot 165.263755
 4956         hx    166    bbb     H4   4956 0.12219000   1.008000   ; qtot 165.385945
 4957         c3    166    bbb     C3   4957 -0.39007700  12.010000   ; qtot 164.995868
 4958         hx    166    bbb     H5   4958 0.14940300   1.008000   ; qtot 165.145271
 4959         hx    166    bbb     H6   4959 0.14940300   1.008000   ; qtot 165.294674
 4960         c3    166    bbb     C4   4960 0.18057300  12.010000   ; qtot 165.475247
 4961         hc    166    bbb     H7   4961 0.01788900   1.008000   ; qtot 165.493136
 4962         hc    166    bbb     H8   4962 0.01788900   1.008000   ; qtot 165.511025
 4963         c3    166    bbb     C5   4963 -0.11337700  12.010000   ; qtot 165.397648
 4964         hc    166    bbb     H9   4964 0.09515400   1.008000   ; qtot 165.492802
 4965         hc    166    bbb    H10   4965 0.09515400   1.008000   ; qtot 165.587956
 4966         c3    166    bbb     C6   4966 -0.11337700  12.010000   ; qtot 165.474579
 4967         hc    166    bbb    H11   4967 0.09515400   1.008000   ; qtot 165.569733
 4968         hc    166    bbb    H12   4968 0.09515400   1.008000   ; qtot 165.664887
 4969         c3    166    bbb     C7   4969 0.21842400  12.010000   ; qtot 165.883311
 4970         h1    166    bbb    H13   4970 0.04500300   1.008000   ; qtot 165.928314
 4971         h1    166    bbb    H14   4971 0.04500300   1.008000   ; qtot 165.973317
 4972         c3    166    bbb     C8   4972 -0.06455200  12.010000   ; qtot 165.908765
 4973         h1    166    bbb    H15   4973 0.13554100   1.008000   ; qtot 166.044306
 4974         h1    166    bbb    H16   4974 0.13554100   1.008000   ; qtot 166.179847
 4975         c3    166    bbb     C9   4975 -0.06455200  12.010000   ; qtot 166.115295
 4976         h1    166    bbb    H17   4976 0.13554100   1.008000   ; qtot 166.250836
 4977         h1    166    bbb    H18   4977 0.13554100   1.008000   ; qtot 166.386377
 4978         os    166    bbb     O1   4978 -0.62587700  16.000000   ; qtot 165.760500
 4979         hn    166    bbb    H19   4979 0.23982500   1.008000   ; qtot 166.000325
; residue  167 bbb rtp bbb q 1.0
 4980         n4    167    bbb     N1   4980 0.03726400  14.010000   ; qtot 166.037589
 4981         c3    167    bbb     C1   4981 -0.07020100  12.010000   ; qtot 165.967388
 4982         hx    167    bbb     H1   4982 0.12219000   1.008000   ; qtot 166.089578
 4983         hx    167    bbb     H2   4983 0.12219000   1.008000   ; qtot 166.211768
 4984         c3    167    bbb     C2   4984 -0.07020100  12.010000   ; qtot 166.141567
 4985         hx    167    bbb     H3   4985 0.12219000   1.008000   ; qtot 166.263757
 4986         hx    167    bbb     H4   4986 0.12219000   1.008000   ; qtot 166.385947
 4987         c3    167    bbb     C3   4987 -0.39007700  12.010000   ; qtot 165.995870
 4988         hx    167    bbb     H5   4988 0.14940300   1.008000   ; qtot 166.145273
 4989         hx    167    bbb     H6   4989 0.14940300   1.008000   ; qtot 166.294676
 4990         c3    167    bbb     C4   4990 0.18057300  12.010000   ; qtot 166.475249
 4991         hc    167    bbb     H7   4991 0.01788900   1.008000   ; qtot 166.493138
 4992         hc    167    bbb     H8   4992 0.01788900   1.008000   ; qtot 166.511027
 4993         c3    167    bbb     C5   4993 -0.11337700  12.010000   ; qtot 166.397650
 4994         hc    167    bbb     H9   4994 0.09515400   1.008000   ; qtot 166.492804
 4995         hc    167    bbb    H10   4995 0.09515400   1.008000   ; qtot 166.587958
 4996         c3    167    bbb     C6   4996 -0.11337700  12.010000   ; qtot 166.474581
 4997         hc    167    bbb    H11   4997 0.09515400   1.008000   ; qtot 166.569735
 4998         hc    167    bbb    H12   4998 0.09515400   1.008000   ; qtot 166.664889
 4999         c3    167    bbb     C7   4999 0.21842400  12.010000   ; qtot 166.883313
 5000         h1    167    bbb    H13   5000 0.04500300   1.008000   ; qtot 166.928316
 5001         h1    167    bbb    H14   5001 0.04500300   1.008000   ; qtot 166.973319
 5002         c3    167    bbb     C8   5002 -0.06455200  12.010000   ; qtot 166.908767
 5003         h1    167    bbb    H15   5003 0.13554100   1.008000   ; qtot 167.044308
 5004         h1    167    bbb    H16   5004 0.13554100   1.008000   ; qtot 167.179849
 5005         c3    167    bbb     C9   5005 -0.06455200  12.010000   ; qtot 167.115297
 5006         h1    167    bbb    H17   5006 0.13554100   1.008000   ; qtot 167.250838
 5007         h1    167    bbb    H18   5007 0.13554100   1.008000   ; qtot 167.386379
 5008         os    167    bbb     O1   5008 -0.62587700  16.000000   ; qtot 166.760502
 5009         hn    167    bbb    H19   5009 0.23982500   1.008000   ; qtot 167.000327
; residue  168 bbb rtp bbb q 1.0
 5010         n4    168    bbb     N1   5010 0.03726400  14.010000   ; qtot 167.037591
 5011         c3    168    bbb     C1   5011 -0.07020100  12.010000   ; qtot 166.967390
 5012         hx    168    bbb     H1   5012 0.12219000   1.008000   ; qtot 167.089580
 5013         hx    168    bbb     H2   5013 0.12219000   1.008000   ; qtot 167.211770
 5014         c3    168    bbb     C2   5014 -0.07020100  12.010000   ; qtot 167.141569
 5015         hx    168    bbb     H3   5015 0.12219000   1.008000   ; qtot 167.263759
 5016         hx    168    bbb     H4   5016 0.12219000   1.008000   ; qtot 167.385949
 5017         c3    168    bbb     C3   5017 -0.39007700  12.010000   ; qtot 166.995872
 5018         hx    168    bbb     H5   5018 0.14940300   1.008000   ; qtot 167.145275
 5019         hx    168    bbb     H6   5019 0.14940300   1.008000   ; qtot 167.294678
 5020         c3    168    bbb     C4   5020 0.18057300  12.010000   ; qtot 167.475251
 5021         hc    168    bbb     H7   5021 0.01788900   1.008000   ; qtot 167.493140
 5022         hc    168    bbb     H8   5022 0.01788900   1.008000   ; qtot 167.511029
 5023         c3    168    bbb     C5   5023 -0.11337700  12.010000   ; qtot 167.397652
 5024         hc    168    bbb     H9   5024 0.09515400   1.008000   ; qtot 167.492806
 5025         hc    168    bbb    H10   5025 0.09515400   1.008000   ; qtot 167.587960
 5026         c3    168    bbb     C6   5026 -0.11337700  12.010000   ; qtot 167.474583
 5027         hc    168    bbb    H11   5027 0.09515400   1.008000   ; qtot 167.569737
 5028         hc    168    bbb    H12   5028 0.09515400   1.008000   ; qtot 167.664891
 5029         c3    168    bbb     C7   5029 0.21842400  12.010000   ; qtot 167.883315
 5030         h1    168    bbb    H13   5030 0.04500300   1.008000   ; qtot 167.928318
 5031         h1    168    bbb    H14   5031 0.04500300   1.008000   ; qtot 167.973321
 5032         c3    168    bbb     C8   5032 -0.06455200  12.010000   ; qtot 167.908769
 5033         h1    168    bbb    H15   5033 0.13554100   1.008000   ; qtot 168.044310
 5034         h1    168    bbb    H16   5034 0.13554100   1.008000   ; qtot 168.179851
 5035         c3    168    bbb     C9   5035 -0.06455200  12.010000   ; qtot 168.115299
 5036         h1    168    bbb    H17   5036 0.13554100   1.008000   ; qtot 168.250840
 5037         h1    168    bbb    H18   5037 0.13554100   1.008000   ; qtot 168.386381
 5038         os    168    bbb     O1   5038 -0.62587700  16.000000   ; qtot 167.760504
 5039         hn    168    bbb    H19   5039 0.23982500   1.008000   ; qtot 168.000329
; residue  169 bbb rtp bbb q 1.0
 5040         n4    169    bbb     N1   5040 0.03726400  14.010000   ; qtot 168.037593
 5041         c3    169    bbb     C1   5041 -0.07020100  12.010000   ; qtot 167.967392
 5042         hx    169    bbb     H1   5042 0.12219000   1.008000   ; qtot 168.089582
 5043         hx    169    bbb     H2   5043 0.12219000   1.008000   ; qtot 168.211772
 5044         c3    169    bbb     C2   5044 -0.07020100  12.010000   ; qtot 168.141571
 5045         hx    169    bbb     H3   5045 0.12219000   1.008000   ; qtot 168.263761
 5046         hx    169    bbb     H4   5046 0.12219000   1.008000   ; qtot 168.385951
 5047         c3    169    bbb     C3   5047 -0.39007700  12.010000   ; qtot 167.995874
 5048         hx    169    bbb     H5   5048 0.14940300   1.008000   ; qtot 168.145277
 5049         hx    169    bbb     H6   5049 0.14940300   1.008000   ; qtot 168.294680
 5050         c3    169    bbb     C4   5050 0.18057300  12.010000   ; qtot 168.475253
 5051         hc    169    bbb     H7   5051 0.01788900   1.008000   ; qtot 168.493142
 5052         hc    169    bbb     H8   5052 0.01788900   1.008000   ; qtot 168.511031
 5053         c3    169    bbb     C5   5053 -0.11337700  12.010000   ; qtot 168.397654
 5054         hc    169    bbb     H9   5054 0.09515400   1.008000   ; qtot 168.492808
 5055         hc    169    bbb    H10   5055 0.09515400   1.008000   ; qtot 168.587962
 5056         c3    169    bbb     C6   5056 -0.11337700  12.010000   ; qtot 168.474585
 5057         hc    169    bbb    H11   5057 0.09515400   1.008000   ; qtot 168.569739
 5058         hc    169    bbb    H12   5058 0.09515400   1.008000   ; qtot 168.664893
 5059         c3    169    bbb     C7   5059 0.21842400  12.010000   ; qtot 168.883317
 5060         h1    169    bbb    H13   5060 0.04500300   1.008000   ; qtot 168.928320
 5061         h1    169    bbb    H14   5061 0.04500300   1.008000   ; qtot 168.973323
 5062         c3    169    bbb     C8   5062 -0.06455200  12.010000   ; qtot 168.908771
 5063         h1    169    bbb    H15   5063 0.13554100   1.008000   ; qtot 169.044312
 5064         h1    169    bbb    H16   5064 0.13554100   1.008000   ; qtot 169.179853
 5065         c3    169    bbb     C9   5065 -0.06455200  12.010000   ; qtot 169.115301
 5066         h1    169    bbb    H17   5066 0.13554100   1.008000   ; qtot 169.250842
 5067         h1    169    bbb    H18   5067 0.13554100   1.008000   ; qtot 169.386383
 5068         os    169    bbb     O1   5068 -0.62587700  16.000000   ; qtot 168.760506
 5069         hn    169    bbb    H19   5069 0.23982500   1.008000   ; qtot 169.000331
; residue  170 bbb rtp bbb q 1.0
 5070         n4    170    bbb     N1   5070 0.03726400  14.010000   ; qtot 169.037595
 5071         c3    170    bbb     C1   5071 -0.07020100  12.010000   ; qtot 168.967394
 5072         hx    170    bbb     H1   5072 0.12219000   1.008000   ; qtot 169.089584
 5073         hx    170    bbb     H2   5073 0.12219000   1.008000   ; qtot 169.211774
 5074         c3    170    bbb     C2   5074 -0.07020100  12.010000   ; qtot 169.141573
 5075         hx    170    bbb     H3   5075 0.12219000   1.008000   ; qtot 169.263763
 5076         hx    170    bbb     H4   5076 0.12219000   1.008000   ; qtot 169.385953
 5077         c3    170    bbb     C3   5077 -0.39007700  12.010000   ; qtot 168.995876
 5078         hx    170    bbb     H5   5078 0.14940300   1.008000   ; qtot 169.145279
 5079         hx    170    bbb     H6   5079 0.14940300   1.008000   ; qtot 169.294682
 5080         c3    170    bbb     C4   5080 0.18057300  12.010000   ; qtot 169.475255
 5081         hc    170    bbb     H7   5081 0.01788900   1.008000   ; qtot 169.493144
 5082         hc    170    bbb     H8   5082 0.01788900   1.008000   ; qtot 169.511033
 5083         c3    170    bbb     C5   5083 -0.11337700  12.010000   ; qtot 169.397656
 5084         hc    170    bbb     H9   5084 0.09515400   1.008000   ; qtot 169.492810
 5085         hc    170    bbb    H10   5085 0.09515400   1.008000   ; qtot 169.587964
 5086         c3    170    bbb     C6   5086 -0.11337700  12.010000   ; qtot 169.474587
 5087         hc    170    bbb    H11   5087 0.09515400   1.008000   ; qtot 169.569741
 5088         hc    170    bbb    H12   5088 0.09515400   1.008000   ; qtot 169.664895
 5089         c3    170    bbb     C7   5089 0.21842400  12.010000   ; qtot 169.883319
 5090         h1    170    bbb    H13   5090 0.04500300   1.008000   ; qtot 169.928322
 5091         h1    170    bbb    H14   5091 0.04500300   1.008000   ; qtot 169.973325
 5092         c3    170    bbb     C8   5092 -0.06455200  12.010000   ; qtot 169.908773
 5093         h1    170    bbb    H15   5093 0.13554100   1.008000   ; qtot 170.044314
 5094         h1    170    bbb    H16   5094 0.13554100   1.008000   ; qtot 170.179855
 5095         c3    170    bbb     C9   5095 -0.06455200  12.010000   ; qtot 170.115303
 5096         h1    170    bbb    H17   5096 0.13554100   1.008000   ; qtot 170.250844
 5097         h1    170    bbb    H18   5097 0.13554100   1.008000   ; qtot 170.386385
 5098         os    170    bbb     O1   5098 -0.62587700  16.000000   ; qtot 169.760507
 5099         hn    170    bbb    H19   5099 0.23982500   1.008000   ; qtot 170.000332
; residue  171 bbb rtp bbb q 1.0
 5100         n4    171    bbb     N1   5100 0.03726400  14.010000   ; qtot 170.037596
 5101         c3    171    bbb     C1   5101 -0.07020100  12.010000   ; qtot 169.967395
 5102         hx    171    bbb     H1   5102 0.12219000   1.008000   ; qtot 170.089585
 5103         hx    171    bbb     H2   5103 0.12219000   1.008000   ; qtot 170.211775
 5104         c3    171    bbb     C2   5104 -0.07020100  12.010000   ; qtot 170.141574
 5105         hx    171    bbb     H3   5105 0.12219000   1.008000   ; qtot 170.263764
 5106         hx    171    bbb     H4   5106 0.12219000   1.008000   ; qtot 170.385954
 5107         c3    171    bbb     C3   5107 -0.39007700  12.010000   ; qtot 169.995877
 5108         hx    171    bbb     H5   5108 0.14940300   1.008000   ; qtot 170.145280
 5109         hx    171    bbb     H6   5109 0.14940300   1.008000   ; qtot 170.294683
 5110         c3    171    bbb     C4   5110 0.18057300  12.010000   ; qtot 170.475256
 5111         hc    171    bbb     H7   5111 0.01788900   1.008000   ; qtot 170.493145
 5112         hc    171    bbb     H8   5112 0.01788900   1.008000   ; qtot 170.511034
 5113         c3    171    bbb     C5   5113 -0.11337700  12.010000   ; qtot 170.397657
 5114         hc    171    bbb     H9   5114 0.09515400   1.008000   ; qtot 170.492811
 5115         hc    171    bbb    H10   5115 0.09515400   1.008000   ; qtot 170.587965
 5116         c3    171    bbb     C6   5116 -0.11337700  12.010000   ; qtot 170.474588
 5117         hc    171    bbb    H11   5117 0.09515400   1.008000   ; qtot 170.569742
 5118         hc    171    bbb    H12   5118 0.09515400   1.008000   ; qtot 170.664896
 5119         c3    171    bbb     C7   5119 0.21842400  12.010000   ; qtot 170.883320
 5120         h1    171    bbb    H13   5120 0.04500300   1.008000   ; qtot 170.928323
 5121         h1    171    bbb    H14   5121 0.04500300   1.008000   ; qtot 170.973326
 5122         c3    171    bbb     C8   5122 -0.06455200  12.010000   ; qtot 170.908774
 5123         h1    171    bbb    H15   5123 0.13554100   1.008000   ; qtot 171.044315
 5124         h1    171    bbb    H16   5124 0.13554100   1.008000   ; qtot 171.179856
 5125         c3    171    bbb     C9   5125 -0.06455200  12.010000   ; qtot 171.115304
 5126         h1    171    bbb    H17   5126 0.13554100   1.008000   ; qtot 171.250845
 5127         h1    171    bbb    H18   5127 0.13554100   1.008000   ; qtot 171.386386
 5128         os    171    bbb     O1   5128 -0.62587700  16.000000   ; qtot 170.760509
 5129         hn    171    bbb    H19   5129 0.23982500   1.008000   ; qtot 171.000334
; residue  172 bbb rtp bbb q 1.0
 5130         n4    172    bbb     N1   5130 0.03726400  14.010000   ; qtot 171.037598
 5131         c3    172    bbb     C1   5131 -0.07020100  12.010000   ; qtot 170.967397
 5132         hx    172    bbb     H1   5132 0.12219000   1.008000   ; qtot 171.089587
 5133         hx    172    bbb     H2   5133 0.12219000   1.008000   ; qtot 171.211777
 5134         c3    172    bbb     C2   5134 -0.07020100  12.010000   ; qtot 171.141576
 5135         hx    172    bbb     H3   5135 0.12219000   1.008000   ; qtot 171.263766
 5136         hx    172    bbb     H4   5136 0.12219000   1.008000   ; qtot 171.385956
 5137         c3    172    bbb     C3   5137 -0.39007700  12.010000   ; qtot 170.995879
 5138         hx    172    bbb     H5   5138 0.14940300   1.008000   ; qtot 171.145282
 5139         hx    172    bbb     H6   5139 0.14940300   1.008000   ; qtot 171.294685
 5140         c3    172    bbb     C4   5140 0.18057300  12.010000   ; qtot 171.475258
 5141         hc    172    bbb     H7   5141 0.01788900   1.008000   ; qtot 171.493147
 5142         hc    172    bbb     H8   5142 0.01788900   1.008000   ; qtot 171.511036
 5143         c3    172    bbb     C5   5143 -0.11337700  12.010000   ; qtot 171.397659
 5144         hc    172    bbb     H9   5144 0.09515400   1.008000   ; qtot 171.492813
 5145         hc    172    bbb    H10   5145 0.09515400   1.008000   ; qtot 171.587967
 5146         c3    172    bbb     C6   5146 -0.11337700  12.010000   ; qtot 171.474590
 5147         hc    172    bbb    H11   5147 0.09515400   1.008000   ; qtot 171.569744
 5148         hc    172    bbb    H12   5148 0.09515400   1.008000   ; qtot 171.664898
 5149         c3    172    bbb     C7   5149 0.21842400  12.010000   ; qtot 171.883322
 5150         h1    172    bbb    H13   5150 0.04500300   1.008000   ; qtot 171.928325
 5151         h1    172    bbb    H14   5151 0.04500300   1.008000   ; qtot 171.973328
 5152         c3    172    bbb     C8   5152 -0.06455200  12.010000   ; qtot 171.908776
 5153         h1    172    bbb    H15   5153 0.13554100   1.008000   ; qtot 172.044317
 5154         h1    172    bbb    H16   5154 0.13554100   1.008000   ; qtot 172.179858
 5155         c3    172    bbb     C9   5155 -0.06455200  12.010000   ; qtot 172.115306
 5156         h1    172    bbb    H17   5156 0.13554100   1.008000   ; qtot 172.250847
 5157         h1    172    bbb    H18   5157 0.13554100   1.008000   ; qtot 172.386388
 5158         os    172    bbb     O1   5158 -0.62587700  16.000000   ; qtot 171.760511
 5159         hn    172    bbb    H19   5159 0.23982500   1.008000   ; qtot 172.000336
; residue  173 bbb rtp bbb q 1.0
 5160         n4    173    bbb     N1   5160 0.03726400  14.010000   ; qtot 172.037600
 5161         c3    173    bbb     C1   5161 -0.07020100  12.010000   ; qtot 171.967399
 5162         hx    173    bbb     H1   5162 0.12219000   1.008000   ; qtot 172.089589
 5163         hx    173    bbb     H2   5163 0.12219000   1.008000   ; qtot 172.211779
 5164         c3    173    bbb     C2   5164 -0.07020100  12.010000   ; qtot 172.141578
 5165         hx    173    bbb     H3   5165 0.12219000   1.008000   ; qtot 172.263768
 5166         hx    173    bbb     H4   5166 0.12219000   1.008000   ; qtot 172.385958
 5167         c3    173    bbb     C3   5167 -0.39007700  12.010000   ; qtot 171.995881
 5168         hx    173    bbb     H5   5168 0.14940300   1.008000   ; qtot 172.145284
 5169         hx    173    bbb     H6   5169 0.14940300   1.008000   ; qtot 172.294687
 5170         c3    173    bbb     C4   5170 0.18057300  12.010000   ; qtot 172.475260
 5171         hc    173    bbb     H7   5171 0.01788900   1.008000   ; qtot 172.493149
 5172         hc    173    bbb     H8   5172 0.01788900   1.008000   ; qtot 172.511038
 5173         c3    173    bbb     C5   5173 -0.11337700  12.010000   ; qtot 172.397661
 5174         hc    173    bbb     H9   5174 0.09515400   1.008000   ; qtot 172.492815
 5175         hc    173    bbb    H10   5175 0.09515400   1.008000   ; qtot 172.587969
 5176         c3    173    bbb     C6   5176 -0.11337700  12.010000   ; qtot 172.474592
 5177         hc    173    bbb    H11   5177 0.09515400   1.008000   ; qtot 172.569746
 5178         hc    173    bbb    H12   5178 0.09515400   1.008000   ; qtot 172.664900
 5179         c3    173    bbb     C7   5179 0.21842400  12.010000   ; qtot 172.883324
 5180         h1    173    bbb    H13   5180 0.04500300   1.008000   ; qtot 172.928327
 5181         h1    173    bbb    H14   5181 0.04500300   1.008000   ; qtot 172.973330
 5182         c3    173    bbb     C8   5182 -0.06455200  12.010000   ; qtot 172.908778
 5183         h1    173    bbb    H15   5183 0.13554100   1.008000   ; qtot 173.044319
 5184         h1    173    bbb    H16   5184 0.13554100   1.008000   ; qtot 173.179860
 5185         c3    173    bbb     C9   5185 -0.06455200  12.010000   ; qtot 173.115308
 5186         h1    173    bbb    H17   5186 0.13554100   1.008000   ; qtot 173.250849
 5187         h1    173    bbb    H18   5187 0.13554100   1.008000   ; qtot 173.386390
 5188         os    173    bbb     O1   5188 -0.62587700  16.000000   ; qtot 172.760513
 5189         hn    173    bbb    H19   5189 0.23982500   1.008000   ; qtot 173.000338
; residue  174 bbb rtp bbb q 1.0
 5190         n4    174    bbb     N1   5190 0.03726400  14.010000   ; qtot 173.037602
 5191         c3    174    bbb     C1   5191 -0.07020100  12.010000   ; qtot 172.967401
 5192         hx    174    bbb     H1   5192 0.12219000   1.008000   ; qtot 173.089591
 5193         hx    174    bbb     H2   5193 0.12219000   1.008000   ; qtot 173.211781
 5194         c3    174    bbb     C2   5194 -0.07020100  12.010000   ; qtot 173.141580
 5195         hx    174    bbb     H3   5195 0.12219000   1.008000   ; qtot 173.263770
 5196         hx    174    bbb     H4   5196 0.12219000   1.008000   ; qtot 173.385960
 5197         c3    174    bbb     C3   5197 -0.39007700  12.010000   ; qtot 172.995883
 5198         hx    174    bbb     H5   5198 0.14940300   1.008000   ; qtot 173.145286
 5199         hx    174    bbb     H6   5199 0.14940300   1.008000   ; qtot 173.294689
 5200         c3    174    bbb     C4   5200 0.18057300  12.010000   ; qtot 173.475262
 5201         hc    174    bbb     H7   5201 0.01788900   1.008000   ; qtot 173.493151
 5202         hc    174    bbb     H8   5202 0.01788900   1.008000   ; qtot 173.511040
 5203         c3    174    bbb     C5   5203 -0.11337700  12.010000   ; qtot 173.397663
 5204         hc    174    bbb     H9   5204 0.09515400   1.008000   ; qtot 173.492817
 5205         hc    174    bbb    H10   5205 0.09515400   1.008000   ; qtot 173.587971
 5206         c3    174    bbb     C6   5206 -0.11337700  12.010000   ; qtot 173.474594
 5207         hc    174    bbb    H11   5207 0.09515400   1.008000   ; qtot 173.569748
 5208         hc    174    bbb    H12   5208 0.09515400   1.008000   ; qtot 173.664902
 5209         c3    174    bbb     C7   5209 0.21842400  12.010000   ; qtot 173.883326
 5210         h1    174    bbb    H13   5210 0.04500300   1.008000   ; qtot 173.928329
 5211         h1    174    bbb    H14   5211 0.04500300   1.008000   ; qtot 173.973332
 5212         c3    174    bbb     C8   5212 -0.06455200  12.010000   ; qtot 173.908780
 5213         h1    174    bbb    H15   5213 0.13554100   1.008000   ; qtot 174.044321
 5214         h1    174    bbb    H16   5214 0.13554100   1.008000   ; qtot 174.179862
 5215         c3    174    bbb     C9   5215 -0.06455200  12.010000   ; qtot 174.115310
 5216         h1    174    bbb    H17   5216 0.13554100   1.008000   ; qtot 174.250851
 5217         h1    174    bbb    H18   5217 0.13554100   1.008000   ; qtot 174.386392
 5218         os    174    bbb     O1   5218 -0.62587700  16.000000   ; qtot 173.760515
 5219         hn    174    bbb    H19   5219 0.23982500   1.008000   ; qtot 174.000340
; residue  175 bbb rtp bbb q 1.0
 5220         n4    175    bbb     N1   5220 0.03726400  14.010000   ; qtot 174.037604
 5221         c3    175    bbb     C1   5221 -0.07020100  12.010000   ; qtot 173.967403
 5222         hx    175    bbb     H1   5222 0.12219000   1.008000   ; qtot 174.089593
 5223         hx    175    bbb     H2   5223 0.12219000   1.008000   ; qtot 174.211783
 5224         c3    175    bbb     C2   5224 -0.07020100  12.010000   ; qtot 174.141582
 5225         hx    175    bbb     H3   5225 0.12219000   1.008000   ; qtot 174.263772
 5226         hx    175    bbb     H4   5226 0.12219000   1.008000   ; qtot 174.385962
 5227         c3    175    bbb     C3   5227 -0.39007700  12.010000   ; qtot 173.995885
 5228         hx    175    bbb     H5   5228 0.14940300   1.008000   ; qtot 174.145288
 5229         hx    175    bbb     H6   5229 0.14940300   1.008000   ; qtot 174.294691
 5230         c3    175    bbb     C4   5230 0.18057300  12.010000   ; qtot 174.475264
 5231         hc    175    bbb     H7   5231 0.01788900   1.008000   ; qtot 174.493153
 5232         hc    175    bbb     H8   5232 0.01788900   1.008000   ; qtot 174.511042
 5233         c3    175    bbb     C5   5233 -0.11337700  12.010000   ; qtot 174.397665
 5234         hc    175    bbb     H9   5234 0.09515400   1.008000   ; qtot 174.492819
 5235         hc    175    bbb    H10   5235 0.09515400   1.008000   ; qtot 174.587973
 5236         c3    175    bbb     C6   5236 -0.11337700  12.010000   ; qtot 174.474596
 5237         hc    175    bbb    H11   5237 0.09515400   1.008000   ; qtot 174.569750
 5238         hc    175    bbb    H12   5238 0.09515400   1.008000   ; qtot 174.664904
 5239         c3    175    bbb     C7   5239 0.21842400  12.010000   ; qtot 174.883328
 5240         h1    175    bbb    H13   5240 0.04500300   1.008000   ; qtot 174.928331
 5241         h1    175    bbb    H14   5241 0.04500300   1.008000   ; qtot 174.973334
 5242         c3    175    bbb     C8   5242 -0.06455200  12.010000   ; qtot 174.908782
 5243         h1    175    bbb    H15   5243 0.13554100   1.008000   ; qtot 175.044323
 5244         h1    175    bbb    H16   5244 0.13554100   1.008000   ; qtot 175.179864
 5245         c3    175    bbb     C9   5245 -0.06455200  12.010000   ; qtot 175.115312
 5246         h1    175    bbb    H17   5246 0.13554100   1.008000   ; qtot 175.250853
 5247         h1    175    bbb    H18   5247 0.13554100   1.008000   ; qtot 175.386394
 5248         os    175    bbb     O1   5248 -0.62587700  16.000000   ; qtot 174.760517
 5249         hn    175    bbb    H19   5249 0.23982500   1.008000   ; qtot 175.000342
; residue  176 bbb rtp bbb q 1.0
 5250         n4    176    bbb     N1   5250 0.03726400  14.010000   ; qtot 175.037606
 5251         c3    176    bbb     C1   5251 -0.07020100  12.010000   ; qtot 174.967405
 5252         hx    176    bbb     H1   5252 0.12219000   1.008000   ; qtot 175.089595
 5253         hx    176    bbb     H2   5253 0.12219000   1.008000   ; qtot 175.211785
 5254         c3    176    bbb     C2   5254 -0.07020100  12.010000   ; qtot 175.141584
 5255         hx    176    bbb     H3   5255 0.12219000   1.008000   ; qtot 175.263774
 5256         hx    176    bbb     H4   5256 0.12219000   1.008000   ; qtot 175.385964
 5257         c3    176    bbb     C3   5257 -0.39007700  12.010000   ; qtot 174.995887
 5258         hx    176    bbb     H5   5258 0.14940300   1.008000   ; qtot 175.145290
 5259         hx    176    bbb     H6   5259 0.14940300   1.008000   ; qtot 175.294693
 5260         c3    176    bbb     C4   5260 0.18057300  12.010000   ; qtot 175.475266
 5261         hc    176    bbb     H7   5261 0.01788900   1.008000   ; qtot 175.493155
 5262         hc    176    bbb     H8   5262 0.01788900   1.008000   ; qtot 175.511044
 5263         c3    176    bbb     C5   5263 -0.11337700  12.010000   ; qtot 175.397667
 5264         hc    176    bbb     H9   5264 0.09515400   1.008000   ; qtot 175.492821
 5265         hc    176    bbb    H10   5265 0.09515400   1.008000   ; qtot 175.587975
 5266         c3    176    bbb     C6   5266 -0.11337700  12.010000   ; qtot 175.474598
 5267         hc    176    bbb    H11   5267 0.09515400   1.008000   ; qtot 175.569752
 5268         hc    176    bbb    H12   5268 0.09515400   1.008000   ; qtot 175.664906
 5269         c3    176    bbb     C7   5269 0.21842400  12.010000   ; qtot 175.883330
 5270         h1    176    bbb    H13   5270 0.04500300   1.008000   ; qtot 175.928333
 5271         h1    176    bbb    H14   5271 0.04500300   1.008000   ; qtot 175.973336
 5272         c3    176    bbb     C8   5272 -0.06455200  12.010000   ; qtot 175.908784
 5273         h1    176    bbb    H15   5273 0.13554100   1.008000   ; qtot 176.044325
 5274         h1    176    bbb    H16   5274 0.13554100   1.008000   ; qtot 176.179866
 5275         c3    176    bbb     C9   5275 -0.06455200  12.010000   ; qtot 176.115314
 5276         h1    176    bbb    H17   5276 0.13554100   1.008000   ; qtot 176.250855
 5277         h1    176    bbb    H18   5277 0.13554100   1.008000   ; qtot 176.386396
 5278         os    176    bbb     O1   5278 -0.62587700  16.000000   ; qtot 175.760519
 5279         hn    176    bbb    H19   5279 0.23982500   1.008000   ; qtot 176.000344
; residue  177 bbb rtp bbb q 1.0
 5280         n4    177    bbb     N1   5280 0.03726400  14.010000   ; qtot 176.037608
 5281         c3    177    bbb     C1   5281 -0.07020100  12.010000   ; qtot 175.967407
 5282         hx    177    bbb     H1   5282 0.12219000   1.008000   ; qtot 176.089597
 5283         hx    177    bbb     H2   5283 0.12219000   1.008000   ; qtot 176.211787
 5284         c3    177    bbb     C2   5284 -0.07020100  12.010000   ; qtot 176.141586
 5285         hx    177    bbb     H3   5285 0.12219000   1.008000   ; qtot 176.263776
 5286         hx    177    bbb     H4   5286 0.12219000   1.008000   ; qtot 176.385966
 5287         c3    177    bbb     C3   5287 -0.39007700  12.010000   ; qtot 175.995889
 5288         hx    177    bbb     H5   5288 0.14940300   1.008000   ; qtot 176.145292
 5289         hx    177    bbb     H6   5289 0.14940300   1.008000   ; qtot 176.294695
 5290         c3    177    bbb     C4   5290 0.18057300  12.010000   ; qtot 176.475268
 5291         hc    177    bbb     H7   5291 0.01788900   1.008000   ; qtot 176.493157
 5292         hc    177    bbb     H8   5292 0.01788900   1.008000   ; qtot 176.511046
 5293         c3    177    bbb     C5   5293 -0.11337700  12.010000   ; qtot 176.397669
 5294         hc    177    bbb     H9   5294 0.09515400   1.008000   ; qtot 176.492823
 5295         hc    177    bbb    H10   5295 0.09515400   1.008000   ; qtot 176.587977
 5296         c3    177    bbb     C6   5296 -0.11337700  12.010000   ; qtot 176.474600
 5297         hc    177    bbb    H11   5297 0.09515400   1.008000   ; qtot 176.569754
 5298         hc    177    bbb    H12   5298 0.09515400   1.008000   ; qtot 176.664908
 5299         c3    177    bbb     C7   5299 0.21842400  12.010000   ; qtot 176.883332
 5300         h1    177    bbb    H13   5300 0.04500300   1.008000   ; qtot 176.928335
 5301         h1    177    bbb    H14   5301 0.04500300   1.008000   ; qtot 176.973338
 5302         c3    177    bbb     C8   5302 -0.06455200  12.010000   ; qtot 176.908786
 5303         h1    177    bbb    H15   5303 0.13554100   1.008000   ; qtot 177.044327
 5304         h1    177    bbb    H16   5304 0.13554100   1.008000   ; qtot 177.179868
 5305         c3    177    bbb     C9   5305 -0.06455200  12.010000   ; qtot 177.115316
 5306         h1    177    bbb    H17   5306 0.13554100   1.008000   ; qtot 177.250857
 5307         h1    177    bbb    H18   5307 0.13554100   1.008000   ; qtot 177.386398
 5308         os    177    bbb     O1   5308 -0.62587700  16.000000   ; qtot 176.760521
 5309         hn    177    bbb    H19   5309 0.23982500   1.008000   ; qtot 177.000346
; residue  178 bbb rtp bbb q 1.0
 5310         n4    178    bbb     N1   5310 0.03726400  14.010000   ; qtot 177.037610
 5311         c3    178    bbb     C1   5311 -0.07020100  12.010000   ; qtot 176.967409
 5312         hx    178    bbb     H1   5312 0.12219000   1.008000   ; qtot 177.089599
 5313         hx    178    bbb     H2   5313 0.12219000   1.008000   ; qtot 177.211789
 5314         c3    178    bbb     C2   5314 -0.07020100  12.010000   ; qtot 177.141588
 5315         hx    178    bbb     H3   5315 0.12219000   1.008000   ; qtot 177.263778
 5316         hx    178    bbb     H4   5316 0.12219000   1.008000   ; qtot 177.385968
 5317         c3    178    bbb     C3   5317 -0.39007700  12.010000   ; qtot 176.995891
 5318         hx    178    bbb     H5   5318 0.14940300   1.008000   ; qtot 177.145294
 5319         hx    178    bbb     H6   5319 0.14940300   1.008000   ; qtot 177.294697
 5320         c3    178    bbb     C4   5320 0.18057300  12.010000   ; qtot 177.475270
 5321         hc    178    bbb     H7   5321 0.01788900   1.008000   ; qtot 177.493159
 5322         hc    178    bbb     H8   5322 0.01788900   1.008000   ; qtot 177.511048
 5323         c3    178    bbb     C5   5323 -0.11337700  12.010000   ; qtot 177.397671
 5324         hc    178    bbb     H9   5324 0.09515400   1.008000   ; qtot 177.492825
 5325         hc    178    bbb    H10   5325 0.09515400   1.008000   ; qtot 177.587979
 5326         c3    178    bbb     C6   5326 -0.11337700  12.010000   ; qtot 177.474602
 5327         hc    178    bbb    H11   5327 0.09515400   1.008000   ; qtot 177.569756
 5328         hc    178    bbb    H12   5328 0.09515400   1.008000   ; qtot 177.664910
 5329         c3    178    bbb     C7   5329 0.21842400  12.010000   ; qtot 177.883334
 5330         h1    178    bbb    H13   5330 0.04500300   1.008000   ; qtot 177.928337
 5331         h1    178    bbb    H14   5331 0.04500300   1.008000   ; qtot 177.973340
 5332         c3    178    bbb     C8   5332 -0.06455200  12.010000   ; qtot 177.908788
 5333         h1    178    bbb    H15   5333 0.13554100   1.008000   ; qtot 178.044329
 5334         h1    178    bbb    H16   5334 0.13554100   1.008000   ; qtot 178.179870
 5335         c3    178    bbb     C9   5335 -0.06455200  12.010000   ; qtot 178.115318
 5336         h1    178    bbb    H17   5336 0.13554100   1.008000   ; qtot 178.250859
 5337         h1    178    bbb    H18   5337 0.13554100   1.008000   ; qtot 178.386400
 5338         os    178    bbb     O1   5338 -0.62587700  16.000000   ; qtot 177.760523
 5339         hn    178    bbb    H19   5339 0.23982500   1.008000   ; qtot 178.000348
; residue  179 bbb rtp bbb q 1.0
 5340         n4    179    bbb     N1   5340 0.03726400  14.010000   ; qtot 178.037612
 5341         c3    179    bbb     C1   5341 -0.07020100  12.010000   ; qtot 177.967411
 5342         hx    179    bbb     H1   5342 0.12219000   1.008000   ; qtot 178.089601
 5343         hx    179    bbb     H2   5343 0.12219000   1.008000   ; qtot 178.211791
 5344         c3    179    bbb     C2   5344 -0.07020100  12.010000   ; qtot 178.141590
 5345         hx    179    bbb     H3   5345 0.12219000   1.008000   ; qtot 178.263780
 5346         hx    179    bbb     H4   5346 0.12219000   1.008000   ; qtot 178.385970
 5347         c3    179    bbb     C3   5347 -0.39007700  12.010000   ; qtot 177.995893
 5348         hx    179    bbb     H5   5348 0.14940300   1.008000   ; qtot 178.145296
 5349         hx    179    bbb     H6   5349 0.14940300   1.008000   ; qtot 178.294699
 5350         c3    179    bbb     C4   5350 0.18057300  12.010000   ; qtot 178.475272
 5351         hc    179    bbb     H7   5351 0.01788900   1.008000   ; qtot 178.493161
 5352         hc    179    bbb     H8   5352 0.01788900   1.008000   ; qtot 178.511050
 5353         c3    179    bbb     C5   5353 -0.11337700  12.010000   ; qtot 178.397673
 5354         hc    179    bbb     H9   5354 0.09515400   1.008000   ; qtot 178.492827
 5355         hc    179    bbb    H10   5355 0.09515400   1.008000   ; qtot 178.587981
 5356         c3    179    bbb     C6   5356 -0.11337700  12.010000   ; qtot 178.474604
 5357         hc    179    bbb    H11   5357 0.09515400   1.008000   ; qtot 178.569758
 5358         hc    179    bbb    H12   5358 0.09515400   1.008000   ; qtot 178.664912
 5359         c3    179    bbb     C7   5359 0.21842400  12.010000   ; qtot 178.883336
 5360         h1    179    bbb    H13   5360 0.04500300   1.008000   ; qtot 178.928339
 5361         h1    179    bbb    H14   5361 0.04500300   1.008000   ; qtot 178.973342
 5362         c3    179    bbb     C8   5362 -0.06455200  12.010000   ; qtot 178.908790
 5363         h1    179    bbb    H15   5363 0.13554100   1.008000   ; qtot 179.044331
 5364         h1    179    bbb    H16   5364 0.13554100   1.008000   ; qtot 179.179872
 5365         c3    179    bbb     C9   5365 -0.06455200  12.010000   ; qtot 179.115320
 5366         h1    179    bbb    H17   5366 0.13554100   1.008000   ; qtot 179.250861
 5367         h1    179    bbb    H18   5367 0.13554100   1.008000   ; qtot 179.386402
 5368         os    179    bbb     O1   5368 -0.62587700  16.000000   ; qtot 178.760525
 5369         hn    179    bbb    H19   5369 0.23982500   1.008000   ; qtot 179.000350
; residue  180 bbb rtp bbb q 1.0
 5370         n4    180    bbb     N1   5370 0.03726400  14.010000   ; qtot 179.037614
 5371         c3    180    bbb     C1   5371 -0.07020100  12.010000   ; qtot 178.967413
 5372         hx    180    bbb     H1   5372 0.12219000   1.008000   ; qtot 179.089603
 5373         hx    180    bbb     H2   5373 0.12219000   1.008000   ; qtot 179.211793
 5374         c3    180    bbb     C2   5374 -0.07020100  12.010000   ; qtot 179.141592
 5375         hx    180    bbb     H3   5375 0.12219000   1.008000   ; qtot 179.263782
 5376         hx    180    bbb     H4   5376 0.12219000   1.008000   ; qtot 179.385972
 5377         c3    180    bbb     C3   5377 -0.39007700  12.010000   ; qtot 178.995895
 5378         hx    180    bbb     H5   5378 0.14940300   1.008000   ; qtot 179.145298
 5379         hx    180    bbb     H6   5379 0.14940300   1.008000   ; qtot 179.294701
 5380         c3    180    bbb     C4   5380 0.18057300  12.010000   ; qtot 179.475274
 5381         hc    180    bbb     H7   5381 0.01788900   1.008000   ; qtot 179.493163
 5382         hc    180    bbb     H8   5382 0.01788900   1.008000   ; qtot 179.511052
 5383         c3    180    bbb     C5   5383 -0.11337700  12.010000   ; qtot 179.397675
 5384         hc    180    bbb     H9   5384 0.09515400   1.008000   ; qtot 179.492829
 5385         hc    180    bbb    H10   5385 0.09515400   1.008000   ; qtot 179.587983
 5386         c3    180    bbb     C6   5386 -0.11337700  12.010000   ; qtot 179.474606
 5387         hc    180    bbb    H11   5387 0.09515400   1.008000   ; qtot 179.569760
 5388         hc    180    bbb    H12   5388 0.09515400   1.008000   ; qtot 179.664914
 5389         c3    180    bbb     C7   5389 0.21842400  12.010000   ; qtot 179.883338
 5390         h1    180    bbb    H13   5390 0.04500300   1.008000   ; qtot 179.928341
 5391         h1    180    bbb    H14   5391 0.04500300   1.008000   ; qtot 179.973344
 5392         c3    180    bbb     C8   5392 -0.06455200  12.010000   ; qtot 179.908792
 5393         h1    180    bbb    H15   5393 0.13554100   1.008000   ; qtot 180.044333
 5394         h1    180    bbb    H16   5394 0.13554100   1.008000   ; qtot 180.179874
 5395         c3    180    bbb     C9   5395 -0.06455200  12.010000   ; qtot 180.115322
 5396         h1    180    bbb    H17   5396 0.13554100   1.008000   ; qtot 180.250863
 5397         h1    180    bbb    H18   5397 0.13554100   1.008000   ; qtot 180.386404
 5398         os    180    bbb     O1   5398 -0.62587700  16.000000   ; qtot 179.760527
 5399         hn    180    bbb    H19   5399 0.23982500   1.008000   ; qtot 180.000352
; residue  181 bbb rtp bbb q 1.0
 5400         n4    181    bbb     N1   5400 0.03726400  14.010000   ; qtot 180.037616
 5401         c3    181    bbb     C1   5401 -0.07020100  12.010000   ; qtot 179.967415
 5402         hx    181    bbb     H1   5402 0.12219000   1.008000   ; qtot 180.089605
 5403         hx    181    bbb     H2   5403 0.12219000   1.008000   ; qtot 180.211795
 5404         c3    181    bbb     C2   5404 -0.07020100  12.010000   ; qtot 180.141594
 5405         hx    181    bbb     H3   5405 0.12219000   1.008000   ; qtot 180.263784
 5406         hx    181    bbb     H4   5406 0.12219000   1.008000   ; qtot 180.385974
 5407         c3    181    bbb     C3   5407 -0.39007700  12.010000   ; qtot 179.995897
 5408         hx    181    bbb     H5   5408 0.14940300   1.008000   ; qtot 180.145300
 5409         hx    181    bbb     H6   5409 0.14940300   1.008000   ; qtot 180.294703
 5410         c3    181    bbb     C4   5410 0.18057300  12.010000   ; qtot 180.475276
 5411         hc    181    bbb     H7   5411 0.01788900   1.008000   ; qtot 180.493165
 5412         hc    181    bbb     H8   5412 0.01788900   1.008000   ; qtot 180.511054
 5413         c3    181    bbb     C5   5413 -0.11337700  12.010000   ; qtot 180.397677
 5414         hc    181    bbb     H9   5414 0.09515400   1.008000   ; qtot 180.492831
 5415         hc    181    bbb    H10   5415 0.09515400   1.008000   ; qtot 180.587985
 5416         c3    181    bbb     C6   5416 -0.11337700  12.010000   ; qtot 180.474608
 5417         hc    181    bbb    H11   5417 0.09515400   1.008000   ; qtot 180.569762
 5418         hc    181    bbb    H12   5418 0.09515400   1.008000   ; qtot 180.664916
 5419         c3    181    bbb     C7   5419 0.21842400  12.010000   ; qtot 180.883340
 5420         h1    181    bbb    H13   5420 0.04500300   1.008000   ; qtot 180.928343
 5421         h1    181    bbb    H14   5421 0.04500300   1.008000   ; qtot 180.973346
 5422         c3    181    bbb     C8   5422 -0.06455200  12.010000   ; qtot 180.908794
 5423         h1    181    bbb    H15   5423 0.13554100   1.008000   ; qtot 181.044335
 5424         h1    181    bbb    H16   5424 0.13554100   1.008000   ; qtot 181.179876
 5425         c3    181    bbb     C9   5425 -0.06455200  12.010000   ; qtot 181.115324
 5426         h1    181    bbb    H17   5426 0.13554100   1.008000   ; qtot 181.250865
 5427         h1    181    bbb    H18   5427 0.13554100   1.008000   ; qtot 181.386406
 5428         os    181    bbb     O1   5428 -0.62587700  16.000000   ; qtot 180.760529
 5429         hn    181    bbb    H19   5429 0.23982500   1.008000   ; qtot 181.000354
; residue  182 bbb rtp bbb q 1.0
 5430         n4    182    bbb     N1   5430 0.03726400  14.010000   ; qtot 181.037618
 5431         c3    182    bbb     C1   5431 -0.07020100  12.010000   ; qtot 180.967417
 5432         hx    182    bbb     H1   5432 0.12219000   1.008000   ; qtot 181.089607
 5433         hx    182    bbb     H2   5433 0.12219000   1.008000   ; qtot 181.211797
 5434         c3    182    bbb     C2   5434 -0.07020100  12.010000   ; qtot 181.141596
 5435         hx    182    bbb     H3   5435 0.12219000   1.008000   ; qtot 181.263786
 5436         hx    182    bbb     H4   5436 0.12219000   1.008000   ; qtot 181.385976
 5437         c3    182    bbb     C3   5437 -0.39007700  12.010000   ; qtot 180.995899
 5438         hx    182    bbb     H5   5438 0.14940300   1.008000   ; qtot 181.145302
 5439         hx    182    bbb     H6   5439 0.14940300   1.008000   ; qtot 181.294705
 5440         c3    182    bbb     C4   5440 0.18057300  12.010000   ; qtot 181.475278
 5441         hc    182    bbb     H7   5441 0.01788900   1.008000   ; qtot 181.493167
 5442         hc    182    bbb     H8   5442 0.01788900   1.008000   ; qtot 181.511056
 5443         c3    182    bbb     C5   5443 -0.11337700  12.010000   ; qtot 181.397679
 5444         hc    182    bbb     H9   5444 0.09515400   1.008000   ; qtot 181.492833
 5445         hc    182    bbb    H10   5445 0.09515400   1.008000   ; qtot 181.587987
 5446         c3    182    bbb     C6   5446 -0.11337700  12.010000   ; qtot 181.474610
 5447         hc    182    bbb    H11   5447 0.09515400   1.008000   ; qtot 181.569764
 5448         hc    182    bbb    H12   5448 0.09515400   1.008000   ; qtot 181.664918
 5449         c3    182    bbb     C7   5449 0.21842400  12.010000   ; qtot 181.883342
 5450         h1    182    bbb    H13   5450 0.04500300   1.008000   ; qtot 181.928345
 5451         h1    182    bbb    H14   5451 0.04500300   1.008000   ; qtot 181.973348
 5452         c3    182    bbb     C8   5452 -0.06455200  12.010000   ; qtot 181.908796
 5453         h1    182    bbb    H15   5453 0.13554100   1.008000   ; qtot 182.044337
 5454         h1    182    bbb    H16   5454 0.13554100   1.008000   ; qtot 182.179878
 5455         c3    182    bbb     C9   5455 -0.06455200  12.010000   ; qtot 182.115326
 5456         h1    182    bbb    H17   5456 0.13554100   1.008000   ; qtot 182.250867
 5457         h1    182    bbb    H18   5457 0.13554100   1.008000   ; qtot 182.386408
 5458         os    182    bbb     O1   5458 -0.62587700  16.000000   ; qtot 181.760531
 5459         hn    182    bbb    H19   5459 0.23982500   1.008000   ; qtot 182.000356
; residue  183 bbb rtp bbb q 1.0
 5460         n4    183    bbb     N1   5460 0.03726400  14.010000   ; qtot 182.037620
 5461         c3    183    bbb     C1   5461 -0.07020100  12.010000   ; qtot 181.967419
 5462         hx    183    bbb     H1   5462 0.12219000   1.008000   ; qtot 182.089609
 5463         hx    183    bbb     H2   5463 0.12219000   1.008000   ; qtot 182.211799
 5464         c3    183    bbb     C2   5464 -0.07020100  12.010000   ; qtot 182.141598
 5465         hx    183    bbb     H3   5465 0.12219000   1.008000   ; qtot 182.263788
 5466         hx    183    bbb     H4   5466 0.12219000   1.008000   ; qtot 182.385978
 5467         c3    183    bbb     C3   5467 -0.39007700  12.010000   ; qtot 181.995901
 5468         hx    183    bbb     H5   5468 0.14940300   1.008000   ; qtot 182.145304
 5469         hx    183    bbb     H6   5469 0.14940300   1.008000   ; qtot 182.294707
 5470         c3    183    bbb     C4   5470 0.18057300  12.010000   ; qtot 182.475280
 5471         hc    183    bbb     H7   5471 0.01788900   1.008000   ; qtot 182.493169
 5472         hc    183    bbb     H8   5472 0.01788900   1.008000   ; qtot 182.511058
 5473         c3    183    bbb     C5   5473 -0.11337700  12.010000   ; qtot 182.397681
 5474         hc    183    bbb     H9   5474 0.09515400   1.008000   ; qtot 182.492835
 5475         hc    183    bbb    H10   5475 0.09515400   1.008000   ; qtot 182.587989
 5476         c3    183    bbb     C6   5476 -0.11337700  12.010000   ; qtot 182.474612
 5477         hc    183    bbb    H11   5477 0.09515400   1.008000   ; qtot 182.569766
 5478         hc    183    bbb    H12   5478 0.09515400   1.008000   ; qtot 182.664920
 5479         c3    183    bbb     C7   5479 0.21842400  12.010000   ; qtot 182.883344
 5480         h1    183    bbb    H13   5480 0.04500300   1.008000   ; qtot 182.928347
 5481         h1    183    bbb    H14   5481 0.04500300   1.008000   ; qtot 182.973350
 5482         c3    183    bbb     C8   5482 -0.06455200  12.010000   ; qtot 182.908798
 5483         h1    183    bbb    H15   5483 0.13554100   1.008000   ; qtot 183.044339
 5484         h1    183    bbb    H16   5484 0.13554100   1.008000   ; qtot 183.179880
 5485         c3    183    bbb     C9   5485 -0.06455200  12.010000   ; qtot 183.115328
 5486         h1    183    bbb    H17   5486 0.13554100   1.008000   ; qtot 183.250869
 5487         h1    183    bbb    H18   5487 0.13554100   1.008000   ; qtot 183.386410
 5488         os    183    bbb     O1   5488 -0.62587700  16.000000   ; qtot 182.760533
 5489         hn    183    bbb    H19   5489 0.23982500   1.008000   ; qtot 183.000358
; residue  184 bbb rtp bbb q 1.0
 5490         n4    184    bbb     N1   5490 0.03726400  14.010000   ; qtot 183.037622
 5491         c3    184    bbb     C1   5491 -0.07020100  12.010000   ; qtot 182.967421
 5492         hx    184    bbb     H1   5492 0.12219000   1.008000   ; qtot 183.089611
 5493         hx    184    bbb     H2   5493 0.12219000   1.008000   ; qtot 183.211801
 5494         c3    184    bbb     C2   5494 -0.07020100  12.010000   ; qtot 183.141600
 5495         hx    184    bbb     H3   5495 0.12219000   1.008000   ; qtot 183.263790
 5496         hx    184    bbb     H4   5496 0.12219000   1.008000   ; qtot 183.385980
 5497         c3    184    bbb     C3   5497 -0.39007700  12.010000   ; qtot 182.995903
 5498         hx    184    bbb     H5   5498 0.14940300   1.008000   ; qtot 183.145306
 5499         hx    184    bbb     H6   5499 0.14940300   1.008000   ; qtot 183.294709
 5500         c3    184    bbb     C4   5500 0.18057300  12.010000   ; qtot 183.475282
 5501         hc    184    bbb     H7   5501 0.01788900   1.008000   ; qtot 183.493171
 5502         hc    184    bbb     H8   5502 0.01788900   1.008000   ; qtot 183.511060
 5503         c3    184    bbb     C5   5503 -0.11337700  12.010000   ; qtot 183.397683
 5504         hc    184    bbb     H9   5504 0.09515400   1.008000   ; qtot 183.492837
 5505         hc    184    bbb    H10   5505 0.09515400   1.008000   ; qtot 183.587991
 5506         c3    184    bbb     C6   5506 -0.11337700  12.010000   ; qtot 183.474614
 5507         hc    184    bbb    H11   5507 0.09515400   1.008000   ; qtot 183.569768
 5508         hc    184    bbb    H12   5508 0.09515400   1.008000   ; qtot 183.664922
 5509         c3    184    bbb     C7   5509 0.21842400  12.010000   ; qtot 183.883346
 5510         h1    184    bbb    H13   5510 0.04500300   1.008000   ; qtot 183.928349
 5511         h1    184    bbb    H14   5511 0.04500300   1.008000   ; qtot 183.973352
 5512         c3    184    bbb     C8   5512 -0.06455200  12.010000   ; qtot 183.908800
 5513         h1    184    bbb    H15   5513 0.13554100   1.008000   ; qtot 184.044341
 5514         h1    184    bbb    H16   5514 0.13554100   1.008000   ; qtot 184.179882
 5515         c3    184    bbb     C9   5515 -0.06455200  12.010000   ; qtot 184.115330
 5516         h1    184    bbb    H17   5516 0.13554100   1.008000   ; qtot 184.250871
 5517         h1    184    bbb    H18   5517 0.13554100   1.008000   ; qtot 184.386412
 5518         os    184    bbb     O1   5518 -0.62587700  16.000000   ; qtot 183.760535
 5519         hn    184    bbb    H19   5519 0.23982500   1.008000   ; qtot 184.000360
; residue  185 bbb rtp bbb q 1.0
 5520         n4    185    bbb     N1   5520 0.03726400  14.010000   ; qtot 184.037624
 5521         c3    185    bbb     C1   5521 -0.07020100  12.010000   ; qtot 183.967423
 5522         hx    185    bbb     H1   5522 0.12219000   1.008000   ; qtot 184.089613
 5523         hx    185    bbb     H2   5523 0.12219000   1.008000   ; qtot 184.211803
 5524         c3    185    bbb     C2   5524 -0.07020100  12.010000   ; qtot 184.141602
 5525         hx    185    bbb     H3   5525 0.12219000   1.008000   ; qtot 184.263792
 5526         hx    185    bbb     H4   5526 0.12219000   1.008000   ; qtot 184.385982
 5527         c3    185    bbb     C3   5527 -0.39007700  12.010000   ; qtot 183.995905
 5528         hx    185    bbb     H5   5528 0.14940300   1.008000   ; qtot 184.145308
 5529         hx    185    bbb     H6   5529 0.14940300   1.008000   ; qtot 184.294711
 5530         c3    185    bbb     C4   5530 0.18057300  12.010000   ; qtot 184.475284
 5531         hc    185    bbb     H7   5531 0.01788900   1.008000   ; qtot 184.493173
 5532         hc    185    bbb     H8   5532 0.01788900   1.008000   ; qtot 184.511062
 5533         c3    185    bbb     C5   5533 -0.11337700  12.010000   ; qtot 184.397685
 5534         hc    185    bbb     H9   5534 0.09515400   1.008000   ; qtot 184.492839
 5535         hc    185    bbb    H10   5535 0.09515400   1.008000   ; qtot 184.587993
 5536         c3    185    bbb     C6   5536 -0.11337700  12.010000   ; qtot 184.474616
 5537         hc    185    bbb    H11   5537 0.09515400   1.008000   ; qtot 184.569770
 5538         hc    185    bbb    H12   5538 0.09515400   1.008000   ; qtot 184.664924
 5539         c3    185    bbb     C7   5539 0.21842400  12.010000   ; qtot 184.883348
 5540         h1    185    bbb    H13   5540 0.04500300   1.008000   ; qtot 184.928351
 5541         h1    185    bbb    H14   5541 0.04500300   1.008000   ; qtot 184.973354
 5542         c3    185    bbb     C8   5542 -0.06455200  12.010000   ; qtot 184.908802
 5543         h1    185    bbb    H15   5543 0.13554100   1.008000   ; qtot 185.044343
 5544         h1    185    bbb    H16   5544 0.13554100   1.008000   ; qtot 185.179884
 5545         c3    185    bbb     C9   5545 -0.06455200  12.010000   ; qtot 185.115332
 5546         h1    185    bbb    H17   5546 0.13554100   1.008000   ; qtot 185.250873
 5547         h1    185    bbb    H18   5547 0.13554100   1.008000   ; qtot 185.386414
 5548         os    185    bbb     O1   5548 -0.62587700  16.000000   ; qtot 184.760537
 5549         hn    185    bbb    H19   5549 0.23982500   1.008000   ; qtot 185.000362
; residue  186 bbb rtp bbb q 1.0
 5550         n4    186    bbb     N1   5550 0.03726400  14.010000   ; qtot 185.037626
 5551         c3    186    bbb     C1   5551 -0.07020100  12.010000   ; qtot 184.967425
 5552         hx    186    bbb     H1   5552 0.12219000   1.008000   ; qtot 185.089615
 5553         hx    186    bbb     H2   5553 0.12219000   1.008000   ; qtot 185.211805
 5554         c3    186    bbb     C2   5554 -0.07020100  12.010000   ; qtot 185.141604
 5555         hx    186    bbb     H3   5555 0.12219000   1.008000   ; qtot 185.263794
 5556         hx    186    bbb     H4   5556 0.12219000   1.008000   ; qtot 185.385984
 5557         c3    186    bbb     C3   5557 -0.39007700  12.010000   ; qtot 184.995907
 5558         hx    186    bbb     H5   5558 0.14940300   1.008000   ; qtot 185.145310
 5559         hx    186    bbb     H6   5559 0.14940300   1.008000   ; qtot 185.294713
 5560         c3    186    bbb     C4   5560 0.18057300  12.010000   ; qtot 185.475286
 5561         hc    186    bbb     H7   5561 0.01788900   1.008000   ; qtot 185.493175
 5562         hc    186    bbb     H8   5562 0.01788900   1.008000   ; qtot 185.511064
 5563         c3    186    bbb     C5   5563 -0.11337700  12.010000   ; qtot 185.397687
 5564         hc    186    bbb     H9   5564 0.09515400   1.008000   ; qtot 185.492841
 5565         hc    186    bbb    H10   5565 0.09515400   1.008000   ; qtot 185.587995
 5566         c3    186    bbb     C6   5566 -0.11337700  12.010000   ; qtot 185.474618
 5567         hc    186    bbb    H11   5567 0.09515400   1.008000   ; qtot 185.569772
 5568         hc    186    bbb    H12   5568 0.09515400   1.008000   ; qtot 185.664926
 5569         c3    186    bbb     C7   5569 0.21842400  12.010000   ; qtot 185.883350
 5570         h1    186    bbb    H13   5570 0.04500300   1.008000   ; qtot 185.928353
 5571         h1    186    bbb    H14   5571 0.04500300   1.008000   ; qtot 185.973356
 5572         c3    186    bbb     C8   5572 -0.06455200  12.010000   ; qtot 185.908804
 5573         h1    186    bbb    H15   5573 0.13554100   1.008000   ; qtot 186.044345
 5574         h1    186    bbb    H16   5574 0.13554100   1.008000   ; qtot 186.179886
 5575         c3    186    bbb     C9   5575 -0.06455200  12.010000   ; qtot 186.115334
 5576         h1    186    bbb    H17   5576 0.13554100   1.008000   ; qtot 186.250875
 5577         h1    186    bbb    H18   5577 0.13554100   1.008000   ; qtot 186.386416
 5578         os    186    bbb     O1   5578 -0.62587700  16.000000   ; qtot 185.760539
 5579         hn    186    bbb    H19   5579 0.23982500   1.008000   ; qtot 186.000364
; residue  187 bbb rtp bbb q 1.0
 5580         n4    187    bbb     N1   5580 0.03726400  14.010000   ; qtot 186.037628
 5581         c3    187    bbb     C1   5581 -0.07020100  12.010000   ; qtot 185.967427
 5582         hx    187    bbb     H1   5582 0.12219000   1.008000   ; qtot 186.089617
 5583         hx    187    bbb     H2   5583 0.12219000   1.008000   ; qtot 186.211807
 5584         c3    187    bbb     C2   5584 -0.07020100  12.010000   ; qtot 186.141606
 5585         hx    187    bbb     H3   5585 0.12219000   1.008000   ; qtot 186.263796
 5586         hx    187    bbb     H4   5586 0.12219000   1.008000   ; qtot 186.385986
 5587         c3    187    bbb     C3   5587 -0.39007700  12.010000   ; qtot 185.995909
 5588         hx    187    bbb     H5   5588 0.14940300   1.008000   ; qtot 186.145312
 5589         hx    187    bbb     H6   5589 0.14940300   1.008000   ; qtot 186.294715
 5590         c3    187    bbb     C4   5590 0.18057300  12.010000   ; qtot 186.475288
 5591         hc    187    bbb     H7   5591 0.01788900   1.008000   ; qtot 186.493177
 5592         hc    187    bbb     H8   5592 0.01788900   1.008000   ; qtot 186.511066
 5593         c3    187    bbb     C5   5593 -0.11337700  12.010000   ; qtot 186.397689
 5594         hc    187    bbb     H9   5594 0.09515400   1.008000   ; qtot 186.492843
 5595         hc    187    bbb    H10   5595 0.09515400   1.008000   ; qtot 186.587997
 5596         c3    187    bbb     C6   5596 -0.11337700  12.010000   ; qtot 186.474620
 5597         hc    187    bbb    H11   5597 0.09515400   1.008000   ; qtot 186.569774
 5598         hc    187    bbb    H12   5598 0.09515400   1.008000   ; qtot 186.664928
 5599         c3    187    bbb     C7   5599 0.21842400  12.010000   ; qtot 186.883352
 5600         h1    187    bbb    H13   5600 0.04500300   1.008000   ; qtot 186.928355
 5601         h1    187    bbb    H14   5601 0.04500300   1.008000   ; qtot 186.973358
 5602         c3    187    bbb     C8   5602 -0.06455200  12.010000   ; qtot 186.908806
 5603         h1    187    bbb    H15   5603 0.13554100   1.008000   ; qtot 187.044347
 5604         h1    187    bbb    H16   5604 0.13554100   1.008000   ; qtot 187.179888
 5605         c3    187    bbb     C9   5605 -0.06455200  12.010000   ; qtot 187.115336
 5606         h1    187    bbb    H17   5606 0.13554100   1.008000   ; qtot 187.250877
 5607         h1    187    bbb    H18   5607 0.13554100   1.008000   ; qtot 187.386418
 5608         os    187    bbb     O1   5608 -0.62587700  16.000000   ; qtot 186.760541
 5609         hn    187    bbb    H19   5609 0.23982500   1.008000   ; qtot 187.000366
; residue  188 bbb rtp bbb q 1.0
 5610         n4    188    bbb     N1   5610 0.03726400  14.010000   ; qtot 187.037630
 5611         c3    188    bbb     C1   5611 -0.07020100  12.010000   ; qtot 186.967429
 5612         hx    188    bbb     H1   5612 0.12219000   1.008000   ; qtot 187.089619
 5613         hx    188    bbb     H2   5613 0.12219000   1.008000   ; qtot 187.211809
 5614         c3    188    bbb     C2   5614 -0.07020100  12.010000   ; qtot 187.141608
 5615         hx    188    bbb     H3   5615 0.12219000   1.008000   ; qtot 187.263798
 5616         hx    188    bbb     H4   5616 0.12219000   1.008000   ; qtot 187.385988
 5617         c3    188    bbb     C3   5617 -0.39007700  12.010000   ; qtot 186.995911
 5618         hx    188    bbb     H5   5618 0.14940300   1.008000   ; qtot 187.145314
 5619         hx    188    bbb     H6   5619 0.14940300   1.008000   ; qtot 187.294717
 5620         c3    188    bbb     C4   5620 0.18057300  12.010000   ; qtot 187.475290
 5621         hc    188    bbb     H7   5621 0.01788900   1.008000   ; qtot 187.493179
 5622         hc    188    bbb     H8   5622 0.01788900   1.008000   ; qtot 187.511068
 5623         c3    188    bbb     C5   5623 -0.11337700  12.010000   ; qtot 187.397691
 5624         hc    188    bbb     H9   5624 0.09515400   1.008000   ; qtot 187.492845
 5625         hc    188    bbb    H10   5625 0.09515400   1.008000   ; qtot 187.587999
 5626         c3    188    bbb     C6   5626 -0.11337700  12.010000   ; qtot 187.474622
 5627         hc    188    bbb    H11   5627 0.09515400   1.008000   ; qtot 187.569776
 5628         hc    188    bbb    H12   5628 0.09515400   1.008000   ; qtot 187.664930
 5629         c3    188    bbb     C7   5629 0.21842400  12.010000   ; qtot 187.883354
 5630         h1    188    bbb    H13   5630 0.04500300   1.008000   ; qtot 187.928357
 5631         h1    188    bbb    H14   5631 0.04500300   1.008000   ; qtot 187.973360
 5632         c3    188    bbb     C8   5632 -0.06455200  12.010000   ; qtot 187.908808
 5633         h1    188    bbb    H15   5633 0.13554100   1.008000   ; qtot 188.044349
 5634         h1    188    bbb    H16   5634 0.13554100   1.008000   ; qtot 188.179890
 5635         c3    188    bbb     C9   5635 -0.06455200  12.010000   ; qtot 188.115338
 5636         h1    188    bbb    H17   5636 0.13554100   1.008000   ; qtot 188.250879
 5637         h1    188    bbb    H18   5637 0.13554100   1.008000   ; qtot 188.386420
 5638         os    188    bbb     O1   5638 -0.62587700  16.000000   ; qtot 187.760543
 5639         hn    188    bbb    H19   5639 0.23982500   1.008000   ; qtot 188.000368
; residue  189 bbb rtp bbb q 1.0
 5640         n4    189    bbb     N1   5640 0.03726400  14.010000   ; qtot 188.037632
 5641         c3    189    bbb     C1   5641 -0.07020100  12.010000   ; qtot 187.967431
 5642         hx    189    bbb     H1   5642 0.12219000   1.008000   ; qtot 188.089621
 5643         hx    189    bbb     H2   5643 0.12219000   1.008000   ; qtot 188.211811
 5644         c3    189    bbb     C2   5644 -0.07020100  12.010000   ; qtot 188.141610
 5645         hx    189    bbb     H3   5645 0.12219000   1.008000   ; qtot 188.263800
 5646         hx    189    bbb     H4   5646 0.12219000   1.008000   ; qtot 188.385990
 5647         c3    189    bbb     C3   5647 -0.39007700  12.010000   ; qtot 187.995913
 5648         hx    189    bbb     H5   5648 0.14940300   1.008000   ; qtot 188.145316
 5649         hx    189    bbb     H6   5649 0.14940300   1.008000   ; qtot 188.294719
 5650         c3    189    bbb     C4   5650 0.18057300  12.010000   ; qtot 188.475292
 5651         hc    189    bbb     H7   5651 0.01788900   1.008000   ; qtot 188.493181
 5652         hc    189    bbb     H8   5652 0.01788900   1.008000   ; qtot 188.511070
 5653         c3    189    bbb     C5   5653 -0.11337700  12.010000   ; qtot 188.397693
 5654         hc    189    bbb     H9   5654 0.09515400   1.008000   ; qtot 188.492847
 5655         hc    189    bbb    H10   5655 0.09515400   1.008000   ; qtot 188.588001
 5656         c3    189    bbb     C6   5656 -0.11337700  12.010000   ; qtot 188.474624
 5657         hc    189    bbb    H11   5657 0.09515400   1.008000   ; qtot 188.569778
 5658         hc    189    bbb    H12   5658 0.09515400   1.008000   ; qtot 188.664932
 5659         c3    189    bbb     C7   5659 0.21842400  12.010000   ; qtot 188.883356
 5660         h1    189    bbb    H13   5660 0.04500300   1.008000   ; qtot 188.928359
 5661         h1    189    bbb    H14   5661 0.04500300   1.008000   ; qtot 188.973362
 5662         c3    189    bbb     C8   5662 -0.06455200  12.010000   ; qtot 188.908810
 5663         h1    189    bbb    H15   5663 0.13554100   1.008000   ; qtot 189.044351
 5664         h1    189    bbb    H16   5664 0.13554100   1.008000   ; qtot 189.179892
 5665         c3    189    bbb     C9   5665 -0.06455200  12.010000   ; qtot 189.115340
 5666         h1    189    bbb    H17   5666 0.13554100   1.008000   ; qtot 189.250881
 5667         h1    189    bbb    H18   5667 0.13554100   1.008000   ; qtot 189.386422
 5668         os    189    bbb     O1   5668 -0.62587700  16.000000   ; qtot 188.760545
 5669         hn    189    bbb    H19   5669 0.23982500   1.008000   ; qtot 189.000370
; residue  190 bbb rtp bbb q 1.0
 5670         n4    190    bbb     N1   5670 0.03726400  14.010000   ; qtot 189.037634
 5671         c3    190    bbb     C1   5671 -0.07020100  12.010000   ; qtot 188.967433
 5672         hx    190    bbb     H1   5672 0.12219000   1.008000   ; qtot 189.089623
 5673         hx    190    bbb     H2   5673 0.12219000   1.008000   ; qtot 189.211813
 5674         c3    190    bbb     C2   5674 -0.07020100  12.010000   ; qtot 189.141612
 5675         hx    190    bbb     H3   5675 0.12219000   1.008000   ; qtot 189.263802
 5676         hx    190    bbb     H4   5676 0.12219000   1.008000   ; qtot 189.385992
 5677         c3    190    bbb     C3   5677 -0.39007700  12.010000   ; qtot 188.995915
 5678         hx    190    bbb     H5   5678 0.14940300   1.008000   ; qtot 189.145318
 5679         hx    190    bbb     H6   5679 0.14940300   1.008000   ; qtot 189.294721
 5680         c3    190    bbb     C4   5680 0.18057300  12.010000   ; qtot 189.475294
 5681         hc    190    bbb     H7   5681 0.01788900   1.008000   ; qtot 189.493183
 5682         hc    190    bbb     H8   5682 0.01788900   1.008000   ; qtot 189.511072
 5683         c3    190    bbb     C5   5683 -0.11337700  12.010000   ; qtot 189.397695
 5684         hc    190    bbb     H9   5684 0.09515400   1.008000   ; qtot 189.492849
 5685         hc    190    bbb    H10   5685 0.09515400   1.008000   ; qtot 189.588003
 5686         c3    190    bbb     C6   5686 -0.11337700  12.010000   ; qtot 189.474626
 5687         hc    190    bbb    H11   5687 0.09515400   1.008000   ; qtot 189.569780
 5688         hc    190    bbb    H12   5688 0.09515400   1.008000   ; qtot 189.664934
 5689         c3    190    bbb     C7   5689 0.21842400  12.010000   ; qtot 189.883358
 5690         h1    190    bbb    H13   5690 0.04500300   1.008000   ; qtot 189.928361
 5691         h1    190    bbb    H14   5691 0.04500300   1.008000   ; qtot 189.973364
 5692         c3    190    bbb     C8   5692 -0.06455200  12.010000   ; qtot 189.908812
 5693         h1    190    bbb    H15   5693 0.13554100   1.008000   ; qtot 190.044353
 5694         h1    190    bbb    H16   5694 0.13554100   1.008000   ; qtot 190.179894
 5695         c3    190    bbb     C9   5695 -0.06455200  12.010000   ; qtot 190.115342
 5696         h1    190    bbb    H17   5696 0.13554100   1.008000   ; qtot 190.250883
 5697         h1    190    bbb    H18   5697 0.13554100   1.008000   ; qtot 190.386424
 5698         os    190    bbb     O1   5698 -0.62587700  16.000000   ; qtot 189.760547
 5699         hn    190    bbb    H19   5699 0.23982500   1.008000   ; qtot 190.000372
; residue  191 bbb rtp bbb q 1.0
 5700         n4    191    bbb     N1   5700 0.03726400  14.010000   ; qtot 190.037636
 5701         c3    191    bbb     C1   5701 -0.07020100  12.010000   ; qtot 189.967435
 5702         hx    191    bbb     H1   5702 0.12219000   1.008000   ; qtot 190.089625
 5703         hx    191    bbb     H2   5703 0.12219000   1.008000   ; qtot 190.211815
 5704         c3    191    bbb     C2   5704 -0.07020100  12.010000   ; qtot 190.141614
 5705         hx    191    bbb     H3   5705 0.12219000   1.008000   ; qtot 190.263804
 5706         hx    191    bbb     H4   5706 0.12219000   1.008000   ; qtot 190.385994
 5707         c3    191    bbb     C3   5707 -0.39007700  12.010000   ; qtot 189.995917
 5708         hx    191    bbb     H5   5708 0.14940300   1.008000   ; qtot 190.145320
 5709         hx    191    bbb     H6   5709 0.14940300   1.008000   ; qtot 190.294723
 5710         c3    191    bbb     C4   5710 0.18057300  12.010000   ; qtot 190.475296
 5711         hc    191    bbb     H7   5711 0.01788900   1.008000   ; qtot 190.493185
 5712         hc    191    bbb     H8   5712 0.01788900   1.008000   ; qtot 190.511074
 5713         c3    191    bbb     C5   5713 -0.11337700  12.010000   ; qtot 190.397697
 5714         hc    191    bbb     H9   5714 0.09515400   1.008000   ; qtot 190.492851
 5715         hc    191    bbb    H10   5715 0.09515400   1.008000   ; qtot 190.588005
 5716         c3    191    bbb     C6   5716 -0.11337700  12.010000   ; qtot 190.474628
 5717         hc    191    bbb    H11   5717 0.09515400   1.008000   ; qtot 190.569782
 5718         hc    191    bbb    H12   5718 0.09515400   1.008000   ; qtot 190.664936
 5719         c3    191    bbb     C7   5719 0.21842400  12.010000   ; qtot 190.883360
 5720         h1    191    bbb    H13   5720 0.04500300   1.008000   ; qtot 190.928363
 5721         h1    191    bbb    H14   5721 0.04500300   1.008000   ; qtot 190.973366
 5722         c3    191    bbb     C8   5722 -0.06455200  12.010000   ; qtot 190.908814
 5723         h1    191    bbb    H15   5723 0.13554100   1.008000   ; qtot 191.044355
 5724         h1    191    bbb    H16   5724 0.13554100   1.008000   ; qtot 191.179896
 5725         c3    191    bbb     C9   5725 -0.06455200  12.010000   ; qtot 191.115344
 5726         h1    191    bbb    H17   5726 0.13554100   1.008000   ; qtot 191.250885
 5727         h1    191    bbb    H18   5727 0.13554100   1.008000   ; qtot 191.386426
 5728         os    191    bbb     O1   5728 -0.62587700  16.000000   ; qtot 190.760549
 5729         hn    191    bbb    H19   5729 0.23982500   1.008000   ; qtot 191.000374
; residue  192 bbb rtp bbb q 1.0
 5730         n4    192    bbb     N1   5730 0.03726400  14.010000   ; qtot 191.037638
 5731         c3    192    bbb     C1   5731 -0.07020100  12.010000   ; qtot 190.967437
 5732         hx    192    bbb     H1   5732 0.12219000   1.008000   ; qtot 191.089627
 5733         hx    192    bbb     H2   5733 0.12219000   1.008000   ; qtot 191.211817
 5734         c3    192    bbb     C2   5734 -0.07020100  12.010000   ; qtot 191.141616
 5735         hx    192    bbb     H3   5735 0.12219000   1.008000   ; qtot 191.263806
 5736         hx    192    bbb     H4   5736 0.12219000   1.008000   ; qtot 191.385996
 5737         c3    192    bbb     C3   5737 -0.39007700  12.010000   ; qtot 190.995919
 5738         hx    192    bbb     H5   5738 0.14940300   1.008000   ; qtot 191.145322
 5739         hx    192    bbb     H6   5739 0.14940300   1.008000   ; qtot 191.294725
 5740         c3    192    bbb     C4   5740 0.18057300  12.010000   ; qtot 191.475298
 5741         hc    192    bbb     H7   5741 0.01788900   1.008000   ; qtot 191.493187
 5742         hc    192    bbb     H8   5742 0.01788900   1.008000   ; qtot 191.511076
 5743         c3    192    bbb     C5   5743 -0.11337700  12.010000   ; qtot 191.397699
 5744         hc    192    bbb     H9   5744 0.09515400   1.008000   ; qtot 191.492853
 5745         hc    192    bbb    H10   5745 0.09515400   1.008000   ; qtot 191.588007
 5746         c3    192    bbb     C6   5746 -0.11337700  12.010000   ; qtot 191.474630
 5747         hc    192    bbb    H11   5747 0.09515400   1.008000   ; qtot 191.569784
 5748         hc    192    bbb    H12   5748 0.09515400   1.008000   ; qtot 191.664938
 5749         c3    192    bbb     C7   5749 0.21842400  12.010000   ; qtot 191.883362
 5750         h1    192    bbb    H13   5750 0.04500300   1.008000   ; qtot 191.928365
 5751         h1    192    bbb    H14   5751 0.04500300   1.008000   ; qtot 191.973368
 5752         c3    192    bbb     C8   5752 -0.06455200  12.010000   ; qtot 191.908816
 5753         h1    192    bbb    H15   5753 0.13554100   1.008000   ; qtot 192.044357
 5754         h1    192    bbb    H16   5754 0.13554100   1.008000   ; qtot 192.179898
 5755         c3    192    bbb     C9   5755 -0.06455200  12.010000   ; qtot 192.115346
 5756         h1    192    bbb    H17   5756 0.13554100   1.008000   ; qtot 192.250887
 5757         h1    192    bbb    H18   5757 0.13554100   1.008000   ; qtot 192.386428
 5758         os    192    bbb     O1   5758 -0.62587700  16.000000   ; qtot 191.760551
 5759         hn    192    bbb    H19   5759 0.23982500   1.008000   ; qtot 192.000376
; residue  193 bbb rtp bbb q 1.0
 5760         n4    193    bbb     N1   5760 0.03726400  14.010000   ; qtot 192.037640
 5761         c3    193    bbb     C1   5761 -0.07020100  12.010000   ; qtot 191.967439
 5762         hx    193    bbb     H1   5762 0.12219000   1.008000   ; qtot 192.089629
 5763         hx    193    bbb     H2   5763 0.12219000   1.008000   ; qtot 192.211819
 5764         c3    193    bbb     C2   5764 -0.07020100  12.010000   ; qtot 192.141618
 5765         hx    193    bbb     H3   5765 0.12219000   1.008000   ; qtot 192.263808
 5766         hx    193    bbb     H4   5766 0.12219000   1.008000   ; qtot 192.385998
 5767         c3    193    bbb     C3   5767 -0.39007700  12.010000   ; qtot 191.995921
 5768         hx    193    bbb     H5   5768 0.14940300   1.008000   ; qtot 192.145324
 5769         hx    193    bbb     H6   5769 0.14940300   1.008000   ; qtot 192.294727
 5770         c3    193    bbb     C4   5770 0.18057300  12.010000   ; qtot 192.475300
 5771         hc    193    bbb     H7   5771 0.01788900   1.008000   ; qtot 192.493189
 5772         hc    193    bbb     H8   5772 0.01788900   1.008000   ; qtot 192.511078
 5773         c3    193    bbb     C5   5773 -0.11337700  12.010000   ; qtot 192.397701
 5774         hc    193    bbb     H9   5774 0.09515400   1.008000   ; qtot 192.492855
 5775         hc    193    bbb    H10   5775 0.09515400   1.008000   ; qtot 192.588009
 5776         c3    193    bbb     C6   5776 -0.11337700  12.010000   ; qtot 192.474632
 5777         hc    193    bbb    H11   5777 0.09515400   1.008000   ; qtot 192.569786
 5778         hc    193    bbb    H12   5778 0.09515400   1.008000   ; qtot 192.664940
 5779         c3    193    bbb     C7   5779 0.21842400  12.010000   ; qtot 192.883364
 5780         h1    193    bbb    H13   5780 0.04500300   1.008000   ; qtot 192.928367
 5781         h1    193    bbb    H14   5781 0.04500300   1.008000   ; qtot 192.973370
 5782         c3    193    bbb     C8   5782 -0.06455200  12.010000   ; qtot 192.908818
 5783         h1    193    bbb    H15   5783 0.13554100   1.008000   ; qtot 193.044359
 5784         h1    193    bbb    H16   5784 0.13554100   1.008000   ; qtot 193.179900
 5785         c3    193    bbb     C9   5785 -0.06455200  12.010000   ; qtot 193.115348
 5786         h1    193    bbb    H17   5786 0.13554100   1.008000   ; qtot 193.250889
 5787         h1    193    bbb    H18   5787 0.13554100   1.008000   ; qtot 193.386430
 5788         os    193    bbb     O1   5788 -0.62587700  16.000000   ; qtot 192.760553
 5789         hn    193    bbb    H19   5789 0.23982500   1.008000   ; qtot 193.000378
; residue  194 bbb rtp bbb q 1.0
 5790         n4    194    bbb     N1   5790 0.03726400  14.010000   ; qtot 193.037642
 5791         c3    194    bbb     C1   5791 -0.07020100  12.010000   ; qtot 192.967441
 5792         hx    194    bbb     H1   5792 0.12219000   1.008000   ; qtot 193.089631
 5793         hx    194    bbb     H2   5793 0.12219000   1.008000   ; qtot 193.211821
 5794         c3    194    bbb     C2   5794 -0.07020100  12.010000   ; qtot 193.141620
 5795         hx    194    bbb     H3   5795 0.12219000   1.008000   ; qtot 193.263810
 5796         hx    194    bbb     H4   5796 0.12219000   1.008000   ; qtot 193.386000
 5797         c3    194    bbb     C3   5797 -0.39007700  12.010000   ; qtot 192.995923
 5798         hx    194    bbb     H5   5798 0.14940300   1.008000   ; qtot 193.145326
 5799         hx    194    bbb     H6   5799 0.14940300   1.008000   ; qtot 193.294729
 5800         c3    194    bbb     C4   5800 0.18057300  12.010000   ; qtot 193.475302
 5801         hc    194    bbb     H7   5801 0.01788900   1.008000   ; qtot 193.493191
 5802         hc    194    bbb     H8   5802 0.01788900   1.008000   ; qtot 193.511080
 5803         c3    194    bbb     C5   5803 -0.11337700  12.010000   ; qtot 193.397703
 5804         hc    194    bbb     H9   5804 0.09515400   1.008000   ; qtot 193.492857
 5805         hc    194    bbb    H10   5805 0.09515400   1.008000   ; qtot 193.588011
 5806         c3    194    bbb     C6   5806 -0.11337700  12.010000   ; qtot 193.474634
 5807         hc    194    bbb    H11   5807 0.09515400   1.008000   ; qtot 193.569788
 5808         hc    194    bbb    H12   5808 0.09515400   1.008000   ; qtot 193.664942
 5809         c3    194    bbb     C7   5809 0.21842400  12.010000   ; qtot 193.883366
 5810         h1    194    bbb    H13   5810 0.04500300   1.008000   ; qtot 193.928369
 5811         h1    194    bbb    H14   5811 0.04500300   1.008000   ; qtot 193.973372
 5812         c3    194    bbb     C8   5812 -0.06455200  12.010000   ; qtot 193.908820
 5813         h1    194    bbb    H15   5813 0.13554100   1.008000   ; qtot 194.044361
 5814         h1    194    bbb    H16   5814 0.13554100   1.008000   ; qtot 194.179902
 5815         c3    194    bbb     C9   5815 -0.06455200  12.010000   ; qtot 194.115350
 5816         h1    194    bbb    H17   5816 0.13554100   1.008000   ; qtot 194.250891
 5817         h1    194    bbb    H18   5817 0.13554100   1.008000   ; qtot 194.386432
 5818         os    194    bbb     O1   5818 -0.62587700  16.000000   ; qtot 193.760555
 5819         hn    194    bbb    H19   5819 0.23982500   1.008000   ; qtot 194.000380
; residue  195 bbb rtp bbb q 1.0
 5820         n4    195    bbb     N1   5820 0.03726400  14.010000   ; qtot 194.037644
 5821         c3    195    bbb     C1   5821 -0.07020100  12.010000   ; qtot 193.967443
 5822         hx    195    bbb     H1   5822 0.12219000   1.008000   ; qtot 194.089633
 5823         hx    195    bbb     H2   5823 0.12219000   1.008000   ; qtot 194.211823
 5824         c3    195    bbb     C2   5824 -0.07020100  12.010000   ; qtot 194.141622
 5825         hx    195    bbb     H3   5825 0.12219000   1.008000   ; qtot 194.263812
 5826         hx    195    bbb     H4   5826 0.12219000   1.008000   ; qtot 194.386002
 5827         c3    195    bbb     C3   5827 -0.39007700  12.010000   ; qtot 193.995925
 5828         hx    195    bbb     H5   5828 0.14940300   1.008000   ; qtot 194.145328
 5829         hx    195    bbb     H6   5829 0.14940300   1.008000   ; qtot 194.294731
 5830         c3    195    bbb     C4   5830 0.18057300  12.010000   ; qtot 194.475304
 5831         hc    195    bbb     H7   5831 0.01788900   1.008000   ; qtot 194.493193
 5832         hc    195    bbb     H8   5832 0.01788900   1.008000   ; qtot 194.511082
 5833         c3    195    bbb     C5   5833 -0.11337700  12.010000   ; qtot 194.397705
 5834         hc    195    bbb     H9   5834 0.09515400   1.008000   ; qtot 194.492859
 5835         hc    195    bbb    H10   5835 0.09515400   1.008000   ; qtot 194.588013
 5836         c3    195    bbb     C6   5836 -0.11337700  12.010000   ; qtot 194.474636
 5837         hc    195    bbb    H11   5837 0.09515400   1.008000   ; qtot 194.569790
 5838         hc    195    bbb    H12   5838 0.09515400   1.008000   ; qtot 194.664944
 5839         c3    195    bbb     C7   5839 0.21842400  12.010000   ; qtot 194.883368
 5840         h1    195    bbb    H13   5840 0.04500300   1.008000   ; qtot 194.928371
 5841         h1    195    bbb    H14   5841 0.04500300   1.008000   ; qtot 194.973374
 5842         c3    195    bbb     C8   5842 -0.06455200  12.010000   ; qtot 194.908822
 5843         h1    195    bbb    H15   5843 0.13554100   1.008000   ; qtot 195.044363
 5844         h1    195    bbb    H16   5844 0.13554100   1.008000   ; qtot 195.179904
 5845         c3    195    bbb     C9   5845 -0.06455200  12.010000   ; qtot 195.115352
 5846         h1    195    bbb    H17   5846 0.13554100   1.008000   ; qtot 195.250893
 5847         h1    195    bbb    H18   5847 0.13554100   1.008000   ; qtot 195.386434
 5848         os    195    bbb     O1   5848 -0.62587700  16.000000   ; qtot 194.760557
 5849         hn    195    bbb    H19   5849 0.23982500   1.008000   ; qtot 195.000382
; residue  196 bbb rtp bbb q 1.0
 5850         n4    196    bbb     N1   5850 0.03726400  14.010000   ; qtot 195.037646
 5851         c3    196    bbb     C1   5851 -0.07020100  12.010000   ; qtot 194.967445
 5852         hx    196    bbb     H1   5852 0.12219000   1.008000   ; qtot 195.089635
 5853         hx    196    bbb     H2   5853 0.12219000   1.008000   ; qtot 195.211825
 5854         c3    196    bbb     C2   5854 -0.07020100  12.010000   ; qtot 195.141624
 5855         hx    196    bbb     H3   5855 0.12219000   1.008000   ; qtot 195.263814
 5856         hx    196    bbb     H4   5856 0.12219000   1.008000   ; qtot 195.386004
 5857         c3    196    bbb     C3   5857 -0.39007700  12.010000   ; qtot 194.995927
 5858         hx    196    bbb     H5   5858 0.14940300   1.008000   ; qtot 195.145330
 5859         hx    196    bbb     H6   5859 0.14940300   1.008000   ; qtot 195.294733
 5860         c3    196    bbb     C4   5860 0.18057300  12.010000   ; qtot 195.475306
 5861         hc    196    bbb     H7   5861 0.01788900   1.008000   ; qtot 195.493195
 5862         hc    196    bbb     H8   5862 0.01788900   1.008000   ; qtot 195.511084
 5863         c3    196    bbb     C5   5863 -0.11337700  12.010000   ; qtot 195.397707
 5864         hc    196    bbb     H9   5864 0.09515400   1.008000   ; qtot 195.492861
 5865         hc    196    bbb    H10   5865 0.09515400   1.008000   ; qtot 195.588015
 5866         c3    196    bbb     C6   5866 -0.11337700  12.010000   ; qtot 195.474638
 5867         hc    196    bbb    H11   5867 0.09515400   1.008000   ; qtot 195.569792
 5868         hc    196    bbb    H12   5868 0.09515400   1.008000   ; qtot 195.664946
 5869         c3    196    bbb     C7   5869 0.21842400  12.010000   ; qtot 195.883370
 5870         h1    196    bbb    H13   5870 0.04500300   1.008000   ; qtot 195.928373
 5871         h1    196    bbb    H14   5871 0.04500300   1.008000   ; qtot 195.973376
 5872         c3    196    bbb     C8   5872 -0.06455200  12.010000   ; qtot 195.908824
 5873         h1    196    bbb    H15   5873 0.13554100   1.008000   ; qtot 196.044365
 5874         h1    196    bbb    H16   5874 0.13554100   1.008000   ; qtot 196.179906
 5875         c3    196    bbb     C9   5875 -0.06455200  12.010000   ; qtot 196.115354
 5876         h1    196    bbb    H17   5876 0.13554100   1.008000   ; qtot 196.250895
 5877         h1    196    bbb    H18   5877 0.13554100   1.008000   ; qtot 196.386436
 5878         os    196    bbb     O1   5878 -0.62587700  16.000000   ; qtot 195.760559
 5879         hn    196    bbb    H19   5879 0.23982500   1.008000   ; qtot 196.000384
; residue  197 bbb rtp bbb q 1.0
 5880         n4    197    bbb     N1   5880 0.03726400  14.010000   ; qtot 196.037648
 5881         c3    197    bbb     C1   5881 -0.07020100  12.010000   ; qtot 195.967447
 5882         hx    197    bbb     H1   5882 0.12219000   1.008000   ; qtot 196.089637
 5883         hx    197    bbb     H2   5883 0.12219000   1.008000   ; qtot 196.211827
 5884         c3    197    bbb     C2   5884 -0.07020100  12.010000   ; qtot 196.141626
 5885         hx    197    bbb     H3   5885 0.12219000   1.008000   ; qtot 196.263816
 5886         hx    197    bbb     H4   5886 0.12219000   1.008000   ; qtot 196.386006
 5887         c3    197    bbb     C3   5887 -0.39007700  12.010000   ; qtot 195.995929
 5888         hx    197    bbb     H5   5888 0.14940300   1.008000   ; qtot 196.145332
 5889         hx    197    bbb     H6   5889 0.14940300   1.008000   ; qtot 196.294735
 5890         c3    197    bbb     C4   5890 0.18057300  12.010000   ; qtot 196.475308
 5891         hc    197    bbb     H7   5891 0.01788900   1.008000   ; qtot 196.493197
 5892         hc    197    bbb     H8   5892 0.01788900   1.008000   ; qtot 196.511086
 5893         c3    197    bbb     C5   5893 -0.11337700  12.010000   ; qtot 196.397709
 5894         hc    197    bbb     H9   5894 0.09515400   1.008000   ; qtot 196.492863
 5895         hc    197    bbb    H10   5895 0.09515400   1.008000   ; qtot 196.588017
 5896         c3    197    bbb     C6   5896 -0.11337700  12.010000   ; qtot 196.474640
 5897         hc    197    bbb    H11   5897 0.09515400   1.008000   ; qtot 196.569794
 5898         hc    197    bbb    H12   5898 0.09515400   1.008000   ; qtot 196.664948
 5899         c3    197    bbb     C7   5899 0.21842400  12.010000   ; qtot 196.883372
 5900         h1    197    bbb    H13   5900 0.04500300   1.008000   ; qtot 196.928375
 5901         h1    197    bbb    H14   5901 0.04500300   1.008000   ; qtot 196.973378
 5902         c3    197    bbb     C8   5902 -0.06455200  12.010000   ; qtot 196.908826
 5903         h1    197    bbb    H15   5903 0.13554100   1.008000   ; qtot 197.044367
 5904         h1    197    bbb    H16   5904 0.13554100   1.008000   ; qtot 197.179908
 5905         c3    197    bbb     C9   5905 -0.06455200  12.010000   ; qtot 197.115356
 5906         h1    197    bbb    H17   5906 0.13554100   1.008000   ; qtot 197.250897
 5907         h1    197    bbb    H18   5907 0.13554100   1.008000   ; qtot 197.386438
 5908         os    197    bbb     O1   5908 -0.62587700  16.000000   ; qtot 196.760561
 5909         hn    197    bbb    H19   5909 0.23982500   1.008000   ; qtot 197.000386
; residue  198 bbb rtp bbb q 1.0
 5910         n4    198    bbb     N1   5910 0.03726400  14.010000   ; qtot 197.037650
 5911         c3    198    bbb     C1   5911 -0.07020100  12.010000   ; qtot 196.967449
 5912         hx    198    bbb     H1   5912 0.12219000   1.008000   ; qtot 197.089639
 5913         hx    198    bbb     H2   5913 0.12219000   1.008000   ; qtot 197.211829
 5914         c3    198    bbb     C2   5914 -0.07020100  12.010000   ; qtot 197.141628
 5915         hx    198    bbb     H3   5915 0.12219000   1.008000   ; qtot 197.263818
 5916         hx    198    bbb     H4   5916 0.12219000   1.008000   ; qtot 197.386008
 5917         c3    198    bbb     C3   5917 -0.39007700  12.010000   ; qtot 196.995931
 5918         hx    198    bbb     H5   5918 0.14940300   1.008000   ; qtot 197.145334
 5919         hx    198    bbb     H6   5919 0.14940300   1.008000   ; qtot 197.294737
 5920         c3    198    bbb     C4   5920 0.18057300  12.010000   ; qtot 197.475310
 5921         hc    198    bbb     H7   5921 0.01788900   1.008000   ; qtot 197.493199
 5922         hc    198    bbb     H8   5922 0.01788900   1.008000   ; qtot 197.511088
 5923         c3    198    bbb     C5   5923 -0.11337700  12.010000   ; qtot 197.397711
 5924         hc    198    bbb     H9   5924 0.09515400   1.008000   ; qtot 197.492865
 5925         hc    198    bbb    H10   5925 0.09515400   1.008000   ; qtot 197.588019
 5926         c3    198    bbb     C6   5926 -0.11337700  12.010000   ; qtot 197.474642
 5927         hc    198    bbb    H11   5927 0.09515400   1.008000   ; qtot 197.569796
 5928         hc    198    bbb    H12   5928 0.09515400   1.008000   ; qtot 197.664950
 5929         c3    198    bbb     C7   5929 0.21842400  12.010000   ; qtot 197.883374
 5930         h1    198    bbb    H13   5930 0.04500300   1.008000   ; qtot 197.928377
 5931         h1    198    bbb    H14   5931 0.04500300   1.008000   ; qtot 197.973380
 5932         c3    198    bbb     C8   5932 -0.06455200  12.010000   ; qtot 197.908828
 5933         h1    198    bbb    H15   5933 0.13554100   1.008000   ; qtot 198.044369
 5934         h1    198    bbb    H16   5934 0.13554100   1.008000   ; qtot 198.179910
 5935         c3    198    bbb     C9   5935 -0.06455200  12.010000   ; qtot 198.115358
 5936         h1    198    bbb    H17   5936 0.13554100   1.008000   ; qtot 198.250899
 5937         h1    198    bbb    H18   5937 0.13554100   1.008000   ; qtot 198.386440
 5938         os    198    bbb     O1   5938 -0.62587700  16.000000   ; qtot 197.760563
 5939         hn    198    bbb    H19   5939 0.23982500   1.008000   ; qtot 198.000388
; residue  199 bbb rtp bbb q 1.0
 5940         n4    199    bbb     N1   5940 0.03726400  14.010000   ; qtot 198.037652
 5941         c3    199    bbb     C1   5941 -0.07020100  12.010000   ; qtot 197.967451
 5942         hx    199    bbb     H1   5942 0.12219000   1.008000   ; qtot 198.089641
 5943         hx    199    bbb     H2   5943 0.12219000   1.008000   ; qtot 198.211831
 5944         c3    199    bbb     C2   5944 -0.07020100  12.010000   ; qtot 198.141630
 5945         hx    199    bbb     H3   5945 0.12219000   1.008000   ; qtot 198.263820
 5946         hx    199    bbb     H4   5946 0.12219000   1.008000   ; qtot 198.386010
 5947         c3    199    bbb     C3   5947 -0.39007700  12.010000   ; qtot 197.995933
 5948         hx    199    bbb     H5   5948 0.14940300   1.008000   ; qtot 198.145336
 5949         hx    199    bbb     H6   5949 0.14940300   1.008000   ; qtot 198.294739
 5950         c3    199    bbb     C4   5950 0.18057300  12.010000   ; qtot 198.475312
 5951         hc    199    bbb     H7   5951 0.01788900   1.008000   ; qtot 198.493201
 5952         hc    199    bbb     H8   5952 0.01788900   1.008000   ; qtot 198.511090
 5953         c3    199    bbb     C5   5953 -0.11337700  12.010000   ; qtot 198.397713
 5954         hc    199    bbb     H9   5954 0.09515400   1.008000   ; qtot 198.492867
 5955         hc    199    bbb    H10   5955 0.09515400   1.008000   ; qtot 198.588021
 5956         c3    199    bbb     C6   5956 -0.11337700  12.010000   ; qtot 198.474644
 5957         hc    199    bbb    H11   5957 0.09515400   1.008000   ; qtot 198.569798
 5958         hc    199    bbb    H12   5958 0.09515400   1.008000   ; qtot 198.664952
 5959         c3    199    bbb     C7   5959 0.21842400  12.010000   ; qtot 198.883376
 5960         h1    199    bbb    H13   5960 0.04500300   1.008000   ; qtot 198.928379
 5961         h1    199    bbb    H14   5961 0.04500300   1.008000   ; qtot 198.973382
 5962         c3    199    bbb     C8   5962 -0.06455200  12.010000   ; qtot 198.908830
 5963         h1    199    bbb    H15   5963 0.13554100   1.008000   ; qtot 199.044371
 5964         h1    199    bbb    H16   5964 0.13554100   1.008000   ; qtot 199.179912
 5965         c3    199    bbb     C9   5965 -0.06455200  12.010000   ; qtot 199.115360
 5966         h1    199    bbb    H17   5966 0.13554100   1.008000   ; qtot 199.250901
 5967         h1    199    bbb    H18   5967 0.13554100   1.008000   ; qtot 199.386442
 5968         os    199    bbb     O1   5968 -0.62587700  16.000000   ; qtot 198.760565
 5969         hn    199    bbb    H19   5969 0.23982500   1.008000   ; qtot 199.000390
; residue  200 bbb rtp bbb q 1.0
 5970         n4    200    bbb     N1   5970 0.03726400  14.010000   ; qtot 199.037654
 5971         c3    200    bbb     C1   5971 -0.07020100  12.010000   ; qtot 198.967453
 5972         hx    200    bbb     H1   5972 0.12219000   1.008000   ; qtot 199.089643
 5973         hx    200    bbb     H2   5973 0.12219000   1.008000   ; qtot 199.211833
 5974         c3    200    bbb     C2   5974 -0.07020100  12.010000   ; qtot 199.141632
 5975         hx    200    bbb     H3   5975 0.12219000   1.008000   ; qtot 199.263822
 5976         hx    200    bbb     H4   5976 0.12219000   1.008000   ; qtot 199.386012
 5977         c3    200    bbb     C3   5977 -0.39007700  12.010000   ; qtot 198.995935
 5978         hx    200    bbb     H5   5978 0.14940300   1.008000   ; qtot 199.145338
 5979         hx    200    bbb     H6   5979 0.14940300   1.008000   ; qtot 199.294741
 5980         c3    200    bbb     C4   5980 0.18057300  12.010000   ; qtot 199.475314
 5981         hc    200    bbb     H7   5981 0.01788900   1.008000   ; qtot 199.493203
 5982         hc    200    bbb     H8   5982 0.01788900   1.008000   ; qtot 199.511092
 5983         c3    200    bbb     C5   5983 -0.11337700  12.010000   ; qtot 199.397715
 5984         hc    200    bbb     H9   5984 0.09515400   1.008000   ; qtot 199.492869
 5985         hc    200    bbb    H10   5985 0.09515400   1.008000   ; qtot 199.588023
 5986         c3    200    bbb     C6   5986 -0.11337700  12.010000   ; qtot 199.474646
 5987         hc    200    bbb    H11   5987 0.09515400   1.008000   ; qtot 199.569800
 5988         hc    200    bbb    H12   5988 0.09515400   1.008000   ; qtot 199.664954
 5989         c3    200    bbb     C7   5989 0.21842400  12.010000   ; qtot 199.883378
 5990         h1    200    bbb    H13   5990 0.04500300   1.008000   ; qtot 199.928381
 5991         h1    200    bbb    H14   5991 0.04500300   1.008000   ; qtot 199.973384
 5992         c3    200    bbb     C8   5992 -0.06455200  12.010000   ; qtot 199.908832
 5993         h1    200    bbb    H15   5993 0.13554100   1.008000   ; qtot 200.044373
 5994         h1    200    bbb    H16   5994 0.13554100   1.008000   ; qtot 200.179914
 5995         c3    200    bbb     C9   5995 -0.06455200  12.010000   ; qtot 200.115362
 5996         h1    200    bbb    H17   5996 0.13554100   1.008000   ; qtot 200.250903
 5997         h1    200    bbb    H18   5997 0.13554100   1.008000   ; qtot 200.386444
 5998         os    200    bbb     O1   5998 -0.62587700  16.000000   ; qtot 199.760567
 5999         hn    200    bbb    H19   5999 0.23982500   1.008000   ; qtot 200.000392
; residue  201 bbb rtp bbb q 1.0
 6000         n4    201    bbb     N1   6000 0.03726400  14.010000   ; qtot 200.037656
 6001         c3    201    bbb     C1   6001 -0.07020100  12.010000   ; qtot 199.967455
 6002         hx    201    bbb     H1   6002 0.12219000   1.008000   ; qtot 200.089645
 6003         hx    201    bbb     H2   6003 0.12219000   1.008000   ; qtot 200.211835
 6004         c3    201    bbb     C2   6004 -0.07020100  12.010000   ; qtot 200.141634
 6005         hx    201    bbb     H3   6005 0.12219000   1.008000   ; qtot 200.263824
 6006         hx    201    bbb     H4   6006 0.12219000   1.008000   ; qtot 200.386014
 6007         c3    201    bbb     C3   6007 -0.39007700  12.010000   ; qtot 199.995937
 6008         hx    201    bbb     H5   6008 0.14940300   1.008000   ; qtot 200.145340
 6009         hx    201    bbb     H6   6009 0.14940300   1.008000   ; qtot 200.294743
 6010         c3    201    bbb     C4   6010 0.18057300  12.010000   ; qtot 200.475316
 6011         hc    201    bbb     H7   6011 0.01788900   1.008000   ; qtot 200.493205
 6012         hc    201    bbb     H8   6012 0.01788900   1.008000   ; qtot 200.511094
 6013         c3    201    bbb     C5   6013 -0.11337700  12.010000   ; qtot 200.397717
 6014         hc    201    bbb     H9   6014 0.09515400   1.008000   ; qtot 200.492871
 6015         hc    201    bbb    H10   6015 0.09515400   1.008000   ; qtot 200.588025
 6016         c3    201    bbb     C6   6016 -0.11337700  12.010000   ; qtot 200.474648
 6017         hc    201    bbb    H11   6017 0.09515400   1.008000   ; qtot 200.569802
 6018         hc    201    bbb    H12   6018 0.09515400   1.008000   ; qtot 200.664956
 6019         c3    201    bbb     C7   6019 0.21842400  12.010000   ; qtot 200.883380
 6020         h1    201    bbb    H13   6020 0.04500300   1.008000   ; qtot 200.928383
 6021         h1    201    bbb    H14   6021 0.04500300   1.008000   ; qtot 200.973386
 6022         c3    201    bbb     C8   6022 -0.06455200  12.010000   ; qtot 200.908834
 6023         h1    201    bbb    H15   6023 0.13554100   1.008000   ; qtot 201.044375
 6024         h1    201    bbb    H16   6024 0.13554100   1.008000   ; qtot 201.179916
 6025         c3    201    bbb     C9   6025 -0.06455200  12.010000   ; qtot 201.115364
 6026         h1    201    bbb    H17   6026 0.13554100   1.008000   ; qtot 201.250905
 6027         h1    201    bbb    H18   6027 0.13554100   1.008000   ; qtot 201.386446
 6028         os    201    bbb     O1   6028 -0.62587700  16.000000   ; qtot 200.760569
 6029         hn    201    bbb    H19   6029 0.23982500   1.008000   ; qtot 201.000394
; residue  202 bbb rtp bbb q 1.0
 6030         n4    202    bbb     N1   6030 0.03726400  14.010000   ; qtot 201.037658
 6031         c3    202    bbb     C1   6031 -0.07020100  12.010000   ; qtot 200.967457
 6032         hx    202    bbb     H1   6032 0.12219000   1.008000   ; qtot 201.089647
 6033         hx    202    bbb     H2   6033 0.12219000   1.008000   ; qtot 201.211837
 6034         c3    202    bbb     C2   6034 -0.07020100  12.010000   ; qtot 201.141636
 6035         hx    202    bbb     H3   6035 0.12219000   1.008000   ; qtot 201.263826
 6036         hx    202    bbb     H4   6036 0.12219000   1.008000   ; qtot 201.386016
 6037         c3    202    bbb     C3   6037 -0.39007700  12.010000   ; qtot 200.995939
 6038         hx    202    bbb     H5   6038 0.14940300   1.008000   ; qtot 201.145342
 6039         hx    202    bbb     H6   6039 0.14940300   1.008000   ; qtot 201.294745
 6040         c3    202    bbb     C4   6040 0.18057300  12.010000   ; qtot 201.475318
 6041         hc    202    bbb     H7   6041 0.01788900   1.008000   ; qtot 201.493207
 6042         hc    202    bbb     H8   6042 0.01788900   1.008000   ; qtot 201.511096
 6043         c3    202    bbb     C5   6043 -0.11337700  12.010000   ; qtot 201.397719
 6044         hc    202    bbb     H9   6044 0.09515400   1.008000   ; qtot 201.492873
 6045         hc    202    bbb    H10   6045 0.09515400   1.008000   ; qtot 201.588027
 6046         c3    202    bbb     C6   6046 -0.11337700  12.010000   ; qtot 201.474650
 6047         hc    202    bbb    H11   6047 0.09515400   1.008000   ; qtot 201.569804
 6048         hc    202    bbb    H12   6048 0.09515400   1.008000   ; qtot 201.664958
 6049         c3    202    bbb     C7   6049 0.21842400  12.010000   ; qtot 201.883382
 6050         h1    202    bbb    H13   6050 0.04500300   1.008000   ; qtot 201.928385
 6051         h1    202    bbb    H14   6051 0.04500300   1.008000   ; qtot 201.973388
 6052         c3    202    bbb     C8   6052 -0.06455200  12.010000   ; qtot 201.908836
 6053         h1    202    bbb    H15   6053 0.13554100   1.008000   ; qtot 202.044377
 6054         h1    202    bbb    H16   6054 0.13554100   1.008000   ; qtot 202.179918
 6055         c3    202    bbb     C9   6055 -0.06455200  12.010000   ; qtot 202.115366
 6056         h1    202    bbb    H17   6056 0.13554100   1.008000   ; qtot 202.250907
 6057         h1    202    bbb    H18   6057 0.13554100   1.008000   ; qtot 202.386448
 6058         os    202    bbb     O1   6058 -0.62587700  16.000000   ; qtot 201.760571
 6059         hn    202    bbb    H19   6059 0.23982500   1.008000   ; qtot 202.000396
; residue  203 bbb rtp bbb q 1.0
 6060         n4    203    bbb     N1   6060 0.03726400  14.010000   ; qtot 202.037660
 6061         c3    203    bbb     C1   6061 -0.07020100  12.010000   ; qtot 201.967459
 6062         hx    203    bbb     H1   6062 0.12219000   1.008000   ; qtot 202.089649
 6063         hx    203    bbb     H2   6063 0.12219000   1.008000   ; qtot 202.211839
 6064         c3    203    bbb     C2   6064 -0.07020100  12.010000   ; qtot 202.141638
 6065         hx    203    bbb     H3   6065 0.12219000   1.008000   ; qtot 202.263828
 6066         hx    203    bbb     H4   6066 0.12219000   1.008000   ; qtot 202.386018
 6067         c3    203    bbb     C3   6067 -0.39007700  12.010000   ; qtot 201.995941
 6068         hx    203    bbb     H5   6068 0.14940300   1.008000   ; qtot 202.145344
 6069         hx    203    bbb     H6   6069 0.14940300   1.008000   ; qtot 202.294747
 6070         c3    203    bbb     C4   6070 0.18057300  12.010000   ; qtot 202.475320
 6071         hc    203    bbb     H7   6071 0.01788900   1.008000   ; qtot 202.493209
 6072         hc    203    bbb     H8   6072 0.01788900   1.008000   ; qtot 202.511098
 6073         c3    203    bbb     C5   6073 -0.11337700  12.010000   ; qtot 202.397721
 6074         hc    203    bbb     H9   6074 0.09515400   1.008000   ; qtot 202.492875
 6075         hc    203    bbb    H10   6075 0.09515400   1.008000   ; qtot 202.588029
 6076         c3    203    bbb     C6   6076 -0.11337700  12.010000   ; qtot 202.474652
 6077         hc    203    bbb    H11   6077 0.09515400   1.008000   ; qtot 202.569806
 6078         hc    203    bbb    H12   6078 0.09515400   1.008000   ; qtot 202.664960
 6079         c3    203    bbb     C7   6079 0.21842400  12.010000   ; qtot 202.883384
 6080         h1    203    bbb    H13   6080 0.04500300   1.008000   ; qtot 202.928387
 6081         h1    203    bbb    H14   6081 0.04500300   1.008000   ; qtot 202.973390
 6082         c3    203    bbb     C8   6082 -0.06455200  12.010000   ; qtot 202.908838
 6083         h1    203    bbb    H15   6083 0.13554100   1.008000   ; qtot 203.044379
 6084         h1    203    bbb    H16   6084 0.13554100   1.008000   ; qtot 203.179920
 6085         c3    203    bbb     C9   6085 -0.06455200  12.010000   ; qtot 203.115368
 6086         h1    203    bbb    H17   6086 0.13554100   1.008000   ; qtot 203.250909
 6087         h1    203    bbb    H18   6087 0.13554100   1.008000   ; qtot 203.386450
 6088         os    203    bbb     O1   6088 -0.62587700  16.000000   ; qtot 202.760573
 6089         hn    203    bbb    H19   6089 0.23982500   1.008000   ; qtot 203.000398
; residue  204 bbb rtp bbb q 1.0
 6090         n4    204    bbb     N1   6090 0.03726400  14.010000   ; qtot 203.037662
 6091         c3    204    bbb     C1   6091 -0.07020100  12.010000   ; qtot 202.967461
 6092         hx    204    bbb     H1   6092 0.12219000   1.008000   ; qtot 203.089651
 6093         hx    204    bbb     H2   6093 0.12219000   1.008000   ; qtot 203.211841
 6094         c3    204    bbb     C2   6094 -0.07020100  12.010000   ; qtot 203.141640
 6095         hx    204    bbb     H3   6095 0.12219000   1.008000   ; qtot 203.263830
 6096         hx    204    bbb     H4   6096 0.12219000   1.008000   ; qtot 203.386020
 6097         c3    204    bbb     C3   6097 -0.39007700  12.010000   ; qtot 202.995943
 6098         hx    204    bbb     H5   6098 0.14940300   1.008000   ; qtot 203.145346
 6099         hx    204    bbb     H6   6099 0.14940300   1.008000   ; qtot 203.294749
 6100         c3    204    bbb     C4   6100 0.18057300  12.010000   ; qtot 203.475322
 6101         hc    204    bbb     H7   6101 0.01788900   1.008000   ; qtot 203.493211
 6102         hc    204    bbb     H8   6102 0.01788900   1.008000   ; qtot 203.511100
 6103         c3    204    bbb     C5   6103 -0.11337700  12.010000   ; qtot 203.397723
 6104         hc    204    bbb     H9   6104 0.09515400   1.008000   ; qtot 203.492877
 6105         hc    204    bbb    H10   6105 0.09515400   1.008000   ; qtot 203.588031
 6106         c3    204    bbb     C6   6106 -0.11337700  12.010000   ; qtot 203.474654
 6107         hc    204    bbb    H11   6107 0.09515400   1.008000   ; qtot 203.569808
 6108         hc    204    bbb    H12   6108 0.09515400   1.008000   ; qtot 203.664962
 6109         c3    204    bbb     C7   6109 0.21842400  12.010000   ; qtot 203.883386
 6110         h1    204    bbb    H13   6110 0.04500300   1.008000   ; qtot 203.928389
 6111         h1    204    bbb    H14   6111 0.04500300   1.008000   ; qtot 203.973392
 6112         c3    204    bbb     C8   6112 -0.06455200  12.010000   ; qtot 203.908840
 6113         h1    204    bbb    H15   6113 0.13554100   1.008000   ; qtot 204.044381
 6114         h1    204    bbb    H16   6114 0.13554100   1.008000   ; qtot 204.179922
 6115         c3    204    bbb     C9   6115 -0.06455200  12.010000   ; qtot 204.115370
 6116         h1    204    bbb    H17   6116 0.13554100   1.008000   ; qtot 204.250911
 6117         h1    204    bbb    H18   6117 0.13554100   1.008000   ; qtot 204.386452
 6118         os    204    bbb     O1   6118 -0.62587700  16.000000   ; qtot 203.760575
 6119         hn    204    bbb    H19   6119 0.23982500   1.008000   ; qtot 204.000400
; residue  205 bbb rtp bbb q 1.0
 6120         n4    205    bbb     N1   6120 0.03726400  14.010000   ; qtot 204.037664
 6121         c3    205    bbb     C1   6121 -0.07020100  12.010000   ; qtot 203.967463
 6122         hx    205    bbb     H1   6122 0.12219000   1.008000   ; qtot 204.089653
 6123         hx    205    bbb     H2   6123 0.12219000   1.008000   ; qtot 204.211843
 6124         c3    205    bbb     C2   6124 -0.07020100  12.010000   ; qtot 204.141642
 6125         hx    205    bbb     H3   6125 0.12219000   1.008000   ; qtot 204.263832
 6126         hx    205    bbb     H4   6126 0.12219000   1.008000   ; qtot 204.386022
 6127         c3    205    bbb     C3   6127 -0.39007700  12.010000   ; qtot 203.995945
 6128         hx    205    bbb     H5   6128 0.14940300   1.008000   ; qtot 204.145348
 6129         hx    205    bbb     H6   6129 0.14940300   1.008000   ; qtot 204.294751
 6130         c3    205    bbb     C4   6130 0.18057300  12.010000   ; qtot 204.475324
 6131         hc    205    bbb     H7   6131 0.01788900   1.008000   ; qtot 204.493213
 6132         hc    205    bbb     H8   6132 0.01788900   1.008000   ; qtot 204.511102
 6133         c3    205    bbb     C5   6133 -0.11337700  12.010000   ; qtot 204.397725
 6134         hc    205    bbb     H9   6134 0.09515400   1.008000   ; qtot 204.492879
 6135         hc    205    bbb    H10   6135 0.09515400   1.008000   ; qtot 204.588033
 6136         c3    205    bbb     C6   6136 -0.11337700  12.010000   ; qtot 204.474656
 6137         hc    205    bbb    H11   6137 0.09515400   1.008000   ; qtot 204.569810
 6138         hc    205    bbb    H12   6138 0.09515400   1.008000   ; qtot 204.664964
 6139         c3    205    bbb     C7   6139 0.21842400  12.010000   ; qtot 204.883388
 6140         h1    205    bbb    H13   6140 0.04500300   1.008000   ; qtot 204.928391
 6141         h1    205    bbb    H14   6141 0.04500300   1.008000   ; qtot 204.973394
 6142         c3    205    bbb     C8   6142 -0.06455200  12.010000   ; qtot 204.908842
 6143         h1    205    bbb    H15   6143 0.13554100   1.008000   ; qtot 205.044383
 6144         h1    205    bbb    H16   6144 0.13554100   1.008000   ; qtot 205.179924
 6145         c3    205    bbb     C9   6145 -0.06455200  12.010000   ; qtot 205.115372
 6146         h1    205    bbb    H17   6146 0.13554100   1.008000   ; qtot 205.250913
 6147         h1    205    bbb    H18   6147 0.13554100   1.008000   ; qtot 205.386454
 6148         os    205    bbb     O1   6148 -0.62587700  16.000000   ; qtot 204.760577
 6149         hn    205    bbb    H19   6149 0.23982500   1.008000   ; qtot 205.000402
; residue  206 bbb rtp bbb q 1.0
 6150         n4    206    bbb     N1   6150 0.03726400  14.010000   ; qtot 205.037666
 6151         c3    206    bbb     C1   6151 -0.07020100  12.010000   ; qtot 204.967465
 6152         hx    206    bbb     H1   6152 0.12219000   1.008000   ; qtot 205.089655
 6153         hx    206    bbb     H2   6153 0.12219000   1.008000   ; qtot 205.211845
 6154         c3    206    bbb     C2   6154 -0.07020100  12.010000   ; qtot 205.141644
 6155         hx    206    bbb     H3   6155 0.12219000   1.008000   ; qtot 205.263834
 6156         hx    206    bbb     H4   6156 0.12219000   1.008000   ; qtot 205.386024
 6157         c3    206    bbb     C3   6157 -0.39007700  12.010000   ; qtot 204.995947
 6158         hx    206    bbb     H5   6158 0.14940300   1.008000   ; qtot 205.145350
 6159         hx    206    bbb     H6   6159 0.14940300   1.008000   ; qtot 205.294753
 6160         c3    206    bbb     C4   6160 0.18057300  12.010000   ; qtot 205.475326
 6161         hc    206    bbb     H7   6161 0.01788900   1.008000   ; qtot 205.493215
 6162         hc    206    bbb     H8   6162 0.01788900   1.008000   ; qtot 205.511104
 6163         c3    206    bbb     C5   6163 -0.11337700  12.010000   ; qtot 205.397727
 6164         hc    206    bbb     H9   6164 0.09515400   1.008000   ; qtot 205.492881
 6165         hc    206    bbb    H10   6165 0.09515400   1.008000   ; qtot 205.588035
 6166         c3    206    bbb     C6   6166 -0.11337700  12.010000   ; qtot 205.474658
 6167         hc    206    bbb    H11   6167 0.09515400   1.008000   ; qtot 205.569812
 6168         hc    206    bbb    H12   6168 0.09515400   1.008000   ; qtot 205.664966
 6169         c3    206    bbb     C7   6169 0.21842400  12.010000   ; qtot 205.883390
 6170         h1    206    bbb    H13   6170 0.04500300   1.008000   ; qtot 205.928393
 6171         h1    206    bbb    H14   6171 0.04500300   1.008000   ; qtot 205.973396
 6172         c3    206    bbb     C8   6172 -0.06455200  12.010000   ; qtot 205.908844
 6173         h1    206    bbb    H15   6173 0.13554100   1.008000   ; qtot 206.044385
 6174         h1    206    bbb    H16   6174 0.13554100   1.008000   ; qtot 206.179926
 6175         c3    206    bbb     C9   6175 -0.06455200  12.010000   ; qtot 206.115374
 6176         h1    206    bbb    H17   6176 0.13554100   1.008000   ; qtot 206.250915
 6177         h1    206    bbb    H18   6177 0.13554100   1.008000   ; qtot 206.386456
 6178         os    206    bbb     O1   6178 -0.62587700  16.000000   ; qtot 205.760579
 6179         hn    206    bbb    H19   6179 0.23982500   1.008000   ; qtot 206.000404
; residue  207 bbb rtp bbb q 1.0
 6180         n4    207    bbb     N1   6180 0.03726400  14.010000   ; qtot 206.037668
 6181         c3    207    bbb     C1   6181 -0.07020100  12.010000   ; qtot 205.967467
 6182         hx    207    bbb     H1   6182 0.12219000   1.008000   ; qtot 206.089657
 6183         hx    207    bbb     H2   6183 0.12219000   1.008000   ; qtot 206.211847
 6184         c3    207    bbb     C2   6184 -0.07020100  12.010000   ; qtot 206.141646
 6185         hx    207    bbb     H3   6185 0.12219000   1.008000   ; qtot 206.263836
 6186         hx    207    bbb     H4   6186 0.12219000   1.008000   ; qtot 206.386026
 6187         c3    207    bbb     C3   6187 -0.39007700  12.010000   ; qtot 205.995949
 6188         hx    207    bbb     H5   6188 0.14940300   1.008000   ; qtot 206.145352
 6189         hx    207    bbb     H6   6189 0.14940300   1.008000   ; qtot 206.294755
 6190         c3    207    bbb     C4   6190 0.18057300  12.010000   ; qtot 206.475328
 6191         hc    207    bbb     H7   6191 0.01788900   1.008000   ; qtot 206.493217
 6192         hc    207    bbb     H8   6192 0.01788900   1.008000   ; qtot 206.511106
 6193         c3    207    bbb     C5   6193 -0.11337700  12.010000   ; qtot 206.397729
 6194         hc    207    bbb     H9   6194 0.09515400   1.008000   ; qtot 206.492883
 6195         hc    207    bbb    H10   6195 0.09515400   1.008000   ; qtot 206.588037
 6196         c3    207    bbb     C6   6196 -0.11337700  12.010000   ; qtot 206.474660
 6197         hc    207    bbb    H11   6197 0.09515400   1.008000   ; qtot 206.569814
 6198         hc    207    bbb    H12   6198 0.09515400   1.008000   ; qtot 206.664968
 6199         c3    207    bbb     C7   6199 0.21842400  12.010000   ; qtot 206.883392
 6200         h1    207    bbb    H13   6200 0.04500300   1.008000   ; qtot 206.928395
 6201         h1    207    bbb    H14   6201 0.04500300   1.008000   ; qtot 206.973398
 6202         c3    207    bbb     C8   6202 -0.06455200  12.010000   ; qtot 206.908846
 6203         h1    207    bbb    H15   6203 0.13554100   1.008000   ; qtot 207.044387
 6204         h1    207    bbb    H16   6204 0.13554100   1.008000   ; qtot 207.179928
 6205         c3    207    bbb     C9   6205 -0.06455200  12.010000   ; qtot 207.115376
 6206         h1    207    bbb    H17   6206 0.13554100   1.008000   ; qtot 207.250917
 6207         h1    207    bbb    H18   6207 0.13554100   1.008000   ; qtot 207.386458
 6208         os    207    bbb     O1   6208 -0.62587700  16.000000   ; qtot 206.760581
 6209         hn    207    bbb    H19   6209 0.23982500   1.008000   ; qtot 207.000406
; residue  208 bbb rtp bbb q 1.0
 6210         n4    208    bbb     N1   6210 0.03726400  14.010000   ; qtot 207.037670
 6211         c3    208    bbb     C1   6211 -0.07020100  12.010000   ; qtot 206.967469
 6212         hx    208    bbb     H1   6212 0.12219000   1.008000   ; qtot 207.089659
 6213         hx    208    bbb     H2   6213 0.12219000   1.008000   ; qtot 207.211849
 6214         c3    208    bbb     C2   6214 -0.07020100  12.010000   ; qtot 207.141648
 6215         hx    208    bbb     H3   6215 0.12219000   1.008000   ; qtot 207.263838
 6216         hx    208    bbb     H4   6216 0.12219000   1.008000   ; qtot 207.386028
 6217         c3    208    bbb     C3   6217 -0.39007700  12.010000   ; qtot 206.995951
 6218         hx    208    bbb     H5   6218 0.14940300   1.008000   ; qtot 207.145354
 6219         hx    208    bbb     H6   6219 0.14940300   1.008000   ; qtot 207.294757
 6220         c3    208    bbb     C4   6220 0.18057300  12.010000   ; qtot 207.475330
 6221         hc    208    bbb     H7   6221 0.01788900   1.008000   ; qtot 207.493219
 6222         hc    208    bbb     H8   6222 0.01788900   1.008000   ; qtot 207.511108
 6223         c3    208    bbb     C5   6223 -0.11337700  12.010000   ; qtot 207.397731
 6224         hc    208    bbb     H9   6224 0.09515400   1.008000   ; qtot 207.492885
 6225         hc    208    bbb    H10   6225 0.09515400   1.008000   ; qtot 207.588039
 6226         c3    208    bbb     C6   6226 -0.11337700  12.010000   ; qtot 207.474662
 6227         hc    208    bbb    H11   6227 0.09515400   1.008000   ; qtot 207.569816
 6228         hc    208    bbb    H12   6228 0.09515400   1.008000   ; qtot 207.664970
 6229         c3    208    bbb     C7   6229 0.21842400  12.010000   ; qtot 207.883394
 6230         h1    208    bbb    H13   6230 0.04500300   1.008000   ; qtot 207.928397
 6231         h1    208    bbb    H14   6231 0.04500300   1.008000   ; qtot 207.973400
 6232         c3    208    bbb     C8   6232 -0.06455200  12.010000   ; qtot 207.908848
 6233         h1    208    bbb    H15   6233 0.13554100   1.008000   ; qtot 208.044389
 6234         h1    208    bbb    H16   6234 0.13554100   1.008000   ; qtot 208.179930
 6235         c3    208    bbb     C9   6235 -0.06455200  12.010000   ; qtot 208.115378
 6236         h1    208    bbb    H17   6236 0.13554100   1.008000   ; qtot 208.250919
 6237         h1    208    bbb    H18   6237 0.13554100   1.008000   ; qtot 208.386460
 6238         os    208    bbb     O1   6238 -0.62587700  16.000000   ; qtot 207.760583
 6239         hn    208    bbb    H19   6239 0.23982500   1.008000   ; qtot 208.000408
; residue  209 bbb rtp bbb q 1.0
 6240         n4    209    bbb     N1   6240 0.03726400  14.010000   ; qtot 208.037672
 6241         c3    209    bbb     C1   6241 -0.07020100  12.010000   ; qtot 207.967471
 6242         hx    209    bbb     H1   6242 0.12219000   1.008000   ; qtot 208.089661
 6243         hx    209    bbb     H2   6243 0.12219000   1.008000   ; qtot 208.211851
 6244         c3    209    bbb     C2   6244 -0.07020100  12.010000   ; qtot 208.141650
 6245         hx    209    bbb     H3   6245 0.12219000   1.008000   ; qtot 208.263840
 6246         hx    209    bbb     H4   6246 0.12219000   1.008000   ; qtot 208.386030
 6247         c3    209    bbb     C3   6247 -0.39007700  12.010000   ; qtot 207.995953
 6248         hx    209    bbb     H5   6248 0.14940300   1.008000   ; qtot 208.145356
 6249         hx    209    bbb     H6   6249 0.14940300   1.008000   ; qtot 208.294759
 6250         c3    209    bbb     C4   6250 0.18057300  12.010000   ; qtot 208.475332
 6251         hc    209    bbb     H7   6251 0.01788900   1.008000   ; qtot 208.493221
 6252         hc    209    bbb     H8   6252 0.01788900   1.008000   ; qtot 208.511110
 6253         c3    209    bbb     C5   6253 -0.11337700  12.010000   ; qtot 208.397733
 6254         hc    209    bbb     H9   6254 0.09515400   1.008000   ; qtot 208.492887
 6255         hc    209    bbb    H10   6255 0.09515400   1.008000   ; qtot 208.588041
 6256         c3    209    bbb     C6   6256 -0.11337700  12.010000   ; qtot 208.474664
 6257         hc    209    bbb    H11   6257 0.09515400   1.008000   ; qtot 208.569818
 6258         hc    209    bbb    H12   6258 0.09515400   1.008000   ; qtot 208.664972
 6259         c3    209    bbb     C7   6259 0.21842400  12.010000   ; qtot 208.883396
 6260         h1    209    bbb    H13   6260 0.04500300   1.008000   ; qtot 208.928399
 6261         h1    209    bbb    H14   6261 0.04500300   1.008000   ; qtot 208.973402
 6262         c3    209    bbb     C8   6262 -0.06455200  12.010000   ; qtot 208.908850
 6263         h1    209    bbb    H15   6263 0.13554100   1.008000   ; qtot 209.044391
 6264         h1    209    bbb    H16   6264 0.13554100   1.008000   ; qtot 209.179932
 6265         c3    209    bbb     C9   6265 -0.06455200  12.010000   ; qtot 209.115380
 6266         h1    209    bbb    H17   6266 0.13554100   1.008000   ; qtot 209.250921
 6267         h1    209    bbb    H18   6267 0.13554100   1.008000   ; qtot 209.386462
 6268         os    209    bbb     O1   6268 -0.62587700  16.000000   ; qtot 208.760585
 6269         hn    209    bbb    H19   6269 0.23982500   1.008000   ; qtot 209.000410
; residue  210 bbb rtp bbb q 1.0
 6270         n4    210    bbb     N1   6270 0.03726400  14.010000   ; qtot 209.037674
 6271         c3    210    bbb     C1   6271 -0.07020100  12.010000   ; qtot 208.967473
 6272         hx    210    bbb     H1   6272 0.12219000   1.008000   ; qtot 209.089663
 6273         hx    210    bbb     H2   6273 0.12219000   1.008000   ; qtot 209.211853
 6274         c3    210    bbb     C2   6274 -0.07020100  12.010000   ; qtot 209.141652
 6275         hx    210    bbb     H3   6275 0.12219000   1.008000   ; qtot 209.263842
 6276         hx    210    bbb     H4   6276 0.12219000   1.008000   ; qtot 209.386032
 6277         c3    210    bbb     C3   6277 -0.39007700  12.010000   ; qtot 208.995955
 6278         hx    210    bbb     H5   6278 0.14940300   1.008000   ; qtot 209.145358
 6279         hx    210    bbb     H6   6279 0.14940300   1.008000   ; qtot 209.294761
 6280         c3    210    bbb     C4   6280 0.18057300  12.010000   ; qtot 209.475334
 6281         hc    210    bbb     H7   6281 0.01788900   1.008000   ; qtot 209.493223
 6282         hc    210    bbb     H8   6282 0.01788900   1.008000   ; qtot 209.511112
 6283         c3    210    bbb     C5   6283 -0.11337700  12.010000   ; qtot 209.397735
 6284         hc    210    bbb     H9   6284 0.09515400   1.008000   ; qtot 209.492889
 6285         hc    210    bbb    H10   6285 0.09515400   1.008000   ; qtot 209.588043
 6286         c3    210    bbb     C6   6286 -0.11337700  12.010000   ; qtot 209.474666
 6287         hc    210    bbb    H11   6287 0.09515400   1.008000   ; qtot 209.569820
 6288         hc    210    bbb    H12   6288 0.09515400   1.008000   ; qtot 209.664974
 6289         c3    210    bbb     C7   6289 0.21842400  12.010000   ; qtot 209.883398
 6290         h1    210    bbb    H13   6290 0.04500300   1.008000   ; qtot 209.928401
 6291         h1    210    bbb    H14   6291 0.04500300   1.008000   ; qtot 209.973404
 6292         c3    210    bbb     C8   6292 -0.06455200  12.010000   ; qtot 209.908852
 6293         h1    210    bbb    H15   6293 0.13554100   1.008000   ; qtot 210.044393
 6294         h1    210    bbb    H16   6294 0.13554100   1.008000   ; qtot 210.179934
 6295         c3    210    bbb     C9   6295 -0.06455200  12.010000   ; qtot 210.115382
 6296         h1    210    bbb    H17   6296 0.13554100   1.008000   ; qtot 210.250923
 6297         h1    210    bbb    H18   6297 0.13554100   1.008000   ; qtot 210.386464
 6298         os    210    bbb     O1   6298 -0.62587700  16.000000   ; qtot 209.760587
 6299         hn    210    bbb    H19   6299 0.23982500   1.008000   ; qtot 210.000412
; residue  211 bbb rtp bbb q 1.0
 6300         n4    211    bbb     N1   6300 0.03726400  14.010000   ; qtot 210.037676
 6301         c3    211    bbb     C1   6301 -0.07020100  12.010000   ; qtot 209.967475
 6302         hx    211    bbb     H1   6302 0.12219000   1.008000   ; qtot 210.089665
 6303         hx    211    bbb     H2   6303 0.12219000   1.008000   ; qtot 210.211855
 6304         c3    211    bbb     C2   6304 -0.07020100  12.010000   ; qtot 210.141654
 6305         hx    211    bbb     H3   6305 0.12219000   1.008000   ; qtot 210.263844
 6306         hx    211    bbb     H4   6306 0.12219000   1.008000   ; qtot 210.386034
 6307         c3    211    bbb     C3   6307 -0.39007700  12.010000   ; qtot 209.995957
 6308         hx    211    bbb     H5   6308 0.14940300   1.008000   ; qtot 210.145360
 6309         hx    211    bbb     H6   6309 0.14940300   1.008000   ; qtot 210.294763
 6310         c3    211    bbb     C4   6310 0.18057300  12.010000   ; qtot 210.475336
 6311         hc    211    bbb     H7   6311 0.01788900   1.008000   ; qtot 210.493225
 6312         hc    211    bbb     H8   6312 0.01788900   1.008000   ; qtot 210.511114
 6313         c3    211    bbb     C5   6313 -0.11337700  12.010000   ; qtot 210.397737
 6314         hc    211    bbb     H9   6314 0.09515400   1.008000   ; qtot 210.492891
 6315         hc    211    bbb    H10   6315 0.09515400   1.008000   ; qtot 210.588045
 6316         c3    211    bbb     C6   6316 -0.11337700  12.010000   ; qtot 210.474668
 6317         hc    211    bbb    H11   6317 0.09515400   1.008000   ; qtot 210.569822
 6318         hc    211    bbb    H12   6318 0.09515400   1.008000   ; qtot 210.664976
 6319         c3    211    bbb     C7   6319 0.21842400  12.010000   ; qtot 210.883400
 6320         h1    211    bbb    H13   6320 0.04500300   1.008000   ; qtot 210.928403
 6321         h1    211    bbb    H14   6321 0.04500300   1.008000   ; qtot 210.973406
 6322         c3    211    bbb     C8   6322 -0.06455200  12.010000   ; qtot 210.908854
 6323         h1    211    bbb    H15   6323 0.13554100   1.008000   ; qtot 211.044395
 6324         h1    211    bbb    H16   6324 0.13554100   1.008000   ; qtot 211.179936
 6325         c3    211    bbb     C9   6325 -0.06455200  12.010000   ; qtot 211.115384
 6326         h1    211    bbb    H17   6326 0.13554100   1.008000   ; qtot 211.250925
 6327         h1    211    bbb    H18   6327 0.13554100   1.008000   ; qtot 211.386466
 6328         os    211    bbb     O1   6328 -0.62587700  16.000000   ; qtot 210.760589
 6329         hn    211    bbb    H19   6329 0.23982500   1.008000   ; qtot 211.000414
; residue  212 bbb rtp bbb q 1.0
 6330         n4    212    bbb     N1   6330 0.03726400  14.010000   ; qtot 211.037678
 6331         c3    212    bbb     C1   6331 -0.07020100  12.010000   ; qtot 210.967477
 6332         hx    212    bbb     H1   6332 0.12219000   1.008000   ; qtot 211.089667
 6333         hx    212    bbb     H2   6333 0.12219000   1.008000   ; qtot 211.211857
 6334         c3    212    bbb     C2   6334 -0.07020100  12.010000   ; qtot 211.141656
 6335         hx    212    bbb     H3   6335 0.12219000   1.008000   ; qtot 211.263846
 6336         hx    212    bbb     H4   6336 0.12219000   1.008000   ; qtot 211.386036
 6337         c3    212    bbb     C3   6337 -0.39007700  12.010000   ; qtot 210.995959
 6338         hx    212    bbb     H5   6338 0.14940300   1.008000   ; qtot 211.145362
 6339         hx    212    bbb     H6   6339 0.14940300   1.008000   ; qtot 211.294765
 6340         c3    212    bbb     C4   6340 0.18057300  12.010000   ; qtot 211.475338
 6341         hc    212    bbb     H7   6341 0.01788900   1.008000   ; qtot 211.493227
 6342         hc    212    bbb     H8   6342 0.01788900   1.008000   ; qtot 211.511116
 6343         c3    212    bbb     C5   6343 -0.11337700  12.010000   ; qtot 211.397739
 6344         hc    212    bbb     H9   6344 0.09515400   1.008000   ; qtot 211.492893
 6345         hc    212    bbb    H10   6345 0.09515400   1.008000   ; qtot 211.588047
 6346         c3    212    bbb     C6   6346 -0.11337700  12.010000   ; qtot 211.474670
 6347         hc    212    bbb    H11   6347 0.09515400   1.008000   ; qtot 211.569824
 6348         hc    212    bbb    H12   6348 0.09515400   1.008000   ; qtot 211.664978
 6349         c3    212    bbb     C7   6349 0.21842400  12.010000   ; qtot 211.883402
 6350         h1    212    bbb    H13   6350 0.04500300   1.008000   ; qtot 211.928405
 6351         h1    212    bbb    H14   6351 0.04500300   1.008000   ; qtot 211.973408
 6352         c3    212    bbb     C8   6352 -0.06455200  12.010000   ; qtot 211.908856
 6353         h1    212    bbb    H15   6353 0.13554100   1.008000   ; qtot 212.044397
 6354         h1    212    bbb    H16   6354 0.13554100   1.008000   ; qtot 212.179938
 6355         c3    212    bbb     C9   6355 -0.06455200  12.010000   ; qtot 212.115386
 6356         h1    212    bbb    H17   6356 0.13554100   1.008000   ; qtot 212.250927
 6357         h1    212    bbb    H18   6357 0.13554100   1.008000   ; qtot 212.386468
 6358         os    212    bbb     O1   6358 -0.62587700  16.000000   ; qtot 211.760591
 6359         hn    212    bbb    H19   6359 0.23982500   1.008000   ; qtot 212.000416
; residue  213 bbb rtp bbb q 1.0
 6360         n4    213    bbb     N1   6360 0.03726400  14.010000   ; qtot 212.037680
 6361         c3    213    bbb     C1   6361 -0.07020100  12.010000   ; qtot 211.967479
 6362         hx    213    bbb     H1   6362 0.12219000   1.008000   ; qtot 212.089669
 6363         hx    213    bbb     H2   6363 0.12219000   1.008000   ; qtot 212.211859
 6364         c3    213    bbb     C2   6364 -0.07020100  12.010000   ; qtot 212.141658
 6365         hx    213    bbb     H3   6365 0.12219000   1.008000   ; qtot 212.263848
 6366         hx    213    bbb     H4   6366 0.12219000   1.008000   ; qtot 212.386038
 6367         c3    213    bbb     C3   6367 -0.39007700  12.010000   ; qtot 211.995961
 6368         hx    213    bbb     H5   6368 0.14940300   1.008000   ; qtot 212.145364
 6369         hx    213    bbb     H6   6369 0.14940300   1.008000   ; qtot 212.294767
 6370         c3    213    bbb     C4   6370 0.18057300  12.010000   ; qtot 212.475340
 6371         hc    213    bbb     H7   6371 0.01788900   1.008000   ; qtot 212.493229
 6372         hc    213    bbb     H8   6372 0.01788900   1.008000   ; qtot 212.511118
 6373         c3    213    bbb     C5   6373 -0.11337700  12.010000   ; qtot 212.397741
 6374         hc    213    bbb     H9   6374 0.09515400   1.008000   ; qtot 212.492895
 6375         hc    213    bbb    H10   6375 0.09515400   1.008000   ; qtot 212.588049
 6376         c3    213    bbb     C6   6376 -0.11337700  12.010000   ; qtot 212.474672
 6377         hc    213    bbb    H11   6377 0.09515400   1.008000   ; qtot 212.569826
 6378         hc    213    bbb    H12   6378 0.09515400   1.008000   ; qtot 212.664980
 6379         c3    213    bbb     C7   6379 0.21842400  12.010000   ; qtot 212.883404
 6380         h1    213    bbb    H13   6380 0.04500300   1.008000   ; qtot 212.928407
 6381         h1    213    bbb    H14   6381 0.04500300   1.008000   ; qtot 212.973410
 6382         c3    213    bbb     C8   6382 -0.06455200  12.010000   ; qtot 212.908858
 6383         h1    213    bbb    H15   6383 0.13554100   1.008000   ; qtot 213.044399
 6384         h1    213    bbb    H16   6384 0.13554100   1.008000   ; qtot 213.179940
 6385         c3    213    bbb     C9   6385 -0.06455200  12.010000   ; qtot 213.115388
 6386         h1    213    bbb    H17   6386 0.13554100   1.008000   ; qtot 213.250929
 6387         h1    213    bbb    H18   6387 0.13554100   1.008000   ; qtot 213.386470
 6388         os    213    bbb     O1   6388 -0.62587700  16.000000   ; qtot 212.760593
 6389         hn    213    bbb    H19   6389 0.23982500   1.008000   ; qtot 213.000418
; residue  214 bbb rtp bbb q 1.0
 6390         n4    214    bbb     N1   6390 0.03726400  14.010000   ; qtot 213.037682
 6391         c3    214    bbb     C1   6391 -0.07020100  12.010000   ; qtot 212.967481
 6392         hx    214    bbb     H1   6392 0.12219000   1.008000   ; qtot 213.089671
 6393         hx    214    bbb     H2   6393 0.12219000   1.008000   ; qtot 213.211861
 6394         c3    214    bbb     C2   6394 -0.07020100  12.010000   ; qtot 213.141660
 6395         hx    214    bbb     H3   6395 0.12219000   1.008000   ; qtot 213.263850
 6396         hx    214    bbb     H4   6396 0.12219000   1.008000   ; qtot 213.386040
 6397         c3    214    bbb     C3   6397 -0.39007700  12.010000   ; qtot 212.995963
 6398         hx    214    bbb     H5   6398 0.14940300   1.008000   ; qtot 213.145366
 6399         hx    214    bbb     H6   6399 0.14940300   1.008000   ; qtot 213.294769
 6400         c3    214    bbb     C4   6400 0.18057300  12.010000   ; qtot 213.475342
 6401         hc    214    bbb     H7   6401 0.01788900   1.008000   ; qtot 213.493231
 6402         hc    214    bbb     H8   6402 0.01788900   1.008000   ; qtot 213.511120
 6403         c3    214    bbb     C5   6403 -0.11337700  12.010000   ; qtot 213.397743
 6404         hc    214    bbb     H9   6404 0.09515400   1.008000   ; qtot 213.492897
 6405         hc    214    bbb    H10   6405 0.09515400   1.008000   ; qtot 213.588051
 6406         c3    214    bbb     C6   6406 -0.11337700  12.010000   ; qtot 213.474674
 6407         hc    214    bbb    H11   6407 0.09515400   1.008000   ; qtot 213.569828
 6408         hc    214    bbb    H12   6408 0.09515400   1.008000   ; qtot 213.664982
 6409         c3    214    bbb     C7   6409 0.21842400  12.010000   ; qtot 213.883406
 6410         h1    214    bbb    H13   6410 0.04500300   1.008000   ; qtot 213.928409
 6411         h1    214    bbb    H14   6411 0.04500300   1.008000   ; qtot 213.973412
 6412         c3    214    bbb     C8   6412 -0.06455200  12.010000   ; qtot 213.908860
 6413         h1    214    bbb    H15   6413 0.13554100   1.008000   ; qtot 214.044401
 6414         h1    214    bbb    H16   6414 0.13554100   1.008000   ; qtot 214.179942
 6415         c3    214    bbb     C9   6415 -0.06455200  12.010000   ; qtot 214.115390
 6416         h1    214    bbb    H17   6416 0.13554100   1.008000   ; qtot 214.250931
 6417         h1    214    bbb    H18   6417 0.13554100   1.008000   ; qtot 214.386472
 6418         os    214    bbb     O1   6418 -0.62587700  16.000000   ; qtot 213.760595
 6419         hn    214    bbb    H19   6419 0.23982500   1.008000   ; qtot 214.000420
; residue  215 bbb rtp bbb q 1.0
 6420         n4    215    bbb     N1   6420 0.03726400  14.010000   ; qtot 214.037684
 6421         c3    215    bbb     C1   6421 -0.07020100  12.010000   ; qtot 213.967483
 6422         hx    215    bbb     H1   6422 0.12219000   1.008000   ; qtot 214.089673
 6423         hx    215    bbb     H2   6423 0.12219000   1.008000   ; qtot 214.211863
 6424         c3    215    bbb     C2   6424 -0.07020100  12.010000   ; qtot 214.141662
 6425         hx    215    bbb     H3   6425 0.12219000   1.008000   ; qtot 214.263852
 6426         hx    215    bbb     H4   6426 0.12219000   1.008000   ; qtot 214.386042
 6427         c3    215    bbb     C3   6427 -0.39007700  12.010000   ; qtot 213.995965
 6428         hx    215    bbb     H5   6428 0.14940300   1.008000   ; qtot 214.145368
 6429         hx    215    bbb     H6   6429 0.14940300   1.008000   ; qtot 214.294771
 6430         c3    215    bbb     C4   6430 0.18057300  12.010000   ; qtot 214.475344
 6431         hc    215    bbb     H7   6431 0.01788900   1.008000   ; qtot 214.493233
 6432         hc    215    bbb     H8   6432 0.01788900   1.008000   ; qtot 214.511122
 6433         c3    215    bbb     C5   6433 -0.11337700  12.010000   ; qtot 214.397745
 6434         hc    215    bbb     H9   6434 0.09515400   1.008000   ; qtot 214.492899
 6435         hc    215    bbb    H10   6435 0.09515400   1.008000   ; qtot 214.588053
 6436         c3    215    bbb     C6   6436 -0.11337700  12.010000   ; qtot 214.474676
 6437         hc    215    bbb    H11   6437 0.09515400   1.008000   ; qtot 214.569830
 6438         hc    215    bbb    H12   6438 0.09515400   1.008000   ; qtot 214.664984
 6439         c3    215    bbb     C7   6439 0.21842400  12.010000   ; qtot 214.883408
 6440         h1    215    bbb    H13   6440 0.04500300   1.008000   ; qtot 214.928411
 6441         h1    215    bbb    H14   6441 0.04500300   1.008000   ; qtot 214.973414
 6442         c3    215    bbb     C8   6442 -0.06455200  12.010000   ; qtot 214.908862
 6443         h1    215    bbb    H15   6443 0.13554100   1.008000   ; qtot 215.044403
 6444         h1    215    bbb    H16   6444 0.13554100   1.008000   ; qtot 215.179944
 6445         c3    215    bbb     C9   6445 -0.06455200  12.010000   ; qtot 215.115392
 6446         h1    215    bbb    H17   6446 0.13554100   1.008000   ; qtot 215.250933
 6447         h1    215    bbb    H18   6447 0.13554100   1.008000   ; qtot 215.386474
 6448         os    215    bbb     O1   6448 -0.62587700  16.000000   ; qtot 214.760597
 6449         hn    215    bbb    H19   6449 0.23982500   1.008000   ; qtot 215.000422
; residue  216 bbb rtp bbb q 1.0
 6450         n4    216    bbb     N1   6450 0.03726400  14.010000   ; qtot 215.037686
 6451         c3    216    bbb     C1   6451 -0.07020100  12.010000   ; qtot 214.967485
 6452         hx    216    bbb     H1   6452 0.12219000   1.008000   ; qtot 215.089675
 6453         hx    216    bbb     H2   6453 0.12219000   1.008000   ; qtot 215.211865
 6454         c3    216    bbb     C2   6454 -0.07020100  12.010000   ; qtot 215.141664
 6455         hx    216    bbb     H3   6455 0.12219000   1.008000   ; qtot 215.263854
 6456         hx    216    bbb     H4   6456 0.12219000   1.008000   ; qtot 215.386044
 6457         c3    216    bbb     C3   6457 -0.39007700  12.010000   ; qtot 214.995967
 6458         hx    216    bbb     H5   6458 0.14940300   1.008000   ; qtot 215.145370
 6459         hx    216    bbb     H6   6459 0.14940300   1.008000   ; qtot 215.294773
 6460         c3    216    bbb     C4   6460 0.18057300  12.010000   ; qtot 215.475346
 6461         hc    216    bbb     H7   6461 0.01788900   1.008000   ; qtot 215.493235
 6462         hc    216    bbb     H8   6462 0.01788900   1.008000   ; qtot 215.511124
 6463         c3    216    bbb     C5   6463 -0.11337700  12.010000   ; qtot 215.397747
 6464         hc    216    bbb     H9   6464 0.09515400   1.008000   ; qtot 215.492901
 6465         hc    216    bbb    H10   6465 0.09515400   1.008000   ; qtot 215.588055
 6466         c3    216    bbb     C6   6466 -0.11337700  12.010000   ; qtot 215.474678
 6467         hc    216    bbb    H11   6467 0.09515400   1.008000   ; qtot 215.569832
 6468         hc    216    bbb    H12   6468 0.09515400   1.008000   ; qtot 215.664986
 6469         c3    216    bbb     C7   6469 0.21842400  12.010000   ; qtot 215.883410
 6470         h1    216    bbb    H13   6470 0.04500300   1.008000   ; qtot 215.928413
 6471         h1    216    bbb    H14   6471 0.04500300   1.008000   ; qtot 215.973416
 6472         c3    216    bbb     C8   6472 -0.06455200  12.010000   ; qtot 215.908864
 6473         h1    216    bbb    H15   6473 0.13554100   1.008000   ; qtot 216.044405
 6474         h1    216    bbb    H16   6474 0.13554100   1.008000   ; qtot 216.179946
 6475         c3    216    bbb     C9   6475 -0.06455200  12.010000   ; qtot 216.115394
 6476         h1    216    bbb    H17   6476 0.13554100   1.008000   ; qtot 216.250935
 6477         h1    216    bbb    H18   6477 0.13554100   1.008000   ; qtot 216.386476
 6478         os    216    bbb     O1   6478 -0.62587700  16.000000   ; qtot 215.760599
 6479         hn    216    bbb    H19   6479 0.23982500   1.008000   ; qtot 216.000424
; residue  217 bbb rtp bbb q 1.0
 6480         n4    217    bbb     N1   6480 0.03726400  14.010000   ; qtot 216.037688
 6481         c3    217    bbb     C1   6481 -0.07020100  12.010000   ; qtot 215.967487
 6482         hx    217    bbb     H1   6482 0.12219000   1.008000   ; qtot 216.089677
 6483         hx    217    bbb     H2   6483 0.12219000   1.008000   ; qtot 216.211867
 6484         c3    217    bbb     C2   6484 -0.07020100  12.010000   ; qtot 216.141666
 6485         hx    217    bbb     H3   6485 0.12219000   1.008000   ; qtot 216.263856
 6486         hx    217    bbb     H4   6486 0.12219000   1.008000   ; qtot 216.386046
 6487         c3    217    bbb     C3   6487 -0.39007700  12.010000   ; qtot 215.995969
 6488         hx    217    bbb     H5   6488 0.14940300   1.008000   ; qtot 216.145372
 6489         hx    217    bbb     H6   6489 0.14940300   1.008000   ; qtot 216.294775
 6490         c3    217    bbb     C4   6490 0.18057300  12.010000   ; qtot 216.475348
 6491         hc    217    bbb     H7   6491 0.01788900   1.008000   ; qtot 216.493237
 6492         hc    217    bbb     H8   6492 0.01788900   1.008000   ; qtot 216.511126
 6493         c3    217    bbb     C5   6493 -0.11337700  12.010000   ; qtot 216.397749
 6494         hc    217    bbb     H9   6494 0.09515400   1.008000   ; qtot 216.492903
 6495         hc    217    bbb    H10   6495 0.09515400   1.008000   ; qtot 216.588057
 6496         c3    217    bbb     C6   6496 -0.11337700  12.010000   ; qtot 216.474680
 6497         hc    217    bbb    H11   6497 0.09515400   1.008000   ; qtot 216.569834
 6498         hc    217    bbb    H12   6498 0.09515400   1.008000   ; qtot 216.664988
 6499         c3    217    bbb     C7   6499 0.21842400  12.010000   ; qtot 216.883412
 6500         h1    217    bbb    H13   6500 0.04500300   1.008000   ; qtot 216.928415
 6501         h1    217    bbb    H14   6501 0.04500300   1.008000   ; qtot 216.973418
 6502         c3    217    bbb     C8   6502 -0.06455200  12.010000   ; qtot 216.908866
 6503         h1    217    bbb    H15   6503 0.13554100   1.008000   ; qtot 217.044407
 6504         h1    217    bbb    H16   6504 0.13554100   1.008000   ; qtot 217.179948
 6505         c3    217    bbb     C9   6505 -0.06455200  12.010000   ; qtot 217.115396
 6506         h1    217    bbb    H17   6506 0.13554100   1.008000   ; qtot 217.250937
 6507         h1    217    bbb    H18   6507 0.13554100   1.008000   ; qtot 217.386478
 6508         os    217    bbb     O1   6508 -0.62587700  16.000000   ; qtot 216.760601
 6509         hn    217    bbb    H19   6509 0.23982500   1.008000   ; qtot 217.000426
; residue  218 bbb rtp bbb q 1.0
 6510         n4    218    bbb     N1   6510 0.03726400  14.010000   ; qtot 217.037690
 6511         c3    218    bbb     C1   6511 -0.07020100  12.010000   ; qtot 216.967489
 6512         hx    218    bbb     H1   6512 0.12219000   1.008000   ; qtot 217.089679
 6513         hx    218    bbb     H2   6513 0.12219000   1.008000   ; qtot 217.211869
 6514         c3    218    bbb     C2   6514 -0.07020100  12.010000   ; qtot 217.141668
 6515         hx    218    bbb     H3   6515 0.12219000   1.008000   ; qtot 217.263858
 6516         hx    218    bbb     H4   6516 0.12219000   1.008000   ; qtot 217.386048
 6517         c3    218    bbb     C3   6517 -0.39007700  12.010000   ; qtot 216.995971
 6518         hx    218    bbb     H5   6518 0.14940300   1.008000   ; qtot 217.145374
 6519         hx    218    bbb     H6   6519 0.14940300   1.008000   ; qtot 217.294777
 6520         c3    218    bbb     C4   6520 0.18057300  12.010000   ; qtot 217.475350
 6521         hc    218    bbb     H7   6521 0.01788900   1.008000   ; qtot 217.493239
 6522         hc    218    bbb     H8   6522 0.01788900   1.008000   ; qtot 217.511128
 6523         c3    218    bbb     C5   6523 -0.11337700  12.010000   ; qtot 217.397751
 6524         hc    218    bbb     H9   6524 0.09515400   1.008000   ; qtot 217.492905
 6525         hc    218    bbb    H10   6525 0.09515400   1.008000   ; qtot 217.588059
 6526         c3    218    bbb     C6   6526 -0.11337700  12.010000   ; qtot 217.474682
 6527         hc    218    bbb    H11   6527 0.09515400   1.008000   ; qtot 217.569836
 6528         hc    218    bbb    H12   6528 0.09515400   1.008000   ; qtot 217.664990
 6529         c3    218    bbb     C7   6529 0.21842400  12.010000   ; qtot 217.883414
 6530         h1    218    bbb    H13   6530 0.04500300   1.008000   ; qtot 217.928417
 6531         h1    218    bbb    H14   6531 0.04500300   1.008000   ; qtot 217.973420
 6532         c3    218    bbb     C8   6532 -0.06455200  12.010000   ; qtot 217.908868
 6533         h1    218    bbb    H15   6533 0.13554100   1.008000   ; qtot 218.044409
 6534         h1    218    bbb    H16   6534 0.13554100   1.008000   ; qtot 218.179950
 6535         c3    218    bbb     C9   6535 -0.06455200  12.010000   ; qtot 218.115398
 6536         h1    218    bbb    H17   6536 0.13554100   1.008000   ; qtot 218.250939
 6537         h1    218    bbb    H18   6537 0.13554100   1.008000   ; qtot 218.386480
 6538         os    218    bbb     O1   6538 -0.62587700  16.000000   ; qtot 217.760603
 6539         hn    218    bbb    H19   6539 0.23982500   1.008000   ; qtot 218.000428
; residue  219 bbb rtp bbb q 1.0
 6540         n4    219    bbb     N1   6540 0.03726400  14.010000   ; qtot 218.037692
 6541         c3    219    bbb     C1   6541 -0.07020100  12.010000   ; qtot 217.967491
 6542         hx    219    bbb     H1   6542 0.12219000   1.008000   ; qtot 218.089681
 6543         hx    219    bbb     H2   6543 0.12219000   1.008000   ; qtot 218.211871
 6544         c3    219    bbb     C2   6544 -0.07020100  12.010000   ; qtot 218.141670
 6545         hx    219    bbb     H3   6545 0.12219000   1.008000   ; qtot 218.263860
 6546         hx    219    bbb     H4   6546 0.12219000   1.008000   ; qtot 218.386050
 6547         c3    219    bbb     C3   6547 -0.39007700  12.010000   ; qtot 217.995973
 6548         hx    219    bbb     H5   6548 0.14940300   1.008000   ; qtot 218.145376
 6549         hx    219    bbb     H6   6549 0.14940300   1.008000   ; qtot 218.294779
 6550         c3    219    bbb     C4   6550 0.18057300  12.010000   ; qtot 218.475352
 6551         hc    219    bbb     H7   6551 0.01788900   1.008000   ; qtot 218.493241
 6552         hc    219    bbb     H8   6552 0.01788900   1.008000   ; qtot 218.511130
 6553         c3    219    bbb     C5   6553 -0.11337700  12.010000   ; qtot 218.397753
 6554         hc    219    bbb     H9   6554 0.09515400   1.008000   ; qtot 218.492907
 6555         hc    219    bbb    H10   6555 0.09515400   1.008000   ; qtot 218.588061
 6556         c3    219    bbb     C6   6556 -0.11337700  12.010000   ; qtot 218.474684
 6557         hc    219    bbb    H11   6557 0.09515400   1.008000   ; qtot 218.569838
 6558         hc    219    bbb    H12   6558 0.09515400   1.008000   ; qtot 218.664992
 6559         c3    219    bbb     C7   6559 0.21842400  12.010000   ; qtot 218.883416
 6560         h1    219    bbb    H13   6560 0.04500300   1.008000   ; qtot 218.928419
 6561         h1    219    bbb    H14   6561 0.04500300   1.008000   ; qtot 218.973422
 6562         c3    219    bbb     C8   6562 -0.06455200  12.010000   ; qtot 218.908870
 6563         h1    219    bbb    H15   6563 0.13554100   1.008000   ; qtot 219.044411
 6564         h1    219    bbb    H16   6564 0.13554100   1.008000   ; qtot 219.179952
 6565         c3    219    bbb     C9   6565 -0.06455200  12.010000   ; qtot 219.115400
 6566         h1    219    bbb    H17   6566 0.13554100   1.008000   ; qtot 219.250941
 6567         h1    219    bbb    H18   6567 0.13554100   1.008000   ; qtot 219.386482
 6568         os    219    bbb     O1   6568 -0.62587700  16.000000   ; qtot 218.760605
 6569         hn    219    bbb    H19   6569 0.23982500   1.008000   ; qtot 219.000430
; residue  220 bbb rtp bbb q 1.0
 6570         n4    220    bbb     N1   6570 0.03726400  14.010000   ; qtot 219.037694
 6571         c3    220    bbb     C1   6571 -0.07020100  12.010000   ; qtot 218.967493
 6572         hx    220    bbb     H1   6572 0.12219000   1.008000   ; qtot 219.089683
 6573         hx    220    bbb     H2   6573 0.12219000   1.008000   ; qtot 219.211873
 6574         c3    220    bbb     C2   6574 -0.07020100  12.010000   ; qtot 219.141672
 6575         hx    220    bbb     H3   6575 0.12219000   1.008000   ; qtot 219.263862
 6576         hx    220    bbb     H4   6576 0.12219000   1.008000   ; qtot 219.386052
 6577         c3    220    bbb     C3   6577 -0.39007700  12.010000   ; qtot 218.995975
 6578         hx    220    bbb     H5   6578 0.14940300   1.008000   ; qtot 219.145378
 6579         hx    220    bbb     H6   6579 0.14940300   1.008000   ; qtot 219.294781
 6580         c3    220    bbb     C4   6580 0.18057300  12.010000   ; qtot 219.475354
 6581         hc    220    bbb     H7   6581 0.01788900   1.008000   ; qtot 219.493243
 6582         hc    220    bbb     H8   6582 0.01788900   1.008000   ; qtot 219.511132
 6583         c3    220    bbb     C5   6583 -0.11337700  12.010000   ; qtot 219.397755
 6584         hc    220    bbb     H9   6584 0.09515400   1.008000   ; qtot 219.492909
 6585         hc    220    bbb    H10   6585 0.09515400   1.008000   ; qtot 219.588063
 6586         c3    220    bbb     C6   6586 -0.11337700  12.010000   ; qtot 219.474686
 6587         hc    220    bbb    H11   6587 0.09515400   1.008000   ; qtot 219.569840
 6588         hc    220    bbb    H12   6588 0.09515400   1.008000   ; qtot 219.664994
 6589         c3    220    bbb     C7   6589 0.21842400  12.010000   ; qtot 219.883418
 6590         h1    220    bbb    H13   6590 0.04500300   1.008000   ; qtot 219.928421
 6591         h1    220    bbb    H14   6591 0.04500300   1.008000   ; qtot 219.973424
 6592         c3    220    bbb     C8   6592 -0.06455200  12.010000   ; qtot 219.908872
 6593         h1    220    bbb    H15   6593 0.13554100   1.008000   ; qtot 220.044413
 6594         h1    220    bbb    H16   6594 0.13554100   1.008000   ; qtot 220.179954
 6595         c3    220    bbb     C9   6595 -0.06455200  12.010000   ; qtot 220.115402
 6596         h1    220    bbb    H17   6596 0.13554100   1.008000   ; qtot 220.250943
 6597         h1    220    bbb    H18   6597 0.13554100   1.008000   ; qtot 220.386484
 6598         os    220    bbb     O1   6598 -0.62587700  16.000000   ; qtot 219.760607
 6599         hn    220    bbb    H19   6599 0.23982500   1.008000   ; qtot 220.000432
; residue  221 bbb rtp bbb q 1.0
 6600         n4    221    bbb     N1   6600 0.03726400  14.010000   ; qtot 220.037696
 6601         c3    221    bbb     C1   6601 -0.07020100  12.010000   ; qtot 219.967495
 6602         hx    221    bbb     H1   6602 0.12219000   1.008000   ; qtot 220.089685
 6603         hx    221    bbb     H2   6603 0.12219000   1.008000   ; qtot 220.211875
 6604         c3    221    bbb     C2   6604 -0.07020100  12.010000   ; qtot 220.141674
 6605         hx    221    bbb     H3   6605 0.12219000   1.008000   ; qtot 220.263864
 6606         hx    221    bbb     H4   6606 0.12219000   1.008000   ; qtot 220.386054
 6607         c3    221    bbb     C3   6607 -0.39007700  12.010000   ; qtot 219.995977
 6608         hx    221    bbb     H5   6608 0.14940300   1.008000   ; qtot 220.145380
 6609         hx    221    bbb     H6   6609 0.14940300   1.008000   ; qtot 220.294783
 6610         c3    221    bbb     C4   6610 0.18057300  12.010000   ; qtot 220.475356
 6611         hc    221    bbb     H7   6611 0.01788900   1.008000   ; qtot 220.493245
 6612         hc    221    bbb     H8   6612 0.01788900   1.008000   ; qtot 220.511134
 6613         c3    221    bbb     C5   6613 -0.11337700  12.010000   ; qtot 220.397757
 6614         hc    221    bbb     H9   6614 0.09515400   1.008000   ; qtot 220.492911
 6615         hc    221    bbb    H10   6615 0.09515400   1.008000   ; qtot 220.588065
 6616         c3    221    bbb     C6   6616 -0.11337700  12.010000   ; qtot 220.474688
 6617         hc    221    bbb    H11   6617 0.09515400   1.008000   ; qtot 220.569842
 6618         hc    221    bbb    H12   6618 0.09515400   1.008000   ; qtot 220.664996
 6619         c3    221    bbb     C7   6619 0.21842400  12.010000   ; qtot 220.883420
 6620         h1    221    bbb    H13   6620 0.04500300   1.008000   ; qtot 220.928423
 6621         h1    221    bbb    H14   6621 0.04500300   1.008000   ; qtot 220.973426
 6622         c3    221    bbb     C8   6622 -0.06455200  12.010000   ; qtot 220.908874
 6623         h1    221    bbb    H15   6623 0.13554100   1.008000   ; qtot 221.044415
 6624         h1    221    bbb    H16   6624 0.13554100   1.008000   ; qtot 221.179956
 6625         c3    221    bbb     C9   6625 -0.06455200  12.010000   ; qtot 221.115404
 6626         h1    221    bbb    H17   6626 0.13554100   1.008000   ; qtot 221.250945
 6627         h1    221    bbb    H18   6627 0.13554100   1.008000   ; qtot 221.386486
 6628         os    221    bbb     O1   6628 -0.62587700  16.000000   ; qtot 220.760609
 6629         hn    221    bbb    H19   6629 0.23982500   1.008000   ; qtot 221.000434
; residue  222 bbb rtp bbb q 1.0
 6630         n4    222    bbb     N1   6630 0.03726400  14.010000   ; qtot 221.037698
 6631         c3    222    bbb     C1   6631 -0.07020100  12.010000   ; qtot 220.967497
 6632         hx    222    bbb     H1   6632 0.12219000   1.008000   ; qtot 221.089687
 6633         hx    222    bbb     H2   6633 0.12219000   1.008000   ; qtot 221.211877
 6634         c3    222    bbb     C2   6634 -0.07020100  12.010000   ; qtot 221.141676
 6635         hx    222    bbb     H3   6635 0.12219000   1.008000   ; qtot 221.263866
 6636         hx    222    bbb     H4   6636 0.12219000   1.008000   ; qtot 221.386056
 6637         c3    222    bbb     C3   6637 -0.39007700  12.010000   ; qtot 220.995979
 6638         hx    222    bbb     H5   6638 0.14940300   1.008000   ; qtot 221.145382
 6639         hx    222    bbb     H6   6639 0.14940300   1.008000   ; qtot 221.294785
 6640         c3    222    bbb     C4   6640 0.18057300  12.010000   ; qtot 221.475358
 6641         hc    222    bbb     H7   6641 0.01788900   1.008000   ; qtot 221.493247
 6642         hc    222    bbb     H8   6642 0.01788900   1.008000   ; qtot 221.511136
 6643         c3    222    bbb     C5   6643 -0.11337700  12.010000   ; qtot 221.397759
 6644         hc    222    bbb     H9   6644 0.09515400   1.008000   ; qtot 221.492913
 6645         hc    222    bbb    H10   6645 0.09515400   1.008000   ; qtot 221.588067
 6646         c3    222    bbb     C6   6646 -0.11337700  12.010000   ; qtot 221.474690
 6647         hc    222    bbb    H11   6647 0.09515400   1.008000   ; qtot 221.569844
 6648         hc    222    bbb    H12   6648 0.09515400   1.008000   ; qtot 221.664998
 6649         c3    222    bbb     C7   6649 0.21842400  12.010000   ; qtot 221.883422
 6650         h1    222    bbb    H13   6650 0.04500300   1.008000   ; qtot 221.928425
 6651         h1    222    bbb    H14   6651 0.04500300   1.008000   ; qtot 221.973428
 6652         c3    222    bbb     C8   6652 -0.06455200  12.010000   ; qtot 221.908876
 6653         h1    222    bbb    H15   6653 0.13554100   1.008000   ; qtot 222.044417
 6654         h1    222    bbb    H16   6654 0.13554100   1.008000   ; qtot 222.179958
 6655         c3    222    bbb     C9   6655 -0.06455200  12.010000   ; qtot 222.115406
 6656         h1    222    bbb    H17   6656 0.13554100   1.008000   ; qtot 222.250947
 6657         h1    222    bbb    H18   6657 0.13554100   1.008000   ; qtot 222.386488
 6658         os    222    bbb     O1   6658 -0.62587700  16.000000   ; qtot 221.760611
 6659         hn    222    bbb    H19   6659 0.23982500   1.008000   ; qtot 222.000436
; residue  223 bbb rtp bbb q 1.0
 6660         n4    223    bbb     N1   6660 0.03726400  14.010000   ; qtot 222.037700
 6661         c3    223    bbb     C1   6661 -0.07020100  12.010000   ; qtot 221.967499
 6662         hx    223    bbb     H1   6662 0.12219000   1.008000   ; qtot 222.089689
 6663         hx    223    bbb     H2   6663 0.12219000   1.008000   ; qtot 222.211879
 6664         c3    223    bbb     C2   6664 -0.07020100  12.010000   ; qtot 222.141678
 6665         hx    223    bbb     H3   6665 0.12219000   1.008000   ; qtot 222.263868
 6666         hx    223    bbb     H4   6666 0.12219000   1.008000   ; qtot 222.386058
 6667         c3    223    bbb     C3   6667 -0.39007700  12.010000   ; qtot 221.995981
 6668         hx    223    bbb     H5   6668 0.14940300   1.008000   ; qtot 222.145384
 6669         hx    223    bbb     H6   6669 0.14940300   1.008000   ; qtot 222.294787
 6670         c3    223    bbb     C4   6670 0.18057300  12.010000   ; qtot 222.475360
 6671         hc    223    bbb     H7   6671 0.01788900   1.008000   ; qtot 222.493249
 6672         hc    223    bbb     H8   6672 0.01788900   1.008000   ; qtot 222.511138
 6673         c3    223    bbb     C5   6673 -0.11337700  12.010000   ; qtot 222.397761
 6674         hc    223    bbb     H9   6674 0.09515400   1.008000   ; qtot 222.492915
 6675         hc    223    bbb    H10   6675 0.09515400   1.008000   ; qtot 222.588069
 6676         c3    223    bbb     C6   6676 -0.11337700  12.010000   ; qtot 222.474692
 6677         hc    223    bbb    H11   6677 0.09515400   1.008000   ; qtot 222.569846
 6678         hc    223    bbb    H12   6678 0.09515400   1.008000   ; qtot 222.665000
 6679         c3    223    bbb     C7   6679 0.21842400  12.010000   ; qtot 222.883424
 6680         h1    223    bbb    H13   6680 0.04500300   1.008000   ; qtot 222.928427
 6681         h1    223    bbb    H14   6681 0.04500300   1.008000   ; qtot 222.973430
 6682         c3    223    bbb     C8   6682 -0.06455200  12.010000   ; qtot 222.908878
 6683         h1    223    bbb    H15   6683 0.13554100   1.008000   ; qtot 223.044419
 6684         h1    223    bbb    H16   6684 0.13554100   1.008000   ; qtot 223.179960
 6685         c3    223    bbb     C9   6685 -0.06455200  12.010000   ; qtot 223.115408
 6686         h1    223    bbb    H17   6686 0.13554100   1.008000   ; qtot 223.250949
 6687         h1    223    bbb    H18   6687 0.13554100   1.008000   ; qtot 223.386490
 6688         os    223    bbb     O1   6688 -0.62587700  16.000000   ; qtot 222.760613
 6689         hn    223    bbb    H19   6689 0.23982500   1.008000   ; qtot 223.000438
; residue  224 bbb rtp bbb q 1.0
 6690         n4    224    bbb     N1   6690 0.03726400  14.010000   ; qtot 223.037702
 6691         c3    224    bbb     C1   6691 -0.07020100  12.010000   ; qtot 222.967501
 6692         hx    224    bbb     H1   6692 0.12219000   1.008000   ; qtot 223.089691
 6693         hx    224    bbb     H2   6693 0.12219000   1.008000   ; qtot 223.211881
 6694         c3    224    bbb     C2   6694 -0.07020100  12.010000   ; qtot 223.141680
 6695         hx    224    bbb     H3   6695 0.12219000   1.008000   ; qtot 223.263870
 6696         hx    224    bbb     H4   6696 0.12219000   1.008000   ; qtot 223.386060
 6697         c3    224    bbb     C3   6697 -0.39007700  12.010000   ; qtot 222.995983
 6698         hx    224    bbb     H5   6698 0.14940300   1.008000   ; qtot 223.145386
 6699         hx    224    bbb     H6   6699 0.14940300   1.008000   ; qtot 223.294789
 6700         c3    224    bbb     C4   6700 0.18057300  12.010000   ; qtot 223.475362
 6701         hc    224    bbb     H7   6701 0.01788900   1.008000   ; qtot 223.493251
 6702         hc    224    bbb     H8   6702 0.01788900   1.008000   ; qtot 223.511140
 6703         c3    224    bbb     C5   6703 -0.11337700  12.010000   ; qtot 223.397763
 6704         hc    224    bbb     H9   6704 0.09515400   1.008000   ; qtot 223.492917
 6705         hc    224    bbb    H10   6705 0.09515400   1.008000   ; qtot 223.588071
 6706         c3    224    bbb     C6   6706 -0.11337700  12.010000   ; qtot 223.474694
 6707         hc    224    bbb    H11   6707 0.09515400   1.008000   ; qtot 223.569848
 6708         hc    224    bbb    H12   6708 0.09515400   1.008000   ; qtot 223.665002
 6709         c3    224    bbb     C7   6709 0.21842400  12.010000   ; qtot 223.883426
 6710         h1    224    bbb    H13   6710 0.04500300   1.008000   ; qtot 223.928429
 6711         h1    224    bbb    H14   6711 0.04500300   1.008000   ; qtot 223.973432
 6712         c3    224    bbb     C8   6712 -0.06455200  12.010000   ; qtot 223.908880
 6713         h1    224    bbb    H15   6713 0.13554100   1.008000   ; qtot 224.044421
 6714         h1    224    bbb    H16   6714 0.13554100   1.008000   ; qtot 224.179962
 6715         c3    224    bbb     C9   6715 -0.06455200  12.010000   ; qtot 224.115410
 6716         h1    224    bbb    H17   6716 0.13554100   1.008000   ; qtot 224.250951
 6717         h1    224    bbb    H18   6717 0.13554100   1.008000   ; qtot 224.386492
 6718         os    224    bbb     O1   6718 -0.62587700  16.000000   ; qtot 223.760615
 6719         hn    224    bbb    H19   6719 0.23982500   1.008000   ; qtot 224.000440
; residue  225 bbb rtp bbb q 1.0
 6720         n4    225    bbb     N1   6720 0.03726400  14.010000   ; qtot 224.037704
 6721         c3    225    bbb     C1   6721 -0.07020100  12.010000   ; qtot 223.967503
 6722         hx    225    bbb     H1   6722 0.12219000   1.008000   ; qtot 224.089693
 6723         hx    225    bbb     H2   6723 0.12219000   1.008000   ; qtot 224.211883
 6724         c3    225    bbb     C2   6724 -0.07020100  12.010000   ; qtot 224.141682
 6725         hx    225    bbb     H3   6725 0.12219000   1.008000   ; qtot 224.263872
 6726         hx    225    bbb     H4   6726 0.12219000   1.008000   ; qtot 224.386062
 6727         c3    225    bbb     C3   6727 -0.39007700  12.010000   ; qtot 223.995985
 6728         hx    225    bbb     H5   6728 0.14940300   1.008000   ; qtot 224.145388
 6729         hx    225    bbb     H6   6729 0.14940300   1.008000   ; qtot 224.294791
 6730         c3    225    bbb     C4   6730 0.18057300  12.010000   ; qtot 224.475364
 6731         hc    225    bbb     H7   6731 0.01788900   1.008000   ; qtot 224.493253
 6732         hc    225    bbb     H8   6732 0.01788900   1.008000   ; qtot 224.511142
 6733         c3    225    bbb     C5   6733 -0.11337700  12.010000   ; qtot 224.397765
 6734         hc    225    bbb     H9   6734 0.09515400   1.008000   ; qtot 224.492919
 6735         hc    225    bbb    H10   6735 0.09515400   1.008000   ; qtot 224.588073
 6736         c3    225    bbb     C6   6736 -0.11337700  12.010000   ; qtot 224.474696
 6737         hc    225    bbb    H11   6737 0.09515400   1.008000   ; qtot 224.569850
 6738         hc    225    bbb    H12   6738 0.09515400   1.008000   ; qtot 224.665004
 6739         c3    225    bbb     C7   6739 0.21842400  12.010000   ; qtot 224.883428
 6740         h1    225    bbb    H13   6740 0.04500300   1.008000   ; qtot 224.928431
 6741         h1    225    bbb    H14   6741 0.04500300   1.008000   ; qtot 224.973434
 6742         c3    225    bbb     C8   6742 -0.06455200  12.010000   ; qtot 224.908882
 6743         h1    225    bbb    H15   6743 0.13554100   1.008000   ; qtot 225.044423
 6744         h1    225    bbb    H16   6744 0.13554100   1.008000   ; qtot 225.179964
 6745         c3    225    bbb     C9   6745 -0.06455200  12.010000   ; qtot 225.115412
 6746         h1    225    bbb    H17   6746 0.13554100   1.008000   ; qtot 225.250953
 6747         h1    225    bbb    H18   6747 0.13554100   1.008000   ; qtot 225.386494
 6748         os    225    bbb     O1   6748 -0.62587700  16.000000   ; qtot 224.760617
 6749         hn    225    bbb    H19   6749 0.23982500   1.008000   ; qtot 225.000442
; residue  226 bbb rtp bbb q 1.0
 6750         n4    226    bbb     N1   6750 0.03726400  14.010000   ; qtot 225.037706
 6751         c3    226    bbb     C1   6751 -0.07020100  12.010000   ; qtot 224.967505
 6752         hx    226    bbb     H1   6752 0.12219000   1.008000   ; qtot 225.089695
 6753         hx    226    bbb     H2   6753 0.12219000   1.008000   ; qtot 225.211885
 6754         c3    226    bbb     C2   6754 -0.07020100  12.010000   ; qtot 225.141684
 6755         hx    226    bbb     H3   6755 0.12219000   1.008000   ; qtot 225.263874
 6756         hx    226    bbb     H4   6756 0.12219000   1.008000   ; qtot 225.386064
 6757         c3    226    bbb     C3   6757 -0.39007700  12.010000   ; qtot 224.995987
 6758         hx    226    bbb     H5   6758 0.14940300   1.008000   ; qtot 225.145390
 6759         hx    226    bbb     H6   6759 0.14940300   1.008000   ; qtot 225.294793
 6760         c3    226    bbb     C4   6760 0.18057300  12.010000   ; qtot 225.475366
 6761         hc    226    bbb     H7   6761 0.01788900   1.008000   ; qtot 225.493255
 6762         hc    226    bbb     H8   6762 0.01788900   1.008000   ; qtot 225.511144
 6763         c3    226    bbb     C5   6763 -0.11337700  12.010000   ; qtot 225.397767
 6764         hc    226    bbb     H9   6764 0.09515400   1.008000   ; qtot 225.492921
 6765         hc    226    bbb    H10   6765 0.09515400   1.008000   ; qtot 225.588075
 6766         c3    226    bbb     C6   6766 -0.11337700  12.010000   ; qtot 225.474698
 6767         hc    226    bbb    H11   6767 0.09515400   1.008000   ; qtot 225.569852
 6768         hc    226    bbb    H12   6768 0.09515400   1.008000   ; qtot 225.665006
 6769         c3    226    bbb     C7   6769 0.21842400  12.010000   ; qtot 225.883430
 6770         h1    226    bbb    H13   6770 0.04500300   1.008000   ; qtot 225.928433
 6771         h1    226    bbb    H14   6771 0.04500300   1.008000   ; qtot 225.973436
 6772         c3    226    bbb     C8   6772 -0.06455200  12.010000   ; qtot 225.908884
 6773         h1    226    bbb    H15   6773 0.13554100   1.008000   ; qtot 226.044425
 6774         h1    226    bbb    H16   6774 0.13554100   1.008000   ; qtot 226.179966
 6775         c3    226    bbb     C9   6775 -0.06455200  12.010000   ; qtot 226.115414
 6776         h1    226    bbb    H17   6776 0.13554100   1.008000   ; qtot 226.250955
 6777         h1    226    bbb    H18   6777 0.13554100   1.008000   ; qtot 226.386496
 6778         os    226    bbb     O1   6778 -0.62587700  16.000000   ; qtot 225.760619
 6779         hn    226    bbb    H19   6779 0.23982500   1.008000   ; qtot 226.000444
; residue  227 bbb rtp bbb q 1.0
 6780         n4    227    bbb     N1   6780 0.03726400  14.010000   ; qtot 226.037708
 6781         c3    227    bbb     C1   6781 -0.07020100  12.010000   ; qtot 225.967507
 6782         hx    227    bbb     H1   6782 0.12219000   1.008000   ; qtot 226.089697
 6783         hx    227    bbb     H2   6783 0.12219000   1.008000   ; qtot 226.211887
 6784         c3    227    bbb     C2   6784 -0.07020100  12.010000   ; qtot 226.141686
 6785         hx    227    bbb     H3   6785 0.12219000   1.008000   ; qtot 226.263876
 6786         hx    227    bbb     H4   6786 0.12219000   1.008000   ; qtot 226.386066
 6787         c3    227    bbb     C3   6787 -0.39007700  12.010000   ; qtot 225.995989
 6788         hx    227    bbb     H5   6788 0.14940300   1.008000   ; qtot 226.145392
 6789         hx    227    bbb     H6   6789 0.14940300   1.008000   ; qtot 226.294795
 6790         c3    227    bbb     C4   6790 0.18057300  12.010000   ; qtot 226.475368
 6791         hc    227    bbb     H7   6791 0.01788900   1.008000   ; qtot 226.493257
 6792         hc    227    bbb     H8   6792 0.01788900   1.008000   ; qtot 226.511146
 6793         c3    227    bbb     C5   6793 -0.11337700  12.010000   ; qtot 226.397769
 6794         hc    227    bbb     H9   6794 0.09515400   1.008000   ; qtot 226.492923
 6795         hc    227    bbb    H10   6795 0.09515400   1.008000   ; qtot 226.588077
 6796         c3    227    bbb     C6   6796 -0.11337700  12.010000   ; qtot 226.474700
 6797         hc    227    bbb    H11   6797 0.09515400   1.008000   ; qtot 226.569854
 6798         hc    227    bbb    H12   6798 0.09515400   1.008000   ; qtot 226.665008
 6799         c3    227    bbb     C7   6799 0.21842400  12.010000   ; qtot 226.883432
 6800         h1    227    bbb    H13   6800 0.04500300   1.008000   ; qtot 226.928435
 6801         h1    227    bbb    H14   6801 0.04500300   1.008000   ; qtot 226.973438
 6802         c3    227    bbb     C8   6802 -0.06455200  12.010000   ; qtot 226.908886
 6803         h1    227    bbb    H15   6803 0.13554100   1.008000   ; qtot 227.044427
 6804         h1    227    bbb    H16   6804 0.13554100   1.008000   ; qtot 227.179968
 6805         c3    227    bbb     C9   6805 -0.06455200  12.010000   ; qtot 227.115416
 6806         h1    227    bbb    H17   6806 0.13554100   1.008000   ; qtot 227.250957
 6807         h1    227    bbb    H18   6807 0.13554100   1.008000   ; qtot 227.386498
 6808         os    227    bbb     O1   6808 -0.62587700  16.000000   ; qtot 226.760621
 6809         hn    227    bbb    H19   6809 0.23982500   1.008000   ; qtot 227.000446
; residue  228 bbb rtp bbb q 1.0
 6810         n4    228    bbb     N1   6810 0.03726400  14.010000   ; qtot 227.037710
 6811         c3    228    bbb     C1   6811 -0.07020100  12.010000   ; qtot 226.967509
 6812         hx    228    bbb     H1   6812 0.12219000   1.008000   ; qtot 227.089699
 6813         hx    228    bbb     H2   6813 0.12219000   1.008000   ; qtot 227.211889
 6814         c3    228    bbb     C2   6814 -0.07020100  12.010000   ; qtot 227.141688
 6815         hx    228    bbb     H3   6815 0.12219000   1.008000   ; qtot 227.263878
 6816         hx    228    bbb     H4   6816 0.12219000   1.008000   ; qtot 227.386068
 6817         c3    228    bbb     C3   6817 -0.39007700  12.010000   ; qtot 226.995991
 6818         hx    228    bbb     H5   6818 0.14940300   1.008000   ; qtot 227.145394
 6819         hx    228    bbb     H6   6819 0.14940300   1.008000   ; qtot 227.294797
 6820         c3    228    bbb     C4   6820 0.18057300  12.010000   ; qtot 227.475370
 6821         hc    228    bbb     H7   6821 0.01788900   1.008000   ; qtot 227.493259
 6822         hc    228    bbb     H8   6822 0.01788900   1.008000   ; qtot 227.511148
 6823         c3    228    bbb     C5   6823 -0.11337700  12.010000   ; qtot 227.397771
 6824         hc    228    bbb     H9   6824 0.09515400   1.008000   ; qtot 227.492925
 6825         hc    228    bbb    H10   6825 0.09515400   1.008000   ; qtot 227.588079
 6826         c3    228    bbb     C6   6826 -0.11337700  12.010000   ; qtot 227.474702
 6827         hc    228    bbb    H11   6827 0.09515400   1.008000   ; qtot 227.569856
 6828         hc    228    bbb    H12   6828 0.09515400   1.008000   ; qtot 227.665010
 6829         c3    228    bbb     C7   6829 0.21842400  12.010000   ; qtot 227.883434
 6830         h1    228    bbb    H13   6830 0.04500300   1.008000   ; qtot 227.928437
 6831         h1    228    bbb    H14   6831 0.04500300   1.008000   ; qtot 227.973440
 6832         c3    228    bbb     C8   6832 -0.06455200  12.010000   ; qtot 227.908888
 6833         h1    228    bbb    H15   6833 0.13554100   1.008000   ; qtot 228.044429
 6834         h1    228    bbb    H16   6834 0.13554100   1.008000   ; qtot 228.179970
 6835         c3    228    bbb     C9   6835 -0.06455200  12.010000   ; qtot 228.115418
 6836         h1    228    bbb    H17   6836 0.13554100   1.008000   ; qtot 228.250959
 6837         h1    228    bbb    H18   6837 0.13554100   1.008000   ; qtot 228.386500
 6838         os    228    bbb     O1   6838 -0.62587700  16.000000   ; qtot 227.760623
 6839         hn    228    bbb    H19   6839 0.23982500   1.008000   ; qtot 228.000448
; residue  229 bbb rtp bbb q 1.0
 6840         n4    229    bbb     N1   6840 0.03726400  14.010000   ; qtot 228.037712
 6841         c3    229    bbb     C1   6841 -0.07020100  12.010000   ; qtot 227.967511
 6842         hx    229    bbb     H1   6842 0.12219000   1.008000   ; qtot 228.089701
 6843         hx    229    bbb     H2   6843 0.12219000   1.008000   ; qtot 228.211891
 6844         c3    229    bbb     C2   6844 -0.07020100  12.010000   ; qtot 228.141690
 6845         hx    229    bbb     H3   6845 0.12219000   1.008000   ; qtot 228.263880
 6846         hx    229    bbb     H4   6846 0.12219000   1.008000   ; qtot 228.386070
 6847         c3    229    bbb     C3   6847 -0.39007700  12.010000   ; qtot 227.995993
 6848         hx    229    bbb     H5   6848 0.14940300   1.008000   ; qtot 228.145396
 6849         hx    229    bbb     H6   6849 0.14940300   1.008000   ; qtot 228.294799
 6850         c3    229    bbb     C4   6850 0.18057300  12.010000   ; qtot 228.475372
 6851         hc    229    bbb     H7   6851 0.01788900   1.008000   ; qtot 228.493261
 6852         hc    229    bbb     H8   6852 0.01788900   1.008000   ; qtot 228.511150
 6853         c3    229    bbb     C5   6853 -0.11337700  12.010000   ; qtot 228.397773
 6854         hc    229    bbb     H9   6854 0.09515400   1.008000   ; qtot 228.492927
 6855         hc    229    bbb    H10   6855 0.09515400   1.008000   ; qtot 228.588081
 6856         c3    229    bbb     C6   6856 -0.11337700  12.010000   ; qtot 228.474704
 6857         hc    229    bbb    H11   6857 0.09515400   1.008000   ; qtot 228.569858
 6858         hc    229    bbb    H12   6858 0.09515400   1.008000   ; qtot 228.665012
 6859         c3    229    bbb     C7   6859 0.21842400  12.010000   ; qtot 228.883436
 6860         h1    229    bbb    H13   6860 0.04500300   1.008000   ; qtot 228.928439
 6861         h1    229    bbb    H14   6861 0.04500300   1.008000   ; qtot 228.973442
 6862         c3    229    bbb     C8   6862 -0.06455200  12.010000   ; qtot 228.908890
 6863         h1    229    bbb    H15   6863 0.13554100   1.008000   ; qtot 229.044431
 6864         h1    229    bbb    H16   6864 0.13554100   1.008000   ; qtot 229.179972
 6865         c3    229    bbb     C9   6865 -0.06455200  12.010000   ; qtot 229.115420
 6866         h1    229    bbb    H17   6866 0.13554100   1.008000   ; qtot 229.250961
 6867         h1    229    bbb    H18   6867 0.13554100   1.008000   ; qtot 229.386502
 6868         os    229    bbb     O1   6868 -0.62587700  16.000000   ; qtot 228.760625
 6869         hn    229    bbb    H19   6869 0.23982500   1.008000   ; qtot 229.000450
; residue  230 bbb rtp bbb q 1.0
 6870         n4    230    bbb     N1   6870 0.03726400  14.010000   ; qtot 229.037714
 6871         c3    230    bbb     C1   6871 -0.07020100  12.010000   ; qtot 228.967513
 6872         hx    230    bbb     H1   6872 0.12219000   1.008000   ; qtot 229.089703
 6873         hx    230    bbb     H2   6873 0.12219000   1.008000   ; qtot 229.211893
 6874         c3    230    bbb     C2   6874 -0.07020100  12.010000   ; qtot 229.141692
 6875         hx    230    bbb     H3   6875 0.12219000   1.008000   ; qtot 229.263882
 6876         hx    230    bbb     H4   6876 0.12219000   1.008000   ; qtot 229.386072
 6877         c3    230    bbb     C3   6877 -0.39007700  12.010000   ; qtot 228.995995
 6878         hx    230    bbb     H5   6878 0.14940300   1.008000   ; qtot 229.145398
 6879         hx    230    bbb     H6   6879 0.14940300   1.008000   ; qtot 229.294801
 6880         c3    230    bbb     C4   6880 0.18057300  12.010000   ; qtot 229.475374
 6881         hc    230    bbb     H7   6881 0.01788900   1.008000   ; qtot 229.493263
 6882         hc    230    bbb     H8   6882 0.01788900   1.008000   ; qtot 229.511152
 6883         c3    230    bbb     C5   6883 -0.11337700  12.010000   ; qtot 229.397775
 6884         hc    230    bbb     H9   6884 0.09515400   1.008000   ; qtot 229.492929
 6885         hc    230    bbb    H10   6885 0.09515400   1.008000   ; qtot 229.588083
 6886         c3    230    bbb     C6   6886 -0.11337700  12.010000   ; qtot 229.474706
 6887         hc    230    bbb    H11   6887 0.09515400   1.008000   ; qtot 229.569860
 6888         hc    230    bbb    H12   6888 0.09515400   1.008000   ; qtot 229.665014
 6889         c3    230    bbb     C7   6889 0.21842400  12.010000   ; qtot 229.883438
 6890         h1    230    bbb    H13   6890 0.04500300   1.008000   ; qtot 229.928441
 6891         h1    230    bbb    H14   6891 0.04500300   1.008000   ; qtot 229.973444
 6892         c3    230    bbb     C8   6892 -0.06455200  12.010000   ; qtot 229.908892
 6893         h1    230    bbb    H15   6893 0.13554100   1.008000   ; qtot 230.044433
 6894         h1    230    bbb    H16   6894 0.13554100   1.008000   ; qtot 230.179974
 6895         c3    230    bbb     C9   6895 -0.06455200  12.010000   ; qtot 230.115422
 6896         h1    230    bbb    H17   6896 0.13554100   1.008000   ; qtot 230.250963
 6897         h1    230    bbb    H18   6897 0.13554100   1.008000   ; qtot 230.386504
 6898         os    230    bbb     O1   6898 -0.62587700  16.000000   ; qtot 229.760627
 6899         hn    230    bbb    H19   6899 0.23982500   1.008000   ; qtot 230.000452
; residue  231 bbb rtp bbb q 1.0
 6900         n4    231    bbb     N1   6900 0.03726400  14.010000   ; qtot 230.037716
 6901         c3    231    bbb     C1   6901 -0.07020100  12.010000   ; qtot 229.967515
 6902         hx    231    bbb     H1   6902 0.12219000   1.008000   ; qtot 230.089705
 6903         hx    231    bbb     H2   6903 0.12219000   1.008000   ; qtot 230.211895
 6904         c3    231    bbb     C2   6904 -0.07020100  12.010000   ; qtot 230.141694
 6905         hx    231    bbb     H3   6905 0.12219000   1.008000   ; qtot 230.263884
 6906         hx    231    bbb     H4   6906 0.12219000   1.008000   ; qtot 230.386074
 6907         c3    231    bbb     C3   6907 -0.39007700  12.010000   ; qtot 229.995997
 6908         hx    231    bbb     H5   6908 0.14940300   1.008000   ; qtot 230.145400
 6909         hx    231    bbb     H6   6909 0.14940300   1.008000   ; qtot 230.294803
 6910         c3    231    bbb     C4   6910 0.18057300  12.010000   ; qtot 230.475376
 6911         hc    231    bbb     H7   6911 0.01788900   1.008000   ; qtot 230.493265
 6912         hc    231    bbb     H8   6912 0.01788900   1.008000   ; qtot 230.511154
 6913         c3    231    bbb     C5   6913 -0.11337700  12.010000   ; qtot 230.397777
 6914         hc    231    bbb     H9   6914 0.09515400   1.008000   ; qtot 230.492931
 6915         hc    231    bbb    H10   6915 0.09515400   1.008000   ; qtot 230.588085
 6916         c3    231    bbb     C6   6916 -0.11337700  12.010000   ; qtot 230.474708
 6917         hc    231    bbb    H11   6917 0.09515400   1.008000   ; qtot 230.569862
 6918         hc    231    bbb    H12   6918 0.09515400   1.008000   ; qtot 230.665016
 6919         c3    231    bbb     C7   6919 0.21842400  12.010000   ; qtot 230.883440
 6920         h1    231    bbb    H13   6920 0.04500300   1.008000   ; qtot 230.928443
 6921         h1    231    bbb    H14   6921 0.04500300   1.008000   ; qtot 230.973446
 6922         c3    231    bbb     C8   6922 -0.06455200  12.010000   ; qtot 230.908894
 6923         h1    231    bbb    H15   6923 0.13554100   1.008000   ; qtot 231.044435
 6924         h1    231    bbb    H16   6924 0.13554100   1.008000   ; qtot 231.179976
 6925         c3    231    bbb     C9   6925 -0.06455200  12.010000   ; qtot 231.115424
 6926         h1    231    bbb    H17   6926 0.13554100   1.008000   ; qtot 231.250965
 6927         h1    231    bbb    H18   6927 0.13554100   1.008000   ; qtot 231.386506
 6928         os    231    bbb     O1   6928 -0.62587700  16.000000   ; qtot 230.760629
 6929         hn    231    bbb    H19   6929 0.23982500   1.008000   ; qtot 231.000454
; residue  232 bbb rtp bbb q 1.0
 6930         n4    232    bbb     N1   6930 0.03726400  14.010000   ; qtot 231.037718
 6931         c3    232    bbb     C1   6931 -0.07020100  12.010000   ; qtot 230.967517
 6932         hx    232    bbb     H1   6932 0.12219000   1.008000   ; qtot 231.089707
 6933         hx    232    bbb     H2   6933 0.12219000   1.008000   ; qtot 231.211897
 6934         c3    232    bbb     C2   6934 -0.07020100  12.010000   ; qtot 231.141696
 6935         hx    232    bbb     H3   6935 0.12219000   1.008000   ; qtot 231.263886
 6936         hx    232    bbb     H4   6936 0.12219000   1.008000   ; qtot 231.386076
 6937         c3    232    bbb     C3   6937 -0.39007700  12.010000   ; qtot 230.995999
 6938         hx    232    bbb     H5   6938 0.14940300   1.008000   ; qtot 231.145402
 6939         hx    232    bbb     H6   6939 0.14940300   1.008000   ; qtot 231.294805
 6940         c3    232    bbb     C4   6940 0.18057300  12.010000   ; qtot 231.475378
 6941         hc    232    bbb     H7   6941 0.01788900   1.008000   ; qtot 231.493267
 6942         hc    232    bbb     H8   6942 0.01788900   1.008000   ; qtot 231.511156
 6943         c3    232    bbb     C5   6943 -0.11337700  12.010000   ; qtot 231.397779
 6944         hc    232    bbb     H9   6944 0.09515400   1.008000   ; qtot 231.492933
 6945         hc    232    bbb    H10   6945 0.09515400   1.008000   ; qtot 231.588087
 6946         c3    232    bbb     C6   6946 -0.11337700  12.010000   ; qtot 231.474710
 6947         hc    232    bbb    H11   6947 0.09515400   1.008000   ; qtot 231.569864
 6948         hc    232    bbb    H12   6948 0.09515400   1.008000   ; qtot 231.665018
 6949         c3    232    bbb     C7   6949 0.21842400  12.010000   ; qtot 231.883442
 6950         h1    232    bbb    H13   6950 0.04500300   1.008000   ; qtot 231.928445
 6951         h1    232    bbb    H14   6951 0.04500300   1.008000   ; qtot 231.973448
 6952         c3    232    bbb     C8   6952 -0.06455200  12.010000   ; qtot 231.908896
 6953         h1    232    bbb    H15   6953 0.13554100   1.008000   ; qtot 232.044437
 6954         h1    232    bbb    H16   6954 0.13554100   1.008000   ; qtot 232.179978
 6955         c3    232    bbb     C9   6955 -0.06455200  12.010000   ; qtot 232.115426
 6956         h1    232    bbb    H17   6956 0.13554100   1.008000   ; qtot 232.250967
 6957         h1    232    bbb    H18   6957 0.13554100   1.008000   ; qtot 232.386508
 6958         os    232    bbb     O1   6958 -0.62587700  16.000000   ; qtot 231.760631
 6959         hn    232    bbb    H19   6959 0.23982500   1.008000   ; qtot 232.000456
; residue  233 bbb rtp bbb q 1.0
 6960         n4    233    bbb     N1   6960 0.03726400  14.010000   ; qtot 232.037720
 6961         c3    233    bbb     C1   6961 -0.07020100  12.010000   ; qtot 231.967519
 6962         hx    233    bbb     H1   6962 0.12219000   1.008000   ; qtot 232.089709
 6963         hx    233    bbb     H2   6963 0.12219000   1.008000   ; qtot 232.211899
 6964         c3    233    bbb     C2   6964 -0.07020100  12.010000   ; qtot 232.141698
 6965         hx    233    bbb     H3   6965 0.12219000   1.008000   ; qtot 232.263888
 6966         hx    233    bbb     H4   6966 0.12219000   1.008000   ; qtot 232.386078
 6967         c3    233    bbb     C3   6967 -0.39007700  12.010000   ; qtot 231.996001
 6968         hx    233    bbb     H5   6968 0.14940300   1.008000   ; qtot 232.145404
 6969         hx    233    bbb     H6   6969 0.14940300   1.008000   ; qtot 232.294807
 6970         c3    233    bbb     C4   6970 0.18057300  12.010000   ; qtot 232.475380
 6971         hc    233    bbb     H7   6971 0.01788900   1.008000   ; qtot 232.493269
 6972         hc    233    bbb     H8   6972 0.01788900   1.008000   ; qtot 232.511158
 6973         c3    233    bbb     C5   6973 -0.11337700  12.010000   ; qtot 232.397781
 6974         hc    233    bbb     H9   6974 0.09515400   1.008000   ; qtot 232.492935
 6975         hc    233    bbb    H10   6975 0.09515400   1.008000   ; qtot 232.588089
 6976         c3    233    bbb     C6   6976 -0.11337700  12.010000   ; qtot 232.474712
 6977         hc    233    bbb    H11   6977 0.09515400   1.008000   ; qtot 232.569866
 6978         hc    233    bbb    H12   6978 0.09515400   1.008000   ; qtot 232.665020
 6979         c3    233    bbb     C7   6979 0.21842400  12.010000   ; qtot 232.883444
 6980         h1    233    bbb    H13   6980 0.04500300   1.008000   ; qtot 232.928447
 6981         h1    233    bbb    H14   6981 0.04500300   1.008000   ; qtot 232.973450
 6982         c3    233    bbb     C8   6982 -0.06455200  12.010000   ; qtot 232.908898
 6983         h1    233    bbb    H15   6983 0.13554100   1.008000   ; qtot 233.044439
 6984         h1    233    bbb    H16   6984 0.13554100   1.008000   ; qtot 233.179980
 6985         c3    233    bbb     C9   6985 -0.06455200  12.010000   ; qtot 233.115428
 6986         h1    233    bbb    H17   6986 0.13554100   1.008000   ; qtot 233.250969
 6987         h1    233    bbb    H18   6987 0.13554100   1.008000   ; qtot 233.386510
 6988         os    233    bbb     O1   6988 -0.62587700  16.000000   ; qtot 232.760633
 6989         hn    233    bbb    H19   6989 0.23982500   1.008000   ; qtot 233.000458
; residue  234 bbb rtp bbb q 1.0
 6990         n4    234    bbb     N1   6990 0.03726400  14.010000   ; qtot 233.037722
 6991         c3    234    bbb     C1   6991 -0.07020100  12.010000   ; qtot 232.967521
 6992         hx    234    bbb     H1   6992 0.12219000   1.008000   ; qtot 233.089711
 6993         hx    234    bbb     H2   6993 0.12219000   1.008000   ; qtot 233.211901
 6994         c3    234    bbb     C2   6994 -0.07020100  12.010000   ; qtot 233.141700
 6995         hx    234    bbb     H3   6995 0.12219000   1.008000   ; qtot 233.263890
 6996         hx    234    bbb     H4   6996 0.12219000   1.008000   ; qtot 233.386080
 6997         c3    234    bbb     C3   6997 -0.39007700  12.010000   ; qtot 232.996003
 6998         hx    234    bbb     H5   6998 0.14940300   1.008000   ; qtot 233.145406
 6999         hx    234    bbb     H6   6999 0.14940300   1.008000   ; qtot 233.294809
 7000         c3    234    bbb     C4   7000 0.18057300  12.010000   ; qtot 233.475382
 7001         hc    234    bbb     H7   7001 0.01788900   1.008000   ; qtot 233.493271
 7002         hc    234    bbb     H8   7002 0.01788900   1.008000   ; qtot 233.511160
 7003         c3    234    bbb     C5   7003 -0.11337700  12.010000   ; qtot 233.397783
 7004         hc    234    bbb     H9   7004 0.09515400   1.008000   ; qtot 233.492937
 7005         hc    234    bbb    H10   7005 0.09515400   1.008000   ; qtot 233.588091
 7006         c3    234    bbb     C6   7006 -0.11337700  12.010000   ; qtot 233.474714
 7007         hc    234    bbb    H11   7007 0.09515400   1.008000   ; qtot 233.569868
 7008         hc    234    bbb    H12   7008 0.09515400   1.008000   ; qtot 233.665022
 7009         c3    234    bbb     C7   7009 0.21842400  12.010000   ; qtot 233.883446
 7010         h1    234    bbb    H13   7010 0.04500300   1.008000   ; qtot 233.928449
 7011         h1    234    bbb    H14   7011 0.04500300   1.008000   ; qtot 233.973452
 7012         c3    234    bbb     C8   7012 -0.06455200  12.010000   ; qtot 233.908900
 7013         h1    234    bbb    H15   7013 0.13554100   1.008000   ; qtot 234.044441
 7014         h1    234    bbb    H16   7014 0.13554100   1.008000   ; qtot 234.179982
 7015         c3    234    bbb     C9   7015 -0.06455200  12.010000   ; qtot 234.115430
 7016         h1    234    bbb    H17   7016 0.13554100   1.008000   ; qtot 234.250971
 7017         h1    234    bbb    H18   7017 0.13554100   1.008000   ; qtot 234.386512
 7018         os    234    bbb     O1   7018 -0.62587700  16.000000   ; qtot 233.760635
 7019         hn    234    bbb    H19   7019 0.23982500   1.008000   ; qtot 234.000460
; residue  235 bbb rtp bbb q 1.0
 7020         n4    235    bbb     N1   7020 0.03726400  14.010000   ; qtot 234.037724
 7021         c3    235    bbb     C1   7021 -0.07020100  12.010000   ; qtot 233.967523
 7022         hx    235    bbb     H1   7022 0.12219000   1.008000   ; qtot 234.089713
 7023         hx    235    bbb     H2   7023 0.12219000   1.008000   ; qtot 234.211903
 7024         c3    235    bbb     C2   7024 -0.07020100  12.010000   ; qtot 234.141702
 7025         hx    235    bbb     H3   7025 0.12219000   1.008000   ; qtot 234.263892
 7026         hx    235    bbb     H4   7026 0.12219000   1.008000   ; qtot 234.386082
 7027         c3    235    bbb     C3   7027 -0.39007700  12.010000   ; qtot 233.996005
 7028         hx    235    bbb     H5   7028 0.14940300   1.008000   ; qtot 234.145408
 7029         hx    235    bbb     H6   7029 0.14940300   1.008000   ; qtot 234.294811
 7030         c3    235    bbb     C4   7030 0.18057300  12.010000   ; qtot 234.475384
 7031         hc    235    bbb     H7   7031 0.01788900   1.008000   ; qtot 234.493273
 7032         hc    235    bbb     H8   7032 0.01788900   1.008000   ; qtot 234.511162
 7033         c3    235    bbb     C5   7033 -0.11337700  12.010000   ; qtot 234.397785
 7034         hc    235    bbb     H9   7034 0.09515400   1.008000   ; qtot 234.492939
 7035         hc    235    bbb    H10   7035 0.09515400   1.008000   ; qtot 234.588093
 7036         c3    235    bbb     C6   7036 -0.11337700  12.010000   ; qtot 234.474716
 7037         hc    235    bbb    H11   7037 0.09515400   1.008000   ; qtot 234.569870
 7038         hc    235    bbb    H12   7038 0.09515400   1.008000   ; qtot 234.665024
 7039         c3    235    bbb     C7   7039 0.21842400  12.010000   ; qtot 234.883448
 7040         h1    235    bbb    H13   7040 0.04500300   1.008000   ; qtot 234.928451
 7041         h1    235    bbb    H14   7041 0.04500300   1.008000   ; qtot 234.973454
 7042         c3    235    bbb     C8   7042 -0.06455200  12.010000   ; qtot 234.908902
 7043         h1    235    bbb    H15   7043 0.13554100   1.008000   ; qtot 235.044443
 7044         h1    235    bbb    H16   7044 0.13554100   1.008000   ; qtot 235.179984
 7045         c3    235    bbb     C9   7045 -0.06455200  12.010000   ; qtot 235.115432
 7046         h1    235    bbb    H17   7046 0.13554100   1.008000   ; qtot 235.250973
 7047         h1    235    bbb    H18   7047 0.13554100   1.008000   ; qtot 235.386514
 7048         os    235    bbb     O1   7048 -0.62587700  16.000000   ; qtot 234.760637
 7049         hn    235    bbb    H19   7049 0.23982500   1.008000   ; qtot 235.000462
; residue  236 bbb rtp bbb q 1.0
 7050         n4    236    bbb     N1   7050 0.03726400  14.010000   ; qtot 235.037726
 7051         c3    236    bbb     C1   7051 -0.07020100  12.010000   ; qtot 234.967525
 7052         hx    236    bbb     H1   7052 0.12219000   1.008000   ; qtot 235.089715
 7053         hx    236    bbb     H2   7053 0.12219000   1.008000   ; qtot 235.211905
 7054         c3    236    bbb     C2   7054 -0.07020100  12.010000   ; qtot 235.141704
 7055         hx    236    bbb     H3   7055 0.12219000   1.008000   ; qtot 235.263894
 7056         hx    236    bbb     H4   7056 0.12219000   1.008000   ; qtot 235.386084
 7057         c3    236    bbb     C3   7057 -0.39007700  12.010000   ; qtot 234.996007
 7058         hx    236    bbb     H5   7058 0.14940300   1.008000   ; qtot 235.145410
 7059         hx    236    bbb     H6   7059 0.14940300   1.008000   ; qtot 235.294813
 7060         c3    236    bbb     C4   7060 0.18057300  12.010000   ; qtot 235.475386
 7061         hc    236    bbb     H7   7061 0.01788900   1.008000   ; qtot 235.493275
 7062         hc    236    bbb     H8   7062 0.01788900   1.008000   ; qtot 235.511164
 7063         c3    236    bbb     C5   7063 -0.11337700  12.010000   ; qtot 235.397787
 7064         hc    236    bbb     H9   7064 0.09515400   1.008000   ; qtot 235.492941
 7065         hc    236    bbb    H10   7065 0.09515400   1.008000   ; qtot 235.588095
 7066         c3    236    bbb     C6   7066 -0.11337700  12.010000   ; qtot 235.474718
 7067         hc    236    bbb    H11   7067 0.09515400   1.008000   ; qtot 235.569872
 7068         hc    236    bbb    H12   7068 0.09515400   1.008000   ; qtot 235.665026
 7069         c3    236    bbb     C7   7069 0.21842400  12.010000   ; qtot 235.883450
 7070         h1    236    bbb    H13   7070 0.04500300   1.008000   ; qtot 235.928453
 7071         h1    236    bbb    H14   7071 0.04500300   1.008000   ; qtot 235.973456
 7072         c3    236    bbb     C8   7072 -0.06455200  12.010000   ; qtot 235.908904
 7073         h1    236    bbb    H15   7073 0.13554100   1.008000   ; qtot 236.044445
 7074         h1    236    bbb    H16   7074 0.13554100   1.008000   ; qtot 236.179986
 7075         c3    236    bbb     C9   7075 -0.06455200  12.010000   ; qtot 236.115434
 7076         h1    236    bbb    H17   7076 0.13554100   1.008000   ; qtot 236.250975
 7077         h1    236    bbb    H18   7077 0.13554100   1.008000   ; qtot 236.386516
 7078         os    236    bbb     O1   7078 -0.62587700  16.000000   ; qtot 235.760639
 7079         hn    236    bbb    H19   7079 0.23982500   1.008000   ; qtot 236.000464
; residue  237 bbb rtp bbb q 1.0
 7080         n4    237    bbb     N1   7080 0.03726400  14.010000   ; qtot 236.037728
 7081         c3    237    bbb     C1   7081 -0.07020100  12.010000   ; qtot 235.967527
 7082         hx    237    bbb     H1   7082 0.12219000   1.008000   ; qtot 236.089717
 7083         hx    237    bbb     H2   7083 0.12219000   1.008000   ; qtot 236.211907
 7084         c3    237    bbb     C2   7084 -0.07020100  12.010000   ; qtot 236.141706
 7085         hx    237    bbb     H3   7085 0.12219000   1.008000   ; qtot 236.263896
 7086         hx    237    bbb     H4   7086 0.12219000   1.008000   ; qtot 236.386086
 7087         c3    237    bbb     C3   7087 -0.39007700  12.010000   ; qtot 235.996009
 7088         hx    237    bbb     H5   7088 0.14940300   1.008000   ; qtot 236.145412
 7089         hx    237    bbb     H6   7089 0.14940300   1.008000   ; qtot 236.294815
 7090         c3    237    bbb     C4   7090 0.18057300  12.010000   ; qtot 236.475388
 7091         hc    237    bbb     H7   7091 0.01788900   1.008000   ; qtot 236.493277
 7092         hc    237    bbb     H8   7092 0.01788900   1.008000   ; qtot 236.511166
 7093         c3    237    bbb     C5   7093 -0.11337700  12.010000   ; qtot 236.397789
 7094         hc    237    bbb     H9   7094 0.09515400   1.008000   ; qtot 236.492943
 7095         hc    237    bbb    H10   7095 0.09515400   1.008000   ; qtot 236.588097
 7096         c3    237    bbb     C6   7096 -0.11337700  12.010000   ; qtot 236.474720
 7097         hc    237    bbb    H11   7097 0.09515400   1.008000   ; qtot 236.569874
 7098         hc    237    bbb    H12   7098 0.09515400   1.008000   ; qtot 236.665028
 7099         c3    237    bbb     C7   7099 0.21842400  12.010000   ; qtot 236.883452
 7100         h1    237    bbb    H13   7100 0.04500300   1.008000   ; qtot 236.928455
 7101         h1    237    bbb    H14   7101 0.04500300   1.008000   ; qtot 236.973458
 7102         c3    237    bbb     C8   7102 -0.06455200  12.010000   ; qtot 236.908906
 7103         h1    237    bbb    H15   7103 0.13554100   1.008000   ; qtot 237.044447
 7104         h1    237    bbb    H16   7104 0.13554100   1.008000   ; qtot 237.179988
 7105         c3    237    bbb     C9   7105 -0.06455200  12.010000   ; qtot 237.115436
 7106         h1    237    bbb    H17   7106 0.13554100   1.008000   ; qtot 237.250977
 7107         h1    237    bbb    H18   7107 0.13554100   1.008000   ; qtot 237.386518
 7108         os    237    bbb     O1   7108 -0.62587700  16.000000   ; qtot 236.760641
 7109         hn    237    bbb    H19   7109 0.23982500   1.008000   ; qtot 237.000466
; residue  238 bbb rtp bbb q 1.0
 7110         n4    238    bbb     N1   7110 0.03726400  14.010000   ; qtot 237.037730
 7111         c3    238    bbb     C1   7111 -0.07020100  12.010000   ; qtot 236.967529
 7112         hx    238    bbb     H1   7112 0.12219000   1.008000   ; qtot 237.089719
 7113         hx    238    bbb     H2   7113 0.12219000   1.008000   ; qtot 237.211909
 7114         c3    238    bbb     C2   7114 -0.07020100  12.010000   ; qtot 237.141708
 7115         hx    238    bbb     H3   7115 0.12219000   1.008000   ; qtot 237.263898
 7116         hx    238    bbb     H4   7116 0.12219000   1.008000   ; qtot 237.386088
 7117         c3    238    bbb     C3   7117 -0.39007700  12.010000   ; qtot 236.996011
 7118         hx    238    bbb     H5   7118 0.14940300   1.008000   ; qtot 237.145414
 7119         hx    238    bbb     H6   7119 0.14940300   1.008000   ; qtot 237.294817
 7120         c3    238    bbb     C4   7120 0.18057300  12.010000   ; qtot 237.475390
 7121         hc    238    bbb     H7   7121 0.01788900   1.008000   ; qtot 237.493279
 7122         hc    238    bbb     H8   7122 0.01788900   1.008000   ; qtot 237.511168
 7123         c3    238    bbb     C5   7123 -0.11337700  12.010000   ; qtot 237.397791
 7124         hc    238    bbb     H9   7124 0.09515400   1.008000   ; qtot 237.492945
 7125         hc    238    bbb    H10   7125 0.09515400   1.008000   ; qtot 237.588099
 7126         c3    238    bbb     C6   7126 -0.11337700  12.010000   ; qtot 237.474722
 7127         hc    238    bbb    H11   7127 0.09515400   1.008000   ; qtot 237.569876
 7128         hc    238    bbb    H12   7128 0.09515400   1.008000   ; qtot 237.665030
 7129         c3    238    bbb     C7   7129 0.21842400  12.010000   ; qtot 237.883454
 7130         h1    238    bbb    H13   7130 0.04500300   1.008000   ; qtot 237.928457
 7131         h1    238    bbb    H14   7131 0.04500300   1.008000   ; qtot 237.973460
 7132         c3    238    bbb     C8   7132 -0.06455200  12.010000   ; qtot 237.908908
 7133         h1    238    bbb    H15   7133 0.13554100   1.008000   ; qtot 238.044449
 7134         h1    238    bbb    H16   7134 0.13554100   1.008000   ; qtot 238.179990
 7135         c3    238    bbb     C9   7135 -0.06455200  12.010000   ; qtot 238.115438
 7136         h1    238    bbb    H17   7136 0.13554100   1.008000   ; qtot 238.250979
 7137         h1    238    bbb    H18   7137 0.13554100   1.008000   ; qtot 238.386520
 7138         os    238    bbb     O1   7138 -0.62587700  16.000000   ; qtot 237.760643
 7139         hn    238    bbb    H19   7139 0.23982500   1.008000   ; qtot 238.000468
; residue  239 bbb rtp bbb q 1.0
 7140         n4    239    bbb     N1   7140 0.03726400  14.010000   ; qtot 238.037732
 7141         c3    239    bbb     C1   7141 -0.07020100  12.010000   ; qtot 237.967531
 7142         hx    239    bbb     H1   7142 0.12219000   1.008000   ; qtot 238.089721
 7143         hx    239    bbb     H2   7143 0.12219000   1.008000   ; qtot 238.211911
 7144         c3    239    bbb     C2   7144 -0.07020100  12.010000   ; qtot 238.141710
 7145         hx    239    bbb     H3   7145 0.12219000   1.008000   ; qtot 238.263900
 7146         hx    239    bbb     H4   7146 0.12219000   1.008000   ; qtot 238.386090
 7147         c3    239    bbb     C3   7147 -0.39007700  12.010000   ; qtot 237.996013
 7148         hx    239    bbb     H5   7148 0.14940300   1.008000   ; qtot 238.145416
 7149         hx    239    bbb     H6   7149 0.14940300   1.008000   ; qtot 238.294819
 7150         c3    239    bbb     C4   7150 0.18057300  12.010000   ; qtot 238.475392
 7151         hc    239    bbb     H7   7151 0.01788900   1.008000   ; qtot 238.493281
 7152         hc    239    bbb     H8   7152 0.01788900   1.008000   ; qtot 238.511170
 7153         c3    239    bbb     C5   7153 -0.11337700  12.010000   ; qtot 238.397793
 7154         hc    239    bbb     H9   7154 0.09515400   1.008000   ; qtot 238.492947
 7155         hc    239    bbb    H10   7155 0.09515400   1.008000   ; qtot 238.588101
 7156         c3    239    bbb     C6   7156 -0.11337700  12.010000   ; qtot 238.474724
 7157         hc    239    bbb    H11   7157 0.09515400   1.008000   ; qtot 238.569878
 7158         hc    239    bbb    H12   7158 0.09515400   1.008000   ; qtot 238.665032
 7159         c3    239    bbb     C7   7159 0.21842400  12.010000   ; qtot 238.883456
 7160         h1    239    bbb    H13   7160 0.04500300   1.008000   ; qtot 238.928459
 7161         h1    239    bbb    H14   7161 0.04500300   1.008000   ; qtot 238.973462
 7162         c3    239    bbb     C8   7162 -0.06455200  12.010000   ; qtot 238.908910
 7163         h1    239    bbb    H15   7163 0.13554100   1.008000   ; qtot 239.044451
 7164         h1    239    bbb    H16   7164 0.13554100   1.008000   ; qtot 239.179992
 7165         c3    239    bbb     C9   7165 -0.06455200  12.010000   ; qtot 239.115440
 7166         h1    239    bbb    H17   7166 0.13554100   1.008000   ; qtot 239.250981
 7167         h1    239    bbb    H18   7167 0.13554100   1.008000   ; qtot 239.386522
 7168         os    239    bbb     O1   7168 -0.62587700  16.000000   ; qtot 238.760645
 7169         hn    239    bbb    H19   7169 0.23982500   1.008000   ; qtot 239.000470
; residue  240 bbb rtp bbb q 1.0
 7170         n4    240    bbb     N1   7170 0.03726400  14.010000   ; qtot 239.037734
 7171         c3    240    bbb     C1   7171 -0.07020100  12.010000   ; qtot 238.967533
 7172         hx    240    bbb     H1   7172 0.12219000   1.008000   ; qtot 239.089723
 7173         hx    240    bbb     H2   7173 0.12219000   1.008000   ; qtot 239.211913
 7174         c3    240    bbb     C2   7174 -0.07020100  12.010000   ; qtot 239.141712
 7175         hx    240    bbb     H3   7175 0.12219000   1.008000   ; qtot 239.263902
 7176         hx    240    bbb     H4   7176 0.12219000   1.008000   ; qtot 239.386092
 7177         c3    240    bbb     C3   7177 -0.39007700  12.010000   ; qtot 238.996015
 7178         hx    240    bbb     H5   7178 0.14940300   1.008000   ; qtot 239.145418
 7179         hx    240    bbb     H6   7179 0.14940300   1.008000   ; qtot 239.294821
 7180         c3    240    bbb     C4   7180 0.18057300  12.010000   ; qtot 239.475394
 7181         hc    240    bbb     H7   7181 0.01788900   1.008000   ; qtot 239.493283
 7182         hc    240    bbb     H8   7182 0.01788900   1.008000   ; qtot 239.511172
 7183         c3    240    bbb     C5   7183 -0.11337700  12.010000   ; qtot 239.397795
 7184         hc    240    bbb     H9   7184 0.09515400   1.008000   ; qtot 239.492949
 7185         hc    240    bbb    H10   7185 0.09515400   1.008000   ; qtot 239.588103
 7186         c3    240    bbb     C6   7186 -0.11337700  12.010000   ; qtot 239.474726
 7187         hc    240    bbb    H11   7187 0.09515400   1.008000   ; qtot 239.569880
 7188         hc    240    bbb    H12   7188 0.09515400   1.008000   ; qtot 239.665034
 7189         c3    240    bbb     C7   7189 0.21842400  12.010000   ; qtot 239.883458
 7190         h1    240    bbb    H13   7190 0.04500300   1.008000   ; qtot 239.928461
 7191         h1    240    bbb    H14   7191 0.04500300   1.008000   ; qtot 239.973464
 7192         c3    240    bbb     C8   7192 -0.06455200  12.010000   ; qtot 239.908912
 7193         h1    240    bbb    H15   7193 0.13554100   1.008000   ; qtot 240.044453
 7194         h1    240    bbb    H16   7194 0.13554100   1.008000   ; qtot 240.179994
 7195         c3    240    bbb     C9   7195 -0.06455200  12.010000   ; qtot 240.115442
 7196         h1    240    bbb    H17   7196 0.13554100   1.008000   ; qtot 240.250983
 7197         h1    240    bbb    H18   7197 0.13554100   1.008000   ; qtot 240.386524
 7198         os    240    bbb     O1   7198 -0.62587700  16.000000   ; qtot 239.760647
 7199         hn    240    bbb    H19   7199 0.23982500   1.008000   ; qtot 240.000472
; residue  241 bbb rtp bbb q 1.0
 7200         n4    241    bbb     N1   7200 0.03726400  14.010000   ; qtot 240.037736
 7201         c3    241    bbb     C1   7201 -0.07020100  12.010000   ; qtot 239.967535
 7202         hx    241    bbb     H1   7202 0.12219000   1.008000   ; qtot 240.089725
 7203         hx    241    bbb     H2   7203 0.12219000   1.008000   ; qtot 240.211915
 7204         c3    241    bbb     C2   7204 -0.07020100  12.010000   ; qtot 240.141714
 7205         hx    241    bbb     H3   7205 0.12219000   1.008000   ; qtot 240.263904
 7206         hx    241    bbb     H4   7206 0.12219000   1.008000   ; qtot 240.386094
 7207         c3    241    bbb     C3   7207 -0.39007700  12.010000   ; qtot 239.996017
 7208         hx    241    bbb     H5   7208 0.14940300   1.008000   ; qtot 240.145420
 7209         hx    241    bbb     H6   7209 0.14940300   1.008000   ; qtot 240.294823
 7210         c3    241    bbb     C4   7210 0.18057300  12.010000   ; qtot 240.475396
 7211         hc    241    bbb     H7   7211 0.01788900   1.008000   ; qtot 240.493285
 7212         hc    241    bbb     H8   7212 0.01788900   1.008000   ; qtot 240.511174
 7213         c3    241    bbb     C5   7213 -0.11337700  12.010000   ; qtot 240.397797
 7214         hc    241    bbb     H9   7214 0.09515400   1.008000   ; qtot 240.492951
 7215         hc    241    bbb    H10   7215 0.09515400   1.008000   ; qtot 240.588105
 7216         c3    241    bbb     C6   7216 -0.11337700  12.010000   ; qtot 240.474728
 7217         hc    241    bbb    H11   7217 0.09515400   1.008000   ; qtot 240.569882
 7218         hc    241    bbb    H12   7218 0.09515400   1.008000   ; qtot 240.665036
 7219         c3    241    bbb     C7   7219 0.21842400  12.010000   ; qtot 240.883460
 7220         h1    241    bbb    H13   7220 0.04500300   1.008000   ; qtot 240.928463
 7221         h1    241    bbb    H14   7221 0.04500300   1.008000   ; qtot 240.973466
 7222         c3    241    bbb     C8   7222 -0.06455200  12.010000   ; qtot 240.908914
 7223         h1    241    bbb    H15   7223 0.13554100   1.008000   ; qtot 241.044455
 7224         h1    241    bbb    H16   7224 0.13554100   1.008000   ; qtot 241.179996
 7225         c3    241    bbb     C9   7225 -0.06455200  12.010000   ; qtot 241.115444
 7226         h1    241    bbb    H17   7226 0.13554100   1.008000   ; qtot 241.250985
 7227         h1    241    bbb    H18   7227 0.13554100   1.008000   ; qtot 241.386526
 7228         os    241    bbb     O1   7228 -0.62587700  16.000000   ; qtot 240.760649
 7229         hn    241    bbb    H19   7229 0.23982500   1.008000   ; qtot 241.000474
; residue  242 bbb rtp bbb q 1.0
 7230         n4    242    bbb     N1   7230 0.03726400  14.010000   ; qtot 241.037738
 7231         c3    242    bbb     C1   7231 -0.07020100  12.010000   ; qtot 240.967537
 7232         hx    242    bbb     H1   7232 0.12219000   1.008000   ; qtot 241.089727
 7233         hx    242    bbb     H2   7233 0.12219000   1.008000   ; qtot 241.211917
 7234         c3    242    bbb     C2   7234 -0.07020100  12.010000   ; qtot 241.141716
 7235         hx    242    bbb     H3   7235 0.12219000   1.008000   ; qtot 241.263906
 7236         hx    242    bbb     H4   7236 0.12219000   1.008000   ; qtot 241.386096
 7237         c3    242    bbb     C3   7237 -0.39007700  12.010000   ; qtot 240.996019
 7238         hx    242    bbb     H5   7238 0.14940300   1.008000   ; qtot 241.145422
 7239         hx    242    bbb     H6   7239 0.14940300   1.008000   ; qtot 241.294825
 7240         c3    242    bbb     C4   7240 0.18057300  12.010000   ; qtot 241.475398
 7241         hc    242    bbb     H7   7241 0.01788900   1.008000   ; qtot 241.493287
 7242         hc    242    bbb     H8   7242 0.01788900   1.008000   ; qtot 241.511176
 7243         c3    242    bbb     C5   7243 -0.11337700  12.010000   ; qtot 241.397799
 7244         hc    242    bbb     H9   7244 0.09515400   1.008000   ; qtot 241.492953
 7245         hc    242    bbb    H10   7245 0.09515400   1.008000   ; qtot 241.588107
 7246         c3    242    bbb     C6   7246 -0.11337700  12.010000   ; qtot 241.474730
 7247         hc    242    bbb    H11   7247 0.09515400   1.008000   ; qtot 241.569884
 7248         hc    242    bbb    H12   7248 0.09515400   1.008000   ; qtot 241.665038
 7249         c3    242    bbb     C7   7249 0.21842400  12.010000   ; qtot 241.883462
 7250         h1    242    bbb    H13   7250 0.04500300   1.008000   ; qtot 241.928465
 7251         h1    242    bbb    H14   7251 0.04500300   1.008000   ; qtot 241.973468
 7252         c3    242    bbb     C8   7252 -0.06455200  12.010000   ; qtot 241.908916
 7253         h1    242    bbb    H15   7253 0.13554100   1.008000   ; qtot 242.044457
 7254         h1    242    bbb    H16   7254 0.13554100   1.008000   ; qtot 242.179998
 7255         c3    242    bbb     C9   7255 -0.06455200  12.010000   ; qtot 242.115446
 7256         h1    242    bbb    H17   7256 0.13554100   1.008000   ; qtot 242.250987
 7257         h1    242    bbb    H18   7257 0.13554100   1.008000   ; qtot 242.386528
 7258         os    242    bbb     O1   7258 -0.62587700  16.000000   ; qtot 241.760651
 7259         hn    242    bbb    H19   7259 0.23982500   1.008000   ; qtot 242.000476
; residue  243 bbb rtp bbb q 1.0
 7260         n4    243    bbb     N1   7260 0.03726400  14.010000   ; qtot 242.037740
 7261         c3    243    bbb     C1   7261 -0.07020100  12.010000   ; qtot 241.967539
 7262         hx    243    bbb     H1   7262 0.12219000   1.008000   ; qtot 242.089729
 7263         hx    243    bbb     H2   7263 0.12219000   1.008000   ; qtot 242.211919
 7264         c3    243    bbb     C2   7264 -0.07020100  12.010000   ; qtot 242.141718
 7265         hx    243    bbb     H3   7265 0.12219000   1.008000   ; qtot 242.263908
 7266         hx    243    bbb     H4   7266 0.12219000   1.008000   ; qtot 242.386098
 7267         c3    243    bbb     C3   7267 -0.39007700  12.010000   ; qtot 241.996021
 7268         hx    243    bbb     H5   7268 0.14940300   1.008000   ; qtot 242.145424
 7269         hx    243    bbb     H6   7269 0.14940300   1.008000   ; qtot 242.294827
 7270         c3    243    bbb     C4   7270 0.18057300  12.010000   ; qtot 242.475400
 7271         hc    243    bbb     H7   7271 0.01788900   1.008000   ; qtot 242.493289
 7272         hc    243    bbb     H8   7272 0.01788900   1.008000   ; qtot 242.511178
 7273         c3    243    bbb     C5   7273 -0.11337700  12.010000   ; qtot 242.397801
 7274         hc    243    bbb     H9   7274 0.09515400   1.008000   ; qtot 242.492955
 7275         hc    243    bbb    H10   7275 0.09515400   1.008000   ; qtot 242.588109
 7276         c3    243    bbb     C6   7276 -0.11337700  12.010000   ; qtot 242.474732
 7277         hc    243    bbb    H11   7277 0.09515400   1.008000   ; qtot 242.569886
 7278         hc    243    bbb    H12   7278 0.09515400   1.008000   ; qtot 242.665040
 7279         c3    243    bbb     C7   7279 0.21842400  12.010000   ; qtot 242.883464
 7280         h1    243    bbb    H13   7280 0.04500300   1.008000   ; qtot 242.928467
 7281         h1    243    bbb    H14   7281 0.04500300   1.008000   ; qtot 242.973470
 7282         c3    243    bbb     C8   7282 -0.06455200  12.010000   ; qtot 242.908918
 7283         h1    243    bbb    H15   7283 0.13554100   1.008000   ; qtot 243.044459
 7284         h1    243    bbb    H16   7284 0.13554100   1.008000   ; qtot 243.180000
 7285         c3    243    bbb     C9   7285 -0.06455200  12.010000   ; qtot 243.115448
 7286         h1    243    bbb    H17   7286 0.13554100   1.008000   ; qtot 243.250989
 7287         h1    243    bbb    H18   7287 0.13554100   1.008000   ; qtot 243.386530
 7288         os    243    bbb     O1   7288 -0.62587700  16.000000   ; qtot 242.760653
 7289         hn    243    bbb    H19   7289 0.23982500   1.008000   ; qtot 243.000478
; residue  244 bbb rtp bbb q 1.0
 7290         n4    244    bbb     N1   7290 0.03726400  14.010000   ; qtot 243.037742
 7291         c3    244    bbb     C1   7291 -0.07020100  12.010000   ; qtot 242.967541
 7292         hx    244    bbb     H1   7292 0.12219000   1.008000   ; qtot 243.089731
 7293         hx    244    bbb     H2   7293 0.12219000   1.008000   ; qtot 243.211921
 7294         c3    244    bbb     C2   7294 -0.07020100  12.010000   ; qtot 243.141720
 7295         hx    244    bbb     H3   7295 0.12219000   1.008000   ; qtot 243.263910
 7296         hx    244    bbb     H4   7296 0.12219000   1.008000   ; qtot 243.386100
 7297         c3    244    bbb     C3   7297 -0.39007700  12.010000   ; qtot 242.996023
 7298         hx    244    bbb     H5   7298 0.14940300   1.008000   ; qtot 243.145426
 7299         hx    244    bbb     H6   7299 0.14940300   1.008000   ; qtot 243.294829
 7300         c3    244    bbb     C4   7300 0.18057300  12.010000   ; qtot 243.475402
 7301         hc    244    bbb     H7   7301 0.01788900   1.008000   ; qtot 243.493291
 7302         hc    244    bbb     H8   7302 0.01788900   1.008000   ; qtot 243.511180
 7303         c3    244    bbb     C5   7303 -0.11337700  12.010000   ; qtot 243.397803
 7304         hc    244    bbb     H9   7304 0.09515400   1.008000   ; qtot 243.492957
 7305         hc    244    bbb    H10   7305 0.09515400   1.008000   ; qtot 243.588111
 7306         c3    244    bbb     C6   7306 -0.11337700  12.010000   ; qtot 243.474734
 7307         hc    244    bbb    H11   7307 0.09515400   1.008000   ; qtot 243.569888
 7308         hc    244    bbb    H12   7308 0.09515400   1.008000   ; qtot 243.665042
 7309         c3    244    bbb     C7   7309 0.21842400  12.010000   ; qtot 243.883466
 7310         h1    244    bbb    H13   7310 0.04500300   1.008000   ; qtot 243.928469
 7311         h1    244    bbb    H14   7311 0.04500300   1.008000   ; qtot 243.973472
 7312         c3    244    bbb     C8   7312 -0.06455200  12.010000   ; qtot 243.908920
 7313         h1    244    bbb    H15   7313 0.13554100   1.008000   ; qtot 244.044461
 7314         h1    244    bbb    H16   7314 0.13554100   1.008000   ; qtot 244.180002
 7315         c3    244    bbb     C9   7315 -0.06455200  12.010000   ; qtot 244.115450
 7316         h1    244    bbb    H17   7316 0.13554100   1.008000   ; qtot 244.250991
 7317         h1    244    bbb    H18   7317 0.13554100   1.008000   ; qtot 244.386532
 7318         os    244    bbb     O1   7318 -0.62587700  16.000000   ; qtot 243.760655
 7319         hn    244    bbb    H19   7319 0.23982500   1.008000   ; qtot 244.000480
; residue  245 bbb rtp bbb q 1.0
 7320         n4    245    bbb     N1   7320 0.03726400  14.010000   ; qtot 244.037744
 7321         c3    245    bbb     C1   7321 -0.07020100  12.010000   ; qtot 243.967543
 7322         hx    245    bbb     H1   7322 0.12219000   1.008000   ; qtot 244.089733
 7323         hx    245    bbb     H2   7323 0.12219000   1.008000   ; qtot 244.211923
 7324         c3    245    bbb     C2   7324 -0.07020100  12.010000   ; qtot 244.141722
 7325         hx    245    bbb     H3   7325 0.12219000   1.008000   ; qtot 244.263912
 7326         hx    245    bbb     H4   7326 0.12219000   1.008000   ; qtot 244.386102
 7327         c3    245    bbb     C3   7327 -0.39007700  12.010000   ; qtot 243.996025
 7328         hx    245    bbb     H5   7328 0.14940300   1.008000   ; qtot 244.145428
 7329         hx    245    bbb     H6   7329 0.14940300   1.008000   ; qtot 244.294831
 7330         c3    245    bbb     C4   7330 0.18057300  12.010000   ; qtot 244.475404
 7331         hc    245    bbb     H7   7331 0.01788900   1.008000   ; qtot 244.493293
 7332         hc    245    bbb     H8   7332 0.01788900   1.008000   ; qtot 244.511182
 7333         c3    245    bbb     C5   7333 -0.11337700  12.010000   ; qtot 244.397805
 7334         hc    245    bbb     H9   7334 0.09515400   1.008000   ; qtot 244.492959
 7335         hc    245    bbb    H10   7335 0.09515400   1.008000   ; qtot 244.588113
 7336         c3    245    bbb     C6   7336 -0.11337700  12.010000   ; qtot 244.474736
 7337         hc    245    bbb    H11   7337 0.09515400   1.008000   ; qtot 244.569890
 7338         hc    245    bbb    H12   7338 0.09515400   1.008000   ; qtot 244.665044
 7339         c3    245    bbb     C7   7339 0.21842400  12.010000   ; qtot 244.883468
 7340         h1    245    bbb    H13   7340 0.04500300   1.008000   ; qtot 244.928471
 7341         h1    245    bbb    H14   7341 0.04500300   1.008000   ; qtot 244.973474
 7342         c3    245    bbb     C8   7342 -0.06455200  12.010000   ; qtot 244.908922
 7343         h1    245    bbb    H15   7343 0.13554100   1.008000   ; qtot 245.044463
 7344         h1    245    bbb    H16   7344 0.13554100   1.008000   ; qtot 245.180004
 7345         c3    245    bbb     C9   7345 -0.06455200  12.010000   ; qtot 245.115452
 7346         h1    245    bbb    H17   7346 0.13554100   1.008000   ; qtot 245.250993
 7347         h1    245    bbb    H18   7347 0.13554100   1.008000   ; qtot 245.386534
 7348         os    245    bbb     O1   7348 -0.62587700  16.000000   ; qtot 244.760657
 7349         hn    245    bbb    H19   7349 0.23982500   1.008000   ; qtot 245.000482
; residue  246 bbb rtp bbb q 1.0
 7350         n4    246    bbb     N1   7350 0.03726400  14.010000   ; qtot 245.037746
 7351         c3    246    bbb     C1   7351 -0.07020100  12.010000   ; qtot 244.967545
 7352         hx    246    bbb     H1   7352 0.12219000   1.008000   ; qtot 245.089735
 7353         hx    246    bbb     H2   7353 0.12219000   1.008000   ; qtot 245.211925
 7354         c3    246    bbb     C2   7354 -0.07020100  12.010000   ; qtot 245.141724
 7355         hx    246    bbb     H3   7355 0.12219000   1.008000   ; qtot 245.263914
 7356         hx    246    bbb     H4   7356 0.12219000   1.008000   ; qtot 245.386104
 7357         c3    246    bbb     C3   7357 -0.39007700  12.010000   ; qtot 244.996027
 7358         hx    246    bbb     H5   7358 0.14940300   1.008000   ; qtot 245.145430
 7359         hx    246    bbb     H6   7359 0.14940300   1.008000   ; qtot 245.294833
 7360         c3    246    bbb     C4   7360 0.18057300  12.010000   ; qtot 245.475406
 7361         hc    246    bbb     H7   7361 0.01788900   1.008000   ; qtot 245.493295
 7362         hc    246    bbb     H8   7362 0.01788900   1.008000   ; qtot 245.511184
 7363         c3    246    bbb     C5   7363 -0.11337700  12.010000   ; qtot 245.397807
 7364         hc    246    bbb     H9   7364 0.09515400   1.008000   ; qtot 245.492961
 7365         hc    246    bbb    H10   7365 0.09515400   1.008000   ; qtot 245.588115
 7366         c3    246    bbb     C6   7366 -0.11337700  12.010000   ; qtot 245.474738
 7367         hc    246    bbb    H11   7367 0.09515400   1.008000   ; qtot 245.569892
 7368         hc    246    bbb    H12   7368 0.09515400   1.008000   ; qtot 245.665046
 7369         c3    246    bbb     C7   7369 0.21842400  12.010000   ; qtot 245.883470
 7370         h1    246    bbb    H13   7370 0.04500300   1.008000   ; qtot 245.928473
 7371         h1    246    bbb    H14   7371 0.04500300   1.008000   ; qtot 245.973476
 7372         c3    246    bbb     C8   7372 -0.06455200  12.010000   ; qtot 245.908924
 7373         h1    246    bbb    H15   7373 0.13554100   1.008000   ; qtot 246.044465
 7374         h1    246    bbb    H16   7374 0.13554100   1.008000   ; qtot 246.180006
 7375         c3    246    bbb     C9   7375 -0.06455200  12.010000   ; qtot 246.115454
 7376         h1    246    bbb    H17   7376 0.13554100   1.008000   ; qtot 246.250995
 7377         h1    246    bbb    H18   7377 0.13554100   1.008000   ; qtot 246.386536
 7378         os    246    bbb     O1   7378 -0.62587700  16.000000   ; qtot 245.760659
 7379         hn    246    bbb    H19   7379 0.23982500   1.008000   ; qtot 246.000484
; residue  247 bbb rtp bbb q 1.0
 7380         n4    247    bbb     N1   7380 0.03726400  14.010000   ; qtot 246.037748
 7381         c3    247    bbb     C1   7381 -0.07020100  12.010000   ; qtot 245.967547
 7382         hx    247    bbb     H1   7382 0.12219000   1.008000   ; qtot 246.089737
 7383         hx    247    bbb     H2   7383 0.12219000   1.008000   ; qtot 246.211927
 7384         c3    247    bbb     C2   7384 -0.07020100  12.010000   ; qtot 246.141726
 7385         hx    247    bbb     H3   7385 0.12219000   1.008000   ; qtot 246.263916
 7386         hx    247    bbb     H4   7386 0.12219000   1.008000   ; qtot 246.386106
 7387         c3    247    bbb     C3   7387 -0.39007700  12.010000   ; qtot 245.996029
 7388         hx    247    bbb     H5   7388 0.14940300   1.008000   ; qtot 246.145432
 7389         hx    247    bbb     H6   7389 0.14940300   1.008000   ; qtot 246.294835
 7390         c3    247    bbb     C4   7390 0.18057300  12.010000   ; qtot 246.475408
 7391         hc    247    bbb     H7   7391 0.01788900   1.008000   ; qtot 246.493297
 7392         hc    247    bbb     H8   7392 0.01788900   1.008000   ; qtot 246.511186
 7393         c3    247    bbb     C5   7393 -0.11337700  12.010000   ; qtot 246.397809
 7394         hc    247    bbb     H9   7394 0.09515400   1.008000   ; qtot 246.492963
 7395         hc    247    bbb    H10   7395 0.09515400   1.008000   ; qtot 246.588117
 7396         c3    247    bbb     C6   7396 -0.11337700  12.010000   ; qtot 246.474740
 7397         hc    247    bbb    H11   7397 0.09515400   1.008000   ; qtot 246.569894
 7398         hc    247    bbb    H12   7398 0.09515400   1.008000   ; qtot 246.665048
 7399         c3    247    bbb     C7   7399 0.21842400  12.010000   ; qtot 246.883472
 7400         h1    247    bbb    H13   7400 0.04500300   1.008000   ; qtot 246.928475
 7401         h1    247    bbb    H14   7401 0.04500300   1.008000   ; qtot 246.973478
 7402         c3    247    bbb     C8   7402 -0.06455200  12.010000   ; qtot 246.908926
 7403         h1    247    bbb    H15   7403 0.13554100   1.008000   ; qtot 247.044467
 7404         h1    247    bbb    H16   7404 0.13554100   1.008000   ; qtot 247.180008
 7405         c3    247    bbb     C9   7405 -0.06455200  12.010000   ; qtot 247.115456
 7406         h1    247    bbb    H17   7406 0.13554100   1.008000   ; qtot 247.250997
 7407         h1    247    bbb    H18   7407 0.13554100   1.008000   ; qtot 247.386538
 7408         os    247    bbb     O1   7408 -0.62587700  16.000000   ; qtot 246.760661
 7409         hn    247    bbb    H19   7409 0.23982500   1.008000   ; qtot 247.000486
; residue  248 bbb rtp bbb q 1.0
 7410         n4    248    bbb     N1   7410 0.03726400  14.010000   ; qtot 247.037750
 7411         c3    248    bbb     C1   7411 -0.07020100  12.010000   ; qtot 246.967549
 7412         hx    248    bbb     H1   7412 0.12219000   1.008000   ; qtot 247.089739
 7413         hx    248    bbb     H2   7413 0.12219000   1.008000   ; qtot 247.211929
 7414         c3    248    bbb     C2   7414 -0.07020100  12.010000   ; qtot 247.141728
 7415         hx    248    bbb     H3   7415 0.12219000   1.008000   ; qtot 247.263918
 7416         hx    248    bbb     H4   7416 0.12219000   1.008000   ; qtot 247.386108
 7417         c3    248    bbb     C3   7417 -0.39007700  12.010000   ; qtot 246.996031
 7418         hx    248    bbb     H5   7418 0.14940300   1.008000   ; qtot 247.145434
 7419         hx    248    bbb     H6   7419 0.14940300   1.008000   ; qtot 247.294837
 7420         c3    248    bbb     C4   7420 0.18057300  12.010000   ; qtot 247.475410
 7421         hc    248    bbb     H7   7421 0.01788900   1.008000   ; qtot 247.493299
 7422         hc    248    bbb     H8   7422 0.01788900   1.008000   ; qtot 247.511188
 7423         c3    248    bbb     C5   7423 -0.11337700  12.010000   ; qtot 247.397811
 7424         hc    248    bbb     H9   7424 0.09515400   1.008000   ; qtot 247.492965
 7425         hc    248    bbb    H10   7425 0.09515400   1.008000   ; qtot 247.588119
 7426         c3    248    bbb     C6   7426 -0.11337700  12.010000   ; qtot 247.474742
 7427         hc    248    bbb    H11   7427 0.09515400   1.008000   ; qtot 247.569896
 7428         hc    248    bbb    H12   7428 0.09515400   1.008000   ; qtot 247.665050
 7429         c3    248    bbb     C7   7429 0.21842400  12.010000   ; qtot 247.883474
 7430         h1    248    bbb    H13   7430 0.04500300   1.008000   ; qtot 247.928477
 7431         h1    248    bbb    H14   7431 0.04500300   1.008000   ; qtot 247.973480
 7432         c3    248    bbb     C8   7432 -0.06455200  12.010000   ; qtot 247.908928
 7433         h1    248    bbb    H15   7433 0.13554100   1.008000   ; qtot 248.044469
 7434         h1    248    bbb    H16   7434 0.13554100   1.008000   ; qtot 248.180010
 7435         c3    248    bbb     C9   7435 -0.06455200  12.010000   ; qtot 248.115458
 7436         h1    248    bbb    H17   7436 0.13554100   1.008000   ; qtot 248.250999
 7437         h1    248    bbb    H18   7437 0.13554100   1.008000   ; qtot 248.386540
 7438         os    248    bbb     O1   7438 -0.62587700  16.000000   ; qtot 247.760663
 7439         hn    248    bbb    H19   7439 0.23982500   1.008000   ; qtot 248.000488
; residue  249 bbb rtp bbb q 1.0
 7440         n4    249    bbb     N1   7440 0.03726400  14.010000   ; qtot 248.037752
 7441         c3    249    bbb     C1   7441 -0.07020100  12.010000   ; qtot 247.967551
 7442         hx    249    bbb     H1   7442 0.12219000   1.008000   ; qtot 248.089741
 7443         hx    249    bbb     H2   7443 0.12219000   1.008000   ; qtot 248.211931
 7444         c3    249    bbb     C2   7444 -0.07020100  12.010000   ; qtot 248.141730
 7445         hx    249    bbb     H3   7445 0.12219000   1.008000   ; qtot 248.263920
 7446         hx    249    bbb     H4   7446 0.12219000   1.008000   ; qtot 248.386110
 7447         c3    249    bbb     C3   7447 -0.39007700  12.010000   ; qtot 247.996033
 7448         hx    249    bbb     H5   7448 0.14940300   1.008000   ; qtot 248.145436
 7449         hx    249    bbb     H6   7449 0.14940300   1.008000   ; qtot 248.294839
 7450         c3    249    bbb     C4   7450 0.18057300  12.010000   ; qtot 248.475412
 7451         hc    249    bbb     H7   7451 0.01788900   1.008000   ; qtot 248.493301
 7452         hc    249    bbb     H8   7452 0.01788900   1.008000   ; qtot 248.511190
 7453         c3    249    bbb     C5   7453 -0.11337700  12.010000   ; qtot 248.397813
 7454         hc    249    bbb     H9   7454 0.09515400   1.008000   ; qtot 248.492967
 7455         hc    249    bbb    H10   7455 0.09515400   1.008000   ; qtot 248.588121
 7456         c3    249    bbb     C6   7456 -0.11337700  12.010000   ; qtot 248.474744
 7457         hc    249    bbb    H11   7457 0.09515400   1.008000   ; qtot 248.569898
 7458         hc    249    bbb    H12   7458 0.09515400   1.008000   ; qtot 248.665052
 7459         c3    249    bbb     C7   7459 0.21842400  12.010000   ; qtot 248.883476
 7460         h1    249    bbb    H13   7460 0.04500300   1.008000   ; qtot 248.928479
 7461         h1    249    bbb    H14   7461 0.04500300   1.008000   ; qtot 248.973482
 7462         c3    249    bbb     C8   7462 -0.06455200  12.010000   ; qtot 248.908930
 7463         h1    249    bbb    H15   7463 0.13554100   1.008000   ; qtot 249.044471
 7464         h1    249    bbb    H16   7464 0.13554100   1.008000   ; qtot 249.180012
 7465         c3    249    bbb     C9   7465 -0.06455200  12.010000   ; qtot 249.115460
 7466         h1    249    bbb    H17   7466 0.13554100   1.008000   ; qtot 249.251001
 7467         h1    249    bbb    H18   7467 0.13554100   1.008000   ; qtot 249.386542
 7468         os    249    bbb     O1   7468 -0.62587700  16.000000   ; qtot 248.760665
 7469         hn    249    bbb    H19   7469 0.23982500   1.008000   ; qtot 249.000490
; residue  250 bbb rtp bbb q 1.0
 7470         n4    250    bbb     N1   7470 0.03726400  14.010000   ; qtot 249.037754
 7471         c3    250    bbb     C1   7471 -0.07020100  12.010000   ; qtot 248.967553
 7472         hx    250    bbb     H1   7472 0.12219000   1.008000   ; qtot 249.089743
 7473         hx    250    bbb     H2   7473 0.12219000   1.008000   ; qtot 249.211933
 7474         c3    250    bbb     C2   7474 -0.07020100  12.010000   ; qtot 249.141732
 7475         hx    250    bbb     H3   7475 0.12219000   1.008000   ; qtot 249.263922
 7476         hx    250    bbb     H4   7476 0.12219000   1.008000   ; qtot 249.386112
 7477         c3    250    bbb     C3   7477 -0.39007700  12.010000   ; qtot 248.996035
 7478         hx    250    bbb     H5   7478 0.14940300   1.008000   ; qtot 249.145438
 7479         hx    250    bbb     H6   7479 0.14940300   1.008000   ; qtot 249.294841
 7480         c3    250    bbb     C4   7480 0.18057300  12.010000   ; qtot 249.475414
 7481         hc    250    bbb     H7   7481 0.01788900   1.008000   ; qtot 249.493303
 7482         hc    250    bbb     H8   7482 0.01788900   1.008000   ; qtot 249.511192
 7483         c3    250    bbb     C5   7483 -0.11337700  12.010000   ; qtot 249.397815
 7484         hc    250    bbb     H9   7484 0.09515400   1.008000   ; qtot 249.492969
 7485         hc    250    bbb    H10   7485 0.09515400   1.008000   ; qtot 249.588123
 7486         c3    250    bbb     C6   7486 -0.11337700  12.010000   ; qtot 249.474746
 7487         hc    250    bbb    H11   7487 0.09515400   1.008000   ; qtot 249.569900
 7488         hc    250    bbb    H12   7488 0.09515400   1.008000   ; qtot 249.665054
 7489         c3    250    bbb     C7   7489 0.21842400  12.010000   ; qtot 249.883478
 7490         h1    250    bbb    H13   7490 0.04500300   1.008000   ; qtot 249.928481
 7491         h1    250    bbb    H14   7491 0.04500300   1.008000   ; qtot 249.973484
 7492         c3    250    bbb     C8   7492 -0.06455200  12.010000   ; qtot 249.908932
 7493         h1    250    bbb    H15   7493 0.13554100   1.008000   ; qtot 250.044473
 7494         h1    250    bbb    H16   7494 0.13554100   1.008000   ; qtot 250.180014
 7495         c3    250    bbb     C9   7495 -0.06455200  12.010000   ; qtot 250.115462
 7496         h1    250    bbb    H17   7496 0.13554100   1.008000   ; qtot 250.251003
 7497         h1    250    bbb    H18   7497 0.13554100   1.008000   ; qtot 250.386544
 7498         os    250    bbb     O1   7498 -0.62587700  16.000000   ; qtot 249.760667
 7499         hn    250    bbb    H19   7499 0.23982500   1.008000   ; qtot 250.000492
; residue  251 bbb rtp bbb q 1.0
 7500         n4    251    bbb     N1   7500 0.03726400  14.010000   ; qtot 250.037756
 7501         c3    251    bbb     C1   7501 -0.07020100  12.010000   ; qtot 249.967555
 7502         hx    251    bbb     H1   7502 0.12219000   1.008000   ; qtot 250.089745
 7503         hx    251    bbb     H2   7503 0.12219000   1.008000   ; qtot 250.211935
 7504         c3    251    bbb     C2   7504 -0.07020100  12.010000   ; qtot 250.141734
 7505         hx    251    bbb     H3   7505 0.12219000   1.008000   ; qtot 250.263924
 7506         hx    251    bbb     H4   7506 0.12219000   1.008000   ; qtot 250.386114
 7507         c3    251    bbb     C3   7507 -0.39007700  12.010000   ; qtot 249.996037
 7508         hx    251    bbb     H5   7508 0.14940300   1.008000   ; qtot 250.145440
 7509         hx    251    bbb     H6   7509 0.14940300   1.008000   ; qtot 250.294843
 7510         c3    251    bbb     C4   7510 0.18057300  12.010000   ; qtot 250.475416
 7511         hc    251    bbb     H7   7511 0.01788900   1.008000   ; qtot 250.493305
 7512         hc    251    bbb     H8   7512 0.01788900   1.008000   ; qtot 250.511194
 7513         c3    251    bbb     C5   7513 -0.11337700  12.010000   ; qtot 250.397817
 7514         hc    251    bbb     H9   7514 0.09515400   1.008000   ; qtot 250.492971
 7515         hc    251    bbb    H10   7515 0.09515400   1.008000   ; qtot 250.588125
 7516         c3    251    bbb     C6   7516 -0.11337700  12.010000   ; qtot 250.474748
 7517         hc    251    bbb    H11   7517 0.09515400   1.008000   ; qtot 250.569902
 7518         hc    251    bbb    H12   7518 0.09515400   1.008000   ; qtot 250.665056
 7519         c3    251    bbb     C7   7519 0.21842400  12.010000   ; qtot 250.883480
 7520         h1    251    bbb    H13   7520 0.04500300   1.008000   ; qtot 250.928483
 7521         h1    251    bbb    H14   7521 0.04500300   1.008000   ; qtot 250.973486
 7522         c3    251    bbb     C8   7522 -0.06455200  12.010000   ; qtot 250.908934
 7523         h1    251    bbb    H15   7523 0.13554100   1.008000   ; qtot 251.044475
 7524         h1    251    bbb    H16   7524 0.13554100   1.008000   ; qtot 251.180016
 7525         c3    251    bbb     C9   7525 -0.06455200  12.010000   ; qtot 251.115464
 7526         h1    251    bbb    H17   7526 0.13554100   1.008000   ; qtot 251.251005
 7527         h1    251    bbb    H18   7527 0.13554100   1.008000   ; qtot 251.386546
 7528         os    251    bbb     O1   7528 -0.62587700  16.000000   ; qtot 250.760669
 7529         hn    251    bbb    H19   7529 0.23982500   1.008000   ; qtot 251.000494
; residue  252 bbb rtp bbb q 1.0
 7530         n4    252    bbb     N1   7530 0.03726400  14.010000   ; qtot 251.037758
 7531         c3    252    bbb     C1   7531 -0.07020100  12.010000   ; qtot 250.967557
 7532         hx    252    bbb     H1   7532 0.12219000   1.008000   ; qtot 251.089747
 7533         hx    252    bbb     H2   7533 0.12219000   1.008000   ; qtot 251.211937
 7534         c3    252    bbb     C2   7534 -0.07020100  12.010000   ; qtot 251.141736
 7535         hx    252    bbb     H3   7535 0.12219000   1.008000   ; qtot 251.263926
 7536         hx    252    bbb     H4   7536 0.12219000   1.008000   ; qtot 251.386116
 7537         c3    252    bbb     C3   7537 -0.39007700  12.010000   ; qtot 250.996039
 7538         hx    252    bbb     H5   7538 0.14940300   1.008000   ; qtot 251.145442
 7539         hx    252    bbb     H6   7539 0.14940300   1.008000   ; qtot 251.294845
 7540         c3    252    bbb     C4   7540 0.18057300  12.010000   ; qtot 251.475418
 7541         hc    252    bbb     H7   7541 0.01788900   1.008000   ; qtot 251.493307
 7542         hc    252    bbb     H8   7542 0.01788900   1.008000   ; qtot 251.511196
 7543         c3    252    bbb     C5   7543 -0.11337700  12.010000   ; qtot 251.397819
 7544         hc    252    bbb     H9   7544 0.09515400   1.008000   ; qtot 251.492973
 7545         hc    252    bbb    H10   7545 0.09515400   1.008000   ; qtot 251.588127
 7546         c3    252    bbb     C6   7546 -0.11337700  12.010000   ; qtot 251.474750
 7547         hc    252    bbb    H11   7547 0.09515400   1.008000   ; qtot 251.569904
 7548         hc    252    bbb    H12   7548 0.09515400   1.008000   ; qtot 251.665058
 7549         c3    252    bbb     C7   7549 0.21842400  12.010000   ; qtot 251.883482
 7550         h1    252    bbb    H13   7550 0.04500300   1.008000   ; qtot 251.928485
 7551         h1    252    bbb    H14   7551 0.04500300   1.008000   ; qtot 251.973488
 7552         c3    252    bbb     C8   7552 -0.06455200  12.010000   ; qtot 251.908936
 7553         h1    252    bbb    H15   7553 0.13554100   1.008000   ; qtot 252.044477
 7554         h1    252    bbb    H16   7554 0.13554100   1.008000   ; qtot 252.180018
 7555         c3    252    bbb     C9   7555 -0.06455200  12.010000   ; qtot 252.115466
 7556         h1    252    bbb    H17   7556 0.13554100   1.008000   ; qtot 252.251007
 7557         h1    252    bbb    H18   7557 0.13554100   1.008000   ; qtot 252.386548
 7558         os    252    bbb     O1   7558 -0.62587700  16.000000   ; qtot 251.760671
 7559         hn    252    bbb    H19   7559 0.23982500   1.008000   ; qtot 252.000496
; residue  253 bbb rtp bbb q 1.0
 7560         n4    253    bbb     N1   7560 0.03726400  14.010000   ; qtot 252.037760
 7561         c3    253    bbb     C1   7561 -0.07020100  12.010000   ; qtot 251.967559
 7562         hx    253    bbb     H1   7562 0.12219000   1.008000   ; qtot 252.089749
 7563         hx    253    bbb     H2   7563 0.12219000   1.008000   ; qtot 252.211939
 7564         c3    253    bbb     C2   7564 -0.07020100  12.010000   ; qtot 252.141738
 7565         hx    253    bbb     H3   7565 0.12219000   1.008000   ; qtot 252.263928
 7566         hx    253    bbb     H4   7566 0.12219000   1.008000   ; qtot 252.386118
 7567         c3    253    bbb     C3   7567 -0.39007700  12.010000   ; qtot 251.996041
 7568         hx    253    bbb     H5   7568 0.14940300   1.008000   ; qtot 252.145444
 7569         hx    253    bbb     H6   7569 0.14940300   1.008000   ; qtot 252.294847
 7570         c3    253    bbb     C4   7570 0.18057300  12.010000   ; qtot 252.475420
 7571         hc    253    bbb     H7   7571 0.01788900   1.008000   ; qtot 252.493309
 7572         hc    253    bbb     H8   7572 0.01788900   1.008000   ; qtot 252.511198
 7573         c3    253    bbb     C5   7573 -0.11337700  12.010000   ; qtot 252.397821
 7574         hc    253    bbb     H9   7574 0.09515400   1.008000   ; qtot 252.492975
 7575         hc    253    bbb    H10   7575 0.09515400   1.008000   ; qtot 252.588129
 7576         c3    253    bbb     C6   7576 -0.11337700  12.010000   ; qtot 252.474752
 7577         hc    253    bbb    H11   7577 0.09515400   1.008000   ; qtot 252.569906
 7578         hc    253    bbb    H12   7578 0.09515400   1.008000   ; qtot 252.665060
 7579         c3    253    bbb     C7   7579 0.21842400  12.010000   ; qtot 252.883484
 7580         h1    253    bbb    H13   7580 0.04500300   1.008000   ; qtot 252.928487
 7581         h1    253    bbb    H14   7581 0.04500300   1.008000   ; qtot 252.973490
 7582         c3    253    bbb     C8   7582 -0.06455200  12.010000   ; qtot 252.908938
 7583         h1    253    bbb    H15   7583 0.13554100   1.008000   ; qtot 253.044479
 7584         h1    253    bbb    H16   7584 0.13554100   1.008000   ; qtot 253.180020
 7585         c3    253    bbb     C9   7585 -0.06455200  12.010000   ; qtot 253.115468
 7586         h1    253    bbb    H17   7586 0.13554100   1.008000   ; qtot 253.251009
 7587         h1    253    bbb    H18   7587 0.13554100   1.008000   ; qtot 253.386550
 7588         os    253    bbb     O1   7588 -0.62587700  16.000000   ; qtot 252.760673
 7589         hn    253    bbb    H19   7589 0.23982500   1.008000   ; qtot 253.000498
; residue  254 bbb rtp bbb q 1.0
 7590         n4    254    bbb     N1   7590 0.03726400  14.010000   ; qtot 253.037762
 7591         c3    254    bbb     C1   7591 -0.07020100  12.010000   ; qtot 252.967561
 7592         hx    254    bbb     H1   7592 0.12219000   1.008000   ; qtot 253.089751
 7593         hx    254    bbb     H2   7593 0.12219000   1.008000   ; qtot 253.211941
 7594         c3    254    bbb     C2   7594 -0.07020100  12.010000   ; qtot 253.141740
 7595         hx    254    bbb     H3   7595 0.12219000   1.008000   ; qtot 253.263930
 7596         hx    254    bbb     H4   7596 0.12219000   1.008000   ; qtot 253.386120
 7597         c3    254    bbb     C3   7597 -0.39007700  12.010000   ; qtot 252.996043
 7598         hx    254    bbb     H5   7598 0.14940300   1.008000   ; qtot 253.145446
 7599         hx    254    bbb     H6   7599 0.14940300   1.008000   ; qtot 253.294849
 7600         c3    254    bbb     C4   7600 0.18057300  12.010000   ; qtot 253.475422
 7601         hc    254    bbb     H7   7601 0.01788900   1.008000   ; qtot 253.493311
 7602         hc    254    bbb     H8   7602 0.01788900   1.008000   ; qtot 253.511200
 7603         c3    254    bbb     C5   7603 -0.11337700  12.010000   ; qtot 253.397823
 7604         hc    254    bbb     H9   7604 0.09515400   1.008000   ; qtot 253.492977
 7605         hc    254    bbb    H10   7605 0.09515400   1.008000   ; qtot 253.588131
 7606         c3    254    bbb     C6   7606 -0.11337700  12.010000   ; qtot 253.474754
 7607         hc    254    bbb    H11   7607 0.09515400   1.008000   ; qtot 253.569908
 7608         hc    254    bbb    H12   7608 0.09515400   1.008000   ; qtot 253.665062
 7609         c3    254    bbb     C7   7609 0.21842400  12.010000   ; qtot 253.883486
 7610         h1    254    bbb    H13   7610 0.04500300   1.008000   ; qtot 253.928489
 7611         h1    254    bbb    H14   7611 0.04500300   1.008000   ; qtot 253.973492
 7612         c3    254    bbb     C8   7612 -0.06455200  12.010000   ; qtot 253.908940
 7613         h1    254    bbb    H15   7613 0.13554100   1.008000   ; qtot 254.044481
 7614         h1    254    bbb    H16   7614 0.13554100   1.008000   ; qtot 254.180022
 7615         c3    254    bbb     C9   7615 -0.06455200  12.010000   ; qtot 254.115470
 7616         h1    254    bbb    H17   7616 0.13554100   1.008000   ; qtot 254.251011
 7617         h1    254    bbb    H18   7617 0.13554100   1.008000   ; qtot 254.386552
 7618         os    254    bbb     O1   7618 -0.62587700  16.000000   ; qtot 253.760675
 7619         hn    254    bbb    H19   7619 0.23982500   1.008000   ; qtot 254.000500
; residue  255 bbb rtp bbb q 1.0
 7620         n4    255    bbb     N1   7620 0.03726400  14.010000   ; qtot 254.037764
 7621         c3    255    bbb     C1   7621 -0.07020100  12.010000   ; qtot 253.967563
 7622         hx    255    bbb     H1   7622 0.12219000   1.008000   ; qtot 254.089753
 7623         hx    255    bbb     H2   7623 0.12219000   1.008000   ; qtot 254.211943
 7624         c3    255    bbb     C2   7624 -0.07020100  12.010000   ; qtot 254.141742
 7625         hx    255    bbb     H3   7625 0.12219000   1.008000   ; qtot 254.263932
 7626         hx    255    bbb     H4   7626 0.12219000   1.008000   ; qtot 254.386122
 7627         c3    255    bbb     C3   7627 -0.39007700  12.010000   ; qtot 253.996045
 7628         hx    255    bbb     H5   7628 0.14940300   1.008000   ; qtot 254.145448
 7629         hx    255    bbb     H6   7629 0.14940300   1.008000   ; qtot 254.294851
 7630         c3    255    bbb     C4   7630 0.18057300  12.010000   ; qtot 254.475424
 7631         hc    255    bbb     H7   7631 0.01788900   1.008000   ; qtot 254.493313
 7632         hc    255    bbb     H8   7632 0.01788900   1.008000   ; qtot 254.511202
 7633         c3    255    bbb     C5   7633 -0.11337700  12.010000   ; qtot 254.397825
 7634         hc    255    bbb     H9   7634 0.09515400   1.008000   ; qtot 254.492979
 7635         hc    255    bbb    H10   7635 0.09515400   1.008000   ; qtot 254.588133
 7636         c3    255    bbb     C6   7636 -0.11337700  12.010000   ; qtot 254.474756
 7637         hc    255    bbb    H11   7637 0.09515400   1.008000   ; qtot 254.569910
 7638         hc    255    bbb    H12   7638 0.09515400   1.008000   ; qtot 254.665064
 7639         c3    255    bbb     C7   7639 0.21842400  12.010000   ; qtot 254.883488
 7640         h1    255    bbb    H13   7640 0.04500300   1.008000   ; qtot 254.928491
 7641         h1    255    bbb    H14   7641 0.04500300   1.008000   ; qtot 254.973494
 7642         c3    255    bbb     C8   7642 -0.06455200  12.010000   ; qtot 254.908942
 7643         h1    255    bbb    H15   7643 0.13554100   1.008000   ; qtot 255.044483
 7644         h1    255    bbb    H16   7644 0.13554100   1.008000   ; qtot 255.180024
 7645         c3    255    bbb     C9   7645 -0.06455200  12.010000   ; qtot 255.115472
 7646         h1    255    bbb    H17   7646 0.13554100   1.008000   ; qtot 255.251013
 7647         h1    255    bbb    H18   7647 0.13554100   1.008000   ; qtot 255.386554
 7648         os    255    bbb     O1   7648 -0.62587700  16.000000   ; qtot 254.760677
 7649         hn    255    bbb    H19   7649 0.23982500   1.008000   ; qtot 255.000502
; residue  256 bbb rtp bbb q 1.0
 7650         n4    256    bbb     N1   7650 0.03726400  14.010000   ; qtot 255.037766
 7651         c3    256    bbb     C1   7651 -0.07020100  12.010000   ; qtot 254.967565
 7652         hx    256    bbb     H1   7652 0.12219000   1.008000   ; qtot 255.089755
 7653         hx    256    bbb     H2   7653 0.12219000   1.008000   ; qtot 255.211945
 7654         c3    256    bbb     C2   7654 -0.07020100  12.010000   ; qtot 255.141744
 7655         hx    256    bbb     H3   7655 0.12219000   1.008000   ; qtot 255.263934
 7656         hx    256    bbb     H4   7656 0.12219000   1.008000   ; qtot 255.386124
 7657         c3    256    bbb     C3   7657 -0.39007700  12.010000   ; qtot 254.996047
 7658         hx    256    bbb     H5   7658 0.14940300   1.008000   ; qtot 255.145450
 7659         hx    256    bbb     H6   7659 0.14940300   1.008000   ; qtot 255.294853
 7660         c3    256    bbb     C4   7660 0.18057300  12.010000   ; qtot 255.475426
 7661         hc    256    bbb     H7   7661 0.01788900   1.008000   ; qtot 255.493315
 7662         hc    256    bbb     H8   7662 0.01788900   1.008000   ; qtot 255.511204
 7663         c3    256    bbb     C5   7663 -0.11337700  12.010000   ; qtot 255.397827
 7664         hc    256    bbb     H9   7664 0.09515400   1.008000   ; qtot 255.492981
 7665         hc    256    bbb    H10   7665 0.09515400   1.008000   ; qtot 255.588135
 7666         c3    256    bbb     C6   7666 -0.11337700  12.010000   ; qtot 255.474758
 7667         hc    256    bbb    H11   7667 0.09515400   1.008000   ; qtot 255.569912
 7668         hc    256    bbb    H12   7668 0.09515400   1.008000   ; qtot 255.665066
 7669         c3    256    bbb     C7   7669 0.21842400  12.010000   ; qtot 255.883490
 7670         h1    256    bbb    H13   7670 0.04500300   1.008000   ; qtot 255.928493
 7671         h1    256    bbb    H14   7671 0.04500300   1.008000   ; qtot 255.973496
 7672         c3    256    bbb     C8   7672 -0.06455200  12.010000   ; qtot 255.908944
 7673         h1    256    bbb    H15   7673 0.13554100   1.008000   ; qtot 256.044485
 7674         h1    256    bbb    H16   7674 0.13554100   1.008000   ; qtot 256.180026
 7675         c3    256    bbb     C9   7675 -0.06455200  12.010000   ; qtot 256.115474
 7676         h1    256    bbb    H17   7676 0.13554100   1.008000   ; qtot 256.251015
 7677         h1    256    bbb    H18   7677 0.13554100   1.008000   ; qtot 256.386556
 7678         os    256    bbb     O1   7678 -0.62587700  16.000000   ; qtot 255.760679
 7679         hn    256    bbb    H19   7679 0.23982500   1.008000   ; qtot 256.000504
; residue  257 bbb rtp bbb q 1.0
 7680         n4    257    bbb     N1   7680 0.03726400  14.010000   ; qtot 256.037768
 7681         c3    257    bbb     C1   7681 -0.07020100  12.010000   ; qtot 255.967567
 7682         hx    257    bbb     H1   7682 0.12219000   1.008000   ; qtot 256.089757
 7683         hx    257    bbb     H2   7683 0.12219000   1.008000   ; qtot 256.211947
 7684         c3    257    bbb     C2   7684 -0.07020100  12.010000   ; qtot 256.141746
 7685         hx    257    bbb     H3   7685 0.12219000   1.008000   ; qtot 256.263936
 7686         hx    257    bbb     H4   7686 0.12219000   1.008000   ; qtot 256.386126
 7687         c3    257    bbb     C3   7687 -0.39007700  12.010000   ; qtot 255.996049
 7688         hx    257    bbb     H5   7688 0.14940300   1.008000   ; qtot 256.145452
 7689         hx    257    bbb     H6   7689 0.14940300   1.008000   ; qtot 256.294855
 7690         c3    257    bbb     C4   7690 0.18057300  12.010000   ; qtot 256.475428
 7691         hc    257    bbb     H7   7691 0.01788900   1.008000   ; qtot 256.493317
 7692         hc    257    bbb     H8   7692 0.01788900   1.008000   ; qtot 256.511206
 7693         c3    257    bbb     C5   7693 -0.11337700  12.010000   ; qtot 256.397829
 7694         hc    257    bbb     H9   7694 0.09515400   1.008000   ; qtot 256.492983
 7695         hc    257    bbb    H10   7695 0.09515400   1.008000   ; qtot 256.588137
 7696         c3    257    bbb     C6   7696 -0.11337700  12.010000   ; qtot 256.474760
 7697         hc    257    bbb    H11   7697 0.09515400   1.008000   ; qtot 256.569914
 7698         hc    257    bbb    H12   7698 0.09515400   1.008000   ; qtot 256.665068
 7699         c3    257    bbb     C7   7699 0.21842400  12.010000   ; qtot 256.883492
 7700         h1    257    bbb    H13   7700 0.04500300   1.008000   ; qtot 256.928495
 7701         h1    257    bbb    H14   7701 0.04500300   1.008000   ; qtot 256.973498
 7702         c3    257    bbb     C8   7702 -0.06455200  12.010000   ; qtot 256.908946
 7703         h1    257    bbb    H15   7703 0.13554100   1.008000   ; qtot 257.044487
 7704         h1    257    bbb    H16   7704 0.13554100   1.008000   ; qtot 257.180028
 7705         c3    257    bbb     C9   7705 -0.06455200  12.010000   ; qtot 257.115476
 7706         h1    257    bbb    H17   7706 0.13554100   1.008000   ; qtot 257.251017
 7707         h1    257    bbb    H18   7707 0.13554100   1.008000   ; qtot 257.386558
 7708         os    257    bbb     O1   7708 -0.62587700  16.000000   ; qtot 256.760681
 7709         hn    257    bbb    H19   7709 0.23982500   1.008000   ; qtot 257.000506
; residue  258 bbb rtp bbb q 1.0
 7710         n4    258    bbb     N1   7710 0.03726400  14.010000   ; qtot 257.037770
 7711         c3    258    bbb     C1   7711 -0.07020100  12.010000   ; qtot 256.967569
 7712         hx    258    bbb     H1   7712 0.12219000   1.008000   ; qtot 257.089759
 7713         hx    258    bbb     H2   7713 0.12219000   1.008000   ; qtot 257.211949
 7714         c3    258    bbb     C2   7714 -0.07020100  12.010000   ; qtot 257.141748
 7715         hx    258    bbb     H3   7715 0.12219000   1.008000   ; qtot 257.263938
 7716         hx    258    bbb     H4   7716 0.12219000   1.008000   ; qtot 257.386128
 7717         c3    258    bbb     C3   7717 -0.39007700  12.010000   ; qtot 256.996051
 7718         hx    258    bbb     H5   7718 0.14940300   1.008000   ; qtot 257.145454
 7719         hx    258    bbb     H6   7719 0.14940300   1.008000   ; qtot 257.294857
 7720         c3    258    bbb     C4   7720 0.18057300  12.010000   ; qtot 257.475430
 7721         hc    258    bbb     H7   7721 0.01788900   1.008000   ; qtot 257.493319
 7722         hc    258    bbb     H8   7722 0.01788900   1.008000   ; qtot 257.511208
 7723         c3    258    bbb     C5   7723 -0.11337700  12.010000   ; qtot 257.397831
 7724         hc    258    bbb     H9   7724 0.09515400   1.008000   ; qtot 257.492985
 7725         hc    258    bbb    H10   7725 0.09515400   1.008000   ; qtot 257.588139
 7726         c3    258    bbb     C6   7726 -0.11337700  12.010000   ; qtot 257.474762
 7727         hc    258    bbb    H11   7727 0.09515400   1.008000   ; qtot 257.569916
 7728         hc    258    bbb    H12   7728 0.09515400   1.008000   ; qtot 257.665070
 7729         c3    258    bbb     C7   7729 0.21842400  12.010000   ; qtot 257.883494
 7730         h1    258    bbb    H13   7730 0.04500300   1.008000   ; qtot 257.928497
 7731         h1    258    bbb    H14   7731 0.04500300   1.008000   ; qtot 257.973500
 7732         c3    258    bbb     C8   7732 -0.06455200  12.010000   ; qtot 257.908948
 7733         h1    258    bbb    H15   7733 0.13554100   1.008000   ; qtot 258.044489
 7734         h1    258    bbb    H16   7734 0.13554100   1.008000   ; qtot 258.180030
 7735         c3    258    bbb     C9   7735 -0.06455200  12.010000   ; qtot 258.115478
 7736         h1    258    bbb    H17   7736 0.13554100   1.008000   ; qtot 258.251019
 7737         h1    258    bbb    H18   7737 0.13554100   1.008000   ; qtot 258.386560
 7738         os    258    bbb     O1   7738 -0.62587700  16.000000   ; qtot 257.760683
 7739         hn    258    bbb    H19   7739 0.23982500   1.008000   ; qtot 258.000508
; residue  259 bbb rtp bbb q 1.0
 7740         n4    259    bbb     N1   7740 0.03726400  14.010000   ; qtot 258.037772
 7741         c3    259    bbb     C1   7741 -0.07020100  12.010000   ; qtot 257.967571
 7742         hx    259    bbb     H1   7742 0.12219000   1.008000   ; qtot 258.089761
 7743         hx    259    bbb     H2   7743 0.12219000   1.008000   ; qtot 258.211951
 7744         c3    259    bbb     C2   7744 -0.07020100  12.010000   ; qtot 258.141750
 7745         hx    259    bbb     H3   7745 0.12219000   1.008000   ; qtot 258.263940
 7746         hx    259    bbb     H4   7746 0.12219000   1.008000   ; qtot 258.386130
 7747         c3    259    bbb     C3   7747 -0.39007700  12.010000   ; qtot 257.996053
 7748         hx    259    bbb     H5   7748 0.14940300   1.008000   ; qtot 258.145456
 7749         hx    259    bbb     H6   7749 0.14940300   1.008000   ; qtot 258.294859
 7750         c3    259    bbb     C4   7750 0.18057300  12.010000   ; qtot 258.475432
 7751         hc    259    bbb     H7   7751 0.01788900   1.008000   ; qtot 258.493321
 7752         hc    259    bbb     H8   7752 0.01788900   1.008000   ; qtot 258.511210
 7753         c3    259    bbb     C5   7753 -0.11337700  12.010000   ; qtot 258.397833
 7754         hc    259    bbb     H9   7754 0.09515400   1.008000   ; qtot 258.492987
 7755         hc    259    bbb    H10   7755 0.09515400   1.008000   ; qtot 258.588141
 7756         c3    259    bbb     C6   7756 -0.11337700  12.010000   ; qtot 258.474764
 7757         hc    259    bbb    H11   7757 0.09515400   1.008000   ; qtot 258.569918
 7758         hc    259    bbb    H12   7758 0.09515400   1.008000   ; qtot 258.665072
 7759         c3    259    bbb     C7   7759 0.21842400  12.010000   ; qtot 258.883496
 7760         h1    259    bbb    H13   7760 0.04500300   1.008000   ; qtot 258.928499
 7761         h1    259    bbb    H14   7761 0.04500300   1.008000   ; qtot 258.973502
 7762         c3    259    bbb     C8   7762 -0.06455200  12.010000   ; qtot 258.908950
 7763         h1    259    bbb    H15   7763 0.13554100   1.008000   ; qtot 259.044491
 7764         h1    259    bbb    H16   7764 0.13554100   1.008000   ; qtot 259.180032
 7765         c3    259    bbb     C9   7765 -0.06455200  12.010000   ; qtot 259.115480
 7766         h1    259    bbb    H17   7766 0.13554100   1.008000   ; qtot 259.251021
 7767         h1    259    bbb    H18   7767 0.13554100   1.008000   ; qtot 259.386562
 7768         os    259    bbb     O1   7768 -0.62587700  16.000000   ; qtot 258.760685
 7769         hn    259    bbb    H19   7769 0.23982500   1.008000   ; qtot 259.000510
; residue  260 bbb rtp bbb q 1.0
 7770         n4    260    bbb     N1   7770 0.03726400  14.010000   ; qtot 259.037774
 7771         c3    260    bbb     C1   7771 -0.07020100  12.010000   ; qtot 258.967573
 7772         hx    260    bbb     H1   7772 0.12219000   1.008000   ; qtot 259.089763
 7773         hx    260    bbb     H2   7773 0.12219000   1.008000   ; qtot 259.211953
 7774         c3    260    bbb     C2   7774 -0.07020100  12.010000   ; qtot 259.141752
 7775         hx    260    bbb     H3   7775 0.12219000   1.008000   ; qtot 259.263942
 7776         hx    260    bbb     H4   7776 0.12219000   1.008000   ; qtot 259.386132
 7777         c3    260    bbb     C3   7777 -0.39007700  12.010000   ; qtot 258.996055
 7778         hx    260    bbb     H5   7778 0.14940300   1.008000   ; qtot 259.145458
 7779         hx    260    bbb     H6   7779 0.14940300   1.008000   ; qtot 259.294861
 7780         c3    260    bbb     C4   7780 0.18057300  12.010000   ; qtot 259.475434
 7781         hc    260    bbb     H7   7781 0.01788900   1.008000   ; qtot 259.493323
 7782         hc    260    bbb     H8   7782 0.01788900   1.008000   ; qtot 259.511212
 7783         c3    260    bbb     C5   7783 -0.11337700  12.010000   ; qtot 259.397835
 7784         hc    260    bbb     H9   7784 0.09515400   1.008000   ; qtot 259.492989
 7785         hc    260    bbb    H10   7785 0.09515400   1.008000   ; qtot 259.588143
 7786         c3    260    bbb     C6   7786 -0.11337700  12.010000   ; qtot 259.474766
 7787         hc    260    bbb    H11   7787 0.09515400   1.008000   ; qtot 259.569920
 7788         hc    260    bbb    H12   7788 0.09515400   1.008000   ; qtot 259.665074
 7789         c3    260    bbb     C7   7789 0.21842400  12.010000   ; qtot 259.883498
 7790         h1    260    bbb    H13   7790 0.04500300   1.008000   ; qtot 259.928501
 7791         h1    260    bbb    H14   7791 0.04500300   1.008000   ; qtot 259.973504
 7792         c3    260    bbb     C8   7792 -0.06455200  12.010000   ; qtot 259.908952
 7793         h1    260    bbb    H15   7793 0.13554100   1.008000   ; qtot 260.044493
 7794         h1    260    bbb    H16   7794 0.13554100   1.008000   ; qtot 260.180034
 7795         c3    260    bbb     C9   7795 -0.06455200  12.010000   ; qtot 260.115482
 7796         h1    260    bbb    H17   7796 0.13554100   1.008000   ; qtot 260.251023
 7797         h1    260    bbb    H18   7797 0.13554100   1.008000   ; qtot 260.386564
 7798         os    260    bbb     O1   7798 -0.62587700  16.000000   ; qtot 259.760687
 7799         hn    260    bbb    H19   7799 0.23982500   1.008000   ; qtot 260.000512
; residue  261 bbb rtp bbb q 1.0
 7800         n4    261    bbb     N1   7800 0.03726400  14.010000   ; qtot 260.037776
 7801         c3    261    bbb     C1   7801 -0.07020100  12.010000   ; qtot 259.967575
 7802         hx    261    bbb     H1   7802 0.12219000   1.008000   ; qtot 260.089765
 7803         hx    261    bbb     H2   7803 0.12219000   1.008000   ; qtot 260.211955
 7804         c3    261    bbb     C2   7804 -0.07020100  12.010000   ; qtot 260.141754
 7805         hx    261    bbb     H3   7805 0.12219000   1.008000   ; qtot 260.263944
 7806         hx    261    bbb     H4   7806 0.12219000   1.008000   ; qtot 260.386134
 7807         c3    261    bbb     C3   7807 -0.39007700  12.010000   ; qtot 259.996057
 7808         hx    261    bbb     H5   7808 0.14940300   1.008000   ; qtot 260.145460
 7809         hx    261    bbb     H6   7809 0.14940300   1.008000   ; qtot 260.294863
 7810         c3    261    bbb     C4   7810 0.18057300  12.010000   ; qtot 260.475436
 7811         hc    261    bbb     H7   7811 0.01788900   1.008000   ; qtot 260.493325
 7812         hc    261    bbb     H8   7812 0.01788900   1.008000   ; qtot 260.511214
 7813         c3    261    bbb     C5   7813 -0.11337700  12.010000   ; qtot 260.397837
 7814         hc    261    bbb     H9   7814 0.09515400   1.008000   ; qtot 260.492991
 7815         hc    261    bbb    H10   7815 0.09515400   1.008000   ; qtot 260.588145
 7816         c3    261    bbb     C6   7816 -0.11337700  12.010000   ; qtot 260.474768
 7817         hc    261    bbb    H11   7817 0.09515400   1.008000   ; qtot 260.569922
 7818         hc    261    bbb    H12   7818 0.09515400   1.008000   ; qtot 260.665076
 7819         c3    261    bbb     C7   7819 0.21842400  12.010000   ; qtot 260.883500
 7820         h1    261    bbb    H13   7820 0.04500300   1.008000   ; qtot 260.928503
 7821         h1    261    bbb    H14   7821 0.04500300   1.008000   ; qtot 260.973506
 7822         c3    261    bbb     C8   7822 -0.06455200  12.010000   ; qtot 260.908954
 7823         h1    261    bbb    H15   7823 0.13554100   1.008000   ; qtot 261.044495
 7824         h1    261    bbb    H16   7824 0.13554100   1.008000   ; qtot 261.180036
 7825         c3    261    bbb     C9   7825 -0.06455200  12.010000   ; qtot 261.115484
 7826         h1    261    bbb    H17   7826 0.13554100   1.008000   ; qtot 261.251025
 7827         h1    261    bbb    H18   7827 0.13554100   1.008000   ; qtot 261.386566
 7828         os    261    bbb     O1   7828 -0.62587700  16.000000   ; qtot 260.760689
 7829         hn    261    bbb    H19   7829 0.23982500   1.008000   ; qtot 261.000514
; residue  262 bbb rtp bbb q 1.0
 7830         n4    262    bbb     N1   7830 0.03726400  14.010000   ; qtot 261.037778
 7831         c3    262    bbb     C1   7831 -0.07020100  12.010000   ; qtot 260.967577
 7832         hx    262    bbb     H1   7832 0.12219000   1.008000   ; qtot 261.089767
 7833         hx    262    bbb     H2   7833 0.12219000   1.008000   ; qtot 261.211957
 7834         c3    262    bbb     C2   7834 -0.07020100  12.010000   ; qtot 261.141756
 7835         hx    262    bbb     H3   7835 0.12219000   1.008000   ; qtot 261.263946
 7836         hx    262    bbb     H4   7836 0.12219000   1.008000   ; qtot 261.386136
 7837         c3    262    bbb     C3   7837 -0.39007700  12.010000   ; qtot 260.996059
 7838         hx    262    bbb     H5   7838 0.14940300   1.008000   ; qtot 261.145462
 7839         hx    262    bbb     H6   7839 0.14940300   1.008000   ; qtot 261.294865
 7840         c3    262    bbb     C4   7840 0.18057300  12.010000   ; qtot 261.475438
 7841         hc    262    bbb     H7   7841 0.01788900   1.008000   ; qtot 261.493327
 7842         hc    262    bbb     H8   7842 0.01788900   1.008000   ; qtot 261.511216
 7843         c3    262    bbb     C5   7843 -0.11337700  12.010000   ; qtot 261.397839
 7844         hc    262    bbb     H9   7844 0.09515400   1.008000   ; qtot 261.492993
 7845         hc    262    bbb    H10   7845 0.09515400   1.008000   ; qtot 261.588147
 7846         c3    262    bbb     C6   7846 -0.11337700  12.010000   ; qtot 261.474770
 7847         hc    262    bbb    H11   7847 0.09515400   1.008000   ; qtot 261.569924
 7848         hc    262    bbb    H12   7848 0.09515400   1.008000   ; qtot 261.665078
 7849         c3    262    bbb     C7   7849 0.21842400  12.010000   ; qtot 261.883502
 7850         h1    262    bbb    H13   7850 0.04500300   1.008000   ; qtot 261.928505
 7851         h1    262    bbb    H14   7851 0.04500300   1.008000   ; qtot 261.973508
 7852         c3    262    bbb     C8   7852 -0.06455200  12.010000   ; qtot 261.908956
 7853         h1    262    bbb    H15   7853 0.13554100   1.008000   ; qtot 262.044497
 7854         h1    262    bbb    H16   7854 0.13554100   1.008000   ; qtot 262.180038
 7855         c3    262    bbb     C9   7855 -0.06455200  12.010000   ; qtot 262.115486
 7856         h1    262    bbb    H17   7856 0.13554100   1.008000   ; qtot 262.251027
 7857         h1    262    bbb    H18   7857 0.13554100   1.008000   ; qtot 262.386568
 7858         os    262    bbb     O1   7858 -0.62587700  16.000000   ; qtot 261.760691
 7859         hn    262    bbb    H19   7859 0.23982500   1.008000   ; qtot 262.000516
; residue  263 bbb rtp bbb q 1.0
 7860         n4    263    bbb     N1   7860 0.03726400  14.010000   ; qtot 262.037780
 7861         c3    263    bbb     C1   7861 -0.07020100  12.010000   ; qtot 261.967579
 7862         hx    263    bbb     H1   7862 0.12219000   1.008000   ; qtot 262.089769
 7863         hx    263    bbb     H2   7863 0.12219000   1.008000   ; qtot 262.211959
 7864         c3    263    bbb     C2   7864 -0.07020100  12.010000   ; qtot 262.141758
 7865         hx    263    bbb     H3   7865 0.12219000   1.008000   ; qtot 262.263948
 7866         hx    263    bbb     H4   7866 0.12219000   1.008000   ; qtot 262.386138
 7867         c3    263    bbb     C3   7867 -0.39007700  12.010000   ; qtot 261.996061
 7868         hx    263    bbb     H5   7868 0.14940300   1.008000   ; qtot 262.145464
 7869         hx    263    bbb     H6   7869 0.14940300   1.008000   ; qtot 262.294867
 7870         c3    263    bbb     C4   7870 0.18057300  12.010000   ; qtot 262.475440
 7871         hc    263    bbb     H7   7871 0.01788900   1.008000   ; qtot 262.493329
 7872         hc    263    bbb     H8   7872 0.01788900   1.008000   ; qtot 262.511218
 7873         c3    263    bbb     C5   7873 -0.11337700  12.010000   ; qtot 262.397841
 7874         hc    263    bbb     H9   7874 0.09515400   1.008000   ; qtot 262.492995
 7875         hc    263    bbb    H10   7875 0.09515400   1.008000   ; qtot 262.588149
 7876         c3    263    bbb     C6   7876 -0.11337700  12.010000   ; qtot 262.474772
 7877         hc    263    bbb    H11   7877 0.09515400   1.008000   ; qtot 262.569926
 7878         hc    263    bbb    H12   7878 0.09515400   1.008000   ; qtot 262.665080
 7879         c3    263    bbb     C7   7879 0.21842400  12.010000   ; qtot 262.883504
 7880         h1    263    bbb    H13   7880 0.04500300   1.008000   ; qtot 262.928507
 7881         h1    263    bbb    H14   7881 0.04500300   1.008000   ; qtot 262.973510
 7882         c3    263    bbb     C8   7882 -0.06455200  12.010000   ; qtot 262.908958
 7883         h1    263    bbb    H15   7883 0.13554100   1.008000   ; qtot 263.044499
 7884         h1    263    bbb    H16   7884 0.13554100   1.008000   ; qtot 263.180040
 7885         c3    263    bbb     C9   7885 -0.06455200  12.010000   ; qtot 263.115488
 7886         h1    263    bbb    H17   7886 0.13554100   1.008000   ; qtot 263.251029
 7887         h1    263    bbb    H18   7887 0.13554100   1.008000   ; qtot 263.386570
 7888         os    263    bbb     O1   7888 -0.62587700  16.000000   ; qtot 262.760693
 7889         hn    263    bbb    H19   7889 0.23982500   1.008000   ; qtot 263.000518
; residue  264 bbb rtp bbb q 1.0
 7890         n4    264    bbb     N1   7890 0.03726400  14.010000   ; qtot 263.037782
 7891         c3    264    bbb     C1   7891 -0.07020100  12.010000   ; qtot 262.967581
 7892         hx    264    bbb     H1   7892 0.12219000   1.008000   ; qtot 263.089771
 7893         hx    264    bbb     H2   7893 0.12219000   1.008000   ; qtot 263.211961
 7894         c3    264    bbb     C2   7894 -0.07020100  12.010000   ; qtot 263.141760
 7895         hx    264    bbb     H3   7895 0.12219000   1.008000   ; qtot 263.263950
 7896         hx    264    bbb     H4   7896 0.12219000   1.008000   ; qtot 263.386140
 7897         c3    264    bbb     C3   7897 -0.39007700  12.010000   ; qtot 262.996063
 7898         hx    264    bbb     H5   7898 0.14940300   1.008000   ; qtot 263.145466
 7899         hx    264    bbb     H6   7899 0.14940300   1.008000   ; qtot 263.294869
 7900         c3    264    bbb     C4   7900 0.18057300  12.010000   ; qtot 263.475442
 7901         hc    264    bbb     H7   7901 0.01788900   1.008000   ; qtot 263.493331
 7902         hc    264    bbb     H8   7902 0.01788900   1.008000   ; qtot 263.511220
 7903         c3    264    bbb     C5   7903 -0.11337700  12.010000   ; qtot 263.397843
 7904         hc    264    bbb     H9   7904 0.09515400   1.008000   ; qtot 263.492997
 7905         hc    264    bbb    H10   7905 0.09515400   1.008000   ; qtot 263.588151
 7906         c3    264    bbb     C6   7906 -0.11337700  12.010000   ; qtot 263.474774
 7907         hc    264    bbb    H11   7907 0.09515400   1.008000   ; qtot 263.569928
 7908         hc    264    bbb    H12   7908 0.09515400   1.008000   ; qtot 263.665082
 7909         c3    264    bbb     C7   7909 0.21842400  12.010000   ; qtot 263.883506
 7910         h1    264    bbb    H13   7910 0.04500300   1.008000   ; qtot 263.928509
 7911         h1    264    bbb    H14   7911 0.04500300   1.008000   ; qtot 263.973512
 7912         c3    264    bbb     C8   7912 -0.06455200  12.010000   ; qtot 263.908960
 7913         h1    264    bbb    H15   7913 0.13554100   1.008000   ; qtot 264.044501
 7914         h1    264    bbb    H16   7914 0.13554100   1.008000   ; qtot 264.180042
 7915         c3    264    bbb     C9   7915 -0.06455200  12.010000   ; qtot 264.115490
 7916         h1    264    bbb    H17   7916 0.13554100   1.008000   ; qtot 264.251031
 7917         h1    264    bbb    H18   7917 0.13554100   1.008000   ; qtot 264.386572
 7918         os    264    bbb     O1   7918 -0.62587700  16.000000   ; qtot 263.760695
 7919         hn    264    bbb    H19   7919 0.23982500   1.008000   ; qtot 264.000520
; residue  265 bbb rtp bbb q 1.0
 7920         n4    265    bbb     N1   7920 0.03726400  14.010000   ; qtot 264.037784
 7921         c3    265    bbb     C1   7921 -0.07020100  12.010000   ; qtot 263.967583
 7922         hx    265    bbb     H1   7922 0.12219000   1.008000   ; qtot 264.089773
 7923         hx    265    bbb     H2   7923 0.12219000   1.008000   ; qtot 264.211963
 7924         c3    265    bbb     C2   7924 -0.07020100  12.010000   ; qtot 264.141762
 7925         hx    265    bbb     H3   7925 0.12219000   1.008000   ; qtot 264.263952
 7926         hx    265    bbb     H4   7926 0.12219000   1.008000   ; qtot 264.386142
 7927         c3    265    bbb     C3   7927 -0.39007700  12.010000   ; qtot 263.996065
 7928         hx    265    bbb     H5   7928 0.14940300   1.008000   ; qtot 264.145468
 7929         hx    265    bbb     H6   7929 0.14940300   1.008000   ; qtot 264.294871
 7930         c3    265    bbb     C4   7930 0.18057300  12.010000   ; qtot 264.475444
 7931         hc    265    bbb     H7   7931 0.01788900   1.008000   ; qtot 264.493333
 7932         hc    265    bbb     H8   7932 0.01788900   1.008000   ; qtot 264.511222
 7933         c3    265    bbb     C5   7933 -0.11337700  12.010000   ; qtot 264.397845
 7934         hc    265    bbb     H9   7934 0.09515400   1.008000   ; qtot 264.492999
 7935         hc    265    bbb    H10   7935 0.09515400   1.008000   ; qtot 264.588153
 7936         c3    265    bbb     C6   7936 -0.11337700  12.010000   ; qtot 264.474776
 7937         hc    265    bbb    H11   7937 0.09515400   1.008000   ; qtot 264.569930
 7938         hc    265    bbb    H12   7938 0.09515400   1.008000   ; qtot 264.665084
 7939         c3    265    bbb     C7   7939 0.21842400  12.010000   ; qtot 264.883508
 7940         h1    265    bbb    H13   7940 0.04500300   1.008000   ; qtot 264.928511
 7941         h1    265    bbb    H14   7941 0.04500300   1.008000   ; qtot 264.973514
 7942         c3    265    bbb     C8   7942 -0.06455200  12.010000   ; qtot 264.908962
 7943         h1    265    bbb    H15   7943 0.13554100   1.008000   ; qtot 265.044503
 7944         h1    265    bbb    H16   7944 0.13554100   1.008000   ; qtot 265.180044
 7945         c3    265    bbb     C9   7945 -0.06455200  12.010000   ; qtot 265.115492
 7946         h1    265    bbb    H17   7946 0.13554100   1.008000   ; qtot 265.251033
 7947         h1    265    bbb    H18   7947 0.13554100   1.008000   ; qtot 265.386574
 7948         os    265    bbb     O1   7948 -0.62587700  16.000000   ; qtot 264.760697
 7949         hn    265    bbb    H19   7949 0.23982500   1.008000   ; qtot 265.000522
; residue  266 bbb rtp bbb q 1.0
 7950         n4    266    bbb     N1   7950 0.03726400  14.010000   ; qtot 265.037786
 7951         c3    266    bbb     C1   7951 -0.07020100  12.010000   ; qtot 264.967585
 7952         hx    266    bbb     H1   7952 0.12219000   1.008000   ; qtot 265.089775
 7953         hx    266    bbb     H2   7953 0.12219000   1.008000   ; qtot 265.211965
 7954         c3    266    bbb     C2   7954 -0.07020100  12.010000   ; qtot 265.141764
 7955         hx    266    bbb     H3   7955 0.12219000   1.008000   ; qtot 265.263954
 7956         hx    266    bbb     H4   7956 0.12219000   1.008000   ; qtot 265.386144
 7957         c3    266    bbb     C3   7957 -0.39007700  12.010000   ; qtot 264.996067
 7958         hx    266    bbb     H5   7958 0.14940300   1.008000   ; qtot 265.145470
 7959         hx    266    bbb     H6   7959 0.14940300   1.008000   ; qtot 265.294873
 7960         c3    266    bbb     C4   7960 0.18057300  12.010000   ; qtot 265.475446
 7961         hc    266    bbb     H7   7961 0.01788900   1.008000   ; qtot 265.493335
 7962         hc    266    bbb     H8   7962 0.01788900   1.008000   ; qtot 265.511224
 7963         c3    266    bbb     C5   7963 -0.11337700  12.010000   ; qtot 265.397847
 7964         hc    266    bbb     H9   7964 0.09515400   1.008000   ; qtot 265.493001
 7965         hc    266    bbb    H10   7965 0.09515400   1.008000   ; qtot 265.588155
 7966         c3    266    bbb     C6   7966 -0.11337700  12.010000   ; qtot 265.474778
 7967         hc    266    bbb    H11   7967 0.09515400   1.008000   ; qtot 265.569932
 7968         hc    266    bbb    H12   7968 0.09515400   1.008000   ; qtot 265.665086
 7969         c3    266    bbb     C7   7969 0.21842400  12.010000   ; qtot 265.883510
 7970         h1    266    bbb    H13   7970 0.04500300   1.008000   ; qtot 265.928513
 7971         h1    266    bbb    H14   7971 0.04500300   1.008000   ; qtot 265.973516
 7972         c3    266    bbb     C8   7972 -0.06455200  12.010000   ; qtot 265.908964
 7973         h1    266    bbb    H15   7973 0.13554100   1.008000   ; qtot 266.044505
 7974         h1    266    bbb    H16   7974 0.13554100   1.008000   ; qtot 266.180046
 7975         c3    266    bbb     C9   7975 -0.06455200  12.010000   ; qtot 266.115494
 7976         h1    266    bbb    H17   7976 0.13554100   1.008000   ; qtot 266.251035
 7977         h1    266    bbb    H18   7977 0.13554100   1.008000   ; qtot 266.386576
 7978         os    266    bbb     O1   7978 -0.62587700  16.000000   ; qtot 265.760699
 7979         hn    266    bbb    H19   7979 0.23982500   1.008000   ; qtot 266.000524
; residue  267 bbb rtp bbb q 1.0
 7980         n4    267    bbb     N1   7980 0.03726400  14.010000   ; qtot 266.037788
 7981         c3    267    bbb     C1   7981 -0.07020100  12.010000   ; qtot 265.967587
 7982         hx    267    bbb     H1   7982 0.12219000   1.008000   ; qtot 266.089777
 7983         hx    267    bbb     H2   7983 0.12219000   1.008000   ; qtot 266.211967
 7984         c3    267    bbb     C2   7984 -0.07020100  12.010000   ; qtot 266.141766
 7985         hx    267    bbb     H3   7985 0.12219000   1.008000   ; qtot 266.263956
 7986         hx    267    bbb     H4   7986 0.12219000   1.008000   ; qtot 266.386146
 7987         c3    267    bbb     C3   7987 -0.39007700  12.010000   ; qtot 265.996069
 7988         hx    267    bbb     H5   7988 0.14940300   1.008000   ; qtot 266.145472
 7989         hx    267    bbb     H6   7989 0.14940300   1.008000   ; qtot 266.294875
 7990         c3    267    bbb     C4   7990 0.18057300  12.010000   ; qtot 266.475448
 7991         hc    267    bbb     H7   7991 0.01788900   1.008000   ; qtot 266.493337
 7992         hc    267    bbb     H8   7992 0.01788900   1.008000   ; qtot 266.511226
 7993         c3    267    bbb     C5   7993 -0.11337700  12.010000   ; qtot 266.397849
 7994         hc    267    bbb     H9   7994 0.09515400   1.008000   ; qtot 266.493003
 7995         hc    267    bbb    H10   7995 0.09515400   1.008000   ; qtot 266.588157
 7996         c3    267    bbb     C6   7996 -0.11337700  12.010000   ; qtot 266.474780
 7997         hc    267    bbb    H11   7997 0.09515400   1.008000   ; qtot 266.569934
 7998         hc    267    bbb    H12   7998 0.09515400   1.008000   ; qtot 266.665088
 7999         c3    267    bbb     C7   7999 0.21842400  12.010000   ; qtot 266.883512
 8000         h1    267    bbb    H13   8000 0.04500300   1.008000   ; qtot 266.928515
 8001         h1    267    bbb    H14   8001 0.04500300   1.008000   ; qtot 266.973518
 8002         c3    267    bbb     C8   8002 -0.06455200  12.010000   ; qtot 266.908966
 8003         h1    267    bbb    H15   8003 0.13554100   1.008000   ; qtot 267.044507
 8004         h1    267    bbb    H16   8004 0.13554100   1.008000   ; qtot 267.180048
 8005         c3    267    bbb     C9   8005 -0.06455200  12.010000   ; qtot 267.115496
 8006         h1    267    bbb    H17   8006 0.13554100   1.008000   ; qtot 267.251037
 8007         h1    267    bbb    H18   8007 0.13554100   1.008000   ; qtot 267.386578
 8008         os    267    bbb     O1   8008 -0.62587700  16.000000   ; qtot 266.760701
 8009         hn    267    bbb    H19   8009 0.23982500   1.008000   ; qtot 267.000526
; residue  268 bbb rtp bbb q 1.0
 8010         n4    268    bbb     N1   8010 0.03726400  14.010000   ; qtot 267.037790
 8011         c3    268    bbb     C1   8011 -0.07020100  12.010000   ; qtot 266.967589
 8012         hx    268    bbb     H1   8012 0.12219000   1.008000   ; qtot 267.089779
 8013         hx    268    bbb     H2   8013 0.12219000   1.008000   ; qtot 267.211969
 8014         c3    268    bbb     C2   8014 -0.07020100  12.010000   ; qtot 267.141768
 8015         hx    268    bbb     H3   8015 0.12219000   1.008000   ; qtot 267.263958
 8016         hx    268    bbb     H4   8016 0.12219000   1.008000   ; qtot 267.386148
 8017         c3    268    bbb     C3   8017 -0.39007700  12.010000   ; qtot 266.996071
 8018         hx    268    bbb     H5   8018 0.14940300   1.008000   ; qtot 267.145474
 8019         hx    268    bbb     H6   8019 0.14940300   1.008000   ; qtot 267.294877
 8020         c3    268    bbb     C4   8020 0.18057300  12.010000   ; qtot 267.475450
 8021         hc    268    bbb     H7   8021 0.01788900   1.008000   ; qtot 267.493339
 8022         hc    268    bbb     H8   8022 0.01788900   1.008000   ; qtot 267.511228
 8023         c3    268    bbb     C5   8023 -0.11337700  12.010000   ; qtot 267.397851
 8024         hc    268    bbb     H9   8024 0.09515400   1.008000   ; qtot 267.493005
 8025         hc    268    bbb    H10   8025 0.09515400   1.008000   ; qtot 267.588159
 8026         c3    268    bbb     C6   8026 -0.11337700  12.010000   ; qtot 267.474782
 8027         hc    268    bbb    H11   8027 0.09515400   1.008000   ; qtot 267.569936
 8028         hc    268    bbb    H12   8028 0.09515400   1.008000   ; qtot 267.665090
 8029         c3    268    bbb     C7   8029 0.21842400  12.010000   ; qtot 267.883514
 8030         h1    268    bbb    H13   8030 0.04500300   1.008000   ; qtot 267.928517
 8031         h1    268    bbb    H14   8031 0.04500300   1.008000   ; qtot 267.973520
 8032         c3    268    bbb     C8   8032 -0.06455200  12.010000   ; qtot 267.908968
 8033         h1    268    bbb    H15   8033 0.13554100   1.008000   ; qtot 268.044509
 8034         h1    268    bbb    H16   8034 0.13554100   1.008000   ; qtot 268.180050
 8035         c3    268    bbb     C9   8035 -0.06455200  12.010000   ; qtot 268.115498
 8036         h1    268    bbb    H17   8036 0.13554100   1.008000   ; qtot 268.251039
 8037         h1    268    bbb    H18   8037 0.13554100   1.008000   ; qtot 268.386580
 8038         os    268    bbb     O1   8038 -0.62587700  16.000000   ; qtot 267.760703
 8039         hn    268    bbb    H19   8039 0.23982500   1.008000   ; qtot 268.000528
; residue  269 bbb rtp bbb q 1.0
 8040         n4    269    bbb     N1   8040 0.03726400  14.010000   ; qtot 268.037792
 8041         c3    269    bbb     C1   8041 -0.07020100  12.010000   ; qtot 267.967591
 8042         hx    269    bbb     H1   8042 0.12219000   1.008000   ; qtot 268.089781
 8043         hx    269    bbb     H2   8043 0.12219000   1.008000   ; qtot 268.211971
 8044         c3    269    bbb     C2   8044 -0.07020100  12.010000   ; qtot 268.141770
 8045         hx    269    bbb     H3   8045 0.12219000   1.008000   ; qtot 268.263960
 8046         hx    269    bbb     H4   8046 0.12219000   1.008000   ; qtot 268.386150
 8047         c3    269    bbb     C3   8047 -0.39007700  12.010000   ; qtot 267.996073
 8048         hx    269    bbb     H5   8048 0.14940300   1.008000   ; qtot 268.145476
 8049         hx    269    bbb     H6   8049 0.14940300   1.008000   ; qtot 268.294879
 8050         c3    269    bbb     C4   8050 0.18057300  12.010000   ; qtot 268.475452
 8051         hc    269    bbb     H7   8051 0.01788900   1.008000   ; qtot 268.493341
 8052         hc    269    bbb     H8   8052 0.01788900   1.008000   ; qtot 268.511230
 8053         c3    269    bbb     C5   8053 -0.11337700  12.010000   ; qtot 268.397853
 8054         hc    269    bbb     H9   8054 0.09515400   1.008000   ; qtot 268.493007
 8055         hc    269    bbb    H10   8055 0.09515400   1.008000   ; qtot 268.588161
 8056         c3    269    bbb     C6   8056 -0.11337700  12.010000   ; qtot 268.474784
 8057         hc    269    bbb    H11   8057 0.09515400   1.008000   ; qtot 268.569938
 8058         hc    269    bbb    H12   8058 0.09515400   1.008000   ; qtot 268.665092
 8059         c3    269    bbb     C7   8059 0.21842400  12.010000   ; qtot 268.883516
 8060         h1    269    bbb    H13   8060 0.04500300   1.008000   ; qtot 268.928519
 8061         h1    269    bbb    H14   8061 0.04500300   1.008000   ; qtot 268.973522
 8062         c3    269    bbb     C8   8062 -0.06455200  12.010000   ; qtot 268.908970
 8063         h1    269    bbb    H15   8063 0.13554100   1.008000   ; qtot 269.044511
 8064         h1    269    bbb    H16   8064 0.13554100   1.008000   ; qtot 269.180052
 8065         c3    269    bbb     C9   8065 -0.06455200  12.010000   ; qtot 269.115500
 8066         h1    269    bbb    H17   8066 0.13554100   1.008000   ; qtot 269.251041
 8067         h1    269    bbb    H18   8067 0.13554100   1.008000   ; qtot 269.386582
 8068         os    269    bbb     O1   8068 -0.62587700  16.000000   ; qtot 268.760705
 8069         hn    269    bbb    H19   8069 0.23982500   1.008000   ; qtot 269.000530
; residue  270 bbb rtp bbb q 1.0
 8070         n4    270    bbb     N1   8070 0.03726400  14.010000   ; qtot 269.037794
 8071         c3    270    bbb     C1   8071 -0.07020100  12.010000   ; qtot 268.967593
 8072         hx    270    bbb     H1   8072 0.12219000   1.008000   ; qtot 269.089783
 8073         hx    270    bbb     H2   8073 0.12219000   1.008000   ; qtot 269.211973
 8074         c3    270    bbb     C2   8074 -0.07020100  12.010000   ; qtot 269.141772
 8075         hx    270    bbb     H3   8075 0.12219000   1.008000   ; qtot 269.263962
 8076         hx    270    bbb     H4   8076 0.12219000   1.008000   ; qtot 269.386152
 8077         c3    270    bbb     C3   8077 -0.39007700  12.010000   ; qtot 268.996075
 8078         hx    270    bbb     H5   8078 0.14940300   1.008000   ; qtot 269.145478
 8079         hx    270    bbb     H6   8079 0.14940300   1.008000   ; qtot 269.294881
 8080         c3    270    bbb     C4   8080 0.18057300  12.010000   ; qtot 269.475454
 8081         hc    270    bbb     H7   8081 0.01788900   1.008000   ; qtot 269.493343
 8082         hc    270    bbb     H8   8082 0.01788900   1.008000   ; qtot 269.511232
 8083         c3    270    bbb     C5   8083 -0.11337700  12.010000   ; qtot 269.397855
 8084         hc    270    bbb     H9   8084 0.09515400   1.008000   ; qtot 269.493009
 8085         hc    270    bbb    H10   8085 0.09515400   1.008000   ; qtot 269.588163
 8086         c3    270    bbb     C6   8086 -0.11337700  12.010000   ; qtot 269.474786
 8087         hc    270    bbb    H11   8087 0.09515400   1.008000   ; qtot 269.569940
 8088         hc    270    bbb    H12   8088 0.09515400   1.008000   ; qtot 269.665094
 8089         c3    270    bbb     C7   8089 0.21842400  12.010000   ; qtot 269.883518
 8090         h1    270    bbb    H13   8090 0.04500300   1.008000   ; qtot 269.928521
 8091         h1    270    bbb    H14   8091 0.04500300   1.008000   ; qtot 269.973524
 8092         c3    270    bbb     C8   8092 -0.06455200  12.010000   ; qtot 269.908972
 8093         h1    270    bbb    H15   8093 0.13554100   1.008000   ; qtot 270.044513
 8094         h1    270    bbb    H16   8094 0.13554100   1.008000   ; qtot 270.180054
 8095         c3    270    bbb     C9   8095 -0.06455200  12.010000   ; qtot 270.115502
 8096         h1    270    bbb    H17   8096 0.13554100   1.008000   ; qtot 270.251043
 8097         h1    270    bbb    H18   8097 0.13554100   1.008000   ; qtot 270.386584
 8098         os    270    bbb     O1   8098 -0.62587700  16.000000   ; qtot 269.760707
 8099         hn    270    bbb    H19   8099 0.23982500   1.008000   ; qtot 270.000532
; residue  271 bbb rtp bbb q 1.0
 8100         n4    271    bbb     N1   8100 0.03726400  14.010000   ; qtot 270.037796
 8101         c3    271    bbb     C1   8101 -0.07020100  12.010000   ; qtot 269.967595
 8102         hx    271    bbb     H1   8102 0.12219000   1.008000   ; qtot 270.089785
 8103         hx    271    bbb     H2   8103 0.12219000   1.008000   ; qtot 270.211975
 8104         c3    271    bbb     C2   8104 -0.07020100  12.010000   ; qtot 270.141774
 8105         hx    271    bbb     H3   8105 0.12219000   1.008000   ; qtot 270.263964
 8106         hx    271    bbb     H4   8106 0.12219000   1.008000   ; qtot 270.386154
 8107         c3    271    bbb     C3   8107 -0.39007700  12.010000   ; qtot 269.996077
 8108         hx    271    bbb     H5   8108 0.14940300   1.008000   ; qtot 270.145480
 8109         hx    271    bbb     H6   8109 0.14940300   1.008000   ; qtot 270.294883
 8110         c3    271    bbb     C4   8110 0.18057300  12.010000   ; qtot 270.475456
 8111         hc    271    bbb     H7   8111 0.01788900   1.008000   ; qtot 270.493345
 8112         hc    271    bbb     H8   8112 0.01788900   1.008000   ; qtot 270.511234
 8113         c3    271    bbb     C5   8113 -0.11337700  12.010000   ; qtot 270.397857
 8114         hc    271    bbb     H9   8114 0.09515400   1.008000   ; qtot 270.493011
 8115         hc    271    bbb    H10   8115 0.09515400   1.008000   ; qtot 270.588165
 8116         c3    271    bbb     C6   8116 -0.11337700  12.010000   ; qtot 270.474788
 8117         hc    271    bbb    H11   8117 0.09515400   1.008000   ; qtot 270.569942
 8118         hc    271    bbb    H12   8118 0.09515400   1.008000   ; qtot 270.665096
 8119         c3    271    bbb     C7   8119 0.21842400  12.010000   ; qtot 270.883520
 8120         h1    271    bbb    H13   8120 0.04500300   1.008000   ; qtot 270.928523
 8121         h1    271    bbb    H14   8121 0.04500300   1.008000   ; qtot 270.973526
 8122         c3    271    bbb     C8   8122 -0.06455200  12.010000   ; qtot 270.908974
 8123         h1    271    bbb    H15   8123 0.13554100   1.008000   ; qtot 271.044515
 8124         h1    271    bbb    H16   8124 0.13554100   1.008000   ; qtot 271.180056
 8125         c3    271    bbb     C9   8125 -0.06455200  12.010000   ; qtot 271.115504
 8126         h1    271    bbb    H17   8126 0.13554100   1.008000   ; qtot 271.251045
 8127         h1    271    bbb    H18   8127 0.13554100   1.008000   ; qtot 271.386586
 8128         os    271    bbb     O1   8128 -0.62587700  16.000000   ; qtot 270.760709
 8129         hn    271    bbb    H19   8129 0.23982500   1.008000   ; qtot 271.000534
; residue  272 bbb rtp bbb q 1.0
 8130         n4    272    bbb     N1   8130 0.03726400  14.010000   ; qtot 271.037798
 8131         c3    272    bbb     C1   8131 -0.07020100  12.010000   ; qtot 270.967597
 8132         hx    272    bbb     H1   8132 0.12219000   1.008000   ; qtot 271.089787
 8133         hx    272    bbb     H2   8133 0.12219000   1.008000   ; qtot 271.211977
 8134         c3    272    bbb     C2   8134 -0.07020100  12.010000   ; qtot 271.141776
 8135         hx    272    bbb     H3   8135 0.12219000   1.008000   ; qtot 271.263966
 8136         hx    272    bbb     H4   8136 0.12219000   1.008000   ; qtot 271.386156
 8137         c3    272    bbb     C3   8137 -0.39007700  12.010000   ; qtot 270.996079
 8138         hx    272    bbb     H5   8138 0.14940300   1.008000   ; qtot 271.145482
 8139         hx    272    bbb     H6   8139 0.14940300   1.008000   ; qtot 271.294885
 8140         c3    272    bbb     C4   8140 0.18057300  12.010000   ; qtot 271.475458
 8141         hc    272    bbb     H7   8141 0.01788900   1.008000   ; qtot 271.493347
 8142         hc    272    bbb     H8   8142 0.01788900   1.008000   ; qtot 271.511236
 8143         c3    272    bbb     C5   8143 -0.11337700  12.010000   ; qtot 271.397859
 8144         hc    272    bbb     H9   8144 0.09515400   1.008000   ; qtot 271.493013
 8145         hc    272    bbb    H10   8145 0.09515400   1.008000   ; qtot 271.588167
 8146         c3    272    bbb     C6   8146 -0.11337700  12.010000   ; qtot 271.474790
 8147         hc    272    bbb    H11   8147 0.09515400   1.008000   ; qtot 271.569944
 8148         hc    272    bbb    H12   8148 0.09515400   1.008000   ; qtot 271.665098
 8149         c3    272    bbb     C7   8149 0.21842400  12.010000   ; qtot 271.883522
 8150         h1    272    bbb    H13   8150 0.04500300   1.008000   ; qtot 271.928525
 8151         h1    272    bbb    H14   8151 0.04500300   1.008000   ; qtot 271.973528
 8152         c3    272    bbb     C8   8152 -0.06455200  12.010000   ; qtot 271.908976
 8153         h1    272    bbb    H15   8153 0.13554100   1.008000   ; qtot 272.044517
 8154         h1    272    bbb    H16   8154 0.13554100   1.008000   ; qtot 272.180058
 8155         c3    272    bbb     C9   8155 -0.06455200  12.010000   ; qtot 272.115506
 8156         h1    272    bbb    H17   8156 0.13554100   1.008000   ; qtot 272.251047
 8157         h1    272    bbb    H18   8157 0.13554100   1.008000   ; qtot 272.386588
 8158         os    272    bbb     O1   8158 -0.62587700  16.000000   ; qtot 271.760711
 8159         hn    272    bbb    H19   8159 0.23982500   1.008000   ; qtot 272.000536
; residue  273 bbb rtp bbb q 1.0
 8160         n4    273    bbb     N1   8160 0.03726400  14.010000   ; qtot 272.037800
 8161         c3    273    bbb     C1   8161 -0.07020100  12.010000   ; qtot 271.967599
 8162         hx    273    bbb     H1   8162 0.12219000   1.008000   ; qtot 272.089789
 8163         hx    273    bbb     H2   8163 0.12219000   1.008000   ; qtot 272.211979
 8164         c3    273    bbb     C2   8164 -0.07020100  12.010000   ; qtot 272.141778
 8165         hx    273    bbb     H3   8165 0.12219000   1.008000   ; qtot 272.263968
 8166         hx    273    bbb     H4   8166 0.12219000   1.008000   ; qtot 272.386158
 8167         c3    273    bbb     C3   8167 -0.39007700  12.010000   ; qtot 271.996081
 8168         hx    273    bbb     H5   8168 0.14940300   1.008000   ; qtot 272.145484
 8169         hx    273    bbb     H6   8169 0.14940300   1.008000   ; qtot 272.294887
 8170         c3    273    bbb     C4   8170 0.18057300  12.010000   ; qtot 272.475460
 8171         hc    273    bbb     H7   8171 0.01788900   1.008000   ; qtot 272.493349
 8172         hc    273    bbb     H8   8172 0.01788900   1.008000   ; qtot 272.511238
 8173         c3    273    bbb     C5   8173 -0.11337700  12.010000   ; qtot 272.397861
 8174         hc    273    bbb     H9   8174 0.09515400   1.008000   ; qtot 272.493015
 8175         hc    273    bbb    H10   8175 0.09515400   1.008000   ; qtot 272.588169
 8176         c3    273    bbb     C6   8176 -0.11337700  12.010000   ; qtot 272.474792
 8177         hc    273    bbb    H11   8177 0.09515400   1.008000   ; qtot 272.569946
 8178         hc    273    bbb    H12   8178 0.09515400   1.008000   ; qtot 272.665100
 8179         c3    273    bbb     C7   8179 0.21842400  12.010000   ; qtot 272.883524
 8180         h1    273    bbb    H13   8180 0.04500300   1.008000   ; qtot 272.928527
 8181         h1    273    bbb    H14   8181 0.04500300   1.008000   ; qtot 272.973530
 8182         c3    273    bbb     C8   8182 -0.06455200  12.010000   ; qtot 272.908978
 8183         h1    273    bbb    H15   8183 0.13554100   1.008000   ; qtot 273.044519
 8184         h1    273    bbb    H16   8184 0.13554100   1.008000   ; qtot 273.180060
 8185         c3    273    bbb     C9   8185 -0.06455200  12.010000   ; qtot 273.115508
 8186         h1    273    bbb    H17   8186 0.13554100   1.008000   ; qtot 273.251049
 8187         h1    273    bbb    H18   8187 0.13554100   1.008000   ; qtot 273.386590
 8188         os    273    bbb     O1   8188 -0.62587700  16.000000   ; qtot 272.760713
 8189         hn    273    bbb    H19   8189 0.23982500   1.008000   ; qtot 273.000538
; residue  274 bbb rtp bbb q 1.0
 8190         n4    274    bbb     N1   8190 0.03726400  14.010000   ; qtot 273.037802
 8191         c3    274    bbb     C1   8191 -0.07020100  12.010000   ; qtot 272.967601
 8192         hx    274    bbb     H1   8192 0.12219000   1.008000   ; qtot 273.089791
 8193         hx    274    bbb     H2   8193 0.12219000   1.008000   ; qtot 273.211981
 8194         c3    274    bbb     C2   8194 -0.07020100  12.010000   ; qtot 273.141780
 8195         hx    274    bbb     H3   8195 0.12219000   1.008000   ; qtot 273.263970
 8196         hx    274    bbb     H4   8196 0.12219000   1.008000   ; qtot 273.386160
 8197         c3    274    bbb     C3   8197 -0.39007700  12.010000   ; qtot 272.996083
 8198         hx    274    bbb     H5   8198 0.14940300   1.008000   ; qtot 273.145486
 8199         hx    274    bbb     H6   8199 0.14940300   1.008000   ; qtot 273.294889
 8200         c3    274    bbb     C4   8200 0.18057300  12.010000   ; qtot 273.475462
 8201         hc    274    bbb     H7   8201 0.01788900   1.008000   ; qtot 273.493351
 8202         hc    274    bbb     H8   8202 0.01788900   1.008000   ; qtot 273.511240
 8203         c3    274    bbb     C5   8203 -0.11337700  12.010000   ; qtot 273.397863
 8204         hc    274    bbb     H9   8204 0.09515400   1.008000   ; qtot 273.493017
 8205         hc    274    bbb    H10   8205 0.09515400   1.008000   ; qtot 273.588171
 8206         c3    274    bbb     C6   8206 -0.11337700  12.010000   ; qtot 273.474794
 8207         hc    274    bbb    H11   8207 0.09515400   1.008000   ; qtot 273.569948
 8208         hc    274    bbb    H12   8208 0.09515400   1.008000   ; qtot 273.665102
 8209         c3    274    bbb     C7   8209 0.21842400  12.010000   ; qtot 273.883526
 8210         h1    274    bbb    H13   8210 0.04500300   1.008000   ; qtot 273.928529
 8211         h1    274    bbb    H14   8211 0.04500300   1.008000   ; qtot 273.973532
 8212         c3    274    bbb     C8   8212 -0.06455200  12.010000   ; qtot 273.908980
 8213         h1    274    bbb    H15   8213 0.13554100   1.008000   ; qtot 274.044521
 8214         h1    274    bbb    H16   8214 0.13554100   1.008000   ; qtot 274.180062
 8215         c3    274    bbb     C9   8215 -0.06455200  12.010000   ; qtot 274.115510
 8216         h1    274    bbb    H17   8216 0.13554100   1.008000   ; qtot 274.251051
 8217         h1    274    bbb    H18   8217 0.13554100   1.008000   ; qtot 274.386592
 8218         os    274    bbb     O1   8218 -0.62587700  16.000000   ; qtot 273.760715
 8219         hn    274    bbb    H19   8219 0.23982500   1.008000   ; qtot 274.000540
; residue  275 bbb rtp bbb q 1.0
 8220         n4    275    bbb     N1   8220 0.03726400  14.010000   ; qtot 274.037804
 8221         c3    275    bbb     C1   8221 -0.07020100  12.010000   ; qtot 273.967603
 8222         hx    275    bbb     H1   8222 0.12219000   1.008000   ; qtot 274.089793
 8223         hx    275    bbb     H2   8223 0.12219000   1.008000   ; qtot 274.211983
 8224         c3    275    bbb     C2   8224 -0.07020100  12.010000   ; qtot 274.141782
 8225         hx    275    bbb     H3   8225 0.12219000   1.008000   ; qtot 274.263972
 8226         hx    275    bbb     H4   8226 0.12219000   1.008000   ; qtot 274.386162
 8227         c3    275    bbb     C3   8227 -0.39007700  12.010000   ; qtot 273.996085
 8228         hx    275    bbb     H5   8228 0.14940300   1.008000   ; qtot 274.145488
 8229         hx    275    bbb     H6   8229 0.14940300   1.008000   ; qtot 274.294891
 8230         c3    275    bbb     C4   8230 0.18057300  12.010000   ; qtot 274.475464
 8231         hc    275    bbb     H7   8231 0.01788900   1.008000   ; qtot 274.493353
 8232         hc    275    bbb     H8   8232 0.01788900   1.008000   ; qtot 274.511242
 8233         c3    275    bbb     C5   8233 -0.11337700  12.010000   ; qtot 274.397865
 8234         hc    275    bbb     H9   8234 0.09515400   1.008000   ; qtot 274.493019
 8235         hc    275    bbb    H10   8235 0.09515400   1.008000   ; qtot 274.588173
 8236         c3    275    bbb     C6   8236 -0.11337700  12.010000   ; qtot 274.474796
 8237         hc    275    bbb    H11   8237 0.09515400   1.008000   ; qtot 274.569950
 8238         hc    275    bbb    H12   8238 0.09515400   1.008000   ; qtot 274.665104
 8239         c3    275    bbb     C7   8239 0.21842400  12.010000   ; qtot 274.883528
 8240         h1    275    bbb    H13   8240 0.04500300   1.008000   ; qtot 274.928531
 8241         h1    275    bbb    H14   8241 0.04500300   1.008000   ; qtot 274.973534
 8242         c3    275    bbb     C8   8242 -0.06455200  12.010000   ; qtot 274.908982
 8243         h1    275    bbb    H15   8243 0.13554100   1.008000   ; qtot 275.044523
 8244         h1    275    bbb    H16   8244 0.13554100   1.008000   ; qtot 275.180064
 8245         c3    275    bbb     C9   8245 -0.06455200  12.010000   ; qtot 275.115512
 8246         h1    275    bbb    H17   8246 0.13554100   1.008000   ; qtot 275.251053
 8247         h1    275    bbb    H18   8247 0.13554100   1.008000   ; qtot 275.386594
 8248         os    275    bbb     O1   8248 -0.62587700  16.000000   ; qtot 274.760717
 8249         hn    275    bbb    H19   8249 0.23982500   1.008000   ; qtot 275.000542
; residue  276 bbb rtp bbb q 1.0
 8250         n4    276    bbb     N1   8250 0.03726400  14.010000   ; qtot 275.037806
 8251         c3    276    bbb     C1   8251 -0.07020100  12.010000   ; qtot 274.967605
 8252         hx    276    bbb     H1   8252 0.12219000   1.008000   ; qtot 275.089795
 8253         hx    276    bbb     H2   8253 0.12219000   1.008000   ; qtot 275.211985
 8254         c3    276    bbb     C2   8254 -0.07020100  12.010000   ; qtot 275.141784
 8255         hx    276    bbb     H3   8255 0.12219000   1.008000   ; qtot 275.263974
 8256         hx    276    bbb     H4   8256 0.12219000   1.008000   ; qtot 275.386164
 8257         c3    276    bbb     C3   8257 -0.39007700  12.010000   ; qtot 274.996087
 8258         hx    276    bbb     H5   8258 0.14940300   1.008000   ; qtot 275.145490
 8259         hx    276    bbb     H6   8259 0.14940300   1.008000   ; qtot 275.294893
 8260         c3    276    bbb     C4   8260 0.18057300  12.010000   ; qtot 275.475466
 8261         hc    276    bbb     H7   8261 0.01788900   1.008000   ; qtot 275.493355
 8262         hc    276    bbb     H8   8262 0.01788900   1.008000   ; qtot 275.511244
 8263         c3    276    bbb     C5   8263 -0.11337700  12.010000   ; qtot 275.397867
 8264         hc    276    bbb     H9   8264 0.09515400   1.008000   ; qtot 275.493021
 8265         hc    276    bbb    H10   8265 0.09515400   1.008000   ; qtot 275.588175
 8266         c3    276    bbb     C6   8266 -0.11337700  12.010000   ; qtot 275.474798
 8267         hc    276    bbb    H11   8267 0.09515400   1.008000   ; qtot 275.569952
 8268         hc    276    bbb    H12   8268 0.09515400   1.008000   ; qtot 275.665106
 8269         c3    276    bbb     C7   8269 0.21842400  12.010000   ; qtot 275.883530
 8270         h1    276    bbb    H13   8270 0.04500300   1.008000   ; qtot 275.928533
 8271         h1    276    bbb    H14   8271 0.04500300   1.008000   ; qtot 275.973536
 8272         c3    276    bbb     C8   8272 -0.06455200  12.010000   ; qtot 275.908984
 8273         h1    276    bbb    H15   8273 0.13554100   1.008000   ; qtot 276.044525
 8274         h1    276    bbb    H16   8274 0.13554100   1.008000   ; qtot 276.180066
 8275         c3    276    bbb     C9   8275 -0.06455200  12.010000   ; qtot 276.115514
 8276         h1    276    bbb    H17   8276 0.13554100   1.008000   ; qtot 276.251055
 8277         h1    276    bbb    H18   8277 0.13554100   1.008000   ; qtot 276.386596
 8278         os    276    bbb     O1   8278 -0.62587700  16.000000   ; qtot 275.760719
 8279         hn    276    bbb    H19   8279 0.23982500   1.008000   ; qtot 276.000544
; residue  277 bbb rtp bbb q 1.0
 8280         n4    277    bbb     N1   8280 0.03726400  14.010000   ; qtot 276.037808
 8281         c3    277    bbb     C1   8281 -0.07020100  12.010000   ; qtot 275.967607
 8282         hx    277    bbb     H1   8282 0.12219000   1.008000   ; qtot 276.089797
 8283         hx    277    bbb     H2   8283 0.12219000   1.008000   ; qtot 276.211987
 8284         c3    277    bbb     C2   8284 -0.07020100  12.010000   ; qtot 276.141786
 8285         hx    277    bbb     H3   8285 0.12219000   1.008000   ; qtot 276.263976
 8286         hx    277    bbb     H4   8286 0.12219000   1.008000   ; qtot 276.386166
 8287         c3    277    bbb     C3   8287 -0.39007700  12.010000   ; qtot 275.996089
 8288         hx    277    bbb     H5   8288 0.14940300   1.008000   ; qtot 276.145492
 8289         hx    277    bbb     H6   8289 0.14940300   1.008000   ; qtot 276.294895
 8290         c3    277    bbb     C4   8290 0.18057300  12.010000   ; qtot 276.475468
 8291         hc    277    bbb     H7   8291 0.01788900   1.008000   ; qtot 276.493357
 8292         hc    277    bbb     H8   8292 0.01788900   1.008000   ; qtot 276.511246
 8293         c3    277    bbb     C5   8293 -0.11337700  12.010000   ; qtot 276.397869
 8294         hc    277    bbb     H9   8294 0.09515400   1.008000   ; qtot 276.493023
 8295         hc    277    bbb    H10   8295 0.09515400   1.008000   ; qtot 276.588177
 8296         c3    277    bbb     C6   8296 -0.11337700  12.010000   ; qtot 276.474800
 8297         hc    277    bbb    H11   8297 0.09515400   1.008000   ; qtot 276.569954
 8298         hc    277    bbb    H12   8298 0.09515400   1.008000   ; qtot 276.665108
 8299         c3    277    bbb     C7   8299 0.21842400  12.010000   ; qtot 276.883532
 8300         h1    277    bbb    H13   8300 0.04500300   1.008000   ; qtot 276.928535
 8301         h1    277    bbb    H14   8301 0.04500300   1.008000   ; qtot 276.973538
 8302         c3    277    bbb     C8   8302 -0.06455200  12.010000   ; qtot 276.908986
 8303         h1    277    bbb    H15   8303 0.13554100   1.008000   ; qtot 277.044527
 8304         h1    277    bbb    H16   8304 0.13554100   1.008000   ; qtot 277.180068
 8305         c3    277    bbb     C9   8305 -0.06455200  12.010000   ; qtot 277.115516
 8306         h1    277    bbb    H17   8306 0.13554100   1.008000   ; qtot 277.251057
 8307         h1    277    bbb    H18   8307 0.13554100   1.008000   ; qtot 277.386598
 8308         os    277    bbb     O1   8308 -0.62587700  16.000000   ; qtot 276.760721
 8309         hn    277    bbb    H19   8309 0.23982500   1.008000   ; qtot 277.000546
; residue  278 bbb rtp bbb q 1.0
 8310         n4    278    bbb     N1   8310 0.03726400  14.010000   ; qtot 277.037810
 8311         c3    278    bbb     C1   8311 -0.07020100  12.010000   ; qtot 276.967609
 8312         hx    278    bbb     H1   8312 0.12219000   1.008000   ; qtot 277.089799
 8313         hx    278    bbb     H2   8313 0.12219000   1.008000   ; qtot 277.211989
 8314         c3    278    bbb     C2   8314 -0.07020100  12.010000   ; qtot 277.141788
 8315         hx    278    bbb     H3   8315 0.12219000   1.008000   ; qtot 277.263978
 8316         hx    278    bbb     H4   8316 0.12219000   1.008000   ; qtot 277.386168
 8317         c3    278    bbb     C3   8317 -0.39007700  12.010000   ; qtot 276.996091
 8318         hx    278    bbb     H5   8318 0.14940300   1.008000   ; qtot 277.145494
 8319         hx    278    bbb     H6   8319 0.14940300   1.008000   ; qtot 277.294897
 8320         c3    278    bbb     C4   8320 0.18057300  12.010000   ; qtot 277.475470
 8321         hc    278    bbb     H7   8321 0.01788900   1.008000   ; qtot 277.493359
 8322         hc    278    bbb     H8   8322 0.01788900   1.008000   ; qtot 277.511248
 8323         c3    278    bbb     C5   8323 -0.11337700  12.010000   ; qtot 277.397871
 8324         hc    278    bbb     H9   8324 0.09515400   1.008000   ; qtot 277.493025
 8325         hc    278    bbb    H10   8325 0.09515400   1.008000   ; qtot 277.588179
 8326         c3    278    bbb     C6   8326 -0.11337700  12.010000   ; qtot 277.474802
 8327         hc    278    bbb    H11   8327 0.09515400   1.008000   ; qtot 277.569956
 8328         hc    278    bbb    H12   8328 0.09515400   1.008000   ; qtot 277.665110
 8329         c3    278    bbb     C7   8329 0.21842400  12.010000   ; qtot 277.883534
 8330         h1    278    bbb    H13   8330 0.04500300   1.008000   ; qtot 277.928537
 8331         h1    278    bbb    H14   8331 0.04500300   1.008000   ; qtot 277.973540
 8332         c3    278    bbb     C8   8332 -0.06455200  12.010000   ; qtot 277.908988
 8333         h1    278    bbb    H15   8333 0.13554100   1.008000   ; qtot 278.044529
 8334         h1    278    bbb    H16   8334 0.13554100   1.008000   ; qtot 278.180070
 8335         c3    278    bbb     C9   8335 -0.06455200  12.010000   ; qtot 278.115518
 8336         h1    278    bbb    H17   8336 0.13554100   1.008000   ; qtot 278.251059
 8337         h1    278    bbb    H18   8337 0.13554100   1.008000   ; qtot 278.386600
 8338         os    278    bbb     O1   8338 -0.62587700  16.000000   ; qtot 277.760723
 8339         hn    278    bbb    H19   8339 0.23982500   1.008000   ; qtot 278.000548
; residue  279 bbb rtp bbb q 1.0
 8340         n4    279    bbb     N1   8340 0.03726400  14.010000   ; qtot 278.037812
 8341         c3    279    bbb     C1   8341 -0.07020100  12.010000   ; qtot 277.967611
 8342         hx    279    bbb     H1   8342 0.12219000   1.008000   ; qtot 278.089801
 8343         hx    279    bbb     H2   8343 0.12219000   1.008000   ; qtot 278.211991
 8344         c3    279    bbb     C2   8344 -0.07020100  12.010000   ; qtot 278.141790
 8345         hx    279    bbb     H3   8345 0.12219000   1.008000   ; qtot 278.263980
 8346         hx    279    bbb     H4   8346 0.12219000   1.008000   ; qtot 278.386170
 8347         c3    279    bbb     C3   8347 -0.39007700  12.010000   ; qtot 277.996093
 8348         hx    279    bbb     H5   8348 0.14940300   1.008000   ; qtot 278.145496
 8349         hx    279    bbb     H6   8349 0.14940300   1.008000   ; qtot 278.294899
 8350         c3    279    bbb     C4   8350 0.18057300  12.010000   ; qtot 278.475472
 8351         hc    279    bbb     H7   8351 0.01788900   1.008000   ; qtot 278.493361
 8352         hc    279    bbb     H8   8352 0.01788900   1.008000   ; qtot 278.511250
 8353         c3    279    bbb     C5   8353 -0.11337700  12.010000   ; qtot 278.397873
 8354         hc    279    bbb     H9   8354 0.09515400   1.008000   ; qtot 278.493027
 8355         hc    279    bbb    H10   8355 0.09515400   1.008000   ; qtot 278.588181
 8356         c3    279    bbb     C6   8356 -0.11337700  12.010000   ; qtot 278.474804
 8357         hc    279    bbb    H11   8357 0.09515400   1.008000   ; qtot 278.569958
 8358         hc    279    bbb    H12   8358 0.09515400   1.008000   ; qtot 278.665112
 8359         c3    279    bbb     C7   8359 0.21842400  12.010000   ; qtot 278.883536
 8360         h1    279    bbb    H13   8360 0.04500300   1.008000   ; qtot 278.928539
 8361         h1    279    bbb    H14   8361 0.04500300   1.008000   ; qtot 278.973542
 8362         c3    279    bbb     C8   8362 -0.06455200  12.010000   ; qtot 278.908990
 8363         h1    279    bbb    H15   8363 0.13554100   1.008000   ; qtot 279.044531
 8364         h1    279    bbb    H16   8364 0.13554100   1.008000   ; qtot 279.180072
 8365         c3    279    bbb     C9   8365 -0.06455200  12.010000   ; qtot 279.115520
 8366         h1    279    bbb    H17   8366 0.13554100   1.008000   ; qtot 279.251061
 8367         h1    279    bbb    H18   8367 0.13554100   1.008000   ; qtot 279.386602
 8368         os    279    bbb     O1   8368 -0.62587700  16.000000   ; qtot 278.760725
 8369         hn    279    bbb    H19   8369 0.23982500   1.008000   ; qtot 279.000550
; residue  280 bbb rtp bbb q 1.0
 8370         n4    280    bbb     N1   8370 0.03726400  14.010000   ; qtot 279.037814
 8371         c3    280    bbb     C1   8371 -0.07020100  12.010000   ; qtot 278.967613
 8372         hx    280    bbb     H1   8372 0.12219000   1.008000   ; qtot 279.089803
 8373         hx    280    bbb     H2   8373 0.12219000   1.008000   ; qtot 279.211993
 8374         c3    280    bbb     C2   8374 -0.07020100  12.010000   ; qtot 279.141792
 8375         hx    280    bbb     H3   8375 0.12219000   1.008000   ; qtot 279.263982
 8376         hx    280    bbb     H4   8376 0.12219000   1.008000   ; qtot 279.386172
 8377         c3    280    bbb     C3   8377 -0.39007700  12.010000   ; qtot 278.996095
 8378         hx    280    bbb     H5   8378 0.14940300   1.008000   ; qtot 279.145498
 8379         hx    280    bbb     H6   8379 0.14940300   1.008000   ; qtot 279.294901
 8380         c3    280    bbb     C4   8380 0.18057300  12.010000   ; qtot 279.475474
 8381         hc    280    bbb     H7   8381 0.01788900   1.008000   ; qtot 279.493363
 8382         hc    280    bbb     H8   8382 0.01788900   1.008000   ; qtot 279.511252
 8383         c3    280    bbb     C5   8383 -0.11337700  12.010000   ; qtot 279.397875
 8384         hc    280    bbb     H9   8384 0.09515400   1.008000   ; qtot 279.493029
 8385         hc    280    bbb    H10   8385 0.09515400   1.008000   ; qtot 279.588183
 8386         c3    280    bbb     C6   8386 -0.11337700  12.010000   ; qtot 279.474806
 8387         hc    280    bbb    H11   8387 0.09515400   1.008000   ; qtot 279.569960
 8388         hc    280    bbb    H12   8388 0.09515400   1.008000   ; qtot 279.665114
 8389         c3    280    bbb     C7   8389 0.21842400  12.010000   ; qtot 279.883538
 8390         h1    280    bbb    H13   8390 0.04500300   1.008000   ; qtot 279.928541
 8391         h1    280    bbb    H14   8391 0.04500300   1.008000   ; qtot 279.973544
 8392         c3    280    bbb     C8   8392 -0.06455200  12.010000   ; qtot 279.908992
 8393         h1    280    bbb    H15   8393 0.13554100   1.008000   ; qtot 280.044533
 8394         h1    280    bbb    H16   8394 0.13554100   1.008000   ; qtot 280.180074
 8395         c3    280    bbb     C9   8395 -0.06455200  12.010000   ; qtot 280.115522
 8396         h1    280    bbb    H17   8396 0.13554100   1.008000   ; qtot 280.251063
 8397         h1    280    bbb    H18   8397 0.13554100   1.008000   ; qtot 280.386604
 8398         os    280    bbb     O1   8398 -0.62587700  16.000000   ; qtot 279.760727
 8399         hn    280    bbb    H19   8399 0.23982500   1.008000   ; qtot 280.000552
; residue  281 bbb rtp bbb q 1.0
 8400         n4    281    bbb     N1   8400 0.03726400  14.010000   ; qtot 280.037816
 8401         c3    281    bbb     C1   8401 -0.07020100  12.010000   ; qtot 279.967615
 8402         hx    281    bbb     H1   8402 0.12219000   1.008000   ; qtot 280.089805
 8403         hx    281    bbb     H2   8403 0.12219000   1.008000   ; qtot 280.211995
 8404         c3    281    bbb     C2   8404 -0.07020100  12.010000   ; qtot 280.141794
 8405         hx    281    bbb     H3   8405 0.12219000   1.008000   ; qtot 280.263984
 8406         hx    281    bbb     H4   8406 0.12219000   1.008000   ; qtot 280.386174
 8407         c3    281    bbb     C3   8407 -0.39007700  12.010000   ; qtot 279.996097
 8408         hx    281    bbb     H5   8408 0.14940300   1.008000   ; qtot 280.145500
 8409         hx    281    bbb     H6   8409 0.14940300   1.008000   ; qtot 280.294903
 8410         c3    281    bbb     C4   8410 0.18057300  12.010000   ; qtot 280.475476
 8411         hc    281    bbb     H7   8411 0.01788900   1.008000   ; qtot 280.493365
 8412         hc    281    bbb     H8   8412 0.01788900   1.008000   ; qtot 280.511254
 8413         c3    281    bbb     C5   8413 -0.11337700  12.010000   ; qtot 280.397877
 8414         hc    281    bbb     H9   8414 0.09515400   1.008000   ; qtot 280.493031
 8415         hc    281    bbb    H10   8415 0.09515400   1.008000   ; qtot 280.588185
 8416         c3    281    bbb     C6   8416 -0.11337700  12.010000   ; qtot 280.474808
 8417         hc    281    bbb    H11   8417 0.09515400   1.008000   ; qtot 280.569962
 8418         hc    281    bbb    H12   8418 0.09515400   1.008000   ; qtot 280.665116
 8419         c3    281    bbb     C7   8419 0.21842400  12.010000   ; qtot 280.883540
 8420         h1    281    bbb    H13   8420 0.04500300   1.008000   ; qtot 280.928543
 8421         h1    281    bbb    H14   8421 0.04500300   1.008000   ; qtot 280.973546
 8422         c3    281    bbb     C8   8422 -0.06455200  12.010000   ; qtot 280.908994
 8423         h1    281    bbb    H15   8423 0.13554100   1.008000   ; qtot 281.044535
 8424         h1    281    bbb    H16   8424 0.13554100   1.008000   ; qtot 281.180076
 8425         c3    281    bbb     C9   8425 -0.06455200  12.010000   ; qtot 281.115524
 8426         h1    281    bbb    H17   8426 0.13554100   1.008000   ; qtot 281.251065
 8427         h1    281    bbb    H18   8427 0.13554100   1.008000   ; qtot 281.386606
 8428         os    281    bbb     O1   8428 -0.62587700  16.000000   ; qtot 280.760729
 8429         hn    281    bbb    H19   8429 0.23982500   1.008000   ; qtot 281.000554
; residue  282 bbb rtp bbb q 1.0
 8430         n4    282    bbb     N1   8430 0.03726400  14.010000   ; qtot 281.037818
 8431         c3    282    bbb     C1   8431 -0.07020100  12.010000   ; qtot 280.967617
 8432         hx    282    bbb     H1   8432 0.12219000   1.008000   ; qtot 281.089807
 8433         hx    282    bbb     H2   8433 0.12219000   1.008000   ; qtot 281.211997
 8434         c3    282    bbb     C2   8434 -0.07020100  12.010000   ; qtot 281.141796
 8435         hx    282    bbb     H3   8435 0.12219000   1.008000   ; qtot 281.263986
 8436         hx    282    bbb     H4   8436 0.12219000   1.008000   ; qtot 281.386176
 8437         c3    282    bbb     C3   8437 -0.39007700  12.010000   ; qtot 280.996099
 8438         hx    282    bbb     H5   8438 0.14940300   1.008000   ; qtot 281.145502
 8439         hx    282    bbb     H6   8439 0.14940300   1.008000   ; qtot 281.294905
 8440         c3    282    bbb     C4   8440 0.18057300  12.010000   ; qtot 281.475478
 8441         hc    282    bbb     H7   8441 0.01788900   1.008000   ; qtot 281.493367
 8442         hc    282    bbb     H8   8442 0.01788900   1.008000   ; qtot 281.511256
 8443         c3    282    bbb     C5   8443 -0.11337700  12.010000   ; qtot 281.397879
 8444         hc    282    bbb     H9   8444 0.09515400   1.008000   ; qtot 281.493033
 8445         hc    282    bbb    H10   8445 0.09515400   1.008000   ; qtot 281.588187
 8446         c3    282    bbb     C6   8446 -0.11337700  12.010000   ; qtot 281.474810
 8447         hc    282    bbb    H11   8447 0.09515400   1.008000   ; qtot 281.569964
 8448         hc    282    bbb    H12   8448 0.09515400   1.008000   ; qtot 281.665118
 8449         c3    282    bbb     C7   8449 0.21842400  12.010000   ; qtot 281.883542
 8450         h1    282    bbb    H13   8450 0.04500300   1.008000   ; qtot 281.928545
 8451         h1    282    bbb    H14   8451 0.04500300   1.008000   ; qtot 281.973548
 8452         c3    282    bbb     C8   8452 -0.06455200  12.010000   ; qtot 281.908996
 8453         h1    282    bbb    H15   8453 0.13554100   1.008000   ; qtot 282.044537
 8454         h1    282    bbb    H16   8454 0.13554100   1.008000   ; qtot 282.180078
 8455         c3    282    bbb     C9   8455 -0.06455200  12.010000   ; qtot 282.115526
 8456         h1    282    bbb    H17   8456 0.13554100   1.008000   ; qtot 282.251067
 8457         h1    282    bbb    H18   8457 0.13554100   1.008000   ; qtot 282.386608
 8458         os    282    bbb     O1   8458 -0.62587700  16.000000   ; qtot 281.760731
 8459         hn    282    bbb    H19   8459 0.23982500   1.008000   ; qtot 282.000556
; residue  283 bbb rtp bbb q 1.0
 8460         n4    283    bbb     N1   8460 0.03726400  14.010000   ; qtot 282.037820
 8461         c3    283    bbb     C1   8461 -0.07020100  12.010000   ; qtot 281.967619
 8462         hx    283    bbb     H1   8462 0.12219000   1.008000   ; qtot 282.089809
 8463         hx    283    bbb     H2   8463 0.12219000   1.008000   ; qtot 282.211999
 8464         c3    283    bbb     C2   8464 -0.07020100  12.010000   ; qtot 282.141798
 8465         hx    283    bbb     H3   8465 0.12219000   1.008000   ; qtot 282.263988
 8466         hx    283    bbb     H4   8466 0.12219000   1.008000   ; qtot 282.386178
 8467         c3    283    bbb     C3   8467 -0.39007700  12.010000   ; qtot 281.996101
 8468         hx    283    bbb     H5   8468 0.14940300   1.008000   ; qtot 282.145504
 8469         hx    283    bbb     H6   8469 0.14940300   1.008000   ; qtot 282.294907
 8470         c3    283    bbb     C4   8470 0.18057300  12.010000   ; qtot 282.475480
 8471         hc    283    bbb     H7   8471 0.01788900   1.008000   ; qtot 282.493369
 8472         hc    283    bbb     H8   8472 0.01788900   1.008000   ; qtot 282.511258
 8473         c3    283    bbb     C5   8473 -0.11337700  12.010000   ; qtot 282.397881
 8474         hc    283    bbb     H9   8474 0.09515400   1.008000   ; qtot 282.493035
 8475         hc    283    bbb    H10   8475 0.09515400   1.008000   ; qtot 282.588189
 8476         c3    283    bbb     C6   8476 -0.11337700  12.010000   ; qtot 282.474812
 8477         hc    283    bbb    H11   8477 0.09515400   1.008000   ; qtot 282.569966
 8478         hc    283    bbb    H12   8478 0.09515400   1.008000   ; qtot 282.665120
 8479         c3    283    bbb     C7   8479 0.21842400  12.010000   ; qtot 282.883544
 8480         h1    283    bbb    H13   8480 0.04500300   1.008000   ; qtot 282.928547
 8481         h1    283    bbb    H14   8481 0.04500300   1.008000   ; qtot 282.973550
 8482         c3    283    bbb     C8   8482 -0.06455200  12.010000   ; qtot 282.908998
 8483         h1    283    bbb    H15   8483 0.13554100   1.008000   ; qtot 283.044539
 8484         h1    283    bbb    H16   8484 0.13554100   1.008000   ; qtot 283.180080
 8485         c3    283    bbb     C9   8485 -0.06455200  12.010000   ; qtot 283.115528
 8486         h1    283    bbb    H17   8486 0.13554100   1.008000   ; qtot 283.251069
 8487         h1    283    bbb    H18   8487 0.13554100   1.008000   ; qtot 283.386610
 8488         os    283    bbb     O1   8488 -0.62587700  16.000000   ; qtot 282.760733
 8489         hn    283    bbb    H19   8489 0.23982500   1.008000   ; qtot 283.000558
; residue  284 bbb rtp bbb q 1.0
 8490         n4    284    bbb     N1   8490 0.03726400  14.010000   ; qtot 283.037822
 8491         c3    284    bbb     C1   8491 -0.07020100  12.010000   ; qtot 282.967621
 8492         hx    284    bbb     H1   8492 0.12219000   1.008000   ; qtot 283.089811
 8493         hx    284    bbb     H2   8493 0.12219000   1.008000   ; qtot 283.212001
 8494         c3    284    bbb     C2   8494 -0.07020100  12.010000   ; qtot 283.141800
 8495         hx    284    bbb     H3   8495 0.12219000   1.008000   ; qtot 283.263990
 8496         hx    284    bbb     H4   8496 0.12219000   1.008000   ; qtot 283.386180
 8497         c3    284    bbb     C3   8497 -0.39007700  12.010000   ; qtot 282.996103
 8498         hx    284    bbb     H5   8498 0.14940300   1.008000   ; qtot 283.145506
 8499         hx    284    bbb     H6   8499 0.14940300   1.008000   ; qtot 283.294909
 8500         c3    284    bbb     C4   8500 0.18057300  12.010000   ; qtot 283.475482
 8501         hc    284    bbb     H7   8501 0.01788900   1.008000   ; qtot 283.493371
 8502         hc    284    bbb     H8   8502 0.01788900   1.008000   ; qtot 283.511260
 8503         c3    284    bbb     C5   8503 -0.11337700  12.010000   ; qtot 283.397883
 8504         hc    284    bbb     H9   8504 0.09515400   1.008000   ; qtot 283.493037
 8505         hc    284    bbb    H10   8505 0.09515400   1.008000   ; qtot 283.588191
 8506         c3    284    bbb     C6   8506 -0.11337700  12.010000   ; qtot 283.474814
 8507         hc    284    bbb    H11   8507 0.09515400   1.008000   ; qtot 283.569968
 8508         hc    284    bbb    H12   8508 0.09515400   1.008000   ; qtot 283.665122
 8509         c3    284    bbb     C7   8509 0.21842400  12.010000   ; qtot 283.883546
 8510         h1    284    bbb    H13   8510 0.04500300   1.008000   ; qtot 283.928549
 8511         h1    284    bbb    H14   8511 0.04500300   1.008000   ; qtot 283.973552
 8512         c3    284    bbb     C8   8512 -0.06455200  12.010000   ; qtot 283.909000
 8513         h1    284    bbb    H15   8513 0.13554100   1.008000   ; qtot 284.044541
 8514         h1    284    bbb    H16   8514 0.13554100   1.008000   ; qtot 284.180082
 8515         c3    284    bbb     C9   8515 -0.06455200  12.010000   ; qtot 284.115530
 8516         h1    284    bbb    H17   8516 0.13554100   1.008000   ; qtot 284.251071
 8517         h1    284    bbb    H18   8517 0.13554100   1.008000   ; qtot 284.386612
 8518         os    284    bbb     O1   8518 -0.62587700  16.000000   ; qtot 283.760735
 8519         hn    284    bbb    H19   8519 0.23982500   1.008000   ; qtot 284.000560
; residue  285 bbb rtp bbb q 1.0
 8520         n4    285    bbb     N1   8520 0.03726400  14.010000   ; qtot 284.037824
 8521         c3    285    bbb     C1   8521 -0.07020100  12.010000   ; qtot 283.967623
 8522         hx    285    bbb     H1   8522 0.12219000   1.008000   ; qtot 284.089813
 8523         hx    285    bbb     H2   8523 0.12219000   1.008000   ; qtot 284.212003
 8524         c3    285    bbb     C2   8524 -0.07020100  12.010000   ; qtot 284.141802
 8525         hx    285    bbb     H3   8525 0.12219000   1.008000   ; qtot 284.263992
 8526         hx    285    bbb     H4   8526 0.12219000   1.008000   ; qtot 284.386182
 8527         c3    285    bbb     C3   8527 -0.39007700  12.010000   ; qtot 283.996105
 8528         hx    285    bbb     H5   8528 0.14940300   1.008000   ; qtot 284.145508
 8529         hx    285    bbb     H6   8529 0.14940300   1.008000   ; qtot 284.294911
 8530         c3    285    bbb     C4   8530 0.18057300  12.010000   ; qtot 284.475484
 8531         hc    285    bbb     H7   8531 0.01788900   1.008000   ; qtot 284.493373
 8532         hc    285    bbb     H8   8532 0.01788900   1.008000   ; qtot 284.511262
 8533         c3    285    bbb     C5   8533 -0.11337700  12.010000   ; qtot 284.397885
 8534         hc    285    bbb     H9   8534 0.09515400   1.008000   ; qtot 284.493039
 8535         hc    285    bbb    H10   8535 0.09515400   1.008000   ; qtot 284.588193
 8536         c3    285    bbb     C6   8536 -0.11337700  12.010000   ; qtot 284.474816
 8537         hc    285    bbb    H11   8537 0.09515400   1.008000   ; qtot 284.569970
 8538         hc    285    bbb    H12   8538 0.09515400   1.008000   ; qtot 284.665124
 8539         c3    285    bbb     C7   8539 0.21842400  12.010000   ; qtot 284.883548
 8540         h1    285    bbb    H13   8540 0.04500300   1.008000   ; qtot 284.928551
 8541         h1    285    bbb    H14   8541 0.04500300   1.008000   ; qtot 284.973554
 8542         c3    285    bbb     C8   8542 -0.06455200  12.010000   ; qtot 284.909002
 8543         h1    285    bbb    H15   8543 0.13554100   1.008000   ; qtot 285.044543
 8544         h1    285    bbb    H16   8544 0.13554100   1.008000   ; qtot 285.180084
 8545         c3    285    bbb     C9   8545 -0.06455200  12.010000   ; qtot 285.115532
 8546         h1    285    bbb    H17   8546 0.13554100   1.008000   ; qtot 285.251073
 8547         h1    285    bbb    H18   8547 0.13554100   1.008000   ; qtot 285.386614
 8548         os    285    bbb     O1   8548 -0.62587700  16.000000   ; qtot 284.760737
 8549         hn    285    bbb    H19   8549 0.23982500   1.008000   ; qtot 285.000562
; residue  286 bbb rtp bbb q 1.0
 8550         n4    286    bbb     N1   8550 0.03726400  14.010000   ; qtot 285.037826
 8551         c3    286    bbb     C1   8551 -0.07020100  12.010000   ; qtot 284.967625
 8552         hx    286    bbb     H1   8552 0.12219000   1.008000   ; qtot 285.089815
 8553         hx    286    bbb     H2   8553 0.12219000   1.008000   ; qtot 285.212005
 8554         c3    286    bbb     C2   8554 -0.07020100  12.010000   ; qtot 285.141804
 8555         hx    286    bbb     H3   8555 0.12219000   1.008000   ; qtot 285.263994
 8556         hx    286    bbb     H4   8556 0.12219000   1.008000   ; qtot 285.386184
 8557         c3    286    bbb     C3   8557 -0.39007700  12.010000   ; qtot 284.996107
 8558         hx    286    bbb     H5   8558 0.14940300   1.008000   ; qtot 285.145510
 8559         hx    286    bbb     H6   8559 0.14940300   1.008000   ; qtot 285.294913
 8560         c3    286    bbb     C4   8560 0.18057300  12.010000   ; qtot 285.475486
 8561         hc    286    bbb     H7   8561 0.01788900   1.008000   ; qtot 285.493375
 8562         hc    286    bbb     H8   8562 0.01788900   1.008000   ; qtot 285.511264
 8563         c3    286    bbb     C5   8563 -0.11337700  12.010000   ; qtot 285.397887
 8564         hc    286    bbb     H9   8564 0.09515400   1.008000   ; qtot 285.493041
 8565         hc    286    bbb    H10   8565 0.09515400   1.008000   ; qtot 285.588195
 8566         c3    286    bbb     C6   8566 -0.11337700  12.010000   ; qtot 285.474818
 8567         hc    286    bbb    H11   8567 0.09515400   1.008000   ; qtot 285.569972
 8568         hc    286    bbb    H12   8568 0.09515400   1.008000   ; qtot 285.665126
 8569         c3    286    bbb     C7   8569 0.21842400  12.010000   ; qtot 285.883550
 8570         h1    286    bbb    H13   8570 0.04500300   1.008000   ; qtot 285.928553
 8571         h1    286    bbb    H14   8571 0.04500300   1.008000   ; qtot 285.973556
 8572         c3    286    bbb     C8   8572 -0.06455200  12.010000   ; qtot 285.909004
 8573         h1    286    bbb    H15   8573 0.13554100   1.008000   ; qtot 286.044545
 8574         h1    286    bbb    H16   8574 0.13554100   1.008000   ; qtot 286.180086
 8575         c3    286    bbb     C9   8575 -0.06455200  12.010000   ; qtot 286.115534
 8576         h1    286    bbb    H17   8576 0.13554100   1.008000   ; qtot 286.251075
 8577         h1    286    bbb    H18   8577 0.13554100   1.008000   ; qtot 286.386616
 8578         os    286    bbb     O1   8578 -0.62587700  16.000000   ; qtot 285.760739
 8579         hn    286    bbb    H19   8579 0.23982500   1.008000   ; qtot 286.000564
; residue  287 bbb rtp bbb q 1.0
 8580         n4    287    bbb     N1   8580 0.03726400  14.010000   ; qtot 286.037828
 8581         c3    287    bbb     C1   8581 -0.07020100  12.010000   ; qtot 285.967627
 8582         hx    287    bbb     H1   8582 0.12219000   1.008000   ; qtot 286.089817
 8583         hx    287    bbb     H2   8583 0.12219000   1.008000   ; qtot 286.212007
 8584         c3    287    bbb     C2   8584 -0.07020100  12.010000   ; qtot 286.141806
 8585         hx    287    bbb     H3   8585 0.12219000   1.008000   ; qtot 286.263996
 8586         hx    287    bbb     H4   8586 0.12219000   1.008000   ; qtot 286.386186
 8587         c3    287    bbb     C3   8587 -0.39007700  12.010000   ; qtot 285.996109
 8588         hx    287    bbb     H5   8588 0.14940300   1.008000   ; qtot 286.145512
 8589         hx    287    bbb     H6   8589 0.14940300   1.008000   ; qtot 286.294915
 8590         c3    287    bbb     C4   8590 0.18057300  12.010000   ; qtot 286.475488
 8591         hc    287    bbb     H7   8591 0.01788900   1.008000   ; qtot 286.493377
 8592         hc    287    bbb     H8   8592 0.01788900   1.008000   ; qtot 286.511266
 8593         c3    287    bbb     C5   8593 -0.11337700  12.010000   ; qtot 286.397889
 8594         hc    287    bbb     H9   8594 0.09515400   1.008000   ; qtot 286.493043
 8595         hc    287    bbb    H10   8595 0.09515400   1.008000   ; qtot 286.588197
 8596         c3    287    bbb     C6   8596 -0.11337700  12.010000   ; qtot 286.474820
 8597         hc    287    bbb    H11   8597 0.09515400   1.008000   ; qtot 286.569974
 8598         hc    287    bbb    H12   8598 0.09515400   1.008000   ; qtot 286.665128
 8599         c3    287    bbb     C7   8599 0.21842400  12.010000   ; qtot 286.883552
 8600         h1    287    bbb    H13   8600 0.04500300   1.008000   ; qtot 286.928555
 8601         h1    287    bbb    H14   8601 0.04500300   1.008000   ; qtot 286.973558
 8602         c3    287    bbb     C8   8602 -0.06455200  12.010000   ; qtot 286.909006
 8603         h1    287    bbb    H15   8603 0.13554100   1.008000   ; qtot 287.044547
 8604         h1    287    bbb    H16   8604 0.13554100   1.008000   ; qtot 287.180088
 8605         c3    287    bbb     C9   8605 -0.06455200  12.010000   ; qtot 287.115536
 8606         h1    287    bbb    H17   8606 0.13554100   1.008000   ; qtot 287.251077
 8607         h1    287    bbb    H18   8607 0.13554100   1.008000   ; qtot 287.386618
 8608         os    287    bbb     O1   8608 -0.62587700  16.000000   ; qtot 286.760741
 8609         hn    287    bbb    H19   8609 0.23982500   1.008000   ; qtot 287.000566
; residue  288 bbb rtp bbb q 1.0
 8610         n4    288    bbb     N1   8610 0.03726400  14.010000   ; qtot 287.037830
 8611         c3    288    bbb     C1   8611 -0.07020100  12.010000   ; qtot 286.967629
 8612         hx    288    bbb     H1   8612 0.12219000   1.008000   ; qtot 287.089819
 8613         hx    288    bbb     H2   8613 0.12219000   1.008000   ; qtot 287.212009
 8614         c3    288    bbb     C2   8614 -0.07020100  12.010000   ; qtot 287.141808
 8615         hx    288    bbb     H3   8615 0.12219000   1.008000   ; qtot 287.263998
 8616         hx    288    bbb     H4   8616 0.12219000   1.008000   ; qtot 287.386188
 8617         c3    288    bbb     C3   8617 -0.39007700  12.010000   ; qtot 286.996111
 8618         hx    288    bbb     H5   8618 0.14940300   1.008000   ; qtot 287.145514
 8619         hx    288    bbb     H6   8619 0.14940300   1.008000   ; qtot 287.294917
 8620         c3    288    bbb     C4   8620 0.18057300  12.010000   ; qtot 287.475490
 8621         hc    288    bbb     H7   8621 0.01788900   1.008000   ; qtot 287.493379
 8622         hc    288    bbb     H8   8622 0.01788900   1.008000   ; qtot 287.511268
 8623         c3    288    bbb     C5   8623 -0.11337700  12.010000   ; qtot 287.397891
 8624         hc    288    bbb     H9   8624 0.09515400   1.008000   ; qtot 287.493045
 8625         hc    288    bbb    H10   8625 0.09515400   1.008000   ; qtot 287.588199
 8626         c3    288    bbb     C6   8626 -0.11337700  12.010000   ; qtot 287.474822
 8627         hc    288    bbb    H11   8627 0.09515400   1.008000   ; qtot 287.569976
 8628         hc    288    bbb    H12   8628 0.09515400   1.008000   ; qtot 287.665130
 8629         c3    288    bbb     C7   8629 0.21842400  12.010000   ; qtot 287.883554
 8630         h1    288    bbb    H13   8630 0.04500300   1.008000   ; qtot 287.928557
 8631         h1    288    bbb    H14   8631 0.04500300   1.008000   ; qtot 287.973560
 8632         c3    288    bbb     C8   8632 -0.06455200  12.010000   ; qtot 287.909008
 8633         h1    288    bbb    H15   8633 0.13554100   1.008000   ; qtot 288.044549
 8634         h1    288    bbb    H16   8634 0.13554100   1.008000   ; qtot 288.180090
 8635         c3    288    bbb     C9   8635 -0.06455200  12.010000   ; qtot 288.115538
 8636         h1    288    bbb    H17   8636 0.13554100   1.008000   ; qtot 288.251079
 8637         h1    288    bbb    H18   8637 0.13554100   1.008000   ; qtot 288.386620
 8638         os    288    bbb     O1   8638 -0.62587700  16.000000   ; qtot 287.760743
 8639         hn    288    bbb    H19   8639 0.23982500   1.008000   ; qtot 288.000568
; residue  289 bbb rtp bbb q 1.0
 8640         n4    289    bbb     N1   8640 0.03726400  14.010000   ; qtot 288.037832
 8641         c3    289    bbb     C1   8641 -0.07020100  12.010000   ; qtot 287.967631
 8642         hx    289    bbb     H1   8642 0.12219000   1.008000   ; qtot 288.089821
 8643         hx    289    bbb     H2   8643 0.12219000   1.008000   ; qtot 288.212011
 8644         c3    289    bbb     C2   8644 -0.07020100  12.010000   ; qtot 288.141810
 8645         hx    289    bbb     H3   8645 0.12219000   1.008000   ; qtot 288.264000
 8646         hx    289    bbb     H4   8646 0.12219000   1.008000   ; qtot 288.386190
 8647         c3    289    bbb     C3   8647 -0.39007700  12.010000   ; qtot 287.996113
 8648         hx    289    bbb     H5   8648 0.14940300   1.008000   ; qtot 288.145516
 8649         hx    289    bbb     H6   8649 0.14940300   1.008000   ; qtot 288.294919
 8650         c3    289    bbb     C4   8650 0.18057300  12.010000   ; qtot 288.475492
 8651         hc    289    bbb     H7   8651 0.01788900   1.008000   ; qtot 288.493381
 8652         hc    289    bbb     H8   8652 0.01788900   1.008000   ; qtot 288.511270
 8653         c3    289    bbb     C5   8653 -0.11337700  12.010000   ; qtot 288.397893
 8654         hc    289    bbb     H9   8654 0.09515400   1.008000   ; qtot 288.493047
 8655         hc    289    bbb    H10   8655 0.09515400   1.008000   ; qtot 288.588201
 8656         c3    289    bbb     C6   8656 -0.11337700  12.010000   ; qtot 288.474824
 8657         hc    289    bbb    H11   8657 0.09515400   1.008000   ; qtot 288.569978
 8658         hc    289    bbb    H12   8658 0.09515400   1.008000   ; qtot 288.665132
 8659         c3    289    bbb     C7   8659 0.21842400  12.010000   ; qtot 288.883556
 8660         h1    289    bbb    H13   8660 0.04500300   1.008000   ; qtot 288.928559
 8661         h1    289    bbb    H14   8661 0.04500300   1.008000   ; qtot 288.973562
 8662         c3    289    bbb     C8   8662 -0.06455200  12.010000   ; qtot 288.909010
 8663         h1    289    bbb    H15   8663 0.13554100   1.008000   ; qtot 289.044551
 8664         h1    289    bbb    H16   8664 0.13554100   1.008000   ; qtot 289.180092
 8665         c3    289    bbb     C9   8665 -0.06455200  12.010000   ; qtot 289.115540
 8666         h1    289    bbb    H17   8666 0.13554100   1.008000   ; qtot 289.251081
 8667         h1    289    bbb    H18   8667 0.13554100   1.008000   ; qtot 289.386622
 8668         os    289    bbb     O1   8668 -0.62587700  16.000000   ; qtot 288.760745
 8669         hn    289    bbb    H19   8669 0.23982500   1.008000   ; qtot 289.000570
; residue  290 bbb rtp bbb q 1.0
 8670         n4    290    bbb     N1   8670 0.03726400  14.010000   ; qtot 289.037834
 8671         c3    290    bbb     C1   8671 -0.07020100  12.010000   ; qtot 288.967633
 8672         hx    290    bbb     H1   8672 0.12219000   1.008000   ; qtot 289.089823
 8673         hx    290    bbb     H2   8673 0.12219000   1.008000   ; qtot 289.212013
 8674         c3    290    bbb     C2   8674 -0.07020100  12.010000   ; qtot 289.141812
 8675         hx    290    bbb     H3   8675 0.12219000   1.008000   ; qtot 289.264002
 8676         hx    290    bbb     H4   8676 0.12219000   1.008000   ; qtot 289.386192
 8677         c3    290    bbb     C3   8677 -0.39007700  12.010000   ; qtot 288.996115
 8678         hx    290    bbb     H5   8678 0.14940300   1.008000   ; qtot 289.145518
 8679         hx    290    bbb     H6   8679 0.14940300   1.008000   ; qtot 289.294921
 8680         c3    290    bbb     C4   8680 0.18057300  12.010000   ; qtot 289.475494
 8681         hc    290    bbb     H7   8681 0.01788900   1.008000   ; qtot 289.493383
 8682         hc    290    bbb     H8   8682 0.01788900   1.008000   ; qtot 289.511272
 8683         c3    290    bbb     C5   8683 -0.11337700  12.010000   ; qtot 289.397895
 8684         hc    290    bbb     H9   8684 0.09515400   1.008000   ; qtot 289.493049
 8685         hc    290    bbb    H10   8685 0.09515400   1.008000   ; qtot 289.588203
 8686         c3    290    bbb     C6   8686 -0.11337700  12.010000   ; qtot 289.474826
 8687         hc    290    bbb    H11   8687 0.09515400   1.008000   ; qtot 289.569980
 8688         hc    290    bbb    H12   8688 0.09515400   1.008000   ; qtot 289.665134
 8689         c3    290    bbb     C7   8689 0.21842400  12.010000   ; qtot 289.883558
 8690         h1    290    bbb    H13   8690 0.04500300   1.008000   ; qtot 289.928561
 8691         h1    290    bbb    H14   8691 0.04500300   1.008000   ; qtot 289.973564
 8692         c3    290    bbb     C8   8692 -0.06455200  12.010000   ; qtot 289.909012
 8693         h1    290    bbb    H15   8693 0.13554100   1.008000   ; qtot 290.044553
 8694         h1    290    bbb    H16   8694 0.13554100   1.008000   ; qtot 290.180094
 8695         c3    290    bbb     C9   8695 -0.06455200  12.010000   ; qtot 290.115542
 8696         h1    290    bbb    H17   8696 0.13554100   1.008000   ; qtot 290.251083
 8697         h1    290    bbb    H18   8697 0.13554100   1.008000   ; qtot 290.386624
 8698         os    290    bbb     O1   8698 -0.62587700  16.000000   ; qtot 289.760747
 8699         hn    290    bbb    H19   8699 0.23982500   1.008000   ; qtot 290.000572
; residue  291 bbb rtp bbb q 1.0
 8700         n4    291    bbb     N1   8700 0.03726400  14.010000   ; qtot 290.037836
 8701         c3    291    bbb     C1   8701 -0.07020100  12.010000   ; qtot 289.967635
 8702         hx    291    bbb     H1   8702 0.12219000   1.008000   ; qtot 290.089825
 8703         hx    291    bbb     H2   8703 0.12219000   1.008000   ; qtot 290.212015
 8704         c3    291    bbb     C2   8704 -0.07020100  12.010000   ; qtot 290.141814
 8705         hx    291    bbb     H3   8705 0.12219000   1.008000   ; qtot 290.264004
 8706         hx    291    bbb     H4   8706 0.12219000   1.008000   ; qtot 290.386194
 8707         c3    291    bbb     C3   8707 -0.39007700  12.010000   ; qtot 289.996117
 8708         hx    291    bbb     H5   8708 0.14940300   1.008000   ; qtot 290.145520
 8709         hx    291    bbb     H6   8709 0.14940300   1.008000   ; qtot 290.294923
 8710         c3    291    bbb     C4   8710 0.18057300  12.010000   ; qtot 290.475496
 8711         hc    291    bbb     H7   8711 0.01788900   1.008000   ; qtot 290.493385
 8712         hc    291    bbb     H8   8712 0.01788900   1.008000   ; qtot 290.511274
 8713         c3    291    bbb     C5   8713 -0.11337700  12.010000   ; qtot 290.397897
 8714         hc    291    bbb     H9   8714 0.09515400   1.008000   ; qtot 290.493051
 8715         hc    291    bbb    H10   8715 0.09515400   1.008000   ; qtot 290.588205
 8716         c3    291    bbb     C6   8716 -0.11337700  12.010000   ; qtot 290.474828
 8717         hc    291    bbb    H11   8717 0.09515400   1.008000   ; qtot 290.569982
 8718         hc    291    bbb    H12   8718 0.09515400   1.008000   ; qtot 290.665136
 8719         c3    291    bbb     C7   8719 0.21842400  12.010000   ; qtot 290.883560
 8720         h1    291    bbb    H13   8720 0.04500300   1.008000   ; qtot 290.928563
 8721         h1    291    bbb    H14   8721 0.04500300   1.008000   ; qtot 290.973566
 8722         c3    291    bbb     C8   8722 -0.06455200  12.010000   ; qtot 290.909014
 8723         h1    291    bbb    H15   8723 0.13554100   1.008000   ; qtot 291.044555
 8724         h1    291    bbb    H16   8724 0.13554100   1.008000   ; qtot 291.180096
 8725         c3    291    bbb     C9   8725 -0.06455200  12.010000   ; qtot 291.115544
 8726         h1    291    bbb    H17   8726 0.13554100   1.008000   ; qtot 291.251085
 8727         h1    291    bbb    H18   8727 0.13554100   1.008000   ; qtot 291.386626
 8728         os    291    bbb     O1   8728 -0.62587700  16.000000   ; qtot 290.760749
 8729         hn    291    bbb    H19   8729 0.23982500   1.008000   ; qtot 291.000574
; residue  292 bbb rtp bbb q 1.0
 8730         n4    292    bbb     N1   8730 0.03726400  14.010000   ; qtot 291.037838
 8731         c3    292    bbb     C1   8731 -0.07020100  12.010000   ; qtot 290.967637
 8732         hx    292    bbb     H1   8732 0.12219000   1.008000   ; qtot 291.089827
 8733         hx    292    bbb     H2   8733 0.12219000   1.008000   ; qtot 291.212017
 8734         c3    292    bbb     C2   8734 -0.07020100  12.010000   ; qtot 291.141816
 8735         hx    292    bbb     H3   8735 0.12219000   1.008000   ; qtot 291.264006
 8736         hx    292    bbb     H4   8736 0.12219000   1.008000   ; qtot 291.386196
 8737         c3    292    bbb     C3   8737 -0.39007700  12.010000   ; qtot 290.996119
 8738         hx    292    bbb     H5   8738 0.14940300   1.008000   ; qtot 291.145522
 8739         hx    292    bbb     H6   8739 0.14940300   1.008000   ; qtot 291.294925
 8740         c3    292    bbb     C4   8740 0.18057300  12.010000   ; qtot 291.475498
 8741         hc    292    bbb     H7   8741 0.01788900   1.008000   ; qtot 291.493387
 8742         hc    292    bbb     H8   8742 0.01788900   1.008000   ; qtot 291.511276
 8743         c3    292    bbb     C5   8743 -0.11337700  12.010000   ; qtot 291.397899
 8744         hc    292    bbb     H9   8744 0.09515400   1.008000   ; qtot 291.493053
 8745         hc    292    bbb    H10   8745 0.09515400   1.008000   ; qtot 291.588207
 8746         c3    292    bbb     C6   8746 -0.11337700  12.010000   ; qtot 291.474830
 8747         hc    292    bbb    H11   8747 0.09515400   1.008000   ; qtot 291.569984
 8748         hc    292    bbb    H12   8748 0.09515400   1.008000   ; qtot 291.665138
 8749         c3    292    bbb     C7   8749 0.21842400  12.010000   ; qtot 291.883562
 8750         h1    292    bbb    H13   8750 0.04500300   1.008000   ; qtot 291.928565
 8751         h1    292    bbb    H14   8751 0.04500300   1.008000   ; qtot 291.973568
 8752         c3    292    bbb     C8   8752 -0.06455200  12.010000   ; qtot 291.909016
 8753         h1    292    bbb    H15   8753 0.13554100   1.008000   ; qtot 292.044557
 8754         h1    292    bbb    H16   8754 0.13554100   1.008000   ; qtot 292.180098
 8755         c3    292    bbb     C9   8755 -0.06455200  12.010000   ; qtot 292.115546
 8756         h1    292    bbb    H17   8756 0.13554100   1.008000   ; qtot 292.251087
 8757         h1    292    bbb    H18   8757 0.13554100   1.008000   ; qtot 292.386628
 8758         os    292    bbb     O1   8758 -0.62587700  16.000000   ; qtot 291.760751
 8759         hn    292    bbb    H19   8759 0.23982500   1.008000   ; qtot 292.000576
; residue  293 bbb rtp bbb q 1.0
 8760         n4    293    bbb     N1   8760 0.03726400  14.010000   ; qtot 292.037840
 8761         c3    293    bbb     C1   8761 -0.07020100  12.010000   ; qtot 291.967639
 8762         hx    293    bbb     H1   8762 0.12219000   1.008000   ; qtot 292.089829
 8763         hx    293    bbb     H2   8763 0.12219000   1.008000   ; qtot 292.212019
 8764         c3    293    bbb     C2   8764 -0.07020100  12.010000   ; qtot 292.141818
 8765         hx    293    bbb     H3   8765 0.12219000   1.008000   ; qtot 292.264008
 8766         hx    293    bbb     H4   8766 0.12219000   1.008000   ; qtot 292.386198
 8767         c3    293    bbb     C3   8767 -0.39007700  12.010000   ; qtot 291.996121
 8768         hx    293    bbb     H5   8768 0.14940300   1.008000   ; qtot 292.145524
 8769         hx    293    bbb     H6   8769 0.14940300   1.008000   ; qtot 292.294927
 8770         c3    293    bbb     C4   8770 0.18057300  12.010000   ; qtot 292.475500
 8771         hc    293    bbb     H7   8771 0.01788900   1.008000   ; qtot 292.493389
 8772         hc    293    bbb     H8   8772 0.01788900   1.008000   ; qtot 292.511278
 8773         c3    293    bbb     C5   8773 -0.11337700  12.010000   ; qtot 292.397901
 8774         hc    293    bbb     H9   8774 0.09515400   1.008000   ; qtot 292.493055
 8775         hc    293    bbb    H10   8775 0.09515400   1.008000   ; qtot 292.588209
 8776         c3    293    bbb     C6   8776 -0.11337700  12.010000   ; qtot 292.474832
 8777         hc    293    bbb    H11   8777 0.09515400   1.008000   ; qtot 292.569986
 8778         hc    293    bbb    H12   8778 0.09515400   1.008000   ; qtot 292.665140
 8779         c3    293    bbb     C7   8779 0.21842400  12.010000   ; qtot 292.883564
 8780         h1    293    bbb    H13   8780 0.04500300   1.008000   ; qtot 292.928567
 8781         h1    293    bbb    H14   8781 0.04500300   1.008000   ; qtot 292.973570
 8782         c3    293    bbb     C8   8782 -0.06455200  12.010000   ; qtot 292.909018
 8783         h1    293    bbb    H15   8783 0.13554100   1.008000   ; qtot 293.044559
 8784         h1    293    bbb    H16   8784 0.13554100   1.008000   ; qtot 293.180100
 8785         c3    293    bbb     C9   8785 -0.06455200  12.010000   ; qtot 293.115548
 8786         h1    293    bbb    H17   8786 0.13554100   1.008000   ; qtot 293.251089
 8787         h1    293    bbb    H18   8787 0.13554100   1.008000   ; qtot 293.386630
 8788         os    293    bbb     O1   8788 -0.62587700  16.000000   ; qtot 292.760753
 8789         hn    293    bbb    H19   8789 0.23982500   1.008000   ; qtot 293.000578
; residue  294 bbb rtp bbb q 1.0
 8790         n4    294    bbb     N1   8790 0.03726400  14.010000   ; qtot 293.037842
 8791         c3    294    bbb     C1   8791 -0.07020100  12.010000   ; qtot 292.967641
 8792         hx    294    bbb     H1   8792 0.12219000   1.008000   ; qtot 293.089831
 8793         hx    294    bbb     H2   8793 0.12219000   1.008000   ; qtot 293.212021
 8794         c3    294    bbb     C2   8794 -0.07020100  12.010000   ; qtot 293.141820
 8795         hx    294    bbb     H3   8795 0.12219000   1.008000   ; qtot 293.264010
 8796         hx    294    bbb     H4   8796 0.12219000   1.008000   ; qtot 293.386200
 8797         c3    294    bbb     C3   8797 -0.39007700  12.010000   ; qtot 292.996123
 8798         hx    294    bbb     H5   8798 0.14940300   1.008000   ; qtot 293.145526
 8799         hx    294    bbb     H6   8799 0.14940300   1.008000   ; qtot 293.294929
 8800         c3    294    bbb     C4   8800 0.18057300  12.010000   ; qtot 293.475502
 8801         hc    294    bbb     H7   8801 0.01788900   1.008000   ; qtot 293.493391
 8802         hc    294    bbb     H8   8802 0.01788900   1.008000   ; qtot 293.511280
 8803         c3    294    bbb     C5   8803 -0.11337700  12.010000   ; qtot 293.397903
 8804         hc    294    bbb     H9   8804 0.09515400   1.008000   ; qtot 293.493057
 8805         hc    294    bbb    H10   8805 0.09515400   1.008000   ; qtot 293.588211
 8806         c3    294    bbb     C6   8806 -0.11337700  12.010000   ; qtot 293.474834
 8807         hc    294    bbb    H11   8807 0.09515400   1.008000   ; qtot 293.569988
 8808         hc    294    bbb    H12   8808 0.09515400   1.008000   ; qtot 293.665142
 8809         c3    294    bbb     C7   8809 0.21842400  12.010000   ; qtot 293.883566
 8810         h1    294    bbb    H13   8810 0.04500300   1.008000   ; qtot 293.928569
 8811         h1    294    bbb    H14   8811 0.04500300   1.008000   ; qtot 293.973572
 8812         c3    294    bbb     C8   8812 -0.06455200  12.010000   ; qtot 293.909020
 8813         h1    294    bbb    H15   8813 0.13554100   1.008000   ; qtot 294.044561
 8814         h1    294    bbb    H16   8814 0.13554100   1.008000   ; qtot 294.180102
 8815         c3    294    bbb     C9   8815 -0.06455200  12.010000   ; qtot 294.115550
 8816         h1    294    bbb    H17   8816 0.13554100   1.008000   ; qtot 294.251091
 8817         h1    294    bbb    H18   8817 0.13554100   1.008000   ; qtot 294.386632
 8818         os    294    bbb     O1   8818 -0.62587700  16.000000   ; qtot 293.760755
 8819         hn    294    bbb    H19   8819 0.23982500   1.008000   ; qtot 294.000580
; residue  295 bbb rtp bbb q 1.0
 8820         n4    295    bbb     N1   8820 0.03726400  14.010000   ; qtot 294.037844
 8821         c3    295    bbb     C1   8821 -0.07020100  12.010000   ; qtot 293.967643
 8822         hx    295    bbb     H1   8822 0.12219000   1.008000   ; qtot 294.089833
 8823         hx    295    bbb     H2   8823 0.12219000   1.008000   ; qtot 294.212023
 8824         c3    295    bbb     C2   8824 -0.07020100  12.010000   ; qtot 294.141822
 8825         hx    295    bbb     H3   8825 0.12219000   1.008000   ; qtot 294.264012
 8826         hx    295    bbb     H4   8826 0.12219000   1.008000   ; qtot 294.386202
 8827         c3    295    bbb     C3   8827 -0.39007700  12.010000   ; qtot 293.996125
 8828         hx    295    bbb     H5   8828 0.14940300   1.008000   ; qtot 294.145528
 8829         hx    295    bbb     H6   8829 0.14940300   1.008000   ; qtot 294.294931
 8830         c3    295    bbb     C4   8830 0.18057300  12.010000   ; qtot 294.475504
 8831         hc    295    bbb     H7   8831 0.01788900   1.008000   ; qtot 294.493393
 8832         hc    295    bbb     H8   8832 0.01788900   1.008000   ; qtot 294.511282
 8833         c3    295    bbb     C5   8833 -0.11337700  12.010000   ; qtot 294.397905
 8834         hc    295    bbb     H9   8834 0.09515400   1.008000   ; qtot 294.493059
 8835         hc    295    bbb    H10   8835 0.09515400   1.008000   ; qtot 294.588213
 8836         c3    295    bbb     C6   8836 -0.11337700  12.010000   ; qtot 294.474836
 8837         hc    295    bbb    H11   8837 0.09515400   1.008000   ; qtot 294.569990
 8838         hc    295    bbb    H12   8838 0.09515400   1.008000   ; qtot 294.665144
 8839         c3    295    bbb     C7   8839 0.21842400  12.010000   ; qtot 294.883568
 8840         h1    295    bbb    H13   8840 0.04500300   1.008000   ; qtot 294.928571
 8841         h1    295    bbb    H14   8841 0.04500300   1.008000   ; qtot 294.973574
 8842         c3    295    bbb     C8   8842 -0.06455200  12.010000   ; qtot 294.909022
 8843         h1    295    bbb    H15   8843 0.13554100   1.008000   ; qtot 295.044563
 8844         h1    295    bbb    H16   8844 0.13554100   1.008000   ; qtot 295.180104
 8845         c3    295    bbb     C9   8845 -0.06455200  12.010000   ; qtot 295.115552
 8846         h1    295    bbb    H17   8846 0.13554100   1.008000   ; qtot 295.251093
 8847         h1    295    bbb    H18   8847 0.13554100   1.008000   ; qtot 295.386634
 8848         os    295    bbb     O1   8848 -0.62587700  16.000000   ; qtot 294.760757
 8849         hn    295    bbb    H19   8849 0.23982500   1.008000   ; qtot 295.000582
; residue  296 bbb rtp bbb q 1.0
 8850         n4    296    bbb     N1   8850 0.03726400  14.010000   ; qtot 295.037846
 8851         c3    296    bbb     C1   8851 -0.07020100  12.010000   ; qtot 294.967645
 8852         hx    296    bbb     H1   8852 0.12219000   1.008000   ; qtot 295.089835
 8853         hx    296    bbb     H2   8853 0.12219000   1.008000   ; qtot 295.212025
 8854         c3    296    bbb     C2   8854 -0.07020100  12.010000   ; qtot 295.141824
 8855         hx    296    bbb     H3   8855 0.12219000   1.008000   ; qtot 295.264014
 8856         hx    296    bbb     H4   8856 0.12219000   1.008000   ; qtot 295.386204
 8857         c3    296    bbb     C3   8857 -0.39007700  12.010000   ; qtot 294.996127
 8858         hx    296    bbb     H5   8858 0.14940300   1.008000   ; qtot 295.145530
 8859         hx    296    bbb     H6   8859 0.14940300   1.008000   ; qtot 295.294933
 8860         c3    296    bbb     C4   8860 0.18057300  12.010000   ; qtot 295.475506
 8861         hc    296    bbb     H7   8861 0.01788900   1.008000   ; qtot 295.493395
 8862         hc    296    bbb     H8   8862 0.01788900   1.008000   ; qtot 295.511284
 8863         c3    296    bbb     C5   8863 -0.11337700  12.010000   ; qtot 295.397907
 8864         hc    296    bbb     H9   8864 0.09515400   1.008000   ; qtot 295.493061
 8865         hc    296    bbb    H10   8865 0.09515400   1.008000   ; qtot 295.588215
 8866         c3    296    bbb     C6   8866 -0.11337700  12.010000   ; qtot 295.474838
 8867         hc    296    bbb    H11   8867 0.09515400   1.008000   ; qtot 295.569992
 8868         hc    296    bbb    H12   8868 0.09515400   1.008000   ; qtot 295.665146
 8869         c3    296    bbb     C7   8869 0.21842400  12.010000   ; qtot 295.883570
 8870         h1    296    bbb    H13   8870 0.04500300   1.008000   ; qtot 295.928573
 8871         h1    296    bbb    H14   8871 0.04500300   1.008000   ; qtot 295.973576
 8872         c3    296    bbb     C8   8872 -0.06455200  12.010000   ; qtot 295.909024
 8873         h1    296    bbb    H15   8873 0.13554100   1.008000   ; qtot 296.044565
 8874         h1    296    bbb    H16   8874 0.13554100   1.008000   ; qtot 296.180106
 8875         c3    296    bbb     C9   8875 -0.06455200  12.010000   ; qtot 296.115554
 8876         h1    296    bbb    H17   8876 0.13554100   1.008000   ; qtot 296.251095
 8877         h1    296    bbb    H18   8877 0.13554100   1.008000   ; qtot 296.386636
 8878         os    296    bbb     O1   8878 -0.62587700  16.000000   ; qtot 295.760759
 8879         hn    296    bbb    H19   8879 0.23982500   1.008000   ; qtot 296.000584
; residue  297 bbb rtp bbb q 1.0
 8880         n4    297    bbb     N1   8880 0.03726400  14.010000   ; qtot 296.037848
 8881         c3    297    bbb     C1   8881 -0.07020100  12.010000   ; qtot 295.967647
 8882         hx    297    bbb     H1   8882 0.12219000   1.008000   ; qtot 296.089837
 8883         hx    297    bbb     H2   8883 0.12219000   1.008000   ; qtot 296.212027
 8884         c3    297    bbb     C2   8884 -0.07020100  12.010000   ; qtot 296.141826
 8885         hx    297    bbb     H3   8885 0.12219000   1.008000   ; qtot 296.264016
 8886         hx    297    bbb     H4   8886 0.12219000   1.008000   ; qtot 296.386206
 8887         c3    297    bbb     C3   8887 -0.39007700  12.010000   ; qtot 295.996129
 8888         hx    297    bbb     H5   8888 0.14940300   1.008000   ; qtot 296.145532
 8889         hx    297    bbb     H6   8889 0.14940300   1.008000   ; qtot 296.294935
 8890         c3    297    bbb     C4   8890 0.18057300  12.010000   ; qtot 296.475508
 8891         hc    297    bbb     H7   8891 0.01788900   1.008000   ; qtot 296.493397
 8892         hc    297    bbb     H8   8892 0.01788900   1.008000   ; qtot 296.511286
 8893         c3    297    bbb     C5   8893 -0.11337700  12.010000   ; qtot 296.397909
 8894         hc    297    bbb     H9   8894 0.09515400   1.008000   ; qtot 296.493063
 8895         hc    297    bbb    H10   8895 0.09515400   1.008000   ; qtot 296.588217
 8896         c3    297    bbb     C6   8896 -0.11337700  12.010000   ; qtot 296.474840
 8897         hc    297    bbb    H11   8897 0.09515400   1.008000   ; qtot 296.569994
 8898         hc    297    bbb    H12   8898 0.09515400   1.008000   ; qtot 296.665148
 8899         c3    297    bbb     C7   8899 0.21842400  12.010000   ; qtot 296.883572
 8900         h1    297    bbb    H13   8900 0.04500300   1.008000   ; qtot 296.928575
 8901         h1    297    bbb    H14   8901 0.04500300   1.008000   ; qtot 296.973578
 8902         c3    297    bbb     C8   8902 -0.06455200  12.010000   ; qtot 296.909026
 8903         h1    297    bbb    H15   8903 0.13554100   1.008000   ; qtot 297.044567
 8904         h1    297    bbb    H16   8904 0.13554100   1.008000   ; qtot 297.180108
 8905         c3    297    bbb     C9   8905 -0.06455200  12.010000   ; qtot 297.115556
 8906         h1    297    bbb    H17   8906 0.13554100   1.008000   ; qtot 297.251097
 8907         h1    297    bbb    H18   8907 0.13554100   1.008000   ; qtot 297.386638
 8908         os    297    bbb     O1   8908 -0.62587700  16.000000   ; qtot 296.760761
 8909         hn    297    bbb    H19   8909 0.23982500   1.008000   ; qtot 297.000586
; residue  298 bbb rtp bbb q 1.0
 8910         n4    298    bbb     N1   8910 0.03726400  14.010000   ; qtot 297.037850
 8911         c3    298    bbb     C1   8911 -0.07020100  12.010000   ; qtot 296.967649
 8912         hx    298    bbb     H1   8912 0.12219000   1.008000   ; qtot 297.089839
 8913         hx    298    bbb     H2   8913 0.12219000   1.008000   ; qtot 297.212029
 8914         c3    298    bbb     C2   8914 -0.07020100  12.010000   ; qtot 297.141828
 8915         hx    298    bbb     H3   8915 0.12219000   1.008000   ; qtot 297.264018
 8916         hx    298    bbb     H4   8916 0.12219000   1.008000   ; qtot 297.386208
 8917         c3    298    bbb     C3   8917 -0.39007700  12.010000   ; qtot 296.996131
 8918         hx    298    bbb     H5   8918 0.14940300   1.008000   ; qtot 297.145534
 8919         hx    298    bbb     H6   8919 0.14940300   1.008000   ; qtot 297.294937
 8920         c3    298    bbb     C4   8920 0.18057300  12.010000   ; qtot 297.475510
 8921         hc    298    bbb     H7   8921 0.01788900   1.008000   ; qtot 297.493399
 8922         hc    298    bbb     H8   8922 0.01788900   1.008000   ; qtot 297.511288
 8923         c3    298    bbb     C5   8923 -0.11337700  12.010000   ; qtot 297.397911
 8924         hc    298    bbb     H9   8924 0.09515400   1.008000   ; qtot 297.493065
 8925         hc    298    bbb    H10   8925 0.09515400   1.008000   ; qtot 297.588219
 8926         c3    298    bbb     C6   8926 -0.11337700  12.010000   ; qtot 297.474842
 8927         hc    298    bbb    H11   8927 0.09515400   1.008000   ; qtot 297.569996
 8928         hc    298    bbb    H12   8928 0.09515400   1.008000   ; qtot 297.665150
 8929         c3    298    bbb     C7   8929 0.21842400  12.010000   ; qtot 297.883574
 8930         h1    298    bbb    H13   8930 0.04500300   1.008000   ; qtot 297.928577
 8931         h1    298    bbb    H14   8931 0.04500300   1.008000   ; qtot 297.973580
 8932         c3    298    bbb     C8   8932 -0.06455200  12.010000   ; qtot 297.909028
 8933         h1    298    bbb    H15   8933 0.13554100   1.008000   ; qtot 298.044569
 8934         h1    298    bbb    H16   8934 0.13554100   1.008000   ; qtot 298.180110
 8935         c3    298    bbb     C9   8935 -0.06455200  12.010000   ; qtot 298.115558
 8936         h1    298    bbb    H17   8936 0.13554100   1.008000   ; qtot 298.251099
 8937         h1    298    bbb    H18   8937 0.13554100   1.008000   ; qtot 298.386640
 8938         os    298    bbb     O1   8938 -0.62587700  16.000000   ; qtot 297.760763
 8939         hn    298    bbb    H19   8939 0.23982500   1.008000   ; qtot 298.000588
; residue  299 bbb rtp bbb q 1.0
 8940         n4    299    bbb     N1   8940 0.03726400  14.010000   ; qtot 298.037852
 8941         c3    299    bbb     C1   8941 -0.07020100  12.010000   ; qtot 297.967651
 8942         hx    299    bbb     H1   8942 0.12219000   1.008000   ; qtot 298.089841
 8943         hx    299    bbb     H2   8943 0.12219000   1.008000   ; qtot 298.212031
 8944         c3    299    bbb     C2   8944 -0.07020100  12.010000   ; qtot 298.141830
 8945         hx    299    bbb     H3   8945 0.12219000   1.008000   ; qtot 298.264020
 8946         hx    299    bbb     H4   8946 0.12219000   1.008000   ; qtot 298.386210
 8947         c3    299    bbb     C3   8947 -0.39007700  12.010000   ; qtot 297.996133
 8948         hx    299    bbb     H5   8948 0.14940300   1.008000   ; qtot 298.145536
 8949         hx    299    bbb     H6   8949 0.14940300   1.008000   ; qtot 298.294939
 8950         c3    299    bbb     C4   8950 0.18057300  12.010000   ; qtot 298.475512
 8951         hc    299    bbb     H7   8951 0.01788900   1.008000   ; qtot 298.493401
 8952         hc    299    bbb     H8   8952 0.01788900   1.008000   ; qtot 298.511290
 8953         c3    299    bbb     C5   8953 -0.11337700  12.010000   ; qtot 298.397913
 8954         hc    299    bbb     H9   8954 0.09515400   1.008000   ; qtot 298.493067
 8955         hc    299    bbb    H10   8955 0.09515400   1.008000   ; qtot 298.588221
 8956         c3    299    bbb     C6   8956 -0.11337700  12.010000   ; qtot 298.474844
 8957         hc    299    bbb    H11   8957 0.09515400   1.008000   ; qtot 298.569998
 8958         hc    299    bbb    H12   8958 0.09515400   1.008000   ; qtot 298.665152
 8959         c3    299    bbb     C7   8959 0.21842400  12.010000   ; qtot 298.883576
 8960         h1    299    bbb    H13   8960 0.04500300   1.008000   ; qtot 298.928579
 8961         h1    299    bbb    H14   8961 0.04500300   1.008000   ; qtot 298.973582
 8962         c3    299    bbb     C8   8962 -0.06455200  12.010000   ; qtot 298.909030
 8963         h1    299    bbb    H15   8963 0.13554100   1.008000   ; qtot 299.044571
 8964         h1    299    bbb    H16   8964 0.13554100   1.008000   ; qtot 299.180112
 8965         c3    299    bbb     C9   8965 -0.06455200  12.010000   ; qtot 299.115560
 8966         h1    299    bbb    H17   8966 0.13554100   1.008000   ; qtot 299.251101
 8967         h1    299    bbb    H18   8967 0.13554100   1.008000   ; qtot 299.386642
 8968         os    299    bbb     O1   8968 -0.62587700  16.000000   ; qtot 298.760765
 8969         hn    299    bbb    H19   8969 0.23982500   1.008000   ; qtot 299.000590
; residue  300 bbb rtp bbb q 1.0
 8970         n4    300    bbb     N1   8970 0.03726400  14.010000   ; qtot 299.037854
 8971         c3    300    bbb     C1   8971 -0.07020100  12.010000   ; qtot 298.967653
 8972         hx    300    bbb     H1   8972 0.12219000   1.008000   ; qtot 299.089843
 8973         hx    300    bbb     H2   8973 0.12219000   1.008000   ; qtot 299.212033
 8974         c3    300    bbb     C2   8974 -0.07020100  12.010000   ; qtot 299.141832
 8975         hx    300    bbb     H3   8975 0.12219000   1.008000   ; qtot 299.264022
 8976         hx    300    bbb     H4   8976 0.12219000   1.008000   ; qtot 299.386212
 8977         c3    300    bbb     C3   8977 -0.39007700  12.010000   ; qtot 298.996135
 8978         hx    300    bbb     H5   8978 0.14940300   1.008000   ; qtot 299.145538
 8979         hx    300    bbb     H6   8979 0.14940300   1.008000   ; qtot 299.294941
 8980         c3    300    bbb     C4   8980 0.18057300  12.010000   ; qtot 299.475514
 8981         hc    300    bbb     H7   8981 0.01788900   1.008000   ; qtot 299.493403
 8982         hc    300    bbb     H8   8982 0.01788900   1.008000   ; qtot 299.511292
 8983         c3    300    bbb     C5   8983 -0.11337700  12.010000   ; qtot 299.397915
 8984         hc    300    bbb     H9   8984 0.09515400   1.008000   ; qtot 299.493069
 8985         hc    300    bbb    H10   8985 0.09515400   1.008000   ; qtot 299.588223
 8986         c3    300    bbb     C6   8986 -0.11337700  12.010000   ; qtot 299.474846
 8987         hc    300    bbb    H11   8987 0.09515400   1.008000   ; qtot 299.570000
 8988         hc    300    bbb    H12   8988 0.09515400   1.008000   ; qtot 299.665154
 8989         c3    300    bbb     C7   8989 0.21842400  12.010000   ; qtot 299.883578
 8990         h1    300    bbb    H13   8990 0.04500300   1.008000   ; qtot 299.928581
 8991         h1    300    bbb    H14   8991 0.04500300   1.008000   ; qtot 299.973584
 8992         c3    300    bbb     C8   8992 -0.06455200  12.010000   ; qtot 299.909032
 8993         h1    300    bbb    H15   8993 0.13554100   1.008000   ; qtot 300.044573
 8994         h1    300    bbb    H16   8994 0.13554100   1.008000   ; qtot 300.180114
 8995         c3    300    bbb     C9   8995 -0.06455200  12.010000   ; qtot 300.115562
 8996         h1    300    bbb    H17   8996 0.13554100   1.008000   ; qtot 300.251103
 8997         h1    300    bbb    H18   8997 0.13554100   1.008000   ; qtot 300.386644
 8998         os    300    bbb     O1   8998 -0.62587700  16.000000   ; qtot 299.760767
 8999         hn    300    bbb    H19   8999 0.23982500   1.008000   ; qtot 300.000592
; residue  301 bbb rtp bbb q 1.0
 9000         n4    301    bbb     N1   9000 0.03726400  14.010000   ; qtot 300.037856
 9001         c3    301    bbb     C1   9001 -0.07020100  12.010000   ; qtot 299.967655
 9002         hx    301    bbb     H1   9002 0.12219000   1.008000   ; qtot 300.089845
 9003         hx    301    bbb     H2   9003 0.12219000   1.008000   ; qtot 300.212035
 9004         c3    301    bbb     C2   9004 -0.07020100  12.010000   ; qtot 300.141834
 9005         hx    301    bbb     H3   9005 0.12219000   1.008000   ; qtot 300.264024
 9006         hx    301    bbb     H4   9006 0.12219000   1.008000   ; qtot 300.386214
 9007         c3    301    bbb     C3   9007 -0.39007700  12.010000   ; qtot 299.996137
 9008         hx    301    bbb     H5   9008 0.14940300   1.008000   ; qtot 300.145540
 9009         hx    301    bbb     H6   9009 0.14940300   1.008000   ; qtot 300.294943
 9010         c3    301    bbb     C4   9010 0.18057300  12.010000   ; qtot 300.475516
 9011         hc    301    bbb     H7   9011 0.01788900   1.008000   ; qtot 300.493405
 9012         hc    301    bbb     H8   9012 0.01788900   1.008000   ; qtot 300.511294
 9013         c3    301    bbb     C5   9013 -0.11337700  12.010000   ; qtot 300.397917
 9014         hc    301    bbb     H9   9014 0.09515400   1.008000   ; qtot 300.493071
 9015         hc    301    bbb    H10   9015 0.09515400   1.008000   ; qtot 300.588225
 9016         c3    301    bbb     C6   9016 -0.11337700  12.010000   ; qtot 300.474848
 9017         hc    301    bbb    H11   9017 0.09515400   1.008000   ; qtot 300.570002
 9018         hc    301    bbb    H12   9018 0.09515400   1.008000   ; qtot 300.665156
 9019         c3    301    bbb     C7   9019 0.21842400  12.010000   ; qtot 300.883580
 9020         h1    301    bbb    H13   9020 0.04500300   1.008000   ; qtot 300.928583
 9021         h1    301    bbb    H14   9021 0.04500300   1.008000   ; qtot 300.973586
 9022         c3    301    bbb     C8   9022 -0.06455200  12.010000   ; qtot 300.909034
 9023         h1    301    bbb    H15   9023 0.13554100   1.008000   ; qtot 301.044575
 9024         h1    301    bbb    H16   9024 0.13554100   1.008000   ; qtot 301.180116
 9025         c3    301    bbb     C9   9025 -0.06455200  12.010000   ; qtot 301.115564
 9026         h1    301    bbb    H17   9026 0.13554100   1.008000   ; qtot 301.251105
 9027         h1    301    bbb    H18   9027 0.13554100   1.008000   ; qtot 301.386646
 9028         os    301    bbb     O1   9028 -0.62587700  16.000000   ; qtot 300.760769
 9029         hn    301    bbb    H19   9029 0.23982500   1.008000   ; qtot 301.000594
; residue  302 bbb rtp bbb q 1.0
 9030         n4    302    bbb     N1   9030 0.03726400  14.010000   ; qtot 301.037858
 9031         c3    302    bbb     C1   9031 -0.07020100  12.010000   ; qtot 300.967657
 9032         hx    302    bbb     H1   9032 0.12219000   1.008000   ; qtot 301.089847
 9033         hx    302    bbb     H2   9033 0.12219000   1.008000   ; qtot 301.212037
 9034         c3    302    bbb     C2   9034 -0.07020100  12.010000   ; qtot 301.141836
 9035         hx    302    bbb     H3   9035 0.12219000   1.008000   ; qtot 301.264026
 9036         hx    302    bbb     H4   9036 0.12219000   1.008000   ; qtot 301.386216
 9037         c3    302    bbb     C3   9037 -0.39007700  12.010000   ; qtot 300.996139
 9038         hx    302    bbb     H5   9038 0.14940300   1.008000   ; qtot 301.145542
 9039         hx    302    bbb     H6   9039 0.14940300   1.008000   ; qtot 301.294945
 9040         c3    302    bbb     C4   9040 0.18057300  12.010000   ; qtot 301.475518
 9041         hc    302    bbb     H7   9041 0.01788900   1.008000   ; qtot 301.493407
 9042         hc    302    bbb     H8   9042 0.01788900   1.008000   ; qtot 301.511296
 9043         c3    302    bbb     C5   9043 -0.11337700  12.010000   ; qtot 301.397919
 9044         hc    302    bbb     H9   9044 0.09515400   1.008000   ; qtot 301.493073
 9045         hc    302    bbb    H10   9045 0.09515400   1.008000   ; qtot 301.588227
 9046         c3    302    bbb     C6   9046 -0.11337700  12.010000   ; qtot 301.474850
 9047         hc    302    bbb    H11   9047 0.09515400   1.008000   ; qtot 301.570004
 9048         hc    302    bbb    H12   9048 0.09515400   1.008000   ; qtot 301.665158
 9049         c3    302    bbb     C7   9049 0.21842400  12.010000   ; qtot 301.883582
 9050         h1    302    bbb    H13   9050 0.04500300   1.008000   ; qtot 301.928585
 9051         h1    302    bbb    H14   9051 0.04500300   1.008000   ; qtot 301.973588
 9052         c3    302    bbb     C8   9052 -0.06455200  12.010000   ; qtot 301.909036
 9053         h1    302    bbb    H15   9053 0.13554100   1.008000   ; qtot 302.044577
 9054         h1    302    bbb    H16   9054 0.13554100   1.008000   ; qtot 302.180118
 9055         c3    302    bbb     C9   9055 -0.06455200  12.010000   ; qtot 302.115566
 9056         h1    302    bbb    H17   9056 0.13554100   1.008000   ; qtot 302.251107
 9057         h1    302    bbb    H18   9057 0.13554100   1.008000   ; qtot 302.386648
 9058         os    302    bbb     O1   9058 -0.62587700  16.000000   ; qtot 301.760771
 9059         hn    302    bbb    H19   9059 0.23982500   1.008000   ; qtot 302.000596
; residue  303 bbb rtp bbb q 1.0
 9060         n4    303    bbb     N1   9060 0.03726400  14.010000   ; qtot 302.037860
 9061         c3    303    bbb     C1   9061 -0.07020100  12.010000   ; qtot 301.967659
 9062         hx    303    bbb     H1   9062 0.12219000   1.008000   ; qtot 302.089849
 9063         hx    303    bbb     H2   9063 0.12219000   1.008000   ; qtot 302.212039
 9064         c3    303    bbb     C2   9064 -0.07020100  12.010000   ; qtot 302.141838
 9065         hx    303    bbb     H3   9065 0.12219000   1.008000   ; qtot 302.264028
 9066         hx    303    bbb     H4   9066 0.12219000   1.008000   ; qtot 302.386218
 9067         c3    303    bbb     C3   9067 -0.39007700  12.010000   ; qtot 301.996141
 9068         hx    303    bbb     H5   9068 0.14940300   1.008000   ; qtot 302.145544
 9069         hx    303    bbb     H6   9069 0.14940300   1.008000   ; qtot 302.294947
 9070         c3    303    bbb     C4   9070 0.18057300  12.010000   ; qtot 302.475520
 9071         hc    303    bbb     H7   9071 0.01788900   1.008000   ; qtot 302.493409
 9072         hc    303    bbb     H8   9072 0.01788900   1.008000   ; qtot 302.511298
 9073         c3    303    bbb     C5   9073 -0.11337700  12.010000   ; qtot 302.397921
 9074         hc    303    bbb     H9   9074 0.09515400   1.008000   ; qtot 302.493075
 9075         hc    303    bbb    H10   9075 0.09515400   1.008000   ; qtot 302.588229
 9076         c3    303    bbb     C6   9076 -0.11337700  12.010000   ; qtot 302.474852
 9077         hc    303    bbb    H11   9077 0.09515400   1.008000   ; qtot 302.570006
 9078         hc    303    bbb    H12   9078 0.09515400   1.008000   ; qtot 302.665160
 9079         c3    303    bbb     C7   9079 0.21842400  12.010000   ; qtot 302.883584
 9080         h1    303    bbb    H13   9080 0.04500300   1.008000   ; qtot 302.928587
 9081         h1    303    bbb    H14   9081 0.04500300   1.008000   ; qtot 302.973590
 9082         c3    303    bbb     C8   9082 -0.06455200  12.010000   ; qtot 302.909038
 9083         h1    303    bbb    H15   9083 0.13554100   1.008000   ; qtot 303.044579
 9084         h1    303    bbb    H16   9084 0.13554100   1.008000   ; qtot 303.180120
 9085         c3    303    bbb     C9   9085 -0.06455200  12.010000   ; qtot 303.115568
 9086         h1    303    bbb    H17   9086 0.13554100   1.008000   ; qtot 303.251109
 9087         h1    303    bbb    H18   9087 0.13554100   1.008000   ; qtot 303.386650
 9088         os    303    bbb     O1   9088 -0.62587700  16.000000   ; qtot 302.760773
 9089         hn    303    bbb    H19   9089 0.23982500   1.008000   ; qtot 303.000598
; residue  304 bbb rtp bbb q 1.0
 9090         n4    304    bbb     N1   9090 0.03726400  14.010000   ; qtot 303.037862
 9091         c3    304    bbb     C1   9091 -0.07020100  12.010000   ; qtot 302.967661
 9092         hx    304    bbb     H1   9092 0.12219000   1.008000   ; qtot 303.089851
 9093         hx    304    bbb     H2   9093 0.12219000   1.008000   ; qtot 303.212041
 9094         c3    304    bbb     C2   9094 -0.07020100  12.010000   ; qtot 303.141840
 9095         hx    304    bbb     H3   9095 0.12219000   1.008000   ; qtot 303.264030
 9096         hx    304    bbb     H4   9096 0.12219000   1.008000   ; qtot 303.386220
 9097         c3    304    bbb     C3   9097 -0.39007700  12.010000   ; qtot 302.996143
 9098         hx    304    bbb     H5   9098 0.14940300   1.008000   ; qtot 303.145546
 9099         hx    304    bbb     H6   9099 0.14940300   1.008000   ; qtot 303.294949
 9100         c3    304    bbb     C4   9100 0.18057300  12.010000   ; qtot 303.475522
 9101         hc    304    bbb     H7   9101 0.01788900   1.008000   ; qtot 303.493411
 9102         hc    304    bbb     H8   9102 0.01788900   1.008000   ; qtot 303.511300
 9103         c3    304    bbb     C5   9103 -0.11337700  12.010000   ; qtot 303.397923
 9104         hc    304    bbb     H9   9104 0.09515400   1.008000   ; qtot 303.493077
 9105         hc    304    bbb    H10   9105 0.09515400   1.008000   ; qtot 303.588231
 9106         c3    304    bbb     C6   9106 -0.11337700  12.010000   ; qtot 303.474854
 9107         hc    304    bbb    H11   9107 0.09515400   1.008000   ; qtot 303.570008
 9108         hc    304    bbb    H12   9108 0.09515400   1.008000   ; qtot 303.665162
 9109         c3    304    bbb     C7   9109 0.21842400  12.010000   ; qtot 303.883586
 9110         h1    304    bbb    H13   9110 0.04500300   1.008000   ; qtot 303.928589
 9111         h1    304    bbb    H14   9111 0.04500300   1.008000   ; qtot 303.973592
 9112         c3    304    bbb     C8   9112 -0.06455200  12.010000   ; qtot 303.909040
 9113         h1    304    bbb    H15   9113 0.13554100   1.008000   ; qtot 304.044581
 9114         h1    304    bbb    H16   9114 0.13554100   1.008000   ; qtot 304.180122
 9115         c3    304    bbb     C9   9115 -0.06455200  12.010000   ; qtot 304.115570
 9116         h1    304    bbb    H17   9116 0.13554100   1.008000   ; qtot 304.251111
 9117         h1    304    bbb    H18   9117 0.13554100   1.008000   ; qtot 304.386652
 9118         os    304    bbb     O1   9118 -0.62587700  16.000000   ; qtot 303.760775
 9119         hn    304    bbb    H19   9119 0.23982500   1.008000   ; qtot 304.000600
; residue  305 bbb rtp bbb q 1.0
 9120         n4    305    bbb     N1   9120 0.03726400  14.010000   ; qtot 304.037864
 9121         c3    305    bbb     C1   9121 -0.07020100  12.010000   ; qtot 303.967663
 9122         hx    305    bbb     H1   9122 0.12219000   1.008000   ; qtot 304.089853
 9123         hx    305    bbb     H2   9123 0.12219000   1.008000   ; qtot 304.212043
 9124         c3    305    bbb     C2   9124 -0.07020100  12.010000   ; qtot 304.141842
 9125         hx    305    bbb     H3   9125 0.12219000   1.008000   ; qtot 304.264032
 9126         hx    305    bbb     H4   9126 0.12219000   1.008000   ; qtot 304.386222
 9127         c3    305    bbb     C3   9127 -0.39007700  12.010000   ; qtot 303.996145
 9128         hx    305    bbb     H5   9128 0.14940300   1.008000   ; qtot 304.145548
 9129         hx    305    bbb     H6   9129 0.14940300   1.008000   ; qtot 304.294951
 9130         c3    305    bbb     C4   9130 0.18057300  12.010000   ; qtot 304.475524
 9131         hc    305    bbb     H7   9131 0.01788900   1.008000   ; qtot 304.493413
 9132         hc    305    bbb     H8   9132 0.01788900   1.008000   ; qtot 304.511302
 9133         c3    305    bbb     C5   9133 -0.11337700  12.010000   ; qtot 304.397925
 9134         hc    305    bbb     H9   9134 0.09515400   1.008000   ; qtot 304.493079
 9135         hc    305    bbb    H10   9135 0.09515400   1.008000   ; qtot 304.588233
 9136         c3    305    bbb     C6   9136 -0.11337700  12.010000   ; qtot 304.474856
 9137         hc    305    bbb    H11   9137 0.09515400   1.008000   ; qtot 304.570010
 9138         hc    305    bbb    H12   9138 0.09515400   1.008000   ; qtot 304.665164
 9139         c3    305    bbb     C7   9139 0.21842400  12.010000   ; qtot 304.883588
 9140         h1    305    bbb    H13   9140 0.04500300   1.008000   ; qtot 304.928591
 9141         h1    305    bbb    H14   9141 0.04500300   1.008000   ; qtot 304.973594
 9142         c3    305    bbb     C8   9142 -0.06455200  12.010000   ; qtot 304.909042
 9143         h1    305    bbb    H15   9143 0.13554100   1.008000   ; qtot 305.044583
 9144         h1    305    bbb    H16   9144 0.13554100   1.008000   ; qtot 305.180124
 9145         c3    305    bbb     C9   9145 -0.06455200  12.010000   ; qtot 305.115572
 9146         h1    305    bbb    H17   9146 0.13554100   1.008000   ; qtot 305.251113
 9147         h1    305    bbb    H18   9147 0.13554100   1.008000   ; qtot 305.386654
 9148         os    305    bbb     O1   9148 -0.62587700  16.000000   ; qtot 304.760777
 9149         hn    305    bbb    H19   9149 0.23982500   1.008000   ; qtot 305.000602
; residue  306 bbb rtp bbb q 1.0
 9150         n4    306    bbb     N1   9150 0.03726400  14.010000   ; qtot 305.037866
 9151         c3    306    bbb     C1   9151 -0.07020100  12.010000   ; qtot 304.967665
 9152         hx    306    bbb     H1   9152 0.12219000   1.008000   ; qtot 305.089855
 9153         hx    306    bbb     H2   9153 0.12219000   1.008000   ; qtot 305.212045
 9154         c3    306    bbb     C2   9154 -0.07020100  12.010000   ; qtot 305.141844
 9155         hx    306    bbb     H3   9155 0.12219000   1.008000   ; qtot 305.264034
 9156         hx    306    bbb     H4   9156 0.12219000   1.008000   ; qtot 305.386224
 9157         c3    306    bbb     C3   9157 -0.39007700  12.010000   ; qtot 304.996147
 9158         hx    306    bbb     H5   9158 0.14940300   1.008000   ; qtot 305.145550
 9159         hx    306    bbb     H6   9159 0.14940300   1.008000   ; qtot 305.294953
 9160         c3    306    bbb     C4   9160 0.18057300  12.010000   ; qtot 305.475526
 9161         hc    306    bbb     H7   9161 0.01788900   1.008000   ; qtot 305.493415
 9162         hc    306    bbb     H8   9162 0.01788900   1.008000   ; qtot 305.511304
 9163         c3    306    bbb     C5   9163 -0.11337700  12.010000   ; qtot 305.397927
 9164         hc    306    bbb     H9   9164 0.09515400   1.008000   ; qtot 305.493081
 9165         hc    306    bbb    H10   9165 0.09515400   1.008000   ; qtot 305.588235
 9166         c3    306    bbb     C6   9166 -0.11337700  12.010000   ; qtot 305.474858
 9167         hc    306    bbb    H11   9167 0.09515400   1.008000   ; qtot 305.570012
 9168         hc    306    bbb    H12   9168 0.09515400   1.008000   ; qtot 305.665166
 9169         c3    306    bbb     C7   9169 0.21842400  12.010000   ; qtot 305.883590
 9170         h1    306    bbb    H13   9170 0.04500300   1.008000   ; qtot 305.928593
 9171         h1    306    bbb    H14   9171 0.04500300   1.008000   ; qtot 305.973596
 9172         c3    306    bbb     C8   9172 -0.06455200  12.010000   ; qtot 305.909044
 9173         h1    306    bbb    H15   9173 0.13554100   1.008000   ; qtot 306.044585
 9174         h1    306    bbb    H16   9174 0.13554100   1.008000   ; qtot 306.180126
 9175         c3    306    bbb     C9   9175 -0.06455200  12.010000   ; qtot 306.115574
 9176         h1    306    bbb    H17   9176 0.13554100   1.008000   ; qtot 306.251115
 9177         h1    306    bbb    H18   9177 0.13554100   1.008000   ; qtot 306.386656
 9178         os    306    bbb     O1   9178 -0.62587700  16.000000   ; qtot 305.760779
 9179         hn    306    bbb    H19   9179 0.23982500   1.008000   ; qtot 306.000604
; residue  307 bbb rtp bbb q 1.0
 9180         n4    307    bbb     N1   9180 0.03726400  14.010000   ; qtot 306.037868
 9181         c3    307    bbb     C1   9181 -0.07020100  12.010000   ; qtot 305.967667
 9182         hx    307    bbb     H1   9182 0.12219000   1.008000   ; qtot 306.089857
 9183         hx    307    bbb     H2   9183 0.12219000   1.008000   ; qtot 306.212047
 9184         c3    307    bbb     C2   9184 -0.07020100  12.010000   ; qtot 306.141846
 9185         hx    307    bbb     H3   9185 0.12219000   1.008000   ; qtot 306.264036
 9186         hx    307    bbb     H4   9186 0.12219000   1.008000   ; qtot 306.386226
 9187         c3    307    bbb     C3   9187 -0.39007700  12.010000   ; qtot 305.996149
 9188         hx    307    bbb     H5   9188 0.14940300   1.008000   ; qtot 306.145552
 9189         hx    307    bbb     H6   9189 0.14940300   1.008000   ; qtot 306.294955
 9190         c3    307    bbb     C4   9190 0.18057300  12.010000   ; qtot 306.475528
 9191         hc    307    bbb     H7   9191 0.01788900   1.008000   ; qtot 306.493417
 9192         hc    307    bbb     H8   9192 0.01788900   1.008000   ; qtot 306.511306
 9193         c3    307    bbb     C5   9193 -0.11337700  12.010000   ; qtot 306.397929
 9194         hc    307    bbb     H9   9194 0.09515400   1.008000   ; qtot 306.493083
 9195         hc    307    bbb    H10   9195 0.09515400   1.008000   ; qtot 306.588237
 9196         c3    307    bbb     C6   9196 -0.11337700  12.010000   ; qtot 306.474860
 9197         hc    307    bbb    H11   9197 0.09515400   1.008000   ; qtot 306.570014
 9198         hc    307    bbb    H12   9198 0.09515400   1.008000   ; qtot 306.665168
 9199         c3    307    bbb     C7   9199 0.21842400  12.010000   ; qtot 306.883592
 9200         h1    307    bbb    H13   9200 0.04500300   1.008000   ; qtot 306.928595
 9201         h1    307    bbb    H14   9201 0.04500300   1.008000   ; qtot 306.973598
 9202         c3    307    bbb     C8   9202 -0.06455200  12.010000   ; qtot 306.909046
 9203         h1    307    bbb    H15   9203 0.13554100   1.008000   ; qtot 307.044587
 9204         h1    307    bbb    H16   9204 0.13554100   1.008000   ; qtot 307.180128
 9205         c3    307    bbb     C9   9205 -0.06455200  12.010000   ; qtot 307.115576
 9206         h1    307    bbb    H17   9206 0.13554100   1.008000   ; qtot 307.251117
 9207         h1    307    bbb    H18   9207 0.13554100   1.008000   ; qtot 307.386658
 9208         os    307    bbb     O1   9208 -0.62587700  16.000000   ; qtot 306.760781
 9209         hn    307    bbb    H19   9209 0.23982500   1.008000   ; qtot 307.000606
; residue  308 bbb rtp bbb q 1.0
 9210         n4    308    bbb     N1   9210 0.03726400  14.010000   ; qtot 307.037870
 9211         c3    308    bbb     C1   9211 -0.07020100  12.010000   ; qtot 306.967669
 9212         hx    308    bbb     H1   9212 0.12219000   1.008000   ; qtot 307.089859
 9213         hx    308    bbb     H2   9213 0.12219000   1.008000   ; qtot 307.212049
 9214         c3    308    bbb     C2   9214 -0.07020100  12.010000   ; qtot 307.141848
 9215         hx    308    bbb     H3   9215 0.12219000   1.008000   ; qtot 307.264038
 9216         hx    308    bbb     H4   9216 0.12219000   1.008000   ; qtot 307.386228
 9217         c3    308    bbb     C3   9217 -0.39007700  12.010000   ; qtot 306.996151
 9218         hx    308    bbb     H5   9218 0.14940300   1.008000   ; qtot 307.145554
 9219         hx    308    bbb     H6   9219 0.14940300   1.008000   ; qtot 307.294957
 9220         c3    308    bbb     C4   9220 0.18057300  12.010000   ; qtot 307.475530
 9221         hc    308    bbb     H7   9221 0.01788900   1.008000   ; qtot 307.493419
 9222         hc    308    bbb     H8   9222 0.01788900   1.008000   ; qtot 307.511308
 9223         c3    308    bbb     C5   9223 -0.11337700  12.010000   ; qtot 307.397931
 9224         hc    308    bbb     H9   9224 0.09515400   1.008000   ; qtot 307.493085
 9225         hc    308    bbb    H10   9225 0.09515400   1.008000   ; qtot 307.588239
 9226         c3    308    bbb     C6   9226 -0.11337700  12.010000   ; qtot 307.474862
 9227         hc    308    bbb    H11   9227 0.09515400   1.008000   ; qtot 307.570016
 9228         hc    308    bbb    H12   9228 0.09515400   1.008000   ; qtot 307.665170
 9229         c3    308    bbb     C7   9229 0.21842400  12.010000   ; qtot 307.883594
 9230         h1    308    bbb    H13   9230 0.04500300   1.008000   ; qtot 307.928597
 9231         h1    308    bbb    H14   9231 0.04500300   1.008000   ; qtot 307.973600
 9232         c3    308    bbb     C8   9232 -0.06455200  12.010000   ; qtot 307.909048
 9233         h1    308    bbb    H15   9233 0.13554100   1.008000   ; qtot 308.044589
 9234         h1    308    bbb    H16   9234 0.13554100   1.008000   ; qtot 308.180130
 9235         c3    308    bbb     C9   9235 -0.06455200  12.010000   ; qtot 308.115578
 9236         h1    308    bbb    H17   9236 0.13554100   1.008000   ; qtot 308.251119
 9237         h1    308    bbb    H18   9237 0.13554100   1.008000   ; qtot 308.386660
 9238         os    308    bbb     O1   9238 -0.62587700  16.000000   ; qtot 307.760783
 9239         hn    308    bbb    H19   9239 0.23982500   1.008000   ; qtot 308.000608
; residue  309 bbb rtp bbb q 1.0
 9240         n4    309    bbb     N1   9240 0.03726400  14.010000   ; qtot 308.037872
 9241         c3    309    bbb     C1   9241 -0.07020100  12.010000   ; qtot 307.967671
 9242         hx    309    bbb     H1   9242 0.12219000   1.008000   ; qtot 308.089861
 9243         hx    309    bbb     H2   9243 0.12219000   1.008000   ; qtot 308.212051
 9244         c3    309    bbb     C2   9244 -0.07020100  12.010000   ; qtot 308.141850
 9245         hx    309    bbb     H3   9245 0.12219000   1.008000   ; qtot 308.264040
 9246         hx    309    bbb     H4   9246 0.12219000   1.008000   ; qtot 308.386230
 9247         c3    309    bbb     C3   9247 -0.39007700  12.010000   ; qtot 307.996153
 9248         hx    309    bbb     H5   9248 0.14940300   1.008000   ; qtot 308.145556
 9249         hx    309    bbb     H6   9249 0.14940300   1.008000   ; qtot 308.294959
 9250         c3    309    bbb     C4   9250 0.18057300  12.010000   ; qtot 308.475532
 9251         hc    309    bbb     H7   9251 0.01788900   1.008000   ; qtot 308.493421
 9252         hc    309    bbb     H8   9252 0.01788900   1.008000   ; qtot 308.511310
 9253         c3    309    bbb     C5   9253 -0.11337700  12.010000   ; qtot 308.397933
 9254         hc    309    bbb     H9   9254 0.09515400   1.008000   ; qtot 308.493087
 9255         hc    309    bbb    H10   9255 0.09515400   1.008000   ; qtot 308.588241
 9256         c3    309    bbb     C6   9256 -0.11337700  12.010000   ; qtot 308.474864
 9257         hc    309    bbb    H11   9257 0.09515400   1.008000   ; qtot 308.570018
 9258         hc    309    bbb    H12   9258 0.09515400   1.008000   ; qtot 308.665172
 9259         c3    309    bbb     C7   9259 0.21842400  12.010000   ; qtot 308.883596
 9260         h1    309    bbb    H13   9260 0.04500300   1.008000   ; qtot 308.928599
 9261         h1    309    bbb    H14   9261 0.04500300   1.008000   ; qtot 308.973602
 9262         c3    309    bbb     C8   9262 -0.06455200  12.010000   ; qtot 308.909050
 9263         h1    309    bbb    H15   9263 0.13554100   1.008000   ; qtot 309.044591
 9264         h1    309    bbb    H16   9264 0.13554100   1.008000   ; qtot 309.180132
 9265         c3    309    bbb     C9   9265 -0.06455200  12.010000   ; qtot 309.115580
 9266         h1    309    bbb    H17   9266 0.13554100   1.008000   ; qtot 309.251121
 9267         h1    309    bbb    H18   9267 0.13554100   1.008000   ; qtot 309.386662
 9268         os    309    bbb     O1   9268 -0.62587700  16.000000   ; qtot 308.760785
 9269         hn    309    bbb    H19   9269 0.23982500   1.008000   ; qtot 309.000610
; residue  310 bbb rtp bbb q 1.0
 9270         n4    310    bbb     N1   9270 0.03726400  14.010000   ; qtot 309.037874
 9271         c3    310    bbb     C1   9271 -0.07020100  12.010000   ; qtot 308.967673
 9272         hx    310    bbb     H1   9272 0.12219000   1.008000   ; qtot 309.089863
 9273         hx    310    bbb     H2   9273 0.12219000   1.008000   ; qtot 309.212053
 9274         c3    310    bbb     C2   9274 -0.07020100  12.010000   ; qtot 309.141852
 9275         hx    310    bbb     H3   9275 0.12219000   1.008000   ; qtot 309.264042
 9276         hx    310    bbb     H4   9276 0.12219000   1.008000   ; qtot 309.386232
 9277         c3    310    bbb     C3   9277 -0.39007700  12.010000   ; qtot 308.996155
 9278         hx    310    bbb     H5   9278 0.14940300   1.008000   ; qtot 309.145558
 9279         hx    310    bbb     H6   9279 0.14940300   1.008000   ; qtot 309.294961
 9280         c3    310    bbb     C4   9280 0.18057300  12.010000   ; qtot 309.475534
 9281         hc    310    bbb     H7   9281 0.01788900   1.008000   ; qtot 309.493423
 9282         hc    310    bbb     H8   9282 0.01788900   1.008000   ; qtot 309.511312
 9283         c3    310    bbb     C5   9283 -0.11337700  12.010000   ; qtot 309.397935
 9284         hc    310    bbb     H9   9284 0.09515400   1.008000   ; qtot 309.493089
 9285         hc    310    bbb    H10   9285 0.09515400   1.008000   ; qtot 309.588243
 9286         c3    310    bbb     C6   9286 -0.11337700  12.010000   ; qtot 309.474866
 9287         hc    310    bbb    H11   9287 0.09515400   1.008000   ; qtot 309.570020
 9288         hc    310    bbb    H12   9288 0.09515400   1.008000   ; qtot 309.665174
 9289         c3    310    bbb     C7   9289 0.21842400  12.010000   ; qtot 309.883598
 9290         h1    310    bbb    H13   9290 0.04500300   1.008000   ; qtot 309.928601
 9291         h1    310    bbb    H14   9291 0.04500300   1.008000   ; qtot 309.973604
 9292         c3    310    bbb     C8   9292 -0.06455200  12.010000   ; qtot 309.909052
 9293         h1    310    bbb    H15   9293 0.13554100   1.008000   ; qtot 310.044593
 9294         h1    310    bbb    H16   9294 0.13554100   1.008000   ; qtot 310.180134
 9295         c3    310    bbb     C9   9295 -0.06455200  12.010000   ; qtot 310.115582
 9296         h1    310    bbb    H17   9296 0.13554100   1.008000   ; qtot 310.251123
 9297         h1    310    bbb    H18   9297 0.13554100   1.008000   ; qtot 310.386664
 9298         os    310    bbb     O1   9298 -0.62587700  16.000000   ; qtot 309.760787
 9299         hn    310    bbb    H19   9299 0.23982500   1.008000   ; qtot 310.000612
; residue  311 bbb rtp bbb q 1.0
 9300         n4    311    bbb     N1   9300 0.03726400  14.010000   ; qtot 310.037876
 9301         c3    311    bbb     C1   9301 -0.07020100  12.010000   ; qtot 309.967675
 9302         hx    311    bbb     H1   9302 0.12219000   1.008000   ; qtot 310.089865
 9303         hx    311    bbb     H2   9303 0.12219000   1.008000   ; qtot 310.212055
 9304         c3    311    bbb     C2   9304 -0.07020100  12.010000   ; qtot 310.141854
 9305         hx    311    bbb     H3   9305 0.12219000   1.008000   ; qtot 310.264044
 9306         hx    311    bbb     H4   9306 0.12219000   1.008000   ; qtot 310.386234
 9307         c3    311    bbb     C3   9307 -0.39007700  12.010000   ; qtot 309.996157
 9308         hx    311    bbb     H5   9308 0.14940300   1.008000   ; qtot 310.145560
 9309         hx    311    bbb     H6   9309 0.14940300   1.008000   ; qtot 310.294963
 9310         c3    311    bbb     C4   9310 0.18057300  12.010000   ; qtot 310.475536
 9311         hc    311    bbb     H7   9311 0.01788900   1.008000   ; qtot 310.493425
 9312         hc    311    bbb     H8   9312 0.01788900   1.008000   ; qtot 310.511314
 9313         c3    311    bbb     C5   9313 -0.11337700  12.010000   ; qtot 310.397937
 9314         hc    311    bbb     H9   9314 0.09515400   1.008000   ; qtot 310.493091
 9315         hc    311    bbb    H10   9315 0.09515400   1.008000   ; qtot 310.588245
 9316         c3    311    bbb     C6   9316 -0.11337700  12.010000   ; qtot 310.474868
 9317         hc    311    bbb    H11   9317 0.09515400   1.008000   ; qtot 310.570022
 9318         hc    311    bbb    H12   9318 0.09515400   1.008000   ; qtot 310.665176
 9319         c3    311    bbb     C7   9319 0.21842400  12.010000   ; qtot 310.883600
 9320         h1    311    bbb    H13   9320 0.04500300   1.008000   ; qtot 310.928603
 9321         h1    311    bbb    H14   9321 0.04500300   1.008000   ; qtot 310.973606
 9322         c3    311    bbb     C8   9322 -0.06455200  12.010000   ; qtot 310.909054
 9323         h1    311    bbb    H15   9323 0.13554100   1.008000   ; qtot 311.044595
 9324         h1    311    bbb    H16   9324 0.13554100   1.008000   ; qtot 311.180136
 9325         c3    311    bbb     C9   9325 -0.06455200  12.010000   ; qtot 311.115584
 9326         h1    311    bbb    H17   9326 0.13554100   1.008000   ; qtot 311.251125
 9327         h1    311    bbb    H18   9327 0.13554100   1.008000   ; qtot 311.386666
 9328         os    311    bbb     O1   9328 -0.62587700  16.000000   ; qtot 310.760789
 9329         hn    311    bbb    H19   9329 0.23982500   1.008000   ; qtot 311.000614
; residue  312 bbb rtp bbb q 1.0
 9330         n4    312    bbb     N1   9330 0.03726400  14.010000   ; qtot 311.037878
 9331         c3    312    bbb     C1   9331 -0.07020100  12.010000   ; qtot 310.967677
 9332         hx    312    bbb     H1   9332 0.12219000   1.008000   ; qtot 311.089867
 9333         hx    312    bbb     H2   9333 0.12219000   1.008000   ; qtot 311.212057
 9334         c3    312    bbb     C2   9334 -0.07020100  12.010000   ; qtot 311.141856
 9335         hx    312    bbb     H3   9335 0.12219000   1.008000   ; qtot 311.264046
 9336         hx    312    bbb     H4   9336 0.12219000   1.008000   ; qtot 311.386236
 9337         c3    312    bbb     C3   9337 -0.39007700  12.010000   ; qtot 310.996159
 9338         hx    312    bbb     H5   9338 0.14940300   1.008000   ; qtot 311.145562
 9339         hx    312    bbb     H6   9339 0.14940300   1.008000   ; qtot 311.294965
 9340         c3    312    bbb     C4   9340 0.18057300  12.010000   ; qtot 311.475538
 9341         hc    312    bbb     H7   9341 0.01788900   1.008000   ; qtot 311.493427
 9342         hc    312    bbb     H8   9342 0.01788900   1.008000   ; qtot 311.511316
 9343         c3    312    bbb     C5   9343 -0.11337700  12.010000   ; qtot 311.397939
 9344         hc    312    bbb     H9   9344 0.09515400   1.008000   ; qtot 311.493093
 9345         hc    312    bbb    H10   9345 0.09515400   1.008000   ; qtot 311.588247
 9346         c3    312    bbb     C6   9346 -0.11337700  12.010000   ; qtot 311.474870
 9347         hc    312    bbb    H11   9347 0.09515400   1.008000   ; qtot 311.570024
 9348         hc    312    bbb    H12   9348 0.09515400   1.008000   ; qtot 311.665178
 9349         c3    312    bbb     C7   9349 0.21842400  12.010000   ; qtot 311.883602
 9350         h1    312    bbb    H13   9350 0.04500300   1.008000   ; qtot 311.928605
 9351         h1    312    bbb    H14   9351 0.04500300   1.008000   ; qtot 311.973608
 9352         c3    312    bbb     C8   9352 -0.06455200  12.010000   ; qtot 311.909056
 9353         h1    312    bbb    H15   9353 0.13554100   1.008000   ; qtot 312.044597
 9354         h1    312    bbb    H16   9354 0.13554100   1.008000   ; qtot 312.180138
 9355         c3    312    bbb     C9   9355 -0.06455200  12.010000   ; qtot 312.115586
 9356         h1    312    bbb    H17   9356 0.13554100   1.008000   ; qtot 312.251127
 9357         h1    312    bbb    H18   9357 0.13554100   1.008000   ; qtot 312.386668
 9358         os    312    bbb     O1   9358 -0.62587700  16.000000   ; qtot 311.760791
 9359         hn    312    bbb    H19   9359 0.23982500   1.008000   ; qtot 312.000616
; residue  313 bbb rtp bbb q 1.0
 9360         n4    313    bbb     N1   9360 0.03726400  14.010000   ; qtot 312.037880
 9361         c3    313    bbb     C1   9361 -0.07020100  12.010000   ; qtot 311.967679
 9362         hx    313    bbb     H1   9362 0.12219000   1.008000   ; qtot 312.089869
 9363         hx    313    bbb     H2   9363 0.12219000   1.008000   ; qtot 312.212059
 9364         c3    313    bbb     C2   9364 -0.07020100  12.010000   ; qtot 312.141858
 9365         hx    313    bbb     H3   9365 0.12219000   1.008000   ; qtot 312.264048
 9366         hx    313    bbb     H4   9366 0.12219000   1.008000   ; qtot 312.386238
 9367         c3    313    bbb     C3   9367 -0.39007700  12.010000   ; qtot 311.996161
 9368         hx    313    bbb     H5   9368 0.14940300   1.008000   ; qtot 312.145564
 9369         hx    313    bbb     H6   9369 0.14940300   1.008000   ; qtot 312.294967
 9370         c3    313    bbb     C4   9370 0.18057300  12.010000   ; qtot 312.475540
 9371         hc    313    bbb     H7   9371 0.01788900   1.008000   ; qtot 312.493429
 9372         hc    313    bbb     H8   9372 0.01788900   1.008000   ; qtot 312.511318
 9373         c3    313    bbb     C5   9373 -0.11337700  12.010000   ; qtot 312.397941
 9374         hc    313    bbb     H9   9374 0.09515400   1.008000   ; qtot 312.493095
 9375         hc    313    bbb    H10   9375 0.09515400   1.008000   ; qtot 312.588249
 9376         c3    313    bbb     C6   9376 -0.11337700  12.010000   ; qtot 312.474872
 9377         hc    313    bbb    H11   9377 0.09515400   1.008000   ; qtot 312.570026
 9378         hc    313    bbb    H12   9378 0.09515400   1.008000   ; qtot 312.665180
 9379         c3    313    bbb     C7   9379 0.21842400  12.010000   ; qtot 312.883604
 9380         h1    313    bbb    H13   9380 0.04500300   1.008000   ; qtot 312.928607
 9381         h1    313    bbb    H14   9381 0.04500300   1.008000   ; qtot 312.973610
 9382         c3    313    bbb     C8   9382 -0.06455200  12.010000   ; qtot 312.909058
 9383         h1    313    bbb    H15   9383 0.13554100   1.008000   ; qtot 313.044599
 9384         h1    313    bbb    H16   9384 0.13554100   1.008000   ; qtot 313.180140
 9385         c3    313    bbb     C9   9385 -0.06455200  12.010000   ; qtot 313.115588
 9386         h1    313    bbb    H17   9386 0.13554100   1.008000   ; qtot 313.251129
 9387         h1    313    bbb    H18   9387 0.13554100   1.008000   ; qtot 313.386670
 9388         os    313    bbb     O1   9388 -0.62587700  16.000000   ; qtot 312.760793
 9389         hn    313    bbb    H19   9389 0.23982500   1.008000   ; qtot 313.000618
; residue  314 bbb rtp bbb q 1.0
 9390         n4    314    bbb     N1   9390 0.03726400  14.010000   ; qtot 313.037882
 9391         c3    314    bbb     C1   9391 -0.07020100  12.010000   ; qtot 312.967681
 9392         hx    314    bbb     H1   9392 0.12219000   1.008000   ; qtot 313.089871
 9393         hx    314    bbb     H2   9393 0.12219000   1.008000   ; qtot 313.212061
 9394         c3    314    bbb     C2   9394 -0.07020100  12.010000   ; qtot 313.141860
 9395         hx    314    bbb     H3   9395 0.12219000   1.008000   ; qtot 313.264050
 9396         hx    314    bbb     H4   9396 0.12219000   1.008000   ; qtot 313.386240
 9397         c3    314    bbb     C3   9397 -0.39007700  12.010000   ; qtot 312.996163
 9398         hx    314    bbb     H5   9398 0.14940300   1.008000   ; qtot 313.145566
 9399         hx    314    bbb     H6   9399 0.14940300   1.008000   ; qtot 313.294969
 9400         c3    314    bbb     C4   9400 0.18057300  12.010000   ; qtot 313.475542
 9401         hc    314    bbb     H7   9401 0.01788900   1.008000   ; qtot 313.493431
 9402         hc    314    bbb     H8   9402 0.01788900   1.008000   ; qtot 313.511320
 9403         c3    314    bbb     C5   9403 -0.11337700  12.010000   ; qtot 313.397943
 9404         hc    314    bbb     H9   9404 0.09515400   1.008000   ; qtot 313.493097
 9405         hc    314    bbb    H10   9405 0.09515400   1.008000   ; qtot 313.588251
 9406         c3    314    bbb     C6   9406 -0.11337700  12.010000   ; qtot 313.474874
 9407         hc    314    bbb    H11   9407 0.09515400   1.008000   ; qtot 313.570028
 9408         hc    314    bbb    H12   9408 0.09515400   1.008000   ; qtot 313.665182
 9409         c3    314    bbb     C7   9409 0.21842400  12.010000   ; qtot 313.883606
 9410         h1    314    bbb    H13   9410 0.04500300   1.008000   ; qtot 313.928609
 9411         h1    314    bbb    H14   9411 0.04500300   1.008000   ; qtot 313.973612
 9412         c3    314    bbb     C8   9412 -0.06455200  12.010000   ; qtot 313.909060
 9413         h1    314    bbb    H15   9413 0.13554100   1.008000   ; qtot 314.044601
 9414         h1    314    bbb    H16   9414 0.13554100   1.008000   ; qtot 314.180142
 9415         c3    314    bbb     C9   9415 -0.06455200  12.010000   ; qtot 314.115590
 9416         h1    314    bbb    H17   9416 0.13554100   1.008000   ; qtot 314.251131
 9417         h1    314    bbb    H18   9417 0.13554100   1.008000   ; qtot 314.386672
 9418         os    314    bbb     O1   9418 -0.62587700  16.000000   ; qtot 313.760795
 9419         hn    314    bbb    H19   9419 0.23982500   1.008000   ; qtot 314.000620
; residue  315 bbb rtp bbb q 1.0
 9420         n4    315    bbb     N1   9420 0.03726400  14.010000   ; qtot 314.037884
 9421         c3    315    bbb     C1   9421 -0.07020100  12.010000   ; qtot 313.967683
 9422         hx    315    bbb     H1   9422 0.12219000   1.008000   ; qtot 314.089873
 9423         hx    315    bbb     H2   9423 0.12219000   1.008000   ; qtot 314.212063
 9424         c3    315    bbb     C2   9424 -0.07020100  12.010000   ; qtot 314.141862
 9425         hx    315    bbb     H3   9425 0.12219000   1.008000   ; qtot 314.264052
 9426         hx    315    bbb     H4   9426 0.12219000   1.008000   ; qtot 314.386242
 9427         c3    315    bbb     C3   9427 -0.39007700  12.010000   ; qtot 313.996165
 9428         hx    315    bbb     H5   9428 0.14940300   1.008000   ; qtot 314.145568
 9429         hx    315    bbb     H6   9429 0.14940300   1.008000   ; qtot 314.294971
 9430         c3    315    bbb     C4   9430 0.18057300  12.010000   ; qtot 314.475544
 9431         hc    315    bbb     H7   9431 0.01788900   1.008000   ; qtot 314.493433
 9432         hc    315    bbb     H8   9432 0.01788900   1.008000   ; qtot 314.511322
 9433         c3    315    bbb     C5   9433 -0.11337700  12.010000   ; qtot 314.397945
 9434         hc    315    bbb     H9   9434 0.09515400   1.008000   ; qtot 314.493099
 9435         hc    315    bbb    H10   9435 0.09515400   1.008000   ; qtot 314.588253
 9436         c3    315    bbb     C6   9436 -0.11337700  12.010000   ; qtot 314.474876
 9437         hc    315    bbb    H11   9437 0.09515400   1.008000   ; qtot 314.570030
 9438         hc    315    bbb    H12   9438 0.09515400   1.008000   ; qtot 314.665184
 9439         c3    315    bbb     C7   9439 0.21842400  12.010000   ; qtot 314.883608
 9440         h1    315    bbb    H13   9440 0.04500300   1.008000   ; qtot 314.928611
 9441         h1    315    bbb    H14   9441 0.04500300   1.008000   ; qtot 314.973614
 9442         c3    315    bbb     C8   9442 -0.06455200  12.010000   ; qtot 314.909062
 9443         h1    315    bbb    H15   9443 0.13554100   1.008000   ; qtot 315.044603
 9444         h1    315    bbb    H16   9444 0.13554100   1.008000   ; qtot 315.180144
 9445         c3    315    bbb     C9   9445 -0.06455200  12.010000   ; qtot 315.115592
 9446         h1    315    bbb    H17   9446 0.13554100   1.008000   ; qtot 315.251133
 9447         h1    315    bbb    H18   9447 0.13554100   1.008000   ; qtot 315.386674
 9448         os    315    bbb     O1   9448 -0.62587700  16.000000   ; qtot 314.760797
 9449         hn    315    bbb    H19   9449 0.23982500   1.008000   ; qtot 315.000622
; residue  316 bbb rtp bbb q 1.0
 9450         n4    316    bbb     N1   9450 0.03726400  14.010000   ; qtot 315.037886
 9451         c3    316    bbb     C1   9451 -0.07020100  12.010000   ; qtot 314.967685
 9452         hx    316    bbb     H1   9452 0.12219000   1.008000   ; qtot 315.089875
 9453         hx    316    bbb     H2   9453 0.12219000   1.008000   ; qtot 315.212065
 9454         c3    316    bbb     C2   9454 -0.07020100  12.010000   ; qtot 315.141864
 9455         hx    316    bbb     H3   9455 0.12219000   1.008000   ; qtot 315.264054
 9456         hx    316    bbb     H4   9456 0.12219000   1.008000   ; qtot 315.386244
 9457         c3    316    bbb     C3   9457 -0.39007700  12.010000   ; qtot 314.996167
 9458         hx    316    bbb     H5   9458 0.14940300   1.008000   ; qtot 315.145570
 9459         hx    316    bbb     H6   9459 0.14940300   1.008000   ; qtot 315.294973
 9460         c3    316    bbb     C4   9460 0.18057300  12.010000   ; qtot 315.475546
 9461         hc    316    bbb     H7   9461 0.01788900   1.008000   ; qtot 315.493435
 9462         hc    316    bbb     H8   9462 0.01788900   1.008000   ; qtot 315.511324
 9463         c3    316    bbb     C5   9463 -0.11337700  12.010000   ; qtot 315.397947
 9464         hc    316    bbb     H9   9464 0.09515400   1.008000   ; qtot 315.493101
 9465         hc    316    bbb    H10   9465 0.09515400   1.008000   ; qtot 315.588255
 9466         c3    316    bbb     C6   9466 -0.11337700  12.010000   ; qtot 315.474878
 9467         hc    316    bbb    H11   9467 0.09515400   1.008000   ; qtot 315.570032
 9468         hc    316    bbb    H12   9468 0.09515400   1.008000   ; qtot 315.665186
 9469         c3    316    bbb     C7   9469 0.21842400  12.010000   ; qtot 315.883610
 9470         h1    316    bbb    H13   9470 0.04500300   1.008000   ; qtot 315.928613
 9471         h1    316    bbb    H14   9471 0.04500300   1.008000   ; qtot 315.973616
 9472         c3    316    bbb     C8   9472 -0.06455200  12.010000   ; qtot 315.909064
 9473         h1    316    bbb    H15   9473 0.13554100   1.008000   ; qtot 316.044605
 9474         h1    316    bbb    H16   9474 0.13554100   1.008000   ; qtot 316.180146
 9475         c3    316    bbb     C9   9475 -0.06455200  12.010000   ; qtot 316.115594
 9476         h1    316    bbb    H17   9476 0.13554100   1.008000   ; qtot 316.251135
 9477         h1    316    bbb    H18   9477 0.13554100   1.008000   ; qtot 316.386676
 9478         os    316    bbb     O1   9478 -0.62587700  16.000000   ; qtot 315.760799
 9479         hn    316    bbb    H19   9479 0.23982500   1.008000   ; qtot 316.000624
; residue  317 bbb rtp bbb q 1.0
 9480         n4    317    bbb     N1   9480 0.03726400  14.010000   ; qtot 316.037888
 9481         c3    317    bbb     C1   9481 -0.07020100  12.010000   ; qtot 315.967687
 9482         hx    317    bbb     H1   9482 0.12219000   1.008000   ; qtot 316.089877
 9483         hx    317    bbb     H2   9483 0.12219000   1.008000   ; qtot 316.212067
 9484         c3    317    bbb     C2   9484 -0.07020100  12.010000   ; qtot 316.141866
 9485         hx    317    bbb     H3   9485 0.12219000   1.008000   ; qtot 316.264056
 9486         hx    317    bbb     H4   9486 0.12219000   1.008000   ; qtot 316.386246
 9487         c3    317    bbb     C3   9487 -0.39007700  12.010000   ; qtot 315.996169
 9488         hx    317    bbb     H5   9488 0.14940300   1.008000   ; qtot 316.145572
 9489         hx    317    bbb     H6   9489 0.14940300   1.008000   ; qtot 316.294975
 9490         c3    317    bbb     C4   9490 0.18057300  12.010000   ; qtot 316.475548
 9491         hc    317    bbb     H7   9491 0.01788900   1.008000   ; qtot 316.493437
 9492         hc    317    bbb     H8   9492 0.01788900   1.008000   ; qtot 316.511326
 9493         c3    317    bbb     C5   9493 -0.11337700  12.010000   ; qtot 316.397949
 9494         hc    317    bbb     H9   9494 0.09515400   1.008000   ; qtot 316.493103
 9495         hc    317    bbb    H10   9495 0.09515400   1.008000   ; qtot 316.588257
 9496         c3    317    bbb     C6   9496 -0.11337700  12.010000   ; qtot 316.474880
 9497         hc    317    bbb    H11   9497 0.09515400   1.008000   ; qtot 316.570034
 9498         hc    317    bbb    H12   9498 0.09515400   1.008000   ; qtot 316.665188
 9499         c3    317    bbb     C7   9499 0.21842400  12.010000   ; qtot 316.883612
 9500         h1    317    bbb    H13   9500 0.04500300   1.008000   ; qtot 316.928615
 9501         h1    317    bbb    H14   9501 0.04500300   1.008000   ; qtot 316.973618
 9502         c3    317    bbb     C8   9502 -0.06455200  12.010000   ; qtot 316.909066
 9503         h1    317    bbb    H15   9503 0.13554100   1.008000   ; qtot 317.044607
 9504         h1    317    bbb    H16   9504 0.13554100   1.008000   ; qtot 317.180148
 9505         c3    317    bbb     C9   9505 -0.06455200  12.010000   ; qtot 317.115596
 9506         h1    317    bbb    H17   9506 0.13554100   1.008000   ; qtot 317.251137
 9507         h1    317    bbb    H18   9507 0.13554100   1.008000   ; qtot 317.386678
 9508         os    317    bbb     O1   9508 -0.62587700  16.000000   ; qtot 316.760801
 9509         hn    317    bbb    H19   9509 0.23982500   1.008000   ; qtot 317.000626
; residue  318 bbb rtp bbb q 1.0
 9510         n4    318    bbb     N1   9510 0.03726400  14.010000   ; qtot 317.037890
 9511         c3    318    bbb     C1   9511 -0.07020100  12.010000   ; qtot 316.967689
 9512         hx    318    bbb     H1   9512 0.12219000   1.008000   ; qtot 317.089879
 9513         hx    318    bbb     H2   9513 0.12219000   1.008000   ; qtot 317.212069
 9514         c3    318    bbb     C2   9514 -0.07020100  12.010000   ; qtot 317.141868
 9515         hx    318    bbb     H3   9515 0.12219000   1.008000   ; qtot 317.264058
 9516         hx    318    bbb     H4   9516 0.12219000   1.008000   ; qtot 317.386248
 9517         c3    318    bbb     C3   9517 -0.39007700  12.010000   ; qtot 316.996171
 9518         hx    318    bbb     H5   9518 0.14940300   1.008000   ; qtot 317.145574
 9519         hx    318    bbb     H6   9519 0.14940300   1.008000   ; qtot 317.294977
 9520         c3    318    bbb     C4   9520 0.18057300  12.010000   ; qtot 317.475550
 9521         hc    318    bbb     H7   9521 0.01788900   1.008000   ; qtot 317.493439
 9522         hc    318    bbb     H8   9522 0.01788900   1.008000   ; qtot 317.511328
 9523         c3    318    bbb     C5   9523 -0.11337700  12.010000   ; qtot 317.397951
 9524         hc    318    bbb     H9   9524 0.09515400   1.008000   ; qtot 317.493105
 9525         hc    318    bbb    H10   9525 0.09515400   1.008000   ; qtot 317.588259
 9526         c3    318    bbb     C6   9526 -0.11337700  12.010000   ; qtot 317.474882
 9527         hc    318    bbb    H11   9527 0.09515400   1.008000   ; qtot 317.570036
 9528         hc    318    bbb    H12   9528 0.09515400   1.008000   ; qtot 317.665190
 9529         c3    318    bbb     C7   9529 0.21842400  12.010000   ; qtot 317.883614
 9530         h1    318    bbb    H13   9530 0.04500300   1.008000   ; qtot 317.928617
 9531         h1    318    bbb    H14   9531 0.04500300   1.008000   ; qtot 317.973620
 9532         c3    318    bbb     C8   9532 -0.06455200  12.010000   ; qtot 317.909068
 9533         h1    318    bbb    H15   9533 0.13554100   1.008000   ; qtot 318.044609
 9534         h1    318    bbb    H16   9534 0.13554100   1.008000   ; qtot 318.180150
 9535         c3    318    bbb     C9   9535 -0.06455200  12.010000   ; qtot 318.115598
 9536         h1    318    bbb    H17   9536 0.13554100   1.008000   ; qtot 318.251139
 9537         h1    318    bbb    H18   9537 0.13554100   1.008000   ; qtot 318.386680
 9538         os    318    bbb     O1   9538 -0.62587700  16.000000   ; qtot 317.760803
 9539         hn    318    bbb    H19   9539 0.23982500   1.008000   ; qtot 318.000628
; residue  319 bbb rtp bbb q 1.0
 9540         n4    319    bbb     N1   9540 0.03726400  14.010000   ; qtot 318.037892
 9541         c3    319    bbb     C1   9541 -0.07020100  12.010000   ; qtot 317.967691
 9542         hx    319    bbb     H1   9542 0.12219000   1.008000   ; qtot 318.089881
 9543         hx    319    bbb     H2   9543 0.12219000   1.008000   ; qtot 318.212071
 9544         c3    319    bbb     C2   9544 -0.07020100  12.010000   ; qtot 318.141870
 9545         hx    319    bbb     H3   9545 0.12219000   1.008000   ; qtot 318.264060
 9546         hx    319    bbb     H4   9546 0.12219000   1.008000   ; qtot 318.386250
 9547         c3    319    bbb     C3   9547 -0.39007700  12.010000   ; qtot 317.996173
 9548         hx    319    bbb     H5   9548 0.14940300   1.008000   ; qtot 318.145576
 9549         hx    319    bbb     H6   9549 0.14940300   1.008000   ; qtot 318.294979
 9550         c3    319    bbb     C4   9550 0.18057300  12.010000   ; qtot 318.475552
 9551         hc    319    bbb     H7   9551 0.01788900   1.008000   ; qtot 318.493441
 9552         hc    319    bbb     H8   9552 0.01788900   1.008000   ; qtot 318.511330
 9553         c3    319    bbb     C5   9553 -0.11337700  12.010000   ; qtot 318.397953
 9554         hc    319    bbb     H9   9554 0.09515400   1.008000   ; qtot 318.493107
 9555         hc    319    bbb    H10   9555 0.09515400   1.008000   ; qtot 318.588261
 9556         c3    319    bbb     C6   9556 -0.11337700  12.010000   ; qtot 318.474884
 9557         hc    319    bbb    H11   9557 0.09515400   1.008000   ; qtot 318.570038
 9558         hc    319    bbb    H12   9558 0.09515400   1.008000   ; qtot 318.665192
 9559         c3    319    bbb     C7   9559 0.21842400  12.010000   ; qtot 318.883616
 9560         h1    319    bbb    H13   9560 0.04500300   1.008000   ; qtot 318.928619
 9561         h1    319    bbb    H14   9561 0.04500300   1.008000   ; qtot 318.973622
 9562         c3    319    bbb     C8   9562 -0.06455200  12.010000   ; qtot 318.909070
 9563         h1    319    bbb    H15   9563 0.13554100   1.008000   ; qtot 319.044611
 9564         h1    319    bbb    H16   9564 0.13554100   1.008000   ; qtot 319.180152
 9565         c3    319    bbb     C9   9565 -0.06455200  12.010000   ; qtot 319.115600
 9566         h1    319    bbb    H17   9566 0.13554100   1.008000   ; qtot 319.251141
 9567         h1    319    bbb    H18   9567 0.13554100   1.008000   ; qtot 319.386682
 9568         os    319    bbb     O1   9568 -0.62587700  16.000000   ; qtot 318.760805
 9569         hn    319    bbb    H19   9569 0.23982500   1.008000   ; qtot 319.000630
; residue  320 bbb rtp bbb q 1.0
 9570         n4    320    bbb     N1   9570 0.03726400  14.010000   ; qtot 319.037894
 9571         c3    320    bbb     C1   9571 -0.07020100  12.010000   ; qtot 318.967693
 9572         hx    320    bbb     H1   9572 0.12219000   1.008000   ; qtot 319.089883
 9573         hx    320    bbb     H2   9573 0.12219000   1.008000   ; qtot 319.212073
 9574         c3    320    bbb     C2   9574 -0.07020100  12.010000   ; qtot 319.141872
 9575         hx    320    bbb     H3   9575 0.12219000   1.008000   ; qtot 319.264062
 9576         hx    320    bbb     H4   9576 0.12219000   1.008000   ; qtot 319.386252
 9577         c3    320    bbb     C3   9577 -0.39007700  12.010000   ; qtot 318.996175
 9578         hx    320    bbb     H5   9578 0.14940300   1.008000   ; qtot 319.145578
 9579         hx    320    bbb     H6   9579 0.14940300   1.008000   ; qtot 319.294981
 9580         c3    320    bbb     C4   9580 0.18057300  12.010000   ; qtot 319.475554
 9581         hc    320    bbb     H7   9581 0.01788900   1.008000   ; qtot 319.493443
 9582         hc    320    bbb     H8   9582 0.01788900   1.008000   ; qtot 319.511332
 9583         c3    320    bbb     C5   9583 -0.11337700  12.010000   ; qtot 319.397955
 9584         hc    320    bbb     H9   9584 0.09515400   1.008000   ; qtot 319.493109
 9585         hc    320    bbb    H10   9585 0.09515400   1.008000   ; qtot 319.588263
 9586         c3    320    bbb     C6   9586 -0.11337700  12.010000   ; qtot 319.474886
 9587         hc    320    bbb    H11   9587 0.09515400   1.008000   ; qtot 319.570040
 9588         hc    320    bbb    H12   9588 0.09515400   1.008000   ; qtot 319.665194
 9589         c3    320    bbb     C7   9589 0.21842400  12.010000   ; qtot 319.883618
 9590         h1    320    bbb    H13   9590 0.04500300   1.008000   ; qtot 319.928621
 9591         h1    320    bbb    H14   9591 0.04500300   1.008000   ; qtot 319.973624
 9592         c3    320    bbb     C8   9592 -0.06455200  12.010000   ; qtot 319.909072
 9593         h1    320    bbb    H15   9593 0.13554100   1.008000   ; qtot 320.044613
 9594         h1    320    bbb    H16   9594 0.13554100   1.008000   ; qtot 320.180154
 9595         c3    320    bbb     C9   9595 -0.06455200  12.010000   ; qtot 320.115602
 9596         h1    320    bbb    H17   9596 0.13554100   1.008000   ; qtot 320.251143
 9597         h1    320    bbb    H18   9597 0.13554100   1.008000   ; qtot 320.386684
 9598         os    320    bbb     O1   9598 -0.62587700  16.000000   ; qtot 319.760807
 9599         hn    320    bbb    H19   9599 0.23982500   1.008000   ; qtot 320.000632
; residue  321 bbb rtp bbb q 1.0
 9600         n4    321    bbb     N1   9600 0.03726400  14.010000   ; qtot 320.037896
 9601         c3    321    bbb     C1   9601 -0.07020100  12.010000   ; qtot 319.967695
 9602         hx    321    bbb     H1   9602 0.12219000   1.008000   ; qtot 320.089885
 9603         hx    321    bbb     H2   9603 0.12219000   1.008000   ; qtot 320.212075
 9604         c3    321    bbb     C2   9604 -0.07020100  12.010000   ; qtot 320.141874
 9605         hx    321    bbb     H3   9605 0.12219000   1.008000   ; qtot 320.264064
 9606         hx    321    bbb     H4   9606 0.12219000   1.008000   ; qtot 320.386254
 9607         c3    321    bbb     C3   9607 -0.39007700  12.010000   ; qtot 319.996177
 9608         hx    321    bbb     H5   9608 0.14940300   1.008000   ; qtot 320.145580
 9609         hx    321    bbb     H6   9609 0.14940300   1.008000   ; qtot 320.294983
 9610         c3    321    bbb     C4   9610 0.18057300  12.010000   ; qtot 320.475556
 9611         hc    321    bbb     H7   9611 0.01788900   1.008000   ; qtot 320.493445
 9612         hc    321    bbb     H8   9612 0.01788900   1.008000   ; qtot 320.511334
 9613         c3    321    bbb     C5   9613 -0.11337700  12.010000   ; qtot 320.397957
 9614         hc    321    bbb     H9   9614 0.09515400   1.008000   ; qtot 320.493111
 9615         hc    321    bbb    H10   9615 0.09515400   1.008000   ; qtot 320.588265
 9616         c3    321    bbb     C6   9616 -0.11337700  12.010000   ; qtot 320.474888
 9617         hc    321    bbb    H11   9617 0.09515400   1.008000   ; qtot 320.570042
 9618         hc    321    bbb    H12   9618 0.09515400   1.008000   ; qtot 320.665196
 9619         c3    321    bbb     C7   9619 0.21842400  12.010000   ; qtot 320.883620
 9620         h1    321    bbb    H13   9620 0.04500300   1.008000   ; qtot 320.928623
 9621         h1    321    bbb    H14   9621 0.04500300   1.008000   ; qtot 320.973626
 9622         c3    321    bbb     C8   9622 -0.06455200  12.010000   ; qtot 320.909074
 9623         h1    321    bbb    H15   9623 0.13554100   1.008000   ; qtot 321.044615
 9624         h1    321    bbb    H16   9624 0.13554100   1.008000   ; qtot 321.180156
 9625         c3    321    bbb     C9   9625 -0.06455200  12.010000   ; qtot 321.115604
 9626         h1    321    bbb    H17   9626 0.13554100   1.008000   ; qtot 321.251145
 9627         h1    321    bbb    H18   9627 0.13554100   1.008000   ; qtot 321.386686
 9628         os    321    bbb     O1   9628 -0.62587700  16.000000   ; qtot 320.760809
 9629         hn    321    bbb    H19   9629 0.23982500   1.008000   ; qtot 321.000634
; residue  322 bbb rtp bbb q 1.0
 9630         n4    322    bbb     N1   9630 0.03726400  14.010000   ; qtot 321.037898
 9631         c3    322    bbb     C1   9631 -0.07020100  12.010000   ; qtot 320.967697
 9632         hx    322    bbb     H1   9632 0.12219000   1.008000   ; qtot 321.089887
 9633         hx    322    bbb     H2   9633 0.12219000   1.008000   ; qtot 321.212077
 9634         c3    322    bbb     C2   9634 -0.07020100  12.010000   ; qtot 321.141876
 9635         hx    322    bbb     H3   9635 0.12219000   1.008000   ; qtot 321.264066
 9636         hx    322    bbb     H4   9636 0.12219000   1.008000   ; qtot 321.386256
 9637         c3    322    bbb     C3   9637 -0.39007700  12.010000   ; qtot 320.996179
 9638         hx    322    bbb     H5   9638 0.14940300   1.008000   ; qtot 321.145582
 9639         hx    322    bbb     H6   9639 0.14940300   1.008000   ; qtot 321.294985
 9640         c3    322    bbb     C4   9640 0.18057300  12.010000   ; qtot 321.475558
 9641         hc    322    bbb     H7   9641 0.01788900   1.008000   ; qtot 321.493447
 9642         hc    322    bbb     H8   9642 0.01788900   1.008000   ; qtot 321.511336
 9643         c3    322    bbb     C5   9643 -0.11337700  12.010000   ; qtot 321.397959
 9644         hc    322    bbb     H9   9644 0.09515400   1.008000   ; qtot 321.493113
 9645         hc    322    bbb    H10   9645 0.09515400   1.008000   ; qtot 321.588267
 9646         c3    322    bbb     C6   9646 -0.11337700  12.010000   ; qtot 321.474890
 9647         hc    322    bbb    H11   9647 0.09515400   1.008000   ; qtot 321.570044
 9648         hc    322    bbb    H12   9648 0.09515400   1.008000   ; qtot 321.665198
 9649         c3    322    bbb     C7   9649 0.21842400  12.010000   ; qtot 321.883622
 9650         h1    322    bbb    H13   9650 0.04500300   1.008000   ; qtot 321.928625
 9651         h1    322    bbb    H14   9651 0.04500300   1.008000   ; qtot 321.973628
 9652         c3    322    bbb     C8   9652 -0.06455200  12.010000   ; qtot 321.909076
 9653         h1    322    bbb    H15   9653 0.13554100   1.008000   ; qtot 322.044617
 9654         h1    322    bbb    H16   9654 0.13554100   1.008000   ; qtot 322.180158
 9655         c3    322    bbb     C9   9655 -0.06455200  12.010000   ; qtot 322.115606
 9656         h1    322    bbb    H17   9656 0.13554100   1.008000   ; qtot 322.251147
 9657         h1    322    bbb    H18   9657 0.13554100   1.008000   ; qtot 322.386688
 9658         os    322    bbb     O1   9658 -0.62587700  16.000000   ; qtot 321.760811
 9659         hn    322    bbb    H19   9659 0.23982500   1.008000   ; qtot 322.000636
; residue  323 bbb rtp bbb q 1.0
 9660         n4    323    bbb     N1   9660 0.03726400  14.010000   ; qtot 322.037900
 9661         c3    323    bbb     C1   9661 -0.07020100  12.010000   ; qtot 321.967699
 9662         hx    323    bbb     H1   9662 0.12219000   1.008000   ; qtot 322.089889
 9663         hx    323    bbb     H2   9663 0.12219000   1.008000   ; qtot 322.212079
 9664         c3    323    bbb     C2   9664 -0.07020100  12.010000   ; qtot 322.141878
 9665         hx    323    bbb     H3   9665 0.12219000   1.008000   ; qtot 322.264068
 9666         hx    323    bbb     H4   9666 0.12219000   1.008000   ; qtot 322.386258
 9667         c3    323    bbb     C3   9667 -0.39007700  12.010000   ; qtot 321.996181
 9668         hx    323    bbb     H5   9668 0.14940300   1.008000   ; qtot 322.145584
 9669         hx    323    bbb     H6   9669 0.14940300   1.008000   ; qtot 322.294987
 9670         c3    323    bbb     C4   9670 0.18057300  12.010000   ; qtot 322.475560
 9671         hc    323    bbb     H7   9671 0.01788900   1.008000   ; qtot 322.493449
 9672         hc    323    bbb     H8   9672 0.01788900   1.008000   ; qtot 322.511338
 9673         c3    323    bbb     C5   9673 -0.11337700  12.010000   ; qtot 322.397961
 9674         hc    323    bbb     H9   9674 0.09515400   1.008000   ; qtot 322.493115
 9675         hc    323    bbb    H10   9675 0.09515400   1.008000   ; qtot 322.588269
 9676         c3    323    bbb     C6   9676 -0.11337700  12.010000   ; qtot 322.474892
 9677         hc    323    bbb    H11   9677 0.09515400   1.008000   ; qtot 322.570046
 9678         hc    323    bbb    H12   9678 0.09515400   1.008000   ; qtot 322.665200
 9679         c3    323    bbb     C7   9679 0.21842400  12.010000   ; qtot 322.883624
 9680         h1    323    bbb    H13   9680 0.04500300   1.008000   ; qtot 322.928627
 9681         h1    323    bbb    H14   9681 0.04500300   1.008000   ; qtot 322.973630
 9682         c3    323    bbb     C8   9682 -0.06455200  12.010000   ; qtot 322.909078
 9683         h1    323    bbb    H15   9683 0.13554100   1.008000   ; qtot 323.044619
 9684         h1    323    bbb    H16   9684 0.13554100   1.008000   ; qtot 323.180160
 9685         c3    323    bbb     C9   9685 -0.06455200  12.010000   ; qtot 323.115608
 9686         h1    323    bbb    H17   9686 0.13554100   1.008000   ; qtot 323.251149
 9687         h1    323    bbb    H18   9687 0.13554100   1.008000   ; qtot 323.386690
 9688         os    323    bbb     O1   9688 -0.62587700  16.000000   ; qtot 322.760813
 9689         hn    323    bbb    H19   9689 0.23982500   1.008000   ; qtot 323.000638
; residue  324 bbb rtp bbb q 1.0
 9690         n4    324    bbb     N1   9690 0.03726400  14.010000   ; qtot 323.037902
 9691         c3    324    bbb     C1   9691 -0.07020100  12.010000   ; qtot 322.967701
 9692         hx    324    bbb     H1   9692 0.12219000   1.008000   ; qtot 323.089891
 9693         hx    324    bbb     H2   9693 0.12219000   1.008000   ; qtot 323.212081
 9694         c3    324    bbb     C2   9694 -0.07020100  12.010000   ; qtot 323.141880
 9695         hx    324    bbb     H3   9695 0.12219000   1.008000   ; qtot 323.264070
 9696         hx    324    bbb     H4   9696 0.12219000   1.008000   ; qtot 323.386260
 9697         c3    324    bbb     C3   9697 -0.39007700  12.010000   ; qtot 322.996183
 9698         hx    324    bbb     H5   9698 0.14940300   1.008000   ; qtot 323.145586
 9699         hx    324    bbb     H6   9699 0.14940300   1.008000   ; qtot 323.294989
 9700         c3    324    bbb     C4   9700 0.18057300  12.010000   ; qtot 323.475562
 9701         hc    324    bbb     H7   9701 0.01788900   1.008000   ; qtot 323.493451
 9702         hc    324    bbb     H8   9702 0.01788900   1.008000   ; qtot 323.511340
 9703         c3    324    bbb     C5   9703 -0.11337700  12.010000   ; qtot 323.397963
 9704         hc    324    bbb     H9   9704 0.09515400   1.008000   ; qtot 323.493117
 9705         hc    324    bbb    H10   9705 0.09515400   1.008000   ; qtot 323.588271
 9706         c3    324    bbb     C6   9706 -0.11337700  12.010000   ; qtot 323.474894
 9707         hc    324    bbb    H11   9707 0.09515400   1.008000   ; qtot 323.570048
 9708         hc    324    bbb    H12   9708 0.09515400   1.008000   ; qtot 323.665202
 9709         c3    324    bbb     C7   9709 0.21842400  12.010000   ; qtot 323.883626
 9710         h1    324    bbb    H13   9710 0.04500300   1.008000   ; qtot 323.928629
 9711         h1    324    bbb    H14   9711 0.04500300   1.008000   ; qtot 323.973632
 9712         c3    324    bbb     C8   9712 -0.06455200  12.010000   ; qtot 323.909080
 9713         h1    324    bbb    H15   9713 0.13554100   1.008000   ; qtot 324.044621
 9714         h1    324    bbb    H16   9714 0.13554100   1.008000   ; qtot 324.180162
 9715         c3    324    bbb     C9   9715 -0.06455200  12.010000   ; qtot 324.115610
 9716         h1    324    bbb    H17   9716 0.13554100   1.008000   ; qtot 324.251151
 9717         h1    324    bbb    H18   9717 0.13554100   1.008000   ; qtot 324.386692
 9718         os    324    bbb     O1   9718 -0.62587700  16.000000   ; qtot 323.760815
 9719         hn    324    bbb    H19   9719 0.23982500   1.008000   ; qtot 324.000640
; residue  325 bbb rtp bbb q 1.0
 9720         n4    325    bbb     N1   9720 0.03726400  14.010000   ; qtot 324.037904
 9721         c3    325    bbb     C1   9721 -0.07020100  12.010000   ; qtot 323.967703
 9722         hx    325    bbb     H1   9722 0.12219000   1.008000   ; qtot 324.089893
 9723         hx    325    bbb     H2   9723 0.12219000   1.008000   ; qtot 324.212083
 9724         c3    325    bbb     C2   9724 -0.07020100  12.010000   ; qtot 324.141882
 9725         hx    325    bbb     H3   9725 0.12219000   1.008000   ; qtot 324.264072
 9726         hx    325    bbb     H4   9726 0.12219000   1.008000   ; qtot 324.386262
 9727         c3    325    bbb     C3   9727 -0.39007700  12.010000   ; qtot 323.996185
 9728         hx    325    bbb     H5   9728 0.14940300   1.008000   ; qtot 324.145588
 9729         hx    325    bbb     H6   9729 0.14940300   1.008000   ; qtot 324.294991
 9730         c3    325    bbb     C4   9730 0.18057300  12.010000   ; qtot 324.475564
 9731         hc    325    bbb     H7   9731 0.01788900   1.008000   ; qtot 324.493453
 9732         hc    325    bbb     H8   9732 0.01788900   1.008000   ; qtot 324.511342
 9733         c3    325    bbb     C5   9733 -0.11337700  12.010000   ; qtot 324.397965
 9734         hc    325    bbb     H9   9734 0.09515400   1.008000   ; qtot 324.493119
 9735         hc    325    bbb    H10   9735 0.09515400   1.008000   ; qtot 324.588273
 9736         c3    325    bbb     C6   9736 -0.11337700  12.010000   ; qtot 324.474896
 9737         hc    325    bbb    H11   9737 0.09515400   1.008000   ; qtot 324.570050
 9738         hc    325    bbb    H12   9738 0.09515400   1.008000   ; qtot 324.665204
 9739         c3    325    bbb     C7   9739 0.21842400  12.010000   ; qtot 324.883628
 9740         h1    325    bbb    H13   9740 0.04500300   1.008000   ; qtot 324.928631
 9741         h1    325    bbb    H14   9741 0.04500300   1.008000   ; qtot 324.973634
 9742         c3    325    bbb     C8   9742 -0.06455200  12.010000   ; qtot 324.909082
 9743         h1    325    bbb    H15   9743 0.13554100   1.008000   ; qtot 325.044623
 9744         h1    325    bbb    H16   9744 0.13554100   1.008000   ; qtot 325.180164
 9745         c3    325    bbb     C9   9745 -0.06455200  12.010000   ; qtot 325.115612
 9746         h1    325    bbb    H17   9746 0.13554100   1.008000   ; qtot 325.251153
 9747         h1    325    bbb    H18   9747 0.13554100   1.008000   ; qtot 325.386694
 9748         os    325    bbb     O1   9748 -0.62587700  16.000000   ; qtot 324.760817
 9749         hn    325    bbb    H19   9749 0.23982500   1.008000   ; qtot 325.000642
; residue  326 bbb rtp bbb q 1.0
 9750         n4    326    bbb     N1   9750 0.03726400  14.010000   ; qtot 325.037906
 9751         c3    326    bbb     C1   9751 -0.07020100  12.010000   ; qtot 324.967705
 9752         hx    326    bbb     H1   9752 0.12219000   1.008000   ; qtot 325.089895
 9753         hx    326    bbb     H2   9753 0.12219000   1.008000   ; qtot 325.212085
 9754         c3    326    bbb     C2   9754 -0.07020100  12.010000   ; qtot 325.141884
 9755         hx    326    bbb     H3   9755 0.12219000   1.008000   ; qtot 325.264074
 9756         hx    326    bbb     H4   9756 0.12219000   1.008000   ; qtot 325.386264
 9757         c3    326    bbb     C3   9757 -0.39007700  12.010000   ; qtot 324.996187
 9758         hx    326    bbb     H5   9758 0.14940300   1.008000   ; qtot 325.145590
 9759         hx    326    bbb     H6   9759 0.14940300   1.008000   ; qtot 325.294993
 9760         c3    326    bbb     C4   9760 0.18057300  12.010000   ; qtot 325.475566
 9761         hc    326    bbb     H7   9761 0.01788900   1.008000   ; qtot 325.493455
 9762         hc    326    bbb     H8   9762 0.01788900   1.008000   ; qtot 325.511344
 9763         c3    326    bbb     C5   9763 -0.11337700  12.010000   ; qtot 325.397967
 9764         hc    326    bbb     H9   9764 0.09515400   1.008000   ; qtot 325.493121
 9765         hc    326    bbb    H10   9765 0.09515400   1.008000   ; qtot 325.588275
 9766         c3    326    bbb     C6   9766 -0.11337700  12.010000   ; qtot 325.474898
 9767         hc    326    bbb    H11   9767 0.09515400   1.008000   ; qtot 325.570052
 9768         hc    326    bbb    H12   9768 0.09515400   1.008000   ; qtot 325.665206
 9769         c3    326    bbb     C7   9769 0.21842400  12.010000   ; qtot 325.883630
 9770         h1    326    bbb    H13   9770 0.04500300   1.008000   ; qtot 325.928633
 9771         h1    326    bbb    H14   9771 0.04500300   1.008000   ; qtot 325.973636
 9772         c3    326    bbb     C8   9772 -0.06455200  12.010000   ; qtot 325.909084
 9773         h1    326    bbb    H15   9773 0.13554100   1.008000   ; qtot 326.044625
 9774         h1    326    bbb    H16   9774 0.13554100   1.008000   ; qtot 326.180166
 9775         c3    326    bbb     C9   9775 -0.06455200  12.010000   ; qtot 326.115614
 9776         h1    326    bbb    H17   9776 0.13554100   1.008000   ; qtot 326.251155
 9777         h1    326    bbb    H18   9777 0.13554100   1.008000   ; qtot 326.386696
 9778         os    326    bbb     O1   9778 -0.62587700  16.000000   ; qtot 325.760819
 9779         hn    326    bbb    H19   9779 0.23982500   1.008000   ; qtot 326.000644
; residue  327 bbb rtp bbb q 1.0
 9780         n4    327    bbb     N1   9780 0.03726400  14.010000   ; qtot 326.037908
 9781         c3    327    bbb     C1   9781 -0.07020100  12.010000   ; qtot 325.967707
 9782         hx    327    bbb     H1   9782 0.12219000   1.008000   ; qtot 326.089897
 9783         hx    327    bbb     H2   9783 0.12219000   1.008000   ; qtot 326.212087
 9784         c3    327    bbb     C2   9784 -0.07020100  12.010000   ; qtot 326.141886
 9785         hx    327    bbb     H3   9785 0.12219000   1.008000   ; qtot 326.264076
 9786         hx    327    bbb     H4   9786 0.12219000   1.008000   ; qtot 326.386266
 9787         c3    327    bbb     C3   9787 -0.39007700  12.010000   ; qtot 325.996189
 9788         hx    327    bbb     H5   9788 0.14940300   1.008000   ; qtot 326.145592
 9789         hx    327    bbb     H6   9789 0.14940300   1.008000   ; qtot 326.294995
 9790         c3    327    bbb     C4   9790 0.18057300  12.010000   ; qtot 326.475568
 9791         hc    327    bbb     H7   9791 0.01788900   1.008000   ; qtot 326.493457
 9792         hc    327    bbb     H8   9792 0.01788900   1.008000   ; qtot 326.511346
 9793         c3    327    bbb     C5   9793 -0.11337700  12.010000   ; qtot 326.397969
 9794         hc    327    bbb     H9   9794 0.09515400   1.008000   ; qtot 326.493123
 9795         hc    327    bbb    H10   9795 0.09515400   1.008000   ; qtot 326.588277
 9796         c3    327    bbb     C6   9796 -0.11337700  12.010000   ; qtot 326.474900
 9797         hc    327    bbb    H11   9797 0.09515400   1.008000   ; qtot 326.570054
 9798         hc    327    bbb    H12   9798 0.09515400   1.008000   ; qtot 326.665208
 9799         c3    327    bbb     C7   9799 0.21842400  12.010000   ; qtot 326.883632
 9800         h1    327    bbb    H13   9800 0.04500300   1.008000   ; qtot 326.928635
 9801         h1    327    bbb    H14   9801 0.04500300   1.008000   ; qtot 326.973638
 9802         c3    327    bbb     C8   9802 -0.06455200  12.010000   ; qtot 326.909086
 9803         h1    327    bbb    H15   9803 0.13554100   1.008000   ; qtot 327.044627
 9804         h1    327    bbb    H16   9804 0.13554100   1.008000   ; qtot 327.180168
 9805         c3    327    bbb     C9   9805 -0.06455200  12.010000   ; qtot 327.115616
 9806         h1    327    bbb    H17   9806 0.13554100   1.008000   ; qtot 327.251157
 9807         h1    327    bbb    H18   9807 0.13554100   1.008000   ; qtot 327.386698
 9808         os    327    bbb     O1   9808 -0.62587700  16.000000   ; qtot 326.760821
 9809         hn    327    bbb    H19   9809 0.23982500   1.008000   ; qtot 327.000646
; residue  328 bbb rtp bbb q 1.0
 9810         n4    328    bbb     N1   9810 0.03726400  14.010000   ; qtot 327.037910
 9811         c3    328    bbb     C1   9811 -0.07020100  12.010000   ; qtot 326.967709
 9812         hx    328    bbb     H1   9812 0.12219000   1.008000   ; qtot 327.089899
 9813         hx    328    bbb     H2   9813 0.12219000   1.008000   ; qtot 327.212089
 9814         c3    328    bbb     C2   9814 -0.07020100  12.010000   ; qtot 327.141888
 9815         hx    328    bbb     H3   9815 0.12219000   1.008000   ; qtot 327.264078
 9816         hx    328    bbb     H4   9816 0.12219000   1.008000   ; qtot 327.386268
 9817         c3    328    bbb     C3   9817 -0.39007700  12.010000   ; qtot 326.996191
 9818         hx    328    bbb     H5   9818 0.14940300   1.008000   ; qtot 327.145594
 9819         hx    328    bbb     H6   9819 0.14940300   1.008000   ; qtot 327.294997
 9820         c3    328    bbb     C4   9820 0.18057300  12.010000   ; qtot 327.475570
 9821         hc    328    bbb     H7   9821 0.01788900   1.008000   ; qtot 327.493459
 9822         hc    328    bbb     H8   9822 0.01788900   1.008000   ; qtot 327.511348
 9823         c3    328    bbb     C5   9823 -0.11337700  12.010000   ; qtot 327.397971
 9824         hc    328    bbb     H9   9824 0.09515400   1.008000   ; qtot 327.493125
 9825         hc    328    bbb    H10   9825 0.09515400   1.008000   ; qtot 327.588279
 9826         c3    328    bbb     C6   9826 -0.11337700  12.010000   ; qtot 327.474902
 9827         hc    328    bbb    H11   9827 0.09515400   1.008000   ; qtot 327.570056
 9828         hc    328    bbb    H12   9828 0.09515400   1.008000   ; qtot 327.665210
 9829         c3    328    bbb     C7   9829 0.21842400  12.010000   ; qtot 327.883634
 9830         h1    328    bbb    H13   9830 0.04500300   1.008000   ; qtot 327.928637
 9831         h1    328    bbb    H14   9831 0.04500300   1.008000   ; qtot 327.973640
 9832         c3    328    bbb     C8   9832 -0.06455200  12.010000   ; qtot 327.909088
 9833         h1    328    bbb    H15   9833 0.13554100   1.008000   ; qtot 328.044629
 9834         h1    328    bbb    H16   9834 0.13554100   1.008000   ; qtot 328.180170
 9835         c3    328    bbb     C9   9835 -0.06455200  12.010000   ; qtot 328.115618
 9836         h1    328    bbb    H17   9836 0.13554100   1.008000   ; qtot 328.251159
 9837         h1    328    bbb    H18   9837 0.13554100   1.008000   ; qtot 328.386700
 9838         os    328    bbb     O1   9838 -0.62587700  16.000000   ; qtot 327.760823
 9839         hn    328    bbb    H19   9839 0.23982500   1.008000   ; qtot 328.000648
; residue  329 bbb rtp bbb q 1.0
 9840         n4    329    bbb     N1   9840 0.03726400  14.010000   ; qtot 328.037912
 9841         c3    329    bbb     C1   9841 -0.07020100  12.010000   ; qtot 327.967711
 9842         hx    329    bbb     H1   9842 0.12219000   1.008000   ; qtot 328.089901
 9843         hx    329    bbb     H2   9843 0.12219000   1.008000   ; qtot 328.212091
 9844         c3    329    bbb     C2   9844 -0.07020100  12.010000   ; qtot 328.141890
 9845         hx    329    bbb     H3   9845 0.12219000   1.008000   ; qtot 328.264080
 9846         hx    329    bbb     H4   9846 0.12219000   1.008000   ; qtot 328.386270
 9847         c3    329    bbb     C3   9847 -0.39007700  12.010000   ; qtot 327.996193
 9848         hx    329    bbb     H5   9848 0.14940300   1.008000   ; qtot 328.145596
 9849         hx    329    bbb     H6   9849 0.14940300   1.008000   ; qtot 328.294999
 9850         c3    329    bbb     C4   9850 0.18057300  12.010000   ; qtot 328.475572
 9851         hc    329    bbb     H7   9851 0.01788900   1.008000   ; qtot 328.493461
 9852         hc    329    bbb     H8   9852 0.01788900   1.008000   ; qtot 328.511350
 9853         c3    329    bbb     C5   9853 -0.11337700  12.010000   ; qtot 328.397973
 9854         hc    329    bbb     H9   9854 0.09515400   1.008000   ; qtot 328.493127
 9855         hc    329    bbb    H10   9855 0.09515400   1.008000   ; qtot 328.588281
 9856         c3    329    bbb     C6   9856 -0.11337700  12.010000   ; qtot 328.474904
 9857         hc    329    bbb    H11   9857 0.09515400   1.008000   ; qtot 328.570058
 9858         hc    329    bbb    H12   9858 0.09515400   1.008000   ; qtot 328.665212
 9859         c3    329    bbb     C7   9859 0.21842400  12.010000   ; qtot 328.883636
 9860         h1    329    bbb    H13   9860 0.04500300   1.008000   ; qtot 328.928639
 9861         h1    329    bbb    H14   9861 0.04500300   1.008000   ; qtot 328.973642
 9862         c3    329    bbb     C8   9862 -0.06455200  12.010000   ; qtot 328.909090
 9863         h1    329    bbb    H15   9863 0.13554100   1.008000   ; qtot 329.044631
 9864         h1    329    bbb    H16   9864 0.13554100   1.008000   ; qtot 329.180172
 9865         c3    329    bbb     C9   9865 -0.06455200  12.010000   ; qtot 329.115620
 9866         h1    329    bbb    H17   9866 0.13554100   1.008000   ; qtot 329.251161
 9867         h1    329    bbb    H18   9867 0.13554100   1.008000   ; qtot 329.386702
 9868         os    329    bbb     O1   9868 -0.62587700  16.000000   ; qtot 328.760825
 9869         hn    329    bbb    H19   9869 0.23982500   1.008000   ; qtot 329.000650
; residue  330 bbb rtp bbb q 1.0
 9870         n4    330    bbb     N1   9870 0.03726400  14.010000   ; qtot 329.037914
 9871         c3    330    bbb     C1   9871 -0.07020100  12.010000   ; qtot 328.967713
 9872         hx    330    bbb     H1   9872 0.12219000   1.008000   ; qtot 329.089903
 9873         hx    330    bbb     H2   9873 0.12219000   1.008000   ; qtot 329.212093
 9874         c3    330    bbb     C2   9874 -0.07020100  12.010000   ; qtot 329.141892
 9875         hx    330    bbb     H3   9875 0.12219000   1.008000   ; qtot 329.264082
 9876         hx    330    bbb     H4   9876 0.12219000   1.008000   ; qtot 329.386272
 9877         c3    330    bbb     C3   9877 -0.39007700  12.010000   ; qtot 328.996195
 9878         hx    330    bbb     H5   9878 0.14940300   1.008000   ; qtot 329.145598
 9879         hx    330    bbb     H6   9879 0.14940300   1.008000   ; qtot 329.295001
 9880         c3    330    bbb     C4   9880 0.18057300  12.010000   ; qtot 329.475574
 9881         hc    330    bbb     H7   9881 0.01788900   1.008000   ; qtot 329.493463
 9882         hc    330    bbb     H8   9882 0.01788900   1.008000   ; qtot 329.511352
 9883         c3    330    bbb     C5   9883 -0.11337700  12.010000   ; qtot 329.397975
 9884         hc    330    bbb     H9   9884 0.09515400   1.008000   ; qtot 329.493129
 9885         hc    330    bbb    H10   9885 0.09515400   1.008000   ; qtot 329.588283
 9886         c3    330    bbb     C6   9886 -0.11337700  12.010000   ; qtot 329.474906
 9887         hc    330    bbb    H11   9887 0.09515400   1.008000   ; qtot 329.570060
 9888         hc    330    bbb    H12   9888 0.09515400   1.008000   ; qtot 329.665214
 9889         c3    330    bbb     C7   9889 0.21842400  12.010000   ; qtot 329.883638
 9890         h1    330    bbb    H13   9890 0.04500300   1.008000   ; qtot 329.928641
 9891         h1    330    bbb    H14   9891 0.04500300   1.008000   ; qtot 329.973644
 9892         c3    330    bbb     C8   9892 -0.06455200  12.010000   ; qtot 329.909092
 9893         h1    330    bbb    H15   9893 0.13554100   1.008000   ; qtot 330.044633
 9894         h1    330    bbb    H16   9894 0.13554100   1.008000   ; qtot 330.180174
 9895         c3    330    bbb     C9   9895 -0.06455200  12.010000   ; qtot 330.115622
 9896         h1    330    bbb    H17   9896 0.13554100   1.008000   ; qtot 330.251163
 9897         h1    330    bbb    H18   9897 0.13554100   1.008000   ; qtot 330.386704
 9898         os    330    bbb     O1   9898 -0.62587700  16.000000   ; qtot 329.760827
 9899         hn    330    bbb    H19   9899 0.23982500   1.008000   ; qtot 330.000652
; residue  331 bbb rtp bbb q 1.0
 9900         n4    331    bbb     N1   9900 0.03726400  14.010000   ; qtot 330.037916
 9901         c3    331    bbb     C1   9901 -0.07020100  12.010000   ; qtot 329.967715
 9902         hx    331    bbb     H1   9902 0.12219000   1.008000   ; qtot 330.089905
 9903         hx    331    bbb     H2   9903 0.12219000   1.008000   ; qtot 330.212095
 9904         c3    331    bbb     C2   9904 -0.07020100  12.010000   ; qtot 330.141894
 9905         hx    331    bbb     H3   9905 0.12219000   1.008000   ; qtot 330.264084
 9906         hx    331    bbb     H4   9906 0.12219000   1.008000   ; qtot 330.386274
 9907         c3    331    bbb     C3   9907 -0.39007700  12.010000   ; qtot 329.996197
 9908         hx    331    bbb     H5   9908 0.14940300   1.008000   ; qtot 330.145600
 9909         hx    331    bbb     H6   9909 0.14940300   1.008000   ; qtot 330.295003
 9910         c3    331    bbb     C4   9910 0.18057300  12.010000   ; qtot 330.475576
 9911         hc    331    bbb     H7   9911 0.01788900   1.008000   ; qtot 330.493465
 9912         hc    331    bbb     H8   9912 0.01788900   1.008000   ; qtot 330.511354
 9913         c3    331    bbb     C5   9913 -0.11337700  12.010000   ; qtot 330.397977
 9914         hc    331    bbb     H9   9914 0.09515400   1.008000   ; qtot 330.493131
 9915         hc    331    bbb    H10   9915 0.09515400   1.008000   ; qtot 330.588285
 9916         c3    331    bbb     C6   9916 -0.11337700  12.010000   ; qtot 330.474908
 9917         hc    331    bbb    H11   9917 0.09515400   1.008000   ; qtot 330.570062
 9918         hc    331    bbb    H12   9918 0.09515400   1.008000   ; qtot 330.665216
 9919         c3    331    bbb     C7   9919 0.21842400  12.010000   ; qtot 330.883640
 9920         h1    331    bbb    H13   9920 0.04500300   1.008000   ; qtot 330.928643
 9921         h1    331    bbb    H14   9921 0.04500300   1.008000   ; qtot 330.973646
 9922         c3    331    bbb     C8   9922 -0.06455200  12.010000   ; qtot 330.909094
 9923         h1    331    bbb    H15   9923 0.13554100   1.008000   ; qtot 331.044635
 9924         h1    331    bbb    H16   9924 0.13554100   1.008000   ; qtot 331.180176
 9925         c3    331    bbb     C9   9925 -0.06455200  12.010000   ; qtot 331.115624
 9926         h1    331    bbb    H17   9926 0.13554100   1.008000   ; qtot 331.251165
 9927         h1    331    bbb    H18   9927 0.13554100   1.008000   ; qtot 331.386706
 9928         os    331    bbb     O1   9928 -0.62587700  16.000000   ; qtot 330.760829
 9929         hn    331    bbb    H19   9929 0.23982500   1.008000   ; qtot 331.000654
; residue  332 bbb rtp bbb q 1.0
 9930         n4    332    bbb     N1   9930 0.03726400  14.010000   ; qtot 331.037918
 9931         c3    332    bbb     C1   9931 -0.07020100  12.010000   ; qtot 330.967717
 9932         hx    332    bbb     H1   9932 0.12219000   1.008000   ; qtot 331.089907
 9933         hx    332    bbb     H2   9933 0.12219000   1.008000   ; qtot 331.212097
 9934         c3    332    bbb     C2   9934 -0.07020100  12.010000   ; qtot 331.141896
 9935         hx    332    bbb     H3   9935 0.12219000   1.008000   ; qtot 331.264086
 9936         hx    332    bbb     H4   9936 0.12219000   1.008000   ; qtot 331.386276
 9937         c3    332    bbb     C3   9937 -0.39007700  12.010000   ; qtot 330.996199
 9938         hx    332    bbb     H5   9938 0.14940300   1.008000   ; qtot 331.145602
 9939         hx    332    bbb     H6   9939 0.14940300   1.008000   ; qtot 331.295005
 9940         c3    332    bbb     C4   9940 0.18057300  12.010000   ; qtot 331.475578
 9941         hc    332    bbb     H7   9941 0.01788900   1.008000   ; qtot 331.493467
 9942         hc    332    bbb     H8   9942 0.01788900   1.008000   ; qtot 331.511356
 9943         c3    332    bbb     C5   9943 -0.11337700  12.010000   ; qtot 331.397979
 9944         hc    332    bbb     H9   9944 0.09515400   1.008000   ; qtot 331.493133
 9945         hc    332    bbb    H10   9945 0.09515400   1.008000   ; qtot 331.588287
 9946         c3    332    bbb     C6   9946 -0.11337700  12.010000   ; qtot 331.474910
 9947         hc    332    bbb    H11   9947 0.09515400   1.008000   ; qtot 331.570064
 9948         hc    332    bbb    H12   9948 0.09515400   1.008000   ; qtot 331.665218
 9949         c3    332    bbb     C7   9949 0.21842400  12.010000   ; qtot 331.883642
 9950         h1    332    bbb    H13   9950 0.04500300   1.008000   ; qtot 331.928645
 9951         h1    332    bbb    H14   9951 0.04500300   1.008000   ; qtot 331.973648
 9952         c3    332    bbb     C8   9952 -0.06455200  12.010000   ; qtot 331.909096
 9953         h1    332    bbb    H15   9953 0.13554100   1.008000   ; qtot 332.044637
 9954         h1    332    bbb    H16   9954 0.13554100   1.008000   ; qtot 332.180178
 9955         c3    332    bbb     C9   9955 -0.06455200  12.010000   ; qtot 332.115626
 9956         h1    332    bbb    H17   9956 0.13554100   1.008000   ; qtot 332.251167
 9957         h1    332    bbb    H18   9957 0.13554100   1.008000   ; qtot 332.386708
 9958         os    332    bbb     O1   9958 -0.62587700  16.000000   ; qtot 331.760831
 9959         hn    332    bbb    H19   9959 0.23982500   1.008000   ; qtot 332.000656
; residue  333 bbb rtp bbb q 1.0
 9960         n4    333    bbb     N1   9960 0.03726400  14.010000   ; qtot 332.037920
 9961         c3    333    bbb     C1   9961 -0.07020100  12.010000   ; qtot 331.967719
 9962         hx    333    bbb     H1   9962 0.12219000   1.008000   ; qtot 332.089909
 9963         hx    333    bbb     H2   9963 0.12219000   1.008000   ; qtot 332.212099
 9964         c3    333    bbb     C2   9964 -0.07020100  12.010000   ; qtot 332.141898
 9965         hx    333    bbb     H3   9965 0.12219000   1.008000   ; qtot 332.264088
 9966         hx    333    bbb     H4   9966 0.12219000   1.008000   ; qtot 332.386278
 9967         c3    333    bbb     C3   9967 -0.39007700  12.010000   ; qtot 331.996201
 9968         hx    333    bbb     H5   9968 0.14940300   1.008000   ; qtot 332.145604
 9969         hx    333    bbb     H6   9969 0.14940300   1.008000   ; qtot 332.295007
 9970         c3    333    bbb     C4   9970 0.18057300  12.010000   ; qtot 332.475580
 9971         hc    333    bbb     H7   9971 0.01788900   1.008000   ; qtot 332.493469
 9972         hc    333    bbb     H8   9972 0.01788900   1.008000   ; qtot 332.511358
 9973         c3    333    bbb     C5   9973 -0.11337700  12.010000   ; qtot 332.397981
 9974         hc    333    bbb     H9   9974 0.09515400   1.008000   ; qtot 332.493135
 9975         hc    333    bbb    H10   9975 0.09515400   1.008000   ; qtot 332.588289
 9976         c3    333    bbb     C6   9976 -0.11337700  12.010000   ; qtot 332.474912
 9977         hc    333    bbb    H11   9977 0.09515400   1.008000   ; qtot 332.570066
 9978         hc    333    bbb    H12   9978 0.09515400   1.008000   ; qtot 332.665220
 9979         c3    333    bbb     C7   9979 0.21842400  12.010000   ; qtot 332.883644
 9980         h1    333    bbb    H13   9980 0.04500300   1.008000   ; qtot 332.928647
 9981         h1    333    bbb    H14   9981 0.04500300   1.008000   ; qtot 332.973650
 9982         c3    333    bbb     C8   9982 -0.06455200  12.010000   ; qtot 332.909098
 9983         h1    333    bbb    H15   9983 0.13554100   1.008000   ; qtot 333.044639
 9984         h1    333    bbb    H16   9984 0.13554100   1.008000   ; qtot 333.180180
 9985         c3    333    bbb     C9   9985 -0.06455200  12.010000   ; qtot 333.115628
 9986         h1    333    bbb    H17   9986 0.13554100   1.008000   ; qtot 333.251169
 9987         h1    333    bbb    H18   9987 0.13554100   1.008000   ; qtot 333.386710
 9988         os    333    bbb     O1   9988 -0.62587700  16.000000   ; qtot 332.760833
 9989         hn    333    bbb    H19   9989 0.23982500   1.008000   ; qtot 333.000658
; residue  334 bbb rtp bbb q 1.0
 9990         n4    334    bbb     N1   9990 0.03726400  14.010000   ; qtot 333.037922
 9991         c3    334    bbb     C1   9991 -0.07020100  12.010000   ; qtot 332.967721
 9992         hx    334    bbb     H1   9992 0.12219000   1.008000   ; qtot 333.089911
 9993         hx    334    bbb     H2   9993 0.12219000   1.008000   ; qtot 333.212101
 9994         c3    334    bbb     C2   9994 -0.07020100  12.010000   ; qtot 333.141900
 9995         hx    334    bbb     H3   9995 0.12219000   1.008000   ; qtot 333.264090
 9996         hx    334    bbb     H4   9996 0.12219000   1.008000   ; qtot 333.386280
 9997         c3    334    bbb     C3   9997 -0.39007700  12.010000   ; qtot 332.996203
 9998         hx    334    bbb     H5   9998 0.14940300   1.008000   ; qtot 333.145606
 9999         hx    334    bbb     H6   9999 0.14940300   1.008000   ; qtot 333.295009
10000         c3    334    bbb     C4  10000 0.18057300  12.010000   ; qtot 333.475582
10001         hc    334    bbb     H7  10001 0.01788900   1.008000   ; qtot 333.493471
10002         hc    334    bbb     H8  10002 0.01788900   1.008000   ; qtot 333.511360
10003         c3    334    bbb     C5  10003 -0.11337700  12.010000   ; qtot 333.397983
10004         hc    334    bbb     H9  10004 0.09515400   1.008000   ; qtot 333.493137
10005         hc    334    bbb    H10  10005 0.09515400   1.008000   ; qtot 333.588291
10006         c3    334    bbb     C6  10006 -0.11337700  12.010000   ; qtot 333.474914
10007         hc    334    bbb    H11  10007 0.09515400   1.008000   ; qtot 333.570068
10008         hc    334    bbb    H12  10008 0.09515400   1.008000   ; qtot 333.665222
10009         c3    334    bbb     C7  10009 0.21842400  12.010000   ; qtot 333.883646
10010         h1    334    bbb    H13  10010 0.04500300   1.008000   ; qtot 333.928649
10011         h1    334    bbb    H14  10011 0.04500300   1.008000   ; qtot 333.973652
10012         c3    334    bbb     C8  10012 -0.06455200  12.010000   ; qtot 333.909100
10013         h1    334    bbb    H15  10013 0.13554100   1.008000   ; qtot 334.044641
10014         h1    334    bbb    H16  10014 0.13554100   1.008000   ; qtot 334.180182
10015         c3    334    bbb     C9  10015 -0.06455200  12.010000   ; qtot 334.115630
10016         h1    334    bbb    H17  10016 0.13554100   1.008000   ; qtot 334.251171
10017         h1    334    bbb    H18  10017 0.13554100   1.008000   ; qtot 334.386712
10018         os    334    bbb     O1  10018 -0.62587700  16.000000   ; qtot 333.760835
10019         hn    334    bbb    H19  10019 0.23982500   1.008000   ; qtot 334.000660
; residue  335 bbb rtp bbb q 1.0
10020         n4    335    bbb     N1  10020 0.03726400  14.010000   ; qtot 334.037924
10021         c3    335    bbb     C1  10021 -0.07020100  12.010000   ; qtot 333.967723
10022         hx    335    bbb     H1  10022 0.12219000   1.008000   ; qtot 334.089913
10023         hx    335    bbb     H2  10023 0.12219000   1.008000   ; qtot 334.212103
10024         c3    335    bbb     C2  10024 -0.07020100  12.010000   ; qtot 334.141902
10025         hx    335    bbb     H3  10025 0.12219000   1.008000   ; qtot 334.264092
10026         hx    335    bbb     H4  10026 0.12219000   1.008000   ; qtot 334.386282
10027         c3    335    bbb     C3  10027 -0.39007700  12.010000   ; qtot 333.996205
10028         hx    335    bbb     H5  10028 0.14940300   1.008000   ; qtot 334.145608
10029         hx    335    bbb     H6  10029 0.14940300   1.008000   ; qtot 334.295011
10030         c3    335    bbb     C4  10030 0.18057300  12.010000   ; qtot 334.475584
10031         hc    335    bbb     H7  10031 0.01788900   1.008000   ; qtot 334.493473
10032         hc    335    bbb     H8  10032 0.01788900   1.008000   ; qtot 334.511362
10033         c3    335    bbb     C5  10033 -0.11337700  12.010000   ; qtot 334.397985
10034         hc    335    bbb     H9  10034 0.09515400   1.008000   ; qtot 334.493139
10035         hc    335    bbb    H10  10035 0.09515400   1.008000   ; qtot 334.588293
10036         c3    335    bbb     C6  10036 -0.11337700  12.010000   ; qtot 334.474916
10037         hc    335    bbb    H11  10037 0.09515400   1.008000   ; qtot 334.570070
10038         hc    335    bbb    H12  10038 0.09515400   1.008000   ; qtot 334.665224
10039         c3    335    bbb     C7  10039 0.21842400  12.010000   ; qtot 334.883648
10040         h1    335    bbb    H13  10040 0.04500300   1.008000   ; qtot 334.928651
10041         h1    335    bbb    H14  10041 0.04500300   1.008000   ; qtot 334.973654
10042         c3    335    bbb     C8  10042 -0.06455200  12.010000   ; qtot 334.909102
10043         h1    335    bbb    H15  10043 0.13554100   1.008000   ; qtot 335.044643
10044         h1    335    bbb    H16  10044 0.13554100   1.008000   ; qtot 335.180184
10045         c3    335    bbb     C9  10045 -0.06455200  12.010000   ; qtot 335.115632
10046         h1    335    bbb    H17  10046 0.13554100   1.008000   ; qtot 335.251173
10047         h1    335    bbb    H18  10047 0.13554100   1.008000   ; qtot 335.386714
10048         os    335    bbb     O1  10048 -0.62587700  16.000000   ; qtot 334.760837
10049         hn    335    bbb    H19  10049 0.23982500   1.008000   ; qtot 335.000662
; residue  336 bbb rtp bbb q 1.0
10050         n4    336    bbb     N1  10050 0.03726400  14.010000   ; qtot 335.037926
10051         c3    336    bbb     C1  10051 -0.07020100  12.010000   ; qtot 334.967725
10052         hx    336    bbb     H1  10052 0.12219000   1.008000   ; qtot 335.089915
10053         hx    336    bbb     H2  10053 0.12219000   1.008000   ; qtot 335.212105
10054         c3    336    bbb     C2  10054 -0.07020100  12.010000   ; qtot 335.141904
10055         hx    336    bbb     H3  10055 0.12219000   1.008000   ; qtot 335.264094
10056         hx    336    bbb     H4  10056 0.12219000   1.008000   ; qtot 335.386284
10057         c3    336    bbb     C3  10057 -0.39007700  12.010000   ; qtot 334.996207
10058         hx    336    bbb     H5  10058 0.14940300   1.008000   ; qtot 335.145610
10059         hx    336    bbb     H6  10059 0.14940300   1.008000   ; qtot 335.295013
10060         c3    336    bbb     C4  10060 0.18057300  12.010000   ; qtot 335.475586
10061         hc    336    bbb     H7  10061 0.01788900   1.008000   ; qtot 335.493475
10062         hc    336    bbb     H8  10062 0.01788900   1.008000   ; qtot 335.511364
10063         c3    336    bbb     C5  10063 -0.11337700  12.010000   ; qtot 335.397987
10064         hc    336    bbb     H9  10064 0.09515400   1.008000   ; qtot 335.493141
10065         hc    336    bbb    H10  10065 0.09515400   1.008000   ; qtot 335.588295
10066         c3    336    bbb     C6  10066 -0.11337700  12.010000   ; qtot 335.474918
10067         hc    336    bbb    H11  10067 0.09515400   1.008000   ; qtot 335.570072
10068         hc    336    bbb    H12  10068 0.09515400   1.008000   ; qtot 335.665226
10069         c3    336    bbb     C7  10069 0.21842400  12.010000   ; qtot 335.883650
10070         h1    336    bbb    H13  10070 0.04500300   1.008000   ; qtot 335.928653
10071         h1    336    bbb    H14  10071 0.04500300   1.008000   ; qtot 335.973656
10072         c3    336    bbb     C8  10072 -0.06455200  12.010000   ; qtot 335.909104
10073         h1    336    bbb    H15  10073 0.13554100   1.008000   ; qtot 336.044645
10074         h1    336    bbb    H16  10074 0.13554100   1.008000   ; qtot 336.180186
10075         c3    336    bbb     C9  10075 -0.06455200  12.010000   ; qtot 336.115634
10076         h1    336    bbb    H17  10076 0.13554100   1.008000   ; qtot 336.251175
10077         h1    336    bbb    H18  10077 0.13554100   1.008000   ; qtot 336.386716
10078         os    336    bbb     O1  10078 -0.62587700  16.000000   ; qtot 335.760839
10079         hn    336    bbb    H19  10079 0.23982500   1.008000   ; qtot 336.000664
; residue  337 bbb rtp bbb q 1.0
10080         n4    337    bbb     N1  10080 0.03726400  14.010000   ; qtot 336.037928
10081         c3    337    bbb     C1  10081 -0.07020100  12.010000   ; qtot 335.967727
10082         hx    337    bbb     H1  10082 0.12219000   1.008000   ; qtot 336.089917
10083         hx    337    bbb     H2  10083 0.12219000   1.008000   ; qtot 336.212107
10084         c3    337    bbb     C2  10084 -0.07020100  12.010000   ; qtot 336.141906
10085         hx    337    bbb     H3  10085 0.12219000   1.008000   ; qtot 336.264096
10086         hx    337    bbb     H4  10086 0.12219000   1.008000   ; qtot 336.386286
10087         c3    337    bbb     C3  10087 -0.39007700  12.010000   ; qtot 335.996209
10088         hx    337    bbb     H5  10088 0.14940300   1.008000   ; qtot 336.145612
10089         hx    337    bbb     H6  10089 0.14940300   1.008000   ; qtot 336.295015
10090         c3    337    bbb     C4  10090 0.18057300  12.010000   ; qtot 336.475588
10091         hc    337    bbb     H7  10091 0.01788900   1.008000   ; qtot 336.493477
10092         hc    337    bbb     H8  10092 0.01788900   1.008000   ; qtot 336.511366
10093         c3    337    bbb     C5  10093 -0.11337700  12.010000   ; qtot 336.397989
10094         hc    337    bbb     H9  10094 0.09515400   1.008000   ; qtot 336.493143
10095         hc    337    bbb    H10  10095 0.09515400   1.008000   ; qtot 336.588297
10096         c3    337    bbb     C6  10096 -0.11337700  12.010000   ; qtot 336.474920
10097         hc    337    bbb    H11  10097 0.09515400   1.008000   ; qtot 336.570074
10098         hc    337    bbb    H12  10098 0.09515400   1.008000   ; qtot 336.665228
10099         c3    337    bbb     C7  10099 0.21842400  12.010000   ; qtot 336.883652
10100         h1    337    bbb    H13  10100 0.04500300   1.008000   ; qtot 336.928655
10101         h1    337    bbb    H14  10101 0.04500300   1.008000   ; qtot 336.973658
10102         c3    337    bbb     C8  10102 -0.06455200  12.010000   ; qtot 336.909106
10103         h1    337    bbb    H15  10103 0.13554100   1.008000   ; qtot 337.044647
10104         h1    337    bbb    H16  10104 0.13554100   1.008000   ; qtot 337.180188
10105         c3    337    bbb     C9  10105 -0.06455200  12.010000   ; qtot 337.115636
10106         h1    337    bbb    H17  10106 0.13554100   1.008000   ; qtot 337.251177
10107         h1    337    bbb    H18  10107 0.13554100   1.008000   ; qtot 337.386718
10108         os    337    bbb     O1  10108 -0.62587700  16.000000   ; qtot 336.760841
10109         hn    337    bbb    H19  10109 0.23982500   1.008000   ; qtot 337.000666
; residue  338 bbb rtp bbb q 1.0
10110         n4    338    bbb     N1  10110 0.03726400  14.010000   ; qtot 337.037930
10111         c3    338    bbb     C1  10111 -0.07020100  12.010000   ; qtot 336.967729
10112         hx    338    bbb     H1  10112 0.12219000   1.008000   ; qtot 337.089919
10113         hx    338    bbb     H2  10113 0.12219000   1.008000   ; qtot 337.212109
10114         c3    338    bbb     C2  10114 -0.07020100  12.010000   ; qtot 337.141908
10115         hx    338    bbb     H3  10115 0.12219000   1.008000   ; qtot 337.264098
10116         hx    338    bbb     H4  10116 0.12219000   1.008000   ; qtot 337.386288
10117         c3    338    bbb     C3  10117 -0.39007700  12.010000   ; qtot 336.996211
10118         hx    338    bbb     H5  10118 0.14940300   1.008000   ; qtot 337.145614
10119         hx    338    bbb     H6  10119 0.14940300   1.008000   ; qtot 337.295017
10120         c3    338    bbb     C4  10120 0.18057300  12.010000   ; qtot 337.475590
10121         hc    338    bbb     H7  10121 0.01788900   1.008000   ; qtot 337.493479
10122         hc    338    bbb     H8  10122 0.01788900   1.008000   ; qtot 337.511368
10123         c3    338    bbb     C5  10123 -0.11337700  12.010000   ; qtot 337.397991
10124         hc    338    bbb     H9  10124 0.09515400   1.008000   ; qtot 337.493145
10125         hc    338    bbb    H10  10125 0.09515400   1.008000   ; qtot 337.588299
10126         c3    338    bbb     C6  10126 -0.11337700  12.010000   ; qtot 337.474922
10127         hc    338    bbb    H11  10127 0.09515400   1.008000   ; qtot 337.570076
10128         hc    338    bbb    H12  10128 0.09515400   1.008000   ; qtot 337.665230
10129         c3    338    bbb     C7  10129 0.21842400  12.010000   ; qtot 337.883654
10130         h1    338    bbb    H13  10130 0.04500300   1.008000   ; qtot 337.928657
10131         h1    338    bbb    H14  10131 0.04500300   1.008000   ; qtot 337.973660
10132         c3    338    bbb     C8  10132 -0.06455200  12.010000   ; qtot 337.909108
10133         h1    338    bbb    H15  10133 0.13554100   1.008000   ; qtot 338.044649
10134         h1    338    bbb    H16  10134 0.13554100   1.008000   ; qtot 338.180190
10135         c3    338    bbb     C9  10135 -0.06455200  12.010000   ; qtot 338.115638
10136         h1    338    bbb    H17  10136 0.13554100   1.008000   ; qtot 338.251179
10137         h1    338    bbb    H18  10137 0.13554100   1.008000   ; qtot 338.386720
10138         os    338    bbb     O1  10138 -0.62587700  16.000000   ; qtot 337.760843
10139         hn    338    bbb    H19  10139 0.23982500   1.008000   ; qtot 338.000668
; residue  339 bbb rtp bbb q 1.0
10140         n4    339    bbb     N1  10140 0.03726400  14.010000   ; qtot 338.037932
10141         c3    339    bbb     C1  10141 -0.07020100  12.010000   ; qtot 337.967731
10142         hx    339    bbb     H1  10142 0.12219000   1.008000   ; qtot 338.089921
10143         hx    339    bbb     H2  10143 0.12219000   1.008000   ; qtot 338.212111
10144         c3    339    bbb     C2  10144 -0.07020100  12.010000   ; qtot 338.141910
10145         hx    339    bbb     H3  10145 0.12219000   1.008000   ; qtot 338.264100
10146         hx    339    bbb     H4  10146 0.12219000   1.008000   ; qtot 338.386290
10147         c3    339    bbb     C3  10147 -0.39007700  12.010000   ; qtot 337.996213
10148         hx    339    bbb     H5  10148 0.14940300   1.008000   ; qtot 338.145616
10149         hx    339    bbb     H6  10149 0.14940300   1.008000   ; qtot 338.295019
10150         c3    339    bbb     C4  10150 0.18057300  12.010000   ; qtot 338.475592
10151         hc    339    bbb     H7  10151 0.01788900   1.008000   ; qtot 338.493481
10152         hc    339    bbb     H8  10152 0.01788900   1.008000   ; qtot 338.511370
10153         c3    339    bbb     C5  10153 -0.11337700  12.010000   ; qtot 338.397993
10154         hc    339    bbb     H9  10154 0.09515400   1.008000   ; qtot 338.493147
10155         hc    339    bbb    H10  10155 0.09515400   1.008000   ; qtot 338.588301
10156         c3    339    bbb     C6  10156 -0.11337700  12.010000   ; qtot 338.474924
10157         hc    339    bbb    H11  10157 0.09515400   1.008000   ; qtot 338.570078
10158         hc    339    bbb    H12  10158 0.09515400   1.008000   ; qtot 338.665232
10159         c3    339    bbb     C7  10159 0.21842400  12.010000   ; qtot 338.883656
10160         h1    339    bbb    H13  10160 0.04500300   1.008000   ; qtot 338.928659
10161         h1    339    bbb    H14  10161 0.04500300   1.008000   ; qtot 338.973662
10162         c3    339    bbb     C8  10162 -0.06455200  12.010000   ; qtot 338.909110
10163         h1    339    bbb    H15  10163 0.13554100   1.008000   ; qtot 339.044651
10164         h1    339    bbb    H16  10164 0.13554100   1.008000   ; qtot 339.180192
10165         c3    339    bbb     C9  10165 -0.06455200  12.010000   ; qtot 339.115640
10166         h1    339    bbb    H17  10166 0.13554100   1.008000   ; qtot 339.251181
10167         h1    339    bbb    H18  10167 0.13554100   1.008000   ; qtot 339.386722
10168         os    339    bbb     O1  10168 -0.62587700  16.000000   ; qtot 338.760845
10169         hn    339    bbb    H19  10169 0.23982500   1.008000   ; qtot 339.000670
; residue  340 bbb rtp bbb q 1.0
10170         n4    340    bbb     N1  10170 0.03726400  14.010000   ; qtot 339.037934
10171         c3    340    bbb     C1  10171 -0.07020100  12.010000   ; qtot 338.967733
10172         hx    340    bbb     H1  10172 0.12219000   1.008000   ; qtot 339.089923
10173         hx    340    bbb     H2  10173 0.12219000   1.008000   ; qtot 339.212113
10174         c3    340    bbb     C2  10174 -0.07020100  12.010000   ; qtot 339.141912
10175         hx    340    bbb     H3  10175 0.12219000   1.008000   ; qtot 339.264102
10176         hx    340    bbb     H4  10176 0.12219000   1.008000   ; qtot 339.386292
10177         c3    340    bbb     C3  10177 -0.39007700  12.010000   ; qtot 338.996215
10178         hx    340    bbb     H5  10178 0.14940300   1.008000   ; qtot 339.145618
10179         hx    340    bbb     H6  10179 0.14940300   1.008000   ; qtot 339.295021
10180         c3    340    bbb     C4  10180 0.18057300  12.010000   ; qtot 339.475594
10181         hc    340    bbb     H7  10181 0.01788900   1.008000   ; qtot 339.493483
10182         hc    340    bbb     H8  10182 0.01788900   1.008000   ; qtot 339.511372
10183         c3    340    bbb     C5  10183 -0.11337700  12.010000   ; qtot 339.397995
10184         hc    340    bbb     H9  10184 0.09515400   1.008000   ; qtot 339.493149
10185         hc    340    bbb    H10  10185 0.09515400   1.008000   ; qtot 339.588303
10186         c3    340    bbb     C6  10186 -0.11337700  12.010000   ; qtot 339.474926
10187         hc    340    bbb    H11  10187 0.09515400   1.008000   ; qtot 339.570080
10188         hc    340    bbb    H12  10188 0.09515400   1.008000   ; qtot 339.665234
10189         c3    340    bbb     C7  10189 0.21842400  12.010000   ; qtot 339.883658
10190         h1    340    bbb    H13  10190 0.04500300   1.008000   ; qtot 339.928661
10191         h1    340    bbb    H14  10191 0.04500300   1.008000   ; qtot 339.973664
10192         c3    340    bbb     C8  10192 -0.06455200  12.010000   ; qtot 339.909112
10193         h1    340    bbb    H15  10193 0.13554100   1.008000   ; qtot 340.044653
10194         h1    340    bbb    H16  10194 0.13554100   1.008000   ; qtot 340.180194
10195         c3    340    bbb     C9  10195 -0.06455200  12.010000   ; qtot 340.115642
10196         h1    340    bbb    H17  10196 0.13554100   1.008000   ; qtot 340.251183
10197         h1    340    bbb    H18  10197 0.13554100   1.008000   ; qtot 340.386724
10198         os    340    bbb     O1  10198 -0.62587700  16.000000   ; qtot 339.760847
10199         hn    340    bbb    H19  10199 0.23982500   1.008000   ; qtot 340.000672
; residue  341 bbb rtp bbb q 1.0
10200         n4    341    bbb     N1  10200 0.03726400  14.010000   ; qtot 340.037936
10201         c3    341    bbb     C1  10201 -0.07020100  12.010000   ; qtot 339.967735
10202         hx    341    bbb     H1  10202 0.12219000   1.008000   ; qtot 340.089925
10203         hx    341    bbb     H2  10203 0.12219000   1.008000   ; qtot 340.212115
10204         c3    341    bbb     C2  10204 -0.07020100  12.010000   ; qtot 340.141914
10205         hx    341    bbb     H3  10205 0.12219000   1.008000   ; qtot 340.264104
10206         hx    341    bbb     H4  10206 0.12219000   1.008000   ; qtot 340.386294
10207         c3    341    bbb     C3  10207 -0.39007700  12.010000   ; qtot 339.996217
10208         hx    341    bbb     H5  10208 0.14940300   1.008000   ; qtot 340.145620
10209         hx    341    bbb     H6  10209 0.14940300   1.008000   ; qtot 340.295023
10210         c3    341    bbb     C4  10210 0.18057300  12.010000   ; qtot 340.475596
10211         hc    341    bbb     H7  10211 0.01788900   1.008000   ; qtot 340.493485
10212         hc    341    bbb     H8  10212 0.01788900   1.008000   ; qtot 340.511374
10213         c3    341    bbb     C5  10213 -0.11337700  12.010000   ; qtot 340.397997
10214         hc    341    bbb     H9  10214 0.09515400   1.008000   ; qtot 340.493151
10215         hc    341    bbb    H10  10215 0.09515400   1.008000   ; qtot 340.588305
10216         c3    341    bbb     C6  10216 -0.11337700  12.010000   ; qtot 340.474928
10217         hc    341    bbb    H11  10217 0.09515400   1.008000   ; qtot 340.570082
10218         hc    341    bbb    H12  10218 0.09515400   1.008000   ; qtot 340.665236
10219         c3    341    bbb     C7  10219 0.21842400  12.010000   ; qtot 340.883660
10220         h1    341    bbb    H13  10220 0.04500300   1.008000   ; qtot 340.928663
10221         h1    341    bbb    H14  10221 0.04500300   1.008000   ; qtot 340.973666
10222         c3    341    bbb     C8  10222 -0.06455200  12.010000   ; qtot 340.909114
10223         h1    341    bbb    H15  10223 0.13554100   1.008000   ; qtot 341.044655
10224         h1    341    bbb    H16  10224 0.13554100   1.008000   ; qtot 341.180196
10225         c3    341    bbb     C9  10225 -0.06455200  12.010000   ; qtot 341.115644
10226         h1    341    bbb    H17  10226 0.13554100   1.008000   ; qtot 341.251185
10227         h1    341    bbb    H18  10227 0.13554100   1.008000   ; qtot 341.386726
10228         os    341    bbb     O1  10228 -0.62587700  16.000000   ; qtot 340.760849
10229         hn    341    bbb    H19  10229 0.23982500   1.008000   ; qtot 341.000674
; residue  342 bbb rtp bbb q 1.0
10230         n4    342    bbb     N1  10230 0.03726400  14.010000   ; qtot 341.037938
10231         c3    342    bbb     C1  10231 -0.07020100  12.010000   ; qtot 340.967737
10232         hx    342    bbb     H1  10232 0.12219000   1.008000   ; qtot 341.089927
10233         hx    342    bbb     H2  10233 0.12219000   1.008000   ; qtot 341.212117
10234         c3    342    bbb     C2  10234 -0.07020100  12.010000   ; qtot 341.141916
10235         hx    342    bbb     H3  10235 0.12219000   1.008000   ; qtot 341.264106
10236         hx    342    bbb     H4  10236 0.12219000   1.008000   ; qtot 341.386296
10237         c3    342    bbb     C3  10237 -0.39007700  12.010000   ; qtot 340.996219
10238         hx    342    bbb     H5  10238 0.14940300   1.008000   ; qtot 341.145622
10239         hx    342    bbb     H6  10239 0.14940300   1.008000   ; qtot 341.295025
10240         c3    342    bbb     C4  10240 0.18057300  12.010000   ; qtot 341.475598
10241         hc    342    bbb     H7  10241 0.01788900   1.008000   ; qtot 341.493487
10242         hc    342    bbb     H8  10242 0.01788900   1.008000   ; qtot 341.511376
10243         c3    342    bbb     C5  10243 -0.11337700  12.010000   ; qtot 341.397999
10244         hc    342    bbb     H9  10244 0.09515400   1.008000   ; qtot 341.493153
10245         hc    342    bbb    H10  10245 0.09515400   1.008000   ; qtot 341.588307
10246         c3    342    bbb     C6  10246 -0.11337700  12.010000   ; qtot 341.474930
10247         hc    342    bbb    H11  10247 0.09515400   1.008000   ; qtot 341.570084
10248         hc    342    bbb    H12  10248 0.09515400   1.008000   ; qtot 341.665238
10249         c3    342    bbb     C7  10249 0.21842400  12.010000   ; qtot 341.883662
10250         h1    342    bbb    H13  10250 0.04500300   1.008000   ; qtot 341.928665
10251         h1    342    bbb    H14  10251 0.04500300   1.008000   ; qtot 341.973668
10252         c3    342    bbb     C8  10252 -0.06455200  12.010000   ; qtot 341.909116
10253         h1    342    bbb    H15  10253 0.13554100   1.008000   ; qtot 342.044657
10254         h1    342    bbb    H16  10254 0.13554100   1.008000   ; qtot 342.180198
10255         c3    342    bbb     C9  10255 -0.06455200  12.010000   ; qtot 342.115646
10256         h1    342    bbb    H17  10256 0.13554100   1.008000   ; qtot 342.251187
10257         h1    342    bbb    H18  10257 0.13554100   1.008000   ; qtot 342.386728
10258         os    342    bbb     O1  10258 -0.62587700  16.000000   ; qtot 341.760851
10259         hn    342    bbb    H19  10259 0.23982500   1.008000   ; qtot 342.000676
; residue  343 bbb rtp bbb q 1.0
10260         n4    343    bbb     N1  10260 0.03726400  14.010000   ; qtot 342.037940
10261         c3    343    bbb     C1  10261 -0.07020100  12.010000   ; qtot 341.967739
10262         hx    343    bbb     H1  10262 0.12219000   1.008000   ; qtot 342.089929
10263         hx    343    bbb     H2  10263 0.12219000   1.008000   ; qtot 342.212119
10264         c3    343    bbb     C2  10264 -0.07020100  12.010000   ; qtot 342.141918
10265         hx    343    bbb     H3  10265 0.12219000   1.008000   ; qtot 342.264108
10266         hx    343    bbb     H4  10266 0.12219000   1.008000   ; qtot 342.386298
10267         c3    343    bbb     C3  10267 -0.39007700  12.010000   ; qtot 341.996221
10268         hx    343    bbb     H5  10268 0.14940300   1.008000   ; qtot 342.145624
10269         hx    343    bbb     H6  10269 0.14940300   1.008000   ; qtot 342.295027
10270         c3    343    bbb     C4  10270 0.18057300  12.010000   ; qtot 342.475600
10271         hc    343    bbb     H7  10271 0.01788900   1.008000   ; qtot 342.493489
10272         hc    343    bbb     H8  10272 0.01788900   1.008000   ; qtot 342.511378
10273         c3    343    bbb     C5  10273 -0.11337700  12.010000   ; qtot 342.398001
10274         hc    343    bbb     H9  10274 0.09515400   1.008000   ; qtot 342.493155
10275         hc    343    bbb    H10  10275 0.09515400   1.008000   ; qtot 342.588309
10276         c3    343    bbb     C6  10276 -0.11337700  12.010000   ; qtot 342.474932
10277         hc    343    bbb    H11  10277 0.09515400   1.008000   ; qtot 342.570086
10278         hc    343    bbb    H12  10278 0.09515400   1.008000   ; qtot 342.665240
10279         c3    343    bbb     C7  10279 0.21842400  12.010000   ; qtot 342.883664
10280         h1    343    bbb    H13  10280 0.04500300   1.008000   ; qtot 342.928667
10281         h1    343    bbb    H14  10281 0.04500300   1.008000   ; qtot 342.973670
10282         c3    343    bbb     C8  10282 -0.06455200  12.010000   ; qtot 342.909118
10283         h1    343    bbb    H15  10283 0.13554100   1.008000   ; qtot 343.044659
10284         h1    343    bbb    H16  10284 0.13554100   1.008000   ; qtot 343.180200
10285         c3    343    bbb     C9  10285 -0.06455200  12.010000   ; qtot 343.115648
10286         h1    343    bbb    H17  10286 0.13554100   1.008000   ; qtot 343.251189
10287         h1    343    bbb    H18  10287 0.13554100   1.008000   ; qtot 343.386730
10288         os    343    bbb     O1  10288 -0.62587700  16.000000   ; qtot 342.760853
10289         hn    343    bbb    H19  10289 0.23982500   1.008000   ; qtot 343.000678
; residue  344 bbb rtp bbb q 1.0
10290         n4    344    bbb     N1  10290 0.03726400  14.010000   ; qtot 343.037942
10291         c3    344    bbb     C1  10291 -0.07020100  12.010000   ; qtot 342.967741
10292         hx    344    bbb     H1  10292 0.12219000   1.008000   ; qtot 343.089931
10293         hx    344    bbb     H2  10293 0.12219000   1.008000   ; qtot 343.212121
10294         c3    344    bbb     C2  10294 -0.07020100  12.010000   ; qtot 343.141920
10295         hx    344    bbb     H3  10295 0.12219000   1.008000   ; qtot 343.264110
10296         hx    344    bbb     H4  10296 0.12219000   1.008000   ; qtot 343.386300
10297         c3    344    bbb     C3  10297 -0.39007700  12.010000   ; qtot 342.996223
10298         hx    344    bbb     H5  10298 0.14940300   1.008000   ; qtot 343.145626
10299         hx    344    bbb     H6  10299 0.14940300   1.008000   ; qtot 343.295029
10300         c3    344    bbb     C4  10300 0.18057300  12.010000   ; qtot 343.475602
10301         hc    344    bbb     H7  10301 0.01788900   1.008000   ; qtot 343.493491
10302         hc    344    bbb     H8  10302 0.01788900   1.008000   ; qtot 343.511380
10303         c3    344    bbb     C5  10303 -0.11337700  12.010000   ; qtot 343.398003
10304         hc    344    bbb     H9  10304 0.09515400   1.008000   ; qtot 343.493157
10305         hc    344    bbb    H10  10305 0.09515400   1.008000   ; qtot 343.588311
10306         c3    344    bbb     C6  10306 -0.11337700  12.010000   ; qtot 343.474934
10307         hc    344    bbb    H11  10307 0.09515400   1.008000   ; qtot 343.570088
10308         hc    344    bbb    H12  10308 0.09515400   1.008000   ; qtot 343.665242
10309         c3    344    bbb     C7  10309 0.21842400  12.010000   ; qtot 343.883666
10310         h1    344    bbb    H13  10310 0.04500300   1.008000   ; qtot 343.928669
10311         h1    344    bbb    H14  10311 0.04500300   1.008000   ; qtot 343.973672
10312         c3    344    bbb     C8  10312 -0.06455200  12.010000   ; qtot 343.909120
10313         h1    344    bbb    H15  10313 0.13554100   1.008000   ; qtot 344.044661
10314         h1    344    bbb    H16  10314 0.13554100   1.008000   ; qtot 344.180202
10315         c3    344    bbb     C9  10315 -0.06455200  12.010000   ; qtot 344.115650
10316         h1    344    bbb    H17  10316 0.13554100   1.008000   ; qtot 344.251191
10317         h1    344    bbb    H18  10317 0.13554100   1.008000   ; qtot 344.386732
10318         os    344    bbb     O1  10318 -0.62587700  16.000000   ; qtot 343.760855
10319         hn    344    bbb    H19  10319 0.23982500   1.008000   ; qtot 344.000680
; residue  345 bbb rtp bbb q 1.0
10320         n4    345    bbb     N1  10320 0.03726400  14.010000   ; qtot 344.037944
10321         c3    345    bbb     C1  10321 -0.07020100  12.010000   ; qtot 343.967743
10322         hx    345    bbb     H1  10322 0.12219000   1.008000   ; qtot 344.089933
10323         hx    345    bbb     H2  10323 0.12219000   1.008000   ; qtot 344.212123
10324         c3    345    bbb     C2  10324 -0.07020100  12.010000   ; qtot 344.141922
10325         hx    345    bbb     H3  10325 0.12219000   1.008000   ; qtot 344.264112
10326         hx    345    bbb     H4  10326 0.12219000   1.008000   ; qtot 344.386302
10327         c3    345    bbb     C3  10327 -0.39007700  12.010000   ; qtot 343.996225
10328         hx    345    bbb     H5  10328 0.14940300   1.008000   ; qtot 344.145628
10329         hx    345    bbb     H6  10329 0.14940300   1.008000   ; qtot 344.295031
10330         c3    345    bbb     C4  10330 0.18057300  12.010000   ; qtot 344.475604
10331         hc    345    bbb     H7  10331 0.01788900   1.008000   ; qtot 344.493493
10332         hc    345    bbb     H8  10332 0.01788900   1.008000   ; qtot 344.511382
10333         c3    345    bbb     C5  10333 -0.11337700  12.010000   ; qtot 344.398005
10334         hc    345    bbb     H9  10334 0.09515400   1.008000   ; qtot 344.493159
10335         hc    345    bbb    H10  10335 0.09515400   1.008000   ; qtot 344.588313
10336         c3    345    bbb     C6  10336 -0.11337700  12.010000   ; qtot 344.474936
10337         hc    345    bbb    H11  10337 0.09515400   1.008000   ; qtot 344.570090
10338         hc    345    bbb    H12  10338 0.09515400   1.008000   ; qtot 344.665244
10339         c3    345    bbb     C7  10339 0.21842400  12.010000   ; qtot 344.883668
10340         h1    345    bbb    H13  10340 0.04500300   1.008000   ; qtot 344.928671
10341         h1    345    bbb    H14  10341 0.04500300   1.008000   ; qtot 344.973674
10342         c3    345    bbb     C8  10342 -0.06455200  12.010000   ; qtot 344.909122
10343         h1    345    bbb    H15  10343 0.13554100   1.008000   ; qtot 345.044663
10344         h1    345    bbb    H16  10344 0.13554100   1.008000   ; qtot 345.180204
10345         c3    345    bbb     C9  10345 -0.06455200  12.010000   ; qtot 345.115652
10346         h1    345    bbb    H17  10346 0.13554100   1.008000   ; qtot 345.251193
10347         h1    345    bbb    H18  10347 0.13554100   1.008000   ; qtot 345.386734
10348         os    345    bbb     O1  10348 -0.62587700  16.000000   ; qtot 344.760857
10349         hn    345    bbb    H19  10349 0.23982500   1.008000   ; qtot 345.000682
; residue  346 bbb rtp bbb q 1.0
10350         n4    346    bbb     N1  10350 0.03726400  14.010000   ; qtot 345.037946
10351         c3    346    bbb     C1  10351 -0.07020100  12.010000   ; qtot 344.967745
10352         hx    346    bbb     H1  10352 0.12219000   1.008000   ; qtot 345.089935
10353         hx    346    bbb     H2  10353 0.12219000   1.008000   ; qtot 345.212125
10354         c3    346    bbb     C2  10354 -0.07020100  12.010000   ; qtot 345.141924
10355         hx    346    bbb     H3  10355 0.12219000   1.008000   ; qtot 345.264114
10356         hx    346    bbb     H4  10356 0.12219000   1.008000   ; qtot 345.386304
10357         c3    346    bbb     C3  10357 -0.39007700  12.010000   ; qtot 344.996227
10358         hx    346    bbb     H5  10358 0.14940300   1.008000   ; qtot 345.145630
10359         hx    346    bbb     H6  10359 0.14940300   1.008000   ; qtot 345.295033
10360         c3    346    bbb     C4  10360 0.18057300  12.010000   ; qtot 345.475606
10361         hc    346    bbb     H7  10361 0.01788900   1.008000   ; qtot 345.493495
10362         hc    346    bbb     H8  10362 0.01788900   1.008000   ; qtot 345.511384
10363         c3    346    bbb     C5  10363 -0.11337700  12.010000   ; qtot 345.398007
10364         hc    346    bbb     H9  10364 0.09515400   1.008000   ; qtot 345.493161
10365         hc    346    bbb    H10  10365 0.09515400   1.008000   ; qtot 345.588315
10366         c3    346    bbb     C6  10366 -0.11337700  12.010000   ; qtot 345.474938
10367         hc    346    bbb    H11  10367 0.09515400   1.008000   ; qtot 345.570092
10368         hc    346    bbb    H12  10368 0.09515400   1.008000   ; qtot 345.665246
10369         c3    346    bbb     C7  10369 0.21842400  12.010000   ; qtot 345.883670
10370         h1    346    bbb    H13  10370 0.04500300   1.008000   ; qtot 345.928673
10371         h1    346    bbb    H14  10371 0.04500300   1.008000   ; qtot 345.973676
10372         c3    346    bbb     C8  10372 -0.06455200  12.010000   ; qtot 345.909124
10373         h1    346    bbb    H15  10373 0.13554100   1.008000   ; qtot 346.044665
10374         h1    346    bbb    H16  10374 0.13554100   1.008000   ; qtot 346.180206
10375         c3    346    bbb     C9  10375 -0.06455200  12.010000   ; qtot 346.115654
10376         h1    346    bbb    H17  10376 0.13554100   1.008000   ; qtot 346.251195
10377         h1    346    bbb    H18  10377 0.13554100   1.008000   ; qtot 346.386736
10378         os    346    bbb     O1  10378 -0.62587700  16.000000   ; qtot 345.760859
10379         hn    346    bbb    H19  10379 0.23982500   1.008000   ; qtot 346.000684
; residue  347 bbb rtp bbb q 1.0
10380         n4    347    bbb     N1  10380 0.03726400  14.010000   ; qtot 346.037948
10381         c3    347    bbb     C1  10381 -0.07020100  12.010000   ; qtot 345.967747
10382         hx    347    bbb     H1  10382 0.12219000   1.008000   ; qtot 346.089937
10383         hx    347    bbb     H2  10383 0.12219000   1.008000   ; qtot 346.212127
10384         c3    347    bbb     C2  10384 -0.07020100  12.010000   ; qtot 346.141926
10385         hx    347    bbb     H3  10385 0.12219000   1.008000   ; qtot 346.264116
10386         hx    347    bbb     H4  10386 0.12219000   1.008000   ; qtot 346.386306
10387         c3    347    bbb     C3  10387 -0.39007700  12.010000   ; qtot 345.996229
10388         hx    347    bbb     H5  10388 0.14940300   1.008000   ; qtot 346.145632
10389         hx    347    bbb     H6  10389 0.14940300   1.008000   ; qtot 346.295035
10390         c3    347    bbb     C4  10390 0.18057300  12.010000   ; qtot 346.475608
10391         hc    347    bbb     H7  10391 0.01788900   1.008000   ; qtot 346.493497
10392         hc    347    bbb     H8  10392 0.01788900   1.008000   ; qtot 346.511386
10393         c3    347    bbb     C5  10393 -0.11337700  12.010000   ; qtot 346.398009
10394         hc    347    bbb     H9  10394 0.09515400   1.008000   ; qtot 346.493163
10395         hc    347    bbb    H10  10395 0.09515400   1.008000   ; qtot 346.588317
10396         c3    347    bbb     C6  10396 -0.11337700  12.010000   ; qtot 346.474940
10397         hc    347    bbb    H11  10397 0.09515400   1.008000   ; qtot 346.570094
10398         hc    347    bbb    H12  10398 0.09515400   1.008000   ; qtot 346.665248
10399         c3    347    bbb     C7  10399 0.21842400  12.010000   ; qtot 346.883672
10400         h1    347    bbb    H13  10400 0.04500300   1.008000   ; qtot 346.928675
10401         h1    347    bbb    H14  10401 0.04500300   1.008000   ; qtot 346.973678
10402         c3    347    bbb     C8  10402 -0.06455200  12.010000   ; qtot 346.909126
10403         h1    347    bbb    H15  10403 0.13554100   1.008000   ; qtot 347.044667
10404         h1    347    bbb    H16  10404 0.13554100   1.008000   ; qtot 347.180208
10405         c3    347    bbb     C9  10405 -0.06455200  12.010000   ; qtot 347.115656
10406         h1    347    bbb    H17  10406 0.13554100   1.008000   ; qtot 347.251197
10407         h1    347    bbb    H18  10407 0.13554100   1.008000   ; qtot 347.386738
10408         os    347    bbb     O1  10408 -0.62587700  16.000000   ; qtot 346.760861
10409         hn    347    bbb    H19  10409 0.23982500   1.008000   ; qtot 347.000686
; residue  348 bbb rtp bbb q 1.0
10410         n4    348    bbb     N1  10410 0.03726400  14.010000   ; qtot 347.037950
10411         c3    348    bbb     C1  10411 -0.07020100  12.010000   ; qtot 346.967749
10412         hx    348    bbb     H1  10412 0.12219000   1.008000   ; qtot 347.089939
10413         hx    348    bbb     H2  10413 0.12219000   1.008000   ; qtot 347.212129
10414         c3    348    bbb     C2  10414 -0.07020100  12.010000   ; qtot 347.141928
10415         hx    348    bbb     H3  10415 0.12219000   1.008000   ; qtot 347.264118
10416         hx    348    bbb     H4  10416 0.12219000   1.008000   ; qtot 347.386308
10417         c3    348    bbb     C3  10417 -0.39007700  12.010000   ; qtot 346.996231
10418         hx    348    bbb     H5  10418 0.14940300   1.008000   ; qtot 347.145634
10419         hx    348    bbb     H6  10419 0.14940300   1.008000   ; qtot 347.295037
10420         c3    348    bbb     C4  10420 0.18057300  12.010000   ; qtot 347.475610
10421         hc    348    bbb     H7  10421 0.01788900   1.008000   ; qtot 347.493499
10422         hc    348    bbb     H8  10422 0.01788900   1.008000   ; qtot 347.511388
10423         c3    348    bbb     C5  10423 -0.11337700  12.010000   ; qtot 347.398011
10424         hc    348    bbb     H9  10424 0.09515400   1.008000   ; qtot 347.493165
10425         hc    348    bbb    H10  10425 0.09515400   1.008000   ; qtot 347.588319
10426         c3    348    bbb     C6  10426 -0.11337700  12.010000   ; qtot 347.474942
10427         hc    348    bbb    H11  10427 0.09515400   1.008000   ; qtot 347.570096
10428         hc    348    bbb    H12  10428 0.09515400   1.008000   ; qtot 347.665250
10429         c3    348    bbb     C7  10429 0.21842400  12.010000   ; qtot 347.883674
10430         h1    348    bbb    H13  10430 0.04500300   1.008000   ; qtot 347.928677
10431         h1    348    bbb    H14  10431 0.04500300   1.008000   ; qtot 347.973680
10432         c3    348    bbb     C8  10432 -0.06455200  12.010000   ; qtot 347.909128
10433         h1    348    bbb    H15  10433 0.13554100   1.008000   ; qtot 348.044669
10434         h1    348    bbb    H16  10434 0.13554100   1.008000   ; qtot 348.180210
10435         c3    348    bbb     C9  10435 -0.06455200  12.010000   ; qtot 348.115658
10436         h1    348    bbb    H17  10436 0.13554100   1.008000   ; qtot 348.251199
10437         h1    348    bbb    H18  10437 0.13554100   1.008000   ; qtot 348.386740
10438         os    348    bbb     O1  10438 -0.62587700  16.000000   ; qtot 347.760863
10439         hn    348    bbb    H19  10439 0.23982500   1.008000   ; qtot 348.000688
; residue  349 bbb rtp bbb q 1.0
10440         n4    349    bbb     N1  10440 0.03726400  14.010000   ; qtot 348.037952
10441         c3    349    bbb     C1  10441 -0.07020100  12.010000   ; qtot 347.967751
10442         hx    349    bbb     H1  10442 0.12219000   1.008000   ; qtot 348.089941
10443         hx    349    bbb     H2  10443 0.12219000   1.008000   ; qtot 348.212131
10444         c3    349    bbb     C2  10444 -0.07020100  12.010000   ; qtot 348.141930
10445         hx    349    bbb     H3  10445 0.12219000   1.008000   ; qtot 348.264120
10446         hx    349    bbb     H4  10446 0.12219000   1.008000   ; qtot 348.386310
10447         c3    349    bbb     C3  10447 -0.39007700  12.010000   ; qtot 347.996233
10448         hx    349    bbb     H5  10448 0.14940300   1.008000   ; qtot 348.145636
10449         hx    349    bbb     H6  10449 0.14940300   1.008000   ; qtot 348.295039
10450         c3    349    bbb     C4  10450 0.18057300  12.010000   ; qtot 348.475612
10451         hc    349    bbb     H7  10451 0.01788900   1.008000   ; qtot 348.493501
10452         hc    349    bbb     H8  10452 0.01788900   1.008000   ; qtot 348.511390
10453         c3    349    bbb     C5  10453 -0.11337700  12.010000   ; qtot 348.398013
10454         hc    349    bbb     H9  10454 0.09515400   1.008000   ; qtot 348.493167
10455         hc    349    bbb    H10  10455 0.09515400   1.008000   ; qtot 348.588321
10456         c3    349    bbb     C6  10456 -0.11337700  12.010000   ; qtot 348.474944
10457         hc    349    bbb    H11  10457 0.09515400   1.008000   ; qtot 348.570098
10458         hc    349    bbb    H12  10458 0.09515400   1.008000   ; qtot 348.665252
10459         c3    349    bbb     C7  10459 0.21842400  12.010000   ; qtot 348.883676
10460         h1    349    bbb    H13  10460 0.04500300   1.008000   ; qtot 348.928679
10461         h1    349    bbb    H14  10461 0.04500300   1.008000   ; qtot 348.973682
10462         c3    349    bbb     C8  10462 -0.06455200  12.010000   ; qtot 348.909130
10463         h1    349    bbb    H15  10463 0.13554100   1.008000   ; qtot 349.044671
10464         h1    349    bbb    H16  10464 0.13554100   1.008000   ; qtot 349.180212
10465         c3    349    bbb     C9  10465 -0.06455200  12.010000   ; qtot 349.115660
10466         h1    349    bbb    H17  10466 0.13554100   1.008000   ; qtot 349.251201
10467         h1    349    bbb    H18  10467 0.13554100   1.008000   ; qtot 349.386742
10468         os    349    bbb     O1  10468 -0.62587700  16.000000   ; qtot 348.760865
10469         hn    349    bbb    H19  10469 0.23982500   1.008000   ; qtot 349.000690
; residue  350 bbb rtp bbb q 1.0
10470         n4    350    bbb     N1  10470 0.03726400  14.010000   ; qtot 349.037954
10471         c3    350    bbb     C1  10471 -0.07020100  12.010000   ; qtot 348.967753
10472         hx    350    bbb     H1  10472 0.12219000   1.008000   ; qtot 349.089943
10473         hx    350    bbb     H2  10473 0.12219000   1.008000   ; qtot 349.212133
10474         c3    350    bbb     C2  10474 -0.07020100  12.010000   ; qtot 349.141932
10475         hx    350    bbb     H3  10475 0.12219000   1.008000   ; qtot 349.264122
10476         hx    350    bbb     H4  10476 0.12219000   1.008000   ; qtot 349.386312
10477         c3    350    bbb     C3  10477 -0.39007700  12.010000   ; qtot 348.996235
10478         hx    350    bbb     H5  10478 0.14940300   1.008000   ; qtot 349.145638
10479         hx    350    bbb     H6  10479 0.14940300   1.008000   ; qtot 349.295041
10480         c3    350    bbb     C4  10480 0.18057300  12.010000   ; qtot 349.475614
10481         hc    350    bbb     H7  10481 0.01788900   1.008000   ; qtot 349.493503
10482         hc    350    bbb     H8  10482 0.01788900   1.008000   ; qtot 349.511392
10483         c3    350    bbb     C5  10483 -0.11337700  12.010000   ; qtot 349.398015
10484         hc    350    bbb     H9  10484 0.09515400   1.008000   ; qtot 349.493169
10485         hc    350    bbb    H10  10485 0.09515400   1.008000   ; qtot 349.588323
10486         c3    350    bbb     C6  10486 -0.11337700  12.010000   ; qtot 349.474946
10487         hc    350    bbb    H11  10487 0.09515400   1.008000   ; qtot 349.570100
10488         hc    350    bbb    H12  10488 0.09515400   1.008000   ; qtot 349.665254
10489         c3    350    bbb     C7  10489 0.21842400  12.010000   ; qtot 349.883678
10490         h1    350    bbb    H13  10490 0.04500300   1.008000   ; qtot 349.928681
10491         h1    350    bbb    H14  10491 0.04500300   1.008000   ; qtot 349.973684
10492         c3    350    bbb     C8  10492 -0.06455200  12.010000   ; qtot 349.909132
10493         h1    350    bbb    H15  10493 0.13554100   1.008000   ; qtot 350.044673
10494         h1    350    bbb    H16  10494 0.13554100   1.008000   ; qtot 350.180214
10495         c3    350    bbb     C9  10495 -0.06455200  12.010000   ; qtot 350.115662
10496         h1    350    bbb    H17  10496 0.13554100   1.008000   ; qtot 350.251203
10497         h1    350    bbb    H18  10497 0.13554100   1.008000   ; qtot 350.386744
10498         os    350    bbb     O1  10498 -0.62587700  16.000000   ; qtot 349.760867
10499         hn    350    bbb    H19  10499 0.23982500   1.008000   ; qtot 350.000692
; residue  351 bbb rtp bbb q 1.0
10500         n4    351    bbb     N1  10500 0.03726400  14.010000   ; qtot 350.037956
10501         c3    351    bbb     C1  10501 -0.07020100  12.010000   ; qtot 349.967755
10502         hx    351    bbb     H1  10502 0.12219000   1.008000   ; qtot 350.089945
10503         hx    351    bbb     H2  10503 0.12219000   1.008000   ; qtot 350.212135
10504         c3    351    bbb     C2  10504 -0.07020100  12.010000   ; qtot 350.141934
10505         hx    351    bbb     H3  10505 0.12219000   1.008000   ; qtot 350.264124
10506         hx    351    bbb     H4  10506 0.12219000   1.008000   ; qtot 350.386314
10507         c3    351    bbb     C3  10507 -0.39007700  12.010000   ; qtot 349.996237
10508         hx    351    bbb     H5  10508 0.14940300   1.008000   ; qtot 350.145640
10509         hx    351    bbb     H6  10509 0.14940300   1.008000   ; qtot 350.295043
10510         c3    351    bbb     C4  10510 0.18057300  12.010000   ; qtot 350.475616
10511         hc    351    bbb     H7  10511 0.01788900   1.008000   ; qtot 350.493505
10512         hc    351    bbb     H8  10512 0.01788900   1.008000   ; qtot 350.511394
10513         c3    351    bbb     C5  10513 -0.11337700  12.010000   ; qtot 350.398017
10514         hc    351    bbb     H9  10514 0.09515400   1.008000   ; qtot 350.493171
10515         hc    351    bbb    H10  10515 0.09515400   1.008000   ; qtot 350.588325
10516         c3    351    bbb     C6  10516 -0.11337700  12.010000   ; qtot 350.474948
10517         hc    351    bbb    H11  10517 0.09515400   1.008000   ; qtot 350.570102
10518         hc    351    bbb    H12  10518 0.09515400   1.008000   ; qtot 350.665256
10519         c3    351    bbb     C7  10519 0.21842400  12.010000   ; qtot 350.883680
10520         h1    351    bbb    H13  10520 0.04500300   1.008000   ; qtot 350.928683
10521         h1    351    bbb    H14  10521 0.04500300   1.008000   ; qtot 350.973686
10522         c3    351    bbb     C8  10522 -0.06455200  12.010000   ; qtot 350.909134
10523         h1    351    bbb    H15  10523 0.13554100   1.008000   ; qtot 351.044675
10524         h1    351    bbb    H16  10524 0.13554100   1.008000   ; qtot 351.180216
10525         c3    351    bbb     C9  10525 -0.06455200  12.010000   ; qtot 351.115664
10526         h1    351    bbb    H17  10526 0.13554100   1.008000   ; qtot 351.251205
10527         h1    351    bbb    H18  10527 0.13554100   1.008000   ; qtot 351.386746
10528         os    351    bbb     O1  10528 -0.62587700  16.000000   ; qtot 350.760869
10529         hn    351    bbb    H19  10529 0.23982500   1.008000   ; qtot 351.000694
; residue  352 bbb rtp bbb q 1.0
10530         n4    352    bbb     N1  10530 0.03726400  14.010000   ; qtot 351.037958
10531         c3    352    bbb     C1  10531 -0.07020100  12.010000   ; qtot 350.967757
10532         hx    352    bbb     H1  10532 0.12219000   1.008000   ; qtot 351.089947
10533         hx    352    bbb     H2  10533 0.12219000   1.008000   ; qtot 351.212137
10534         c3    352    bbb     C2  10534 -0.07020100  12.010000   ; qtot 351.141936
10535         hx    352    bbb     H3  10535 0.12219000   1.008000   ; qtot 351.264126
10536         hx    352    bbb     H4  10536 0.12219000   1.008000   ; qtot 351.386316
10537         c3    352    bbb     C3  10537 -0.39007700  12.010000   ; qtot 350.996239
10538         hx    352    bbb     H5  10538 0.14940300   1.008000   ; qtot 351.145642
10539         hx    352    bbb     H6  10539 0.14940300   1.008000   ; qtot 351.295045
10540         c3    352    bbb     C4  10540 0.18057300  12.010000   ; qtot 351.475618
10541         hc    352    bbb     H7  10541 0.01788900   1.008000   ; qtot 351.493507
10542         hc    352    bbb     H8  10542 0.01788900   1.008000   ; qtot 351.511396
10543         c3    352    bbb     C5  10543 -0.11337700  12.010000   ; qtot 351.398019
10544         hc    352    bbb     H9  10544 0.09515400   1.008000   ; qtot 351.493173
10545         hc    352    bbb    H10  10545 0.09515400   1.008000   ; qtot 351.588327
10546         c3    352    bbb     C6  10546 -0.11337700  12.010000   ; qtot 351.474950
10547         hc    352    bbb    H11  10547 0.09515400   1.008000   ; qtot 351.570104
10548         hc    352    bbb    H12  10548 0.09515400   1.008000   ; qtot 351.665258
10549         c3    352    bbb     C7  10549 0.21842400  12.010000   ; qtot 351.883682
10550         h1    352    bbb    H13  10550 0.04500300   1.008000   ; qtot 351.928685
10551         h1    352    bbb    H14  10551 0.04500300   1.008000   ; qtot 351.973688
10552         c3    352    bbb     C8  10552 -0.06455200  12.010000   ; qtot 351.909136
10553         h1    352    bbb    H15  10553 0.13554100   1.008000   ; qtot 352.044677
10554         h1    352    bbb    H16  10554 0.13554100   1.008000   ; qtot 352.180218
10555         c3    352    bbb     C9  10555 -0.06455200  12.010000   ; qtot 352.115666
10556         h1    352    bbb    H17  10556 0.13554100   1.008000   ; qtot 352.251207
10557         h1    352    bbb    H18  10557 0.13554100   1.008000   ; qtot 352.386748
10558         os    352    bbb     O1  10558 -0.62587700  16.000000   ; qtot 351.760871
10559         hn    352    bbb    H19  10559 0.23982500   1.008000   ; qtot 352.000696
; residue  353 bbb rtp bbb q 1.0
10560         n4    353    bbb     N1  10560 0.03726400  14.010000   ; qtot 352.037960
10561         c3    353    bbb     C1  10561 -0.07020100  12.010000   ; qtot 351.967759
10562         hx    353    bbb     H1  10562 0.12219000   1.008000   ; qtot 352.089949
10563         hx    353    bbb     H2  10563 0.12219000   1.008000   ; qtot 352.212139
10564         c3    353    bbb     C2  10564 -0.07020100  12.010000   ; qtot 352.141938
10565         hx    353    bbb     H3  10565 0.12219000   1.008000   ; qtot 352.264128
10566         hx    353    bbb     H4  10566 0.12219000   1.008000   ; qtot 352.386318
10567         c3    353    bbb     C3  10567 -0.39007700  12.010000   ; qtot 351.996241
10568         hx    353    bbb     H5  10568 0.14940300   1.008000   ; qtot 352.145644
10569         hx    353    bbb     H6  10569 0.14940300   1.008000   ; qtot 352.295047
10570         c3    353    bbb     C4  10570 0.18057300  12.010000   ; qtot 352.475620
10571         hc    353    bbb     H7  10571 0.01788900   1.008000   ; qtot 352.493509
10572         hc    353    bbb     H8  10572 0.01788900   1.008000   ; qtot 352.511398
10573         c3    353    bbb     C5  10573 -0.11337700  12.010000   ; qtot 352.398021
10574         hc    353    bbb     H9  10574 0.09515400   1.008000   ; qtot 352.493175
10575         hc    353    bbb    H10  10575 0.09515400   1.008000   ; qtot 352.588329
10576         c3    353    bbb     C6  10576 -0.11337700  12.010000   ; qtot 352.474952
10577         hc    353    bbb    H11  10577 0.09515400   1.008000   ; qtot 352.570106
10578         hc    353    bbb    H12  10578 0.09515400   1.008000   ; qtot 352.665260
10579         c3    353    bbb     C7  10579 0.21842400  12.010000   ; qtot 352.883684
10580         h1    353    bbb    H13  10580 0.04500300   1.008000   ; qtot 352.928687
10581         h1    353    bbb    H14  10581 0.04500300   1.008000   ; qtot 352.973690
10582         c3    353    bbb     C8  10582 -0.06455200  12.010000   ; qtot 352.909138
10583         h1    353    bbb    H15  10583 0.13554100   1.008000   ; qtot 353.044679
10584         h1    353    bbb    H16  10584 0.13554100   1.008000   ; qtot 353.180220
10585         c3    353    bbb     C9  10585 -0.06455200  12.010000   ; qtot 353.115668
10586         h1    353    bbb    H17  10586 0.13554100   1.008000   ; qtot 353.251209
10587         h1    353    bbb    H18  10587 0.13554100   1.008000   ; qtot 353.386750
10588         os    353    bbb     O1  10588 -0.62587700  16.000000   ; qtot 352.760873
10589         hn    353    bbb    H19  10589 0.23982500   1.008000   ; qtot 353.000698
; residue  354 bbb rtp bbb q 1.0
10590         n4    354    bbb     N1  10590 0.03726400  14.010000   ; qtot 353.037962
10591         c3    354    bbb     C1  10591 -0.07020100  12.010000   ; qtot 352.967761
10592         hx    354    bbb     H1  10592 0.12219000   1.008000   ; qtot 353.089951
10593         hx    354    bbb     H2  10593 0.12219000   1.008000   ; qtot 353.212141
10594         c3    354    bbb     C2  10594 -0.07020100  12.010000   ; qtot 353.141940
10595         hx    354    bbb     H3  10595 0.12219000   1.008000   ; qtot 353.264130
10596         hx    354    bbb     H4  10596 0.12219000   1.008000   ; qtot 353.386320
10597         c3    354    bbb     C3  10597 -0.39007700  12.010000   ; qtot 352.996243
10598         hx    354    bbb     H5  10598 0.14940300   1.008000   ; qtot 353.145646
10599         hx    354    bbb     H6  10599 0.14940300   1.008000   ; qtot 353.295049
10600         c3    354    bbb     C4  10600 0.18057300  12.010000   ; qtot 353.475622
10601         hc    354    bbb     H7  10601 0.01788900   1.008000   ; qtot 353.493511
10602         hc    354    bbb     H8  10602 0.01788900   1.008000   ; qtot 353.511400
10603         c3    354    bbb     C5  10603 -0.11337700  12.010000   ; qtot 353.398023
10604         hc    354    bbb     H9  10604 0.09515400   1.008000   ; qtot 353.493177
10605         hc    354    bbb    H10  10605 0.09515400   1.008000   ; qtot 353.588331
10606         c3    354    bbb     C6  10606 -0.11337700  12.010000   ; qtot 353.474954
10607         hc    354    bbb    H11  10607 0.09515400   1.008000   ; qtot 353.570108
10608         hc    354    bbb    H12  10608 0.09515400   1.008000   ; qtot 353.665262
10609         c3    354    bbb     C7  10609 0.21842400  12.010000   ; qtot 353.883686
10610         h1    354    bbb    H13  10610 0.04500300   1.008000   ; qtot 353.928689
10611         h1    354    bbb    H14  10611 0.04500300   1.008000   ; qtot 353.973692
10612         c3    354    bbb     C8  10612 -0.06455200  12.010000   ; qtot 353.909140
10613         h1    354    bbb    H15  10613 0.13554100   1.008000   ; qtot 354.044681
10614         h1    354    bbb    H16  10614 0.13554100   1.008000   ; qtot 354.180222
10615         c3    354    bbb     C9  10615 -0.06455200  12.010000   ; qtot 354.115670
10616         h1    354    bbb    H17  10616 0.13554100   1.008000   ; qtot 354.251211
10617         h1    354    bbb    H18  10617 0.13554100   1.008000   ; qtot 354.386752
10618         os    354    bbb     O1  10618 -0.62587700  16.000000   ; qtot 353.760875
10619         hn    354    bbb    H19  10619 0.23982500   1.008000   ; qtot 354.000700
; residue  355 bbb rtp bbb q 1.0
10620         n4    355    bbb     N1  10620 0.03726400  14.010000   ; qtot 354.037964
10621         c3    355    bbb     C1  10621 -0.07020100  12.010000   ; qtot 353.967763
10622         hx    355    bbb     H1  10622 0.12219000   1.008000   ; qtot 354.089953
10623         hx    355    bbb     H2  10623 0.12219000   1.008000   ; qtot 354.212143
10624         c3    355    bbb     C2  10624 -0.07020100  12.010000   ; qtot 354.141942
10625         hx    355    bbb     H3  10625 0.12219000   1.008000   ; qtot 354.264132
10626         hx    355    bbb     H4  10626 0.12219000   1.008000   ; qtot 354.386322
10627         c3    355    bbb     C3  10627 -0.39007700  12.010000   ; qtot 353.996245
10628         hx    355    bbb     H5  10628 0.14940300   1.008000   ; qtot 354.145648
10629         hx    355    bbb     H6  10629 0.14940300   1.008000   ; qtot 354.295051
10630         c3    355    bbb     C4  10630 0.18057300  12.010000   ; qtot 354.475624
10631         hc    355    bbb     H7  10631 0.01788900   1.008000   ; qtot 354.493513
10632         hc    355    bbb     H8  10632 0.01788900   1.008000   ; qtot 354.511402
10633         c3    355    bbb     C5  10633 -0.11337700  12.010000   ; qtot 354.398025
10634         hc    355    bbb     H9  10634 0.09515400   1.008000   ; qtot 354.493179
10635         hc    355    bbb    H10  10635 0.09515400   1.008000   ; qtot 354.588333
10636         c3    355    bbb     C6  10636 -0.11337700  12.010000   ; qtot 354.474956
10637         hc    355    bbb    H11  10637 0.09515400   1.008000   ; qtot 354.570110
10638         hc    355    bbb    H12  10638 0.09515400   1.008000   ; qtot 354.665264
10639         c3    355    bbb     C7  10639 0.21842400  12.010000   ; qtot 354.883688
10640         h1    355    bbb    H13  10640 0.04500300   1.008000   ; qtot 354.928691
10641         h1    355    bbb    H14  10641 0.04500300   1.008000   ; qtot 354.973694
10642         c3    355    bbb     C8  10642 -0.06455200  12.010000   ; qtot 354.909142
10643         h1    355    bbb    H15  10643 0.13554100   1.008000   ; qtot 355.044683
10644         h1    355    bbb    H16  10644 0.13554100   1.008000   ; qtot 355.180224
10645         c3    355    bbb     C9  10645 -0.06455200  12.010000   ; qtot 355.115672
10646         h1    355    bbb    H17  10646 0.13554100   1.008000   ; qtot 355.251213
10647         h1    355    bbb    H18  10647 0.13554100   1.008000   ; qtot 355.386754
10648         os    355    bbb     O1  10648 -0.62587700  16.000000   ; qtot 354.760877
10649         hn    355    bbb    H19  10649 0.23982500   1.008000   ; qtot 355.000702
; residue  356 bbb rtp bbb q 1.0
10650         n4    356    bbb     N1  10650 0.03726400  14.010000   ; qtot 355.037966
10651         c3    356    bbb     C1  10651 -0.07020100  12.010000   ; qtot 354.967765
10652         hx    356    bbb     H1  10652 0.12219000   1.008000   ; qtot 355.089955
10653         hx    356    bbb     H2  10653 0.12219000   1.008000   ; qtot 355.212145
10654         c3    356    bbb     C2  10654 -0.07020100  12.010000   ; qtot 355.141944
10655         hx    356    bbb     H3  10655 0.12219000   1.008000   ; qtot 355.264134
10656         hx    356    bbb     H4  10656 0.12219000   1.008000   ; qtot 355.386324
10657         c3    356    bbb     C3  10657 -0.39007700  12.010000   ; qtot 354.996247
10658         hx    356    bbb     H5  10658 0.14940300   1.008000   ; qtot 355.145650
10659         hx    356    bbb     H6  10659 0.14940300   1.008000   ; qtot 355.295053
10660         c3    356    bbb     C4  10660 0.18057300  12.010000   ; qtot 355.475626
10661         hc    356    bbb     H7  10661 0.01788900   1.008000   ; qtot 355.493515
10662         hc    356    bbb     H8  10662 0.01788900   1.008000   ; qtot 355.511404
10663         c3    356    bbb     C5  10663 -0.11337700  12.010000   ; qtot 355.398027
10664         hc    356    bbb     H9  10664 0.09515400   1.008000   ; qtot 355.493181
10665         hc    356    bbb    H10  10665 0.09515400   1.008000   ; qtot 355.588335
10666         c3    356    bbb     C6  10666 -0.11337700  12.010000   ; qtot 355.474958
10667         hc    356    bbb    H11  10667 0.09515400   1.008000   ; qtot 355.570112
10668         hc    356    bbb    H12  10668 0.09515400   1.008000   ; qtot 355.665266
10669         c3    356    bbb     C7  10669 0.21842400  12.010000   ; qtot 355.883690
10670         h1    356    bbb    H13  10670 0.04500300   1.008000   ; qtot 355.928693
10671         h1    356    bbb    H14  10671 0.04500300   1.008000   ; qtot 355.973696
10672         c3    356    bbb     C8  10672 -0.06455200  12.010000   ; qtot 355.909144
10673         h1    356    bbb    H15  10673 0.13554100   1.008000   ; qtot 356.044685
10674         h1    356    bbb    H16  10674 0.13554100   1.008000   ; qtot 356.180226
10675         c3    356    bbb     C9  10675 -0.06455200  12.010000   ; qtot 356.115674
10676         h1    356    bbb    H17  10676 0.13554100   1.008000   ; qtot 356.251215
10677         h1    356    bbb    H18  10677 0.13554100   1.008000   ; qtot 356.386756
10678         os    356    bbb     O1  10678 -0.62587700  16.000000   ; qtot 355.760879
10679         hn    356    bbb    H19  10679 0.23982500   1.008000   ; qtot 356.000704
; residue  357 bbb rtp bbb q 1.0
10680         n4    357    bbb     N1  10680 0.03726400  14.010000   ; qtot 356.037968
10681         c3    357    bbb     C1  10681 -0.07020100  12.010000   ; qtot 355.967767
10682         hx    357    bbb     H1  10682 0.12219000   1.008000   ; qtot 356.089957
10683         hx    357    bbb     H2  10683 0.12219000   1.008000   ; qtot 356.212147
10684         c3    357    bbb     C2  10684 -0.07020100  12.010000   ; qtot 356.141946
10685         hx    357    bbb     H3  10685 0.12219000   1.008000   ; qtot 356.264136
10686         hx    357    bbb     H4  10686 0.12219000   1.008000   ; qtot 356.386326
10687         c3    357    bbb     C3  10687 -0.39007700  12.010000   ; qtot 355.996249
10688         hx    357    bbb     H5  10688 0.14940300   1.008000   ; qtot 356.145652
10689         hx    357    bbb     H6  10689 0.14940300   1.008000   ; qtot 356.295055
10690         c3    357    bbb     C4  10690 0.18057300  12.010000   ; qtot 356.475628
10691         hc    357    bbb     H7  10691 0.01788900   1.008000   ; qtot 356.493517
10692         hc    357    bbb     H8  10692 0.01788900   1.008000   ; qtot 356.511406
10693         c3    357    bbb     C5  10693 -0.11337700  12.010000   ; qtot 356.398029
10694         hc    357    bbb     H9  10694 0.09515400   1.008000   ; qtot 356.493183
10695         hc    357    bbb    H10  10695 0.09515400   1.008000   ; qtot 356.588337
10696         c3    357    bbb     C6  10696 -0.11337700  12.010000   ; qtot 356.474960
10697         hc    357    bbb    H11  10697 0.09515400   1.008000   ; qtot 356.570114
10698         hc    357    bbb    H12  10698 0.09515400   1.008000   ; qtot 356.665268
10699         c3    357    bbb     C7  10699 0.21842400  12.010000   ; qtot 356.883692
10700         h1    357    bbb    H13  10700 0.04500300   1.008000   ; qtot 356.928695
10701         h1    357    bbb    H14  10701 0.04500300   1.008000   ; qtot 356.973698
10702         c3    357    bbb     C8  10702 -0.06455200  12.010000   ; qtot 356.909146
10703         h1    357    bbb    H15  10703 0.13554100   1.008000   ; qtot 357.044687
10704         h1    357    bbb    H16  10704 0.13554100   1.008000   ; qtot 357.180228
10705         c3    357    bbb     C9  10705 -0.06455200  12.010000   ; qtot 357.115676
10706         h1    357    bbb    H17  10706 0.13554100   1.008000   ; qtot 357.251217
10707         h1    357    bbb    H18  10707 0.13554100   1.008000   ; qtot 357.386758
10708         os    357    bbb     O1  10708 -0.62587700  16.000000   ; qtot 356.760881
10709         hn    357    bbb    H19  10709 0.23982500   1.008000   ; qtot 357.000706
; residue  358 bbb rtp bbb q 1.0
10710         n4    358    bbb     N1  10710 0.03726400  14.010000   ; qtot 357.037970
10711         c3    358    bbb     C1  10711 -0.07020100  12.010000   ; qtot 356.967769
10712         hx    358    bbb     H1  10712 0.12219000   1.008000   ; qtot 357.089959
10713         hx    358    bbb     H2  10713 0.12219000   1.008000   ; qtot 357.212149
10714         c3    358    bbb     C2  10714 -0.07020100  12.010000   ; qtot 357.141948
10715         hx    358    bbb     H3  10715 0.12219000   1.008000   ; qtot 357.264138
10716         hx    358    bbb     H4  10716 0.12219000   1.008000   ; qtot 357.386328
10717         c3    358    bbb     C3  10717 -0.39007700  12.010000   ; qtot 356.996251
10718         hx    358    bbb     H5  10718 0.14940300   1.008000   ; qtot 357.145654
10719         hx    358    bbb     H6  10719 0.14940300   1.008000   ; qtot 357.295057
10720         c3    358    bbb     C4  10720 0.18057300  12.010000   ; qtot 357.475630
10721         hc    358    bbb     H7  10721 0.01788900   1.008000   ; qtot 357.493519
10722         hc    358    bbb     H8  10722 0.01788900   1.008000   ; qtot 357.511408
10723         c3    358    bbb     C5  10723 -0.11337700  12.010000   ; qtot 357.398031
10724         hc    358    bbb     H9  10724 0.09515400   1.008000   ; qtot 357.493185
10725         hc    358    bbb    H10  10725 0.09515400   1.008000   ; qtot 357.588339
10726         c3    358    bbb     C6  10726 -0.11337700  12.010000   ; qtot 357.474962
10727         hc    358    bbb    H11  10727 0.09515400   1.008000   ; qtot 357.570116
10728         hc    358    bbb    H12  10728 0.09515400   1.008000   ; qtot 357.665270
10729         c3    358    bbb     C7  10729 0.21842400  12.010000   ; qtot 357.883694
10730         h1    358    bbb    H13  10730 0.04500300   1.008000   ; qtot 357.928697
10731         h1    358    bbb    H14  10731 0.04500300   1.008000   ; qtot 357.973700
10732         c3    358    bbb     C8  10732 -0.06455200  12.010000   ; qtot 357.909148
10733         h1    358    bbb    H15  10733 0.13554100   1.008000   ; qtot 358.044689
10734         h1    358    bbb    H16  10734 0.13554100   1.008000   ; qtot 358.180230
10735         c3    358    bbb     C9  10735 -0.06455200  12.010000   ; qtot 358.115678
10736         h1    358    bbb    H17  10736 0.13554100   1.008000   ; qtot 358.251219
10737         h1    358    bbb    H18  10737 0.13554100   1.008000   ; qtot 358.386760
10738         os    358    bbb     O1  10738 -0.62587700  16.000000   ; qtot 357.760883
10739         hn    358    bbb    H19  10739 0.23982500   1.008000   ; qtot 358.000708
; residue  359 bbb rtp bbb q 1.0
10740         n4    359    bbb     N1  10740 0.03726400  14.010000   ; qtot 358.037972
10741         c3    359    bbb     C1  10741 -0.07020100  12.010000   ; qtot 357.967771
10742         hx    359    bbb     H1  10742 0.12219000   1.008000   ; qtot 358.089961
10743         hx    359    bbb     H2  10743 0.12219000   1.008000   ; qtot 358.212151
10744         c3    359    bbb     C2  10744 -0.07020100  12.010000   ; qtot 358.141950
10745         hx    359    bbb     H3  10745 0.12219000   1.008000   ; qtot 358.264140
10746         hx    359    bbb     H4  10746 0.12219000   1.008000   ; qtot 358.386330
10747         c3    359    bbb     C3  10747 -0.39007700  12.010000   ; qtot 357.996253
10748         hx    359    bbb     H5  10748 0.14940300   1.008000   ; qtot 358.145656
10749         hx    359    bbb     H6  10749 0.14940300   1.008000   ; qtot 358.295059
10750         c3    359    bbb     C4  10750 0.18057300  12.010000   ; qtot 358.475632
10751         hc    359    bbb     H7  10751 0.01788900   1.008000   ; qtot 358.493521
10752         hc    359    bbb     H8  10752 0.01788900   1.008000   ; qtot 358.511410
10753         c3    359    bbb     C5  10753 -0.11337700  12.010000   ; qtot 358.398033
10754         hc    359    bbb     H9  10754 0.09515400   1.008000   ; qtot 358.493187
10755         hc    359    bbb    H10  10755 0.09515400   1.008000   ; qtot 358.588341
10756         c3    359    bbb     C6  10756 -0.11337700  12.010000   ; qtot 358.474964
10757         hc    359    bbb    H11  10757 0.09515400   1.008000   ; qtot 358.570118
10758         hc    359    bbb    H12  10758 0.09515400   1.008000   ; qtot 358.665272
10759         c3    359    bbb     C7  10759 0.21842400  12.010000   ; qtot 358.883696
10760         h1    359    bbb    H13  10760 0.04500300   1.008000   ; qtot 358.928699
10761         h1    359    bbb    H14  10761 0.04500300   1.008000   ; qtot 358.973702
10762         c3    359    bbb     C8  10762 -0.06455200  12.010000   ; qtot 358.909150
10763         h1    359    bbb    H15  10763 0.13554100   1.008000   ; qtot 359.044691
10764         h1    359    bbb    H16  10764 0.13554100   1.008000   ; qtot 359.180232
10765         c3    359    bbb     C9  10765 -0.06455200  12.010000   ; qtot 359.115680
10766         h1    359    bbb    H17  10766 0.13554100   1.008000   ; qtot 359.251221
10767         h1    359    bbb    H18  10767 0.13554100   1.008000   ; qtot 359.386762
10768         os    359    bbb     O1  10768 -0.62587700  16.000000   ; qtot 358.760885
10769         hn    359    bbb    H19  10769 0.23982500   1.008000   ; qtot 359.000710
; residue  360 bbb rtp bbb q 1.0
10770         n4    360    bbb     N1  10770 0.03726400  14.010000   ; qtot 359.037974
10771         c3    360    bbb     C1  10771 -0.07020100  12.010000   ; qtot 358.967773
10772         hx    360    bbb     H1  10772 0.12219000   1.008000   ; qtot 359.089963
10773         hx    360    bbb     H2  10773 0.12219000   1.008000   ; qtot 359.212153
10774         c3    360    bbb     C2  10774 -0.07020100  12.010000   ; qtot 359.141952
10775         hx    360    bbb     H3  10775 0.12219000   1.008000   ; qtot 359.264142
10776         hx    360    bbb     H4  10776 0.12219000   1.008000   ; qtot 359.386332
10777         c3    360    bbb     C3  10777 -0.39007700  12.010000   ; qtot 358.996255
10778         hx    360    bbb     H5  10778 0.14940300   1.008000   ; qtot 359.145658
10779         hx    360    bbb     H6  10779 0.14940300   1.008000   ; qtot 359.295061
10780         c3    360    bbb     C4  10780 0.18057300  12.010000   ; qtot 359.475634
10781         hc    360    bbb     H7  10781 0.01788900   1.008000   ; qtot 359.493523
10782         hc    360    bbb     H8  10782 0.01788900   1.008000   ; qtot 359.511412
10783         c3    360    bbb     C5  10783 -0.11337700  12.010000   ; qtot 359.398035
10784         hc    360    bbb     H9  10784 0.09515400   1.008000   ; qtot 359.493189
10785         hc    360    bbb    H10  10785 0.09515400   1.008000   ; qtot 359.588343
10786         c3    360    bbb     C6  10786 -0.11337700  12.010000   ; qtot 359.474966
10787         hc    360    bbb    H11  10787 0.09515400   1.008000   ; qtot 359.570120
10788         hc    360    bbb    H12  10788 0.09515400   1.008000   ; qtot 359.665274
10789         c3    360    bbb     C7  10789 0.21842400  12.010000   ; qtot 359.883698
10790         h1    360    bbb    H13  10790 0.04500300   1.008000   ; qtot 359.928701
10791         h1    360    bbb    H14  10791 0.04500300   1.008000   ; qtot 359.973704
10792         c3    360    bbb     C8  10792 -0.06455200  12.010000   ; qtot 359.909152
10793         h1    360    bbb    H15  10793 0.13554100   1.008000   ; qtot 360.044693
10794         h1    360    bbb    H16  10794 0.13554100   1.008000   ; qtot 360.180234
10795         c3    360    bbb     C9  10795 -0.06455200  12.010000   ; qtot 360.115682
10796         h1    360    bbb    H17  10796 0.13554100   1.008000   ; qtot 360.251223
10797         h1    360    bbb    H18  10797 0.13554100   1.008000   ; qtot 360.386764
10798         os    360    bbb     O1  10798 -0.62587700  16.000000   ; qtot 359.760887
10799         hn    360    bbb    H19  10799 0.23982500   1.008000   ; qtot 360.000712
; residue  361 bbb rtp bbb q 1.0
10800         n4    361    bbb     N1  10800 0.03726400  14.010000   ; qtot 360.037976
10801         c3    361    bbb     C1  10801 -0.07020100  12.010000   ; qtot 359.967775
10802         hx    361    bbb     H1  10802 0.12219000   1.008000   ; qtot 360.089965
10803         hx    361    bbb     H2  10803 0.12219000   1.008000   ; qtot 360.212155
10804         c3    361    bbb     C2  10804 -0.07020100  12.010000   ; qtot 360.141954
10805         hx    361    bbb     H3  10805 0.12219000   1.008000   ; qtot 360.264144
10806         hx    361    bbb     H4  10806 0.12219000   1.008000   ; qtot 360.386334
10807         c3    361    bbb     C3  10807 -0.39007700  12.010000   ; qtot 359.996257
10808         hx    361    bbb     H5  10808 0.14940300   1.008000   ; qtot 360.145660
10809         hx    361    bbb     H6  10809 0.14940300   1.008000   ; qtot 360.295063
10810         c3    361    bbb     C4  10810 0.18057300  12.010000   ; qtot 360.475636
10811         hc    361    bbb     H7  10811 0.01788900   1.008000   ; qtot 360.493525
10812         hc    361    bbb     H8  10812 0.01788900   1.008000   ; qtot 360.511414
10813         c3    361    bbb     C5  10813 -0.11337700  12.010000   ; qtot 360.398037
10814         hc    361    bbb     H9  10814 0.09515400   1.008000   ; qtot 360.493191
10815         hc    361    bbb    H10  10815 0.09515400   1.008000   ; qtot 360.588345
10816         c3    361    bbb     C6  10816 -0.11337700  12.010000   ; qtot 360.474968
10817         hc    361    bbb    H11  10817 0.09515400   1.008000   ; qtot 360.570122
10818         hc    361    bbb    H12  10818 0.09515400   1.008000   ; qtot 360.665276
10819         c3    361    bbb     C7  10819 0.21842400  12.010000   ; qtot 360.883700
10820         h1    361    bbb    H13  10820 0.04500300   1.008000   ; qtot 360.928703
10821         h1    361    bbb    H14  10821 0.04500300   1.008000   ; qtot 360.973706
10822         c3    361    bbb     C8  10822 -0.06455200  12.010000   ; qtot 360.909154
10823         h1    361    bbb    H15  10823 0.13554100   1.008000   ; qtot 361.044695
10824         h1    361    bbb    H16  10824 0.13554100   1.008000   ; qtot 361.180236
10825         c3    361    bbb     C9  10825 -0.06455200  12.010000   ; qtot 361.115684
10826         h1    361    bbb    H17  10826 0.13554100   1.008000   ; qtot 361.251225
10827         h1    361    bbb    H18  10827 0.13554100   1.008000   ; qtot 361.386766
10828         os    361    bbb     O1  10828 -0.62587700  16.000000   ; qtot 360.760889
10829         hn    361    bbb    H19  10829 0.23982500   1.008000   ; qtot 361.000714
; residue  362 bbb rtp bbb q 1.0
10830         n4    362    bbb     N1  10830 0.03726400  14.010000   ; qtot 361.037978
10831         c3    362    bbb     C1  10831 -0.07020100  12.010000   ; qtot 360.967777
10832         hx    362    bbb     H1  10832 0.12219000   1.008000   ; qtot 361.089967
10833         hx    362    bbb     H2  10833 0.12219000   1.008000   ; qtot 361.212157
10834         c3    362    bbb     C2  10834 -0.07020100  12.010000   ; qtot 361.141956
10835         hx    362    bbb     H3  10835 0.12219000   1.008000   ; qtot 361.264146
10836         hx    362    bbb     H4  10836 0.12219000   1.008000   ; qtot 361.386336
10837         c3    362    bbb     C3  10837 -0.39007700  12.010000   ; qtot 360.996259
10838         hx    362    bbb     H5  10838 0.14940300   1.008000   ; qtot 361.145662
10839         hx    362    bbb     H6  10839 0.14940300   1.008000   ; qtot 361.295065
10840         c3    362    bbb     C4  10840 0.18057300  12.010000   ; qtot 361.475638
10841         hc    362    bbb     H7  10841 0.01788900   1.008000   ; qtot 361.493527
10842         hc    362    bbb     H8  10842 0.01788900   1.008000   ; qtot 361.511416
10843         c3    362    bbb     C5  10843 -0.11337700  12.010000   ; qtot 361.398039
10844         hc    362    bbb     H9  10844 0.09515400   1.008000   ; qtot 361.493193
10845         hc    362    bbb    H10  10845 0.09515400   1.008000   ; qtot 361.588347
10846         c3    362    bbb     C6  10846 -0.11337700  12.010000   ; qtot 361.474970
10847         hc    362    bbb    H11  10847 0.09515400   1.008000   ; qtot 361.570124
10848         hc    362    bbb    H12  10848 0.09515400   1.008000   ; qtot 361.665278
10849         c3    362    bbb     C7  10849 0.21842400  12.010000   ; qtot 361.883702
10850         h1    362    bbb    H13  10850 0.04500300   1.008000   ; qtot 361.928705
10851         h1    362    bbb    H14  10851 0.04500300   1.008000   ; qtot 361.973708
10852         c3    362    bbb     C8  10852 -0.06455200  12.010000   ; qtot 361.909156
10853         h1    362    bbb    H15  10853 0.13554100   1.008000   ; qtot 362.044697
10854         h1    362    bbb    H16  10854 0.13554100   1.008000   ; qtot 362.180238
10855         c3    362    bbb     C9  10855 -0.06455200  12.010000   ; qtot 362.115686
10856         h1    362    bbb    H17  10856 0.13554100   1.008000   ; qtot 362.251227
10857         h1    362    bbb    H18  10857 0.13554100   1.008000   ; qtot 362.386768
10858         os    362    bbb     O1  10858 -0.62587700  16.000000   ; qtot 361.760891
10859         hn    362    bbb    H19  10859 0.23982500   1.008000   ; qtot 362.000716
; residue  363 bbb rtp bbb q 1.0
10860         n4    363    bbb     N1  10860 0.03726400  14.010000   ; qtot 362.037980
10861         c3    363    bbb     C1  10861 -0.07020100  12.010000   ; qtot 361.967779
10862         hx    363    bbb     H1  10862 0.12219000   1.008000   ; qtot 362.089969
10863         hx    363    bbb     H2  10863 0.12219000   1.008000   ; qtot 362.212159
10864         c3    363    bbb     C2  10864 -0.07020100  12.010000   ; qtot 362.141958
10865         hx    363    bbb     H3  10865 0.12219000   1.008000   ; qtot 362.264148
10866         hx    363    bbb     H4  10866 0.12219000   1.008000   ; qtot 362.386338
10867         c3    363    bbb     C3  10867 -0.39007700  12.010000   ; qtot 361.996261
10868         hx    363    bbb     H5  10868 0.14940300   1.008000   ; qtot 362.145664
10869         hx    363    bbb     H6  10869 0.14940300   1.008000   ; qtot 362.295067
10870         c3    363    bbb     C4  10870 0.18057300  12.010000   ; qtot 362.475640
10871         hc    363    bbb     H7  10871 0.01788900   1.008000   ; qtot 362.493529
10872         hc    363    bbb     H8  10872 0.01788900   1.008000   ; qtot 362.511418
10873         c3    363    bbb     C5  10873 -0.11337700  12.010000   ; qtot 362.398041
10874         hc    363    bbb     H9  10874 0.09515400   1.008000   ; qtot 362.493195
10875         hc    363    bbb    H10  10875 0.09515400   1.008000   ; qtot 362.588349
10876         c3    363    bbb     C6  10876 -0.11337700  12.010000   ; qtot 362.474972
10877         hc    363    bbb    H11  10877 0.09515400   1.008000   ; qtot 362.570126
10878         hc    363    bbb    H12  10878 0.09515400   1.008000   ; qtot 362.665280
10879         c3    363    bbb     C7  10879 0.21842400  12.010000   ; qtot 362.883704
10880         h1    363    bbb    H13  10880 0.04500300   1.008000   ; qtot 362.928707
10881         h1    363    bbb    H14  10881 0.04500300   1.008000   ; qtot 362.973710
10882         c3    363    bbb     C8  10882 -0.06455200  12.010000   ; qtot 362.909158
10883         h1    363    bbb    H15  10883 0.13554100   1.008000   ; qtot 363.044699
10884         h1    363    bbb    H16  10884 0.13554100   1.008000   ; qtot 363.180240
10885         c3    363    bbb     C9  10885 -0.06455200  12.010000   ; qtot 363.115688
10886         h1    363    bbb    H17  10886 0.13554100   1.008000   ; qtot 363.251229
10887         h1    363    bbb    H18  10887 0.13554100   1.008000   ; qtot 363.386770
10888         os    363    bbb     O1  10888 -0.62587700  16.000000   ; qtot 362.760893
10889         hn    363    bbb    H19  10889 0.23982500   1.008000   ; qtot 363.000718
; residue  364 bbb rtp bbb q 1.0
10890         n4    364    bbb     N1  10890 0.03726400  14.010000   ; qtot 363.037982
10891         c3    364    bbb     C1  10891 -0.07020100  12.010000   ; qtot 362.967781
10892         hx    364    bbb     H1  10892 0.12219000   1.008000   ; qtot 363.089971
10893         hx    364    bbb     H2  10893 0.12219000   1.008000   ; qtot 363.212161
10894         c3    364    bbb     C2  10894 -0.07020100  12.010000   ; qtot 363.141960
10895         hx    364    bbb     H3  10895 0.12219000   1.008000   ; qtot 363.264150
10896         hx    364    bbb     H4  10896 0.12219000   1.008000   ; qtot 363.386340
10897         c3    364    bbb     C3  10897 -0.39007700  12.010000   ; qtot 362.996263
10898         hx    364    bbb     H5  10898 0.14940300   1.008000   ; qtot 363.145666
10899         hx    364    bbb     H6  10899 0.14940300   1.008000   ; qtot 363.295069
10900         c3    364    bbb     C4  10900 0.18057300  12.010000   ; qtot 363.475642
10901         hc    364    bbb     H7  10901 0.01788900   1.008000   ; qtot 363.493531
10902         hc    364    bbb     H8  10902 0.01788900   1.008000   ; qtot 363.511420
10903         c3    364    bbb     C5  10903 -0.11337700  12.010000   ; qtot 363.398043
10904         hc    364    bbb     H9  10904 0.09515400   1.008000   ; qtot 363.493197
10905         hc    364    bbb    H10  10905 0.09515400   1.008000   ; qtot 363.588351
10906         c3    364    bbb     C6  10906 -0.11337700  12.010000   ; qtot 363.474974
10907         hc    364    bbb    H11  10907 0.09515400   1.008000   ; qtot 363.570128
10908         hc    364    bbb    H12  10908 0.09515400   1.008000   ; qtot 363.665282
10909         c3    364    bbb     C7  10909 0.21842400  12.010000   ; qtot 363.883706
10910         h1    364    bbb    H13  10910 0.04500300   1.008000   ; qtot 363.928709
10911         h1    364    bbb    H14  10911 0.04500300   1.008000   ; qtot 363.973712
10912         c3    364    bbb     C8  10912 -0.06455200  12.010000   ; qtot 363.909160
10913         h1    364    bbb    H15  10913 0.13554100   1.008000   ; qtot 364.044701
10914         h1    364    bbb    H16  10914 0.13554100   1.008000   ; qtot 364.180242
10915         c3    364    bbb     C9  10915 -0.06455200  12.010000   ; qtot 364.115690
10916         h1    364    bbb    H17  10916 0.13554100   1.008000   ; qtot 364.251231
10917         h1    364    bbb    H18  10917 0.13554100   1.008000   ; qtot 364.386772
10918         os    364    bbb     O1  10918 -0.62587700  16.000000   ; qtot 363.760895
10919         hn    364    bbb    H19  10919 0.23982500   1.008000   ; qtot 364.000720
; residue  365 bbb rtp bbb q 1.0
10920         n4    365    bbb     N1  10920 0.03726400  14.010000   ; qtot 364.037984
10921         c3    365    bbb     C1  10921 -0.07020100  12.010000   ; qtot 363.967783
10922         hx    365    bbb     H1  10922 0.12219000   1.008000   ; qtot 364.089973
10923         hx    365    bbb     H2  10923 0.12219000   1.008000   ; qtot 364.212163
10924         c3    365    bbb     C2  10924 -0.07020100  12.010000   ; qtot 364.141962
10925         hx    365    bbb     H3  10925 0.12219000   1.008000   ; qtot 364.264152
10926         hx    365    bbb     H4  10926 0.12219000   1.008000   ; qtot 364.386342
10927         c3    365    bbb     C3  10927 -0.39007700  12.010000   ; qtot 363.996265
10928         hx    365    bbb     H5  10928 0.14940300   1.008000   ; qtot 364.145668
10929         hx    365    bbb     H6  10929 0.14940300   1.008000   ; qtot 364.295071
10930         c3    365    bbb     C4  10930 0.18057300  12.010000   ; qtot 364.475644
10931         hc    365    bbb     H7  10931 0.01788900   1.008000   ; qtot 364.493533
10932         hc    365    bbb     H8  10932 0.01788900   1.008000   ; qtot 364.511422
10933         c3    365    bbb     C5  10933 -0.11337700  12.010000   ; qtot 364.398045
10934         hc    365    bbb     H9  10934 0.09515400   1.008000   ; qtot 364.493199
10935         hc    365    bbb    H10  10935 0.09515400   1.008000   ; qtot 364.588353
10936         c3    365    bbb     C6  10936 -0.11337700  12.010000   ; qtot 364.474976
10937         hc    365    bbb    H11  10937 0.09515400   1.008000   ; qtot 364.570130
10938         hc    365    bbb    H12  10938 0.09515400   1.008000   ; qtot 364.665284
10939         c3    365    bbb     C7  10939 0.21842400  12.010000   ; qtot 364.883708
10940         h1    365    bbb    H13  10940 0.04500300   1.008000   ; qtot 364.928711
10941         h1    365    bbb    H14  10941 0.04500300   1.008000   ; qtot 364.973714
10942         c3    365    bbb     C8  10942 -0.06455200  12.010000   ; qtot 364.909162
10943         h1    365    bbb    H15  10943 0.13554100   1.008000   ; qtot 365.044703
10944         h1    365    bbb    H16  10944 0.13554100   1.008000   ; qtot 365.180244
10945         c3    365    bbb     C9  10945 -0.06455200  12.010000   ; qtot 365.115692
10946         h1    365    bbb    H17  10946 0.13554100   1.008000   ; qtot 365.251233
10947         h1    365    bbb    H18  10947 0.13554100   1.008000   ; qtot 365.386774
10948         os    365    bbb     O1  10948 -0.62587700  16.000000   ; qtot 364.760897
10949         hn    365    bbb    H19  10949 0.23982500   1.008000   ; qtot 365.000722
; residue  366 bbb rtp bbb q 1.0
10950         n4    366    bbb     N1  10950 0.03726400  14.010000   ; qtot 365.037986
10951         c3    366    bbb     C1  10951 -0.07020100  12.010000   ; qtot 364.967785
10952         hx    366    bbb     H1  10952 0.12219000   1.008000   ; qtot 365.089975
10953         hx    366    bbb     H2  10953 0.12219000   1.008000   ; qtot 365.212165
10954         c3    366    bbb     C2  10954 -0.07020100  12.010000   ; qtot 365.141964
10955         hx    366    bbb     H3  10955 0.12219000   1.008000   ; qtot 365.264154
10956         hx    366    bbb     H4  10956 0.12219000   1.008000   ; qtot 365.386344
10957         c3    366    bbb     C3  10957 -0.39007700  12.010000   ; qtot 364.996267
10958         hx    366    bbb     H5  10958 0.14940300   1.008000   ; qtot 365.145670
10959         hx    366    bbb     H6  10959 0.14940300   1.008000   ; qtot 365.295073
10960         c3    366    bbb     C4  10960 0.18057300  12.010000   ; qtot 365.475646
10961         hc    366    bbb     H7  10961 0.01788900   1.008000   ; qtot 365.493535
10962         hc    366    bbb     H8  10962 0.01788900   1.008000   ; qtot 365.511424
10963         c3    366    bbb     C5  10963 -0.11337700  12.010000   ; qtot 365.398047
10964         hc    366    bbb     H9  10964 0.09515400   1.008000   ; qtot 365.493201
10965         hc    366    bbb    H10  10965 0.09515400   1.008000   ; qtot 365.588355
10966         c3    366    bbb     C6  10966 -0.11337700  12.010000   ; qtot 365.474978
10967         hc    366    bbb    H11  10967 0.09515400   1.008000   ; qtot 365.570132
10968         hc    366    bbb    H12  10968 0.09515400   1.008000   ; qtot 365.665286
10969         c3    366    bbb     C7  10969 0.21842400  12.010000   ; qtot 365.883710
10970         h1    366    bbb    H13  10970 0.04500300   1.008000   ; qtot 365.928713
10971         h1    366    bbb    H14  10971 0.04500300   1.008000   ; qtot 365.973716
10972         c3    366    bbb     C8  10972 -0.06455200  12.010000   ; qtot 365.909164
10973         h1    366    bbb    H15  10973 0.13554100   1.008000   ; qtot 366.044705
10974         h1    366    bbb    H16  10974 0.13554100   1.008000   ; qtot 366.180246
10975         c3    366    bbb     C9  10975 -0.06455200  12.010000   ; qtot 366.115694
10976         h1    366    bbb    H17  10976 0.13554100   1.008000   ; qtot 366.251235
10977         h1    366    bbb    H18  10977 0.13554100   1.008000   ; qtot 366.386776
10978         os    366    bbb     O1  10978 -0.62587700  16.000000   ; qtot 365.760899
10979         hn    366    bbb    H19  10979 0.23982500   1.008000   ; qtot 366.000724
; residue  367 bbb rtp bbb q 1.0
10980         n4    367    bbb     N1  10980 0.03726400  14.010000   ; qtot 366.037988
10981         c3    367    bbb     C1  10981 -0.07020100  12.010000   ; qtot 365.967787
10982         hx    367    bbb     H1  10982 0.12219000   1.008000   ; qtot 366.089977
10983         hx    367    bbb     H2  10983 0.12219000   1.008000   ; qtot 366.212167
10984         c3    367    bbb     C2  10984 -0.07020100  12.010000   ; qtot 366.141966
10985         hx    367    bbb     H3  10985 0.12219000   1.008000   ; qtot 366.264156
10986         hx    367    bbb     H4  10986 0.12219000   1.008000   ; qtot 366.386346
10987         c3    367    bbb     C3  10987 -0.39007700  12.010000   ; qtot 365.996269
10988         hx    367    bbb     H5  10988 0.14940300   1.008000   ; qtot 366.145672
10989         hx    367    bbb     H6  10989 0.14940300   1.008000   ; qtot 366.295075
10990         c3    367    bbb     C4  10990 0.18057300  12.010000   ; qtot 366.475648
10991         hc    367    bbb     H7  10991 0.01788900   1.008000   ; qtot 366.493537
10992         hc    367    bbb     H8  10992 0.01788900   1.008000   ; qtot 366.511426
10993         c3    367    bbb     C5  10993 -0.11337700  12.010000   ; qtot 366.398049
10994         hc    367    bbb     H9  10994 0.09515400   1.008000   ; qtot 366.493203
10995         hc    367    bbb    H10  10995 0.09515400   1.008000   ; qtot 366.588357
10996         c3    367    bbb     C6  10996 -0.11337700  12.010000   ; qtot 366.474980
10997         hc    367    bbb    H11  10997 0.09515400   1.008000   ; qtot 366.570134
10998         hc    367    bbb    H12  10998 0.09515400   1.008000   ; qtot 366.665288
10999         c3    367    bbb     C7  10999 0.21842400  12.010000   ; qtot 366.883712
11000         h1    367    bbb    H13  11000 0.04500300   1.008000   ; qtot 366.928715
11001         h1    367    bbb    H14  11001 0.04500300   1.008000   ; qtot 366.973718
11002         c3    367    bbb     C8  11002 -0.06455200  12.010000   ; qtot 366.909166
11003         h1    367    bbb    H15  11003 0.13554100   1.008000   ; qtot 367.044707
11004         h1    367    bbb    H16  11004 0.13554100   1.008000   ; qtot 367.180248
11005         c3    367    bbb     C9  11005 -0.06455200  12.010000   ; qtot 367.115696
11006         h1    367    bbb    H17  11006 0.13554100   1.008000   ; qtot 367.251237
11007         h1    367    bbb    H18  11007 0.13554100   1.008000   ; qtot 367.386778
11008         os    367    bbb     O1  11008 -0.62587700  16.000000   ; qtot 366.760901
11009         hn    367    bbb    H19  11009 0.23982500   1.008000   ; qtot 367.000726
; residue  368 bbb rtp bbb q 1.0
11010         n4    368    bbb     N1  11010 0.03726400  14.010000   ; qtot 367.037990
11011         c3    368    bbb     C1  11011 -0.07020100  12.010000   ; qtot 366.967789
11012         hx    368    bbb     H1  11012 0.12219000   1.008000   ; qtot 367.089979
11013         hx    368    bbb     H2  11013 0.12219000   1.008000   ; qtot 367.212169
11014         c3    368    bbb     C2  11014 -0.07020100  12.010000   ; qtot 367.141968
11015         hx    368    bbb     H3  11015 0.12219000   1.008000   ; qtot 367.264158
11016         hx    368    bbb     H4  11016 0.12219000   1.008000   ; qtot 367.386348
11017         c3    368    bbb     C3  11017 -0.39007700  12.010000   ; qtot 366.996271
11018         hx    368    bbb     H5  11018 0.14940300   1.008000   ; qtot 367.145674
11019         hx    368    bbb     H6  11019 0.14940300   1.008000   ; qtot 367.295077
11020         c3    368    bbb     C4  11020 0.18057300  12.010000   ; qtot 367.475650
11021         hc    368    bbb     H7  11021 0.01788900   1.008000   ; qtot 367.493539
11022         hc    368    bbb     H8  11022 0.01788900   1.008000   ; qtot 367.511428
11023         c3    368    bbb     C5  11023 -0.11337700  12.010000   ; qtot 367.398051
11024         hc    368    bbb     H9  11024 0.09515400   1.008000   ; qtot 367.493205
11025         hc    368    bbb    H10  11025 0.09515400   1.008000   ; qtot 367.588359
11026         c3    368    bbb     C6  11026 -0.11337700  12.010000   ; qtot 367.474982
11027         hc    368    bbb    H11  11027 0.09515400   1.008000   ; qtot 367.570136
11028         hc    368    bbb    H12  11028 0.09515400   1.008000   ; qtot 367.665290
11029         c3    368    bbb     C7  11029 0.21842400  12.010000   ; qtot 367.883714
11030         h1    368    bbb    H13  11030 0.04500300   1.008000   ; qtot 367.928717
11031         h1    368    bbb    H14  11031 0.04500300   1.008000   ; qtot 367.973720
11032         c3    368    bbb     C8  11032 -0.06455200  12.010000   ; qtot 367.909168
11033         h1    368    bbb    H15  11033 0.13554100   1.008000   ; qtot 368.044709
11034         h1    368    bbb    H16  11034 0.13554100   1.008000   ; qtot 368.180250
11035         c3    368    bbb     C9  11035 -0.06455200  12.010000   ; qtot 368.115698
11036         h1    368    bbb    H17  11036 0.13554100   1.008000   ; qtot 368.251239
11037         h1    368    bbb    H18  11037 0.13554100   1.008000   ; qtot 368.386780
11038         os    368    bbb     O1  11038 -0.62587700  16.000000   ; qtot 367.760903
11039         hn    368    bbb    H19  11039 0.23982500   1.008000   ; qtot 368.000728
; residue  369 bbb rtp bbb q 1.0
11040         n4    369    bbb     N1  11040 0.03726400  14.010000   ; qtot 368.037992
11041         c3    369    bbb     C1  11041 -0.07020100  12.010000   ; qtot 367.967791
11042         hx    369    bbb     H1  11042 0.12219000   1.008000   ; qtot 368.089981
11043         hx    369    bbb     H2  11043 0.12219000   1.008000   ; qtot 368.212171
11044         c3    369    bbb     C2  11044 -0.07020100  12.010000   ; qtot 368.141970
11045         hx    369    bbb     H3  11045 0.12219000   1.008000   ; qtot 368.264160
11046         hx    369    bbb     H4  11046 0.12219000   1.008000   ; qtot 368.386350
11047         c3    369    bbb     C3  11047 -0.39007700  12.010000   ; qtot 367.996273
11048         hx    369    bbb     H5  11048 0.14940300   1.008000   ; qtot 368.145676
11049         hx    369    bbb     H6  11049 0.14940300   1.008000   ; qtot 368.295079
11050         c3    369    bbb     C4  11050 0.18057300  12.010000   ; qtot 368.475652
11051         hc    369    bbb     H7  11051 0.01788900   1.008000   ; qtot 368.493541
11052         hc    369    bbb     H8  11052 0.01788900   1.008000   ; qtot 368.511430
11053         c3    369    bbb     C5  11053 -0.11337700  12.010000   ; qtot 368.398053
11054         hc    369    bbb     H9  11054 0.09515400   1.008000   ; qtot 368.493207
11055         hc    369    bbb    H10  11055 0.09515400   1.008000   ; qtot 368.588361
11056         c3    369    bbb     C6  11056 -0.11337700  12.010000   ; qtot 368.474984
11057         hc    369    bbb    H11  11057 0.09515400   1.008000   ; qtot 368.570138
11058         hc    369    bbb    H12  11058 0.09515400   1.008000   ; qtot 368.665292
11059         c3    369    bbb     C7  11059 0.21842400  12.010000   ; qtot 368.883716
11060         h1    369    bbb    H13  11060 0.04500300   1.008000   ; qtot 368.928719
11061         h1    369    bbb    H14  11061 0.04500300   1.008000   ; qtot 368.973722
11062         c3    369    bbb     C8  11062 -0.06455200  12.010000   ; qtot 368.909170
11063         h1    369    bbb    H15  11063 0.13554100   1.008000   ; qtot 369.044711
11064         h1    369    bbb    H16  11064 0.13554100   1.008000   ; qtot 369.180252
11065         c3    369    bbb     C9  11065 -0.06455200  12.010000   ; qtot 369.115700
11066         h1    369    bbb    H17  11066 0.13554100   1.008000   ; qtot 369.251241
11067         h1    369    bbb    H18  11067 0.13554100   1.008000   ; qtot 369.386782
11068         os    369    bbb     O1  11068 -0.62587700  16.000000   ; qtot 368.760905
11069         hn    369    bbb    H19  11069 0.23982500   1.008000   ; qtot 369.000730
; residue  370 bbb rtp bbb q 1.0
11070         n4    370    bbb     N1  11070 0.03726400  14.010000   ; qtot 369.037994
11071         c3    370    bbb     C1  11071 -0.07020100  12.010000   ; qtot 368.967793
11072         hx    370    bbb     H1  11072 0.12219000   1.008000   ; qtot 369.089983
11073         hx    370    bbb     H2  11073 0.12219000   1.008000   ; qtot 369.212173
11074         c3    370    bbb     C2  11074 -0.07020100  12.010000   ; qtot 369.141972
11075         hx    370    bbb     H3  11075 0.12219000   1.008000   ; qtot 369.264162
11076         hx    370    bbb     H4  11076 0.12219000   1.008000   ; qtot 369.386352
11077         c3    370    bbb     C3  11077 -0.39007700  12.010000   ; qtot 368.996275
11078         hx    370    bbb     H5  11078 0.14940300   1.008000   ; qtot 369.145678
11079         hx    370    bbb     H6  11079 0.14940300   1.008000   ; qtot 369.295081
11080         c3    370    bbb     C4  11080 0.18057300  12.010000   ; qtot 369.475654
11081         hc    370    bbb     H7  11081 0.01788900   1.008000   ; qtot 369.493543
11082         hc    370    bbb     H8  11082 0.01788900   1.008000   ; qtot 369.511432
11083         c3    370    bbb     C5  11083 -0.11337700  12.010000   ; qtot 369.398055
11084         hc    370    bbb     H9  11084 0.09515400   1.008000   ; qtot 369.493209
11085         hc    370    bbb    H10  11085 0.09515400   1.008000   ; qtot 369.588363
11086         c3    370    bbb     C6  11086 -0.11337700  12.010000   ; qtot 369.474986
11087         hc    370    bbb    H11  11087 0.09515400   1.008000   ; qtot 369.570140
11088         hc    370    bbb    H12  11088 0.09515400   1.008000   ; qtot 369.665294
11089         c3    370    bbb     C7  11089 0.21842400  12.010000   ; qtot 369.883718
11090         h1    370    bbb    H13  11090 0.04500300   1.008000   ; qtot 369.928721
11091         h1    370    bbb    H14  11091 0.04500300   1.008000   ; qtot 369.973724
11092         c3    370    bbb     C8  11092 -0.06455200  12.010000   ; qtot 369.909172
11093         h1    370    bbb    H15  11093 0.13554100   1.008000   ; qtot 370.044713
11094         h1    370    bbb    H16  11094 0.13554100   1.008000   ; qtot 370.180254
11095         c3    370    bbb     C9  11095 -0.06455200  12.010000   ; qtot 370.115702
11096         h1    370    bbb    H17  11096 0.13554100   1.008000   ; qtot 370.251243
11097         h1    370    bbb    H18  11097 0.13554100   1.008000   ; qtot 370.386784
11098         os    370    bbb     O1  11098 -0.62587700  16.000000   ; qtot 369.760907
11099         hn    370    bbb    H19  11099 0.23982500   1.008000   ; qtot 370.000732
; residue  371 bbb rtp bbb q 1.0
11100         n4    371    bbb     N1  11100 0.03726400  14.010000   ; qtot 370.037996
11101         c3    371    bbb     C1  11101 -0.07020100  12.010000   ; qtot 369.967795
11102         hx    371    bbb     H1  11102 0.12219000   1.008000   ; qtot 370.089985
11103         hx    371    bbb     H2  11103 0.12219000   1.008000   ; qtot 370.212175
11104         c3    371    bbb     C2  11104 -0.07020100  12.010000   ; qtot 370.141974
11105         hx    371    bbb     H3  11105 0.12219000   1.008000   ; qtot 370.264164
11106         hx    371    bbb     H4  11106 0.12219000   1.008000   ; qtot 370.386354
11107         c3    371    bbb     C3  11107 -0.39007700  12.010000   ; qtot 369.996277
11108         hx    371    bbb     H5  11108 0.14940300   1.008000   ; qtot 370.145680
11109         hx    371    bbb     H6  11109 0.14940300   1.008000   ; qtot 370.295083
11110         c3    371    bbb     C4  11110 0.18057300  12.010000   ; qtot 370.475656
11111         hc    371    bbb     H7  11111 0.01788900   1.008000   ; qtot 370.493545
11112         hc    371    bbb     H8  11112 0.01788900   1.008000   ; qtot 370.511434
11113         c3    371    bbb     C5  11113 -0.11337700  12.010000   ; qtot 370.398057
11114         hc    371    bbb     H9  11114 0.09515400   1.008000   ; qtot 370.493211
11115         hc    371    bbb    H10  11115 0.09515400   1.008000   ; qtot 370.588365
11116         c3    371    bbb     C6  11116 -0.11337700  12.010000   ; qtot 370.474988
11117         hc    371    bbb    H11  11117 0.09515400   1.008000   ; qtot 370.570142
11118         hc    371    bbb    H12  11118 0.09515400   1.008000   ; qtot 370.665296
11119         c3    371    bbb     C7  11119 0.21842400  12.010000   ; qtot 370.883720
11120         h1    371    bbb    H13  11120 0.04500300   1.008000   ; qtot 370.928723
11121         h1    371    bbb    H14  11121 0.04500300   1.008000   ; qtot 370.973726
11122         c3    371    bbb     C8  11122 -0.06455200  12.010000   ; qtot 370.909174
11123         h1    371    bbb    H15  11123 0.13554100   1.008000   ; qtot 371.044715
11124         h1    371    bbb    H16  11124 0.13554100   1.008000   ; qtot 371.180256
11125         c3    371    bbb     C9  11125 -0.06455200  12.010000   ; qtot 371.115704
11126         h1    371    bbb    H17  11126 0.13554100   1.008000   ; qtot 371.251245
11127         h1    371    bbb    H18  11127 0.13554100   1.008000   ; qtot 371.386786
11128         os    371    bbb     O1  11128 -0.62587700  16.000000   ; qtot 370.760909
11129         hn    371    bbb    H19  11129 0.23982500   1.008000   ; qtot 371.000734
; residue  372 bbb rtp bbb q 1.0
11130         n4    372    bbb     N1  11130 0.03726400  14.010000   ; qtot 371.037998
11131         c3    372    bbb     C1  11131 -0.07020100  12.010000   ; qtot 370.967797
11132         hx    372    bbb     H1  11132 0.12219000   1.008000   ; qtot 371.089987
11133         hx    372    bbb     H2  11133 0.12219000   1.008000   ; qtot 371.212177
11134         c3    372    bbb     C2  11134 -0.07020100  12.010000   ; qtot 371.141976
11135         hx    372    bbb     H3  11135 0.12219000   1.008000   ; qtot 371.264166
11136         hx    372    bbb     H4  11136 0.12219000   1.008000   ; qtot 371.386356
11137         c3    372    bbb     C3  11137 -0.39007700  12.010000   ; qtot 370.996279
11138         hx    372    bbb     H5  11138 0.14940300   1.008000   ; qtot 371.145682
11139         hx    372    bbb     H6  11139 0.14940300   1.008000   ; qtot 371.295085
11140         c3    372    bbb     C4  11140 0.18057300  12.010000   ; qtot 371.475658
11141         hc    372    bbb     H7  11141 0.01788900   1.008000   ; qtot 371.493547
11142         hc    372    bbb     H8  11142 0.01788900   1.008000   ; qtot 371.511436
11143         c3    372    bbb     C5  11143 -0.11337700  12.010000   ; qtot 371.398059
11144         hc    372    bbb     H9  11144 0.09515400   1.008000   ; qtot 371.493213
11145         hc    372    bbb    H10  11145 0.09515400   1.008000   ; qtot 371.588367
11146         c3    372    bbb     C6  11146 -0.11337700  12.010000   ; qtot 371.474990
11147         hc    372    bbb    H11  11147 0.09515400   1.008000   ; qtot 371.570144
11148         hc    372    bbb    H12  11148 0.09515400   1.008000   ; qtot 371.665298
11149         c3    372    bbb     C7  11149 0.21842400  12.010000   ; qtot 371.883722
11150         h1    372    bbb    H13  11150 0.04500300   1.008000   ; qtot 371.928725
11151         h1    372    bbb    H14  11151 0.04500300   1.008000   ; qtot 371.973728
11152         c3    372    bbb     C8  11152 -0.06455200  12.010000   ; qtot 371.909176
11153         h1    372    bbb    H15  11153 0.13554100   1.008000   ; qtot 372.044717
11154         h1    372    bbb    H16  11154 0.13554100   1.008000   ; qtot 372.180258
11155         c3    372    bbb     C9  11155 -0.06455200  12.010000   ; qtot 372.115706
11156         h1    372    bbb    H17  11156 0.13554100   1.008000   ; qtot 372.251247
11157         h1    372    bbb    H18  11157 0.13554100   1.008000   ; qtot 372.386788
11158         os    372    bbb     O1  11158 -0.62587700  16.000000   ; qtot 371.760911
11159         hn    372    bbb    H19  11159 0.23982500   1.008000   ; qtot 372.000736
; residue  373 bbb rtp bbb q 1.0
11160         n4    373    bbb     N1  11160 0.03726400  14.010000   ; qtot 372.038000
11161         c3    373    bbb     C1  11161 -0.07020100  12.010000   ; qtot 371.967799
11162         hx    373    bbb     H1  11162 0.12219000   1.008000   ; qtot 372.089989
11163         hx    373    bbb     H2  11163 0.12219000   1.008000   ; qtot 372.212179
11164         c3    373    bbb     C2  11164 -0.07020100  12.010000   ; qtot 372.141978
11165         hx    373    bbb     H3  11165 0.12219000   1.008000   ; qtot 372.264168
11166         hx    373    bbb     H4  11166 0.12219000   1.008000   ; qtot 372.386358
11167         c3    373    bbb     C3  11167 -0.39007700  12.010000   ; qtot 371.996281
11168         hx    373    bbb     H5  11168 0.14940300   1.008000   ; qtot 372.145684
11169         hx    373    bbb     H6  11169 0.14940300   1.008000   ; qtot 372.295087
11170         c3    373    bbb     C4  11170 0.18057300  12.010000   ; qtot 372.475660
11171         hc    373    bbb     H7  11171 0.01788900   1.008000   ; qtot 372.493549
11172         hc    373    bbb     H8  11172 0.01788900   1.008000   ; qtot 372.511438
11173         c3    373    bbb     C5  11173 -0.11337700  12.010000   ; qtot 372.398061
11174         hc    373    bbb     H9  11174 0.09515400   1.008000   ; qtot 372.493215
11175         hc    373    bbb    H10  11175 0.09515400   1.008000   ; qtot 372.588369
11176         c3    373    bbb     C6  11176 -0.11337700  12.010000   ; qtot 372.474992
11177         hc    373    bbb    H11  11177 0.09515400   1.008000   ; qtot 372.570146
11178         hc    373    bbb    H12  11178 0.09515400   1.008000   ; qtot 372.665300
11179         c3    373    bbb     C7  11179 0.21842400  12.010000   ; qtot 372.883724
11180         h1    373    bbb    H13  11180 0.04500300   1.008000   ; qtot 372.928727
11181         h1    373    bbb    H14  11181 0.04500300   1.008000   ; qtot 372.973730
11182         c3    373    bbb     C8  11182 -0.06455200  12.010000   ; qtot 372.909178
11183         h1    373    bbb    H15  11183 0.13554100   1.008000   ; qtot 373.044719
11184         h1    373    bbb    H16  11184 0.13554100   1.008000   ; qtot 373.180260
11185         c3    373    bbb     C9  11185 -0.06455200  12.010000   ; qtot 373.115708
11186         h1    373    bbb    H17  11186 0.13554100   1.008000   ; qtot 373.251249
11187         h1    373    bbb    H18  11187 0.13554100   1.008000   ; qtot 373.386790
11188         os    373    bbb     O1  11188 -0.62587700  16.000000   ; qtot 372.760913
11189         hn    373    bbb    H19  11189 0.23982500   1.008000   ; qtot 373.000738
; residue  374 bbb rtp bbb q 1.0
11190         n4    374    bbb     N1  11190 0.03726400  14.010000   ; qtot 373.038002
11191         c3    374    bbb     C1  11191 -0.07020100  12.010000   ; qtot 372.967801
11192         hx    374    bbb     H1  11192 0.12219000   1.008000   ; qtot 373.089991
11193         hx    374    bbb     H2  11193 0.12219000   1.008000   ; qtot 373.212181
11194         c3    374    bbb     C2  11194 -0.07020100  12.010000   ; qtot 373.141980
11195         hx    374    bbb     H3  11195 0.12219000   1.008000   ; qtot 373.264170
11196         hx    374    bbb     H4  11196 0.12219000   1.008000   ; qtot 373.386360
11197         c3    374    bbb     C3  11197 -0.39007700  12.010000   ; qtot 372.996283
11198         hx    374    bbb     H5  11198 0.14940300   1.008000   ; qtot 373.145686
11199         hx    374    bbb     H6  11199 0.14940300   1.008000   ; qtot 373.295089
11200         c3    374    bbb     C4  11200 0.18057300  12.010000   ; qtot 373.475662
11201         hc    374    bbb     H7  11201 0.01788900   1.008000   ; qtot 373.493551
11202         hc    374    bbb     H8  11202 0.01788900   1.008000   ; qtot 373.511440
11203         c3    374    bbb     C5  11203 -0.11337700  12.010000   ; qtot 373.398063
11204         hc    374    bbb     H9  11204 0.09515400   1.008000   ; qtot 373.493217
11205         hc    374    bbb    H10  11205 0.09515400   1.008000   ; qtot 373.588371
11206         c3    374    bbb     C6  11206 -0.11337700  12.010000   ; qtot 373.474994
11207         hc    374    bbb    H11  11207 0.09515400   1.008000   ; qtot 373.570148
11208         hc    374    bbb    H12  11208 0.09515400   1.008000   ; qtot 373.665302
11209         c3    374    bbb     C7  11209 0.21842400  12.010000   ; qtot 373.883726
11210         h1    374    bbb    H13  11210 0.04500300   1.008000   ; qtot 373.928729
11211         h1    374    bbb    H14  11211 0.04500300   1.008000   ; qtot 373.973732
11212         c3    374    bbb     C8  11212 -0.06455200  12.010000   ; qtot 373.909180
11213         h1    374    bbb    H15  11213 0.13554100   1.008000   ; qtot 374.044721
11214         h1    374    bbb    H16  11214 0.13554100   1.008000   ; qtot 374.180262
11215         c3    374    bbb     C9  11215 -0.06455200  12.010000   ; qtot 374.115710
11216         h1    374    bbb    H17  11216 0.13554100   1.008000   ; qtot 374.251251
11217         h1    374    bbb    H18  11217 0.13554100   1.008000   ; qtot 374.386792
11218         os    374    bbb     O1  11218 -0.62587700  16.000000   ; qtot 373.760915
11219         hn    374    bbb    H19  11219 0.23982500   1.008000   ; qtot 374.000740
; residue  375 bbb rtp bbb q 1.0
11220         n4    375    bbb     N1  11220 0.03726400  14.010000   ; qtot 374.038004
11221         c3    375    bbb     C1  11221 -0.07020100  12.010000   ; qtot 373.967803
11222         hx    375    bbb     H1  11222 0.12219000   1.008000   ; qtot 374.089993
11223         hx    375    bbb     H2  11223 0.12219000   1.008000   ; qtot 374.212183
11224         c3    375    bbb     C2  11224 -0.07020100  12.010000   ; qtot 374.141982
11225         hx    375    bbb     H3  11225 0.12219000   1.008000   ; qtot 374.264172
11226         hx    375    bbb     H4  11226 0.12219000   1.008000   ; qtot 374.386362
11227         c3    375    bbb     C3  11227 -0.39007700  12.010000   ; qtot 373.996285
11228         hx    375    bbb     H5  11228 0.14940300   1.008000   ; qtot 374.145688
11229         hx    375    bbb     H6  11229 0.14940300   1.008000   ; qtot 374.295091
11230         c3    375    bbb     C4  11230 0.18057300  12.010000   ; qtot 374.475664
11231         hc    375    bbb     H7  11231 0.01788900   1.008000   ; qtot 374.493553
11232         hc    375    bbb     H8  11232 0.01788900   1.008000   ; qtot 374.511442
11233         c3    375    bbb     C5  11233 -0.11337700  12.010000   ; qtot 374.398065
11234         hc    375    bbb     H9  11234 0.09515400   1.008000   ; qtot 374.493219
11235         hc    375    bbb    H10  11235 0.09515400   1.008000   ; qtot 374.588373
11236         c3    375    bbb     C6  11236 -0.11337700  12.010000   ; qtot 374.474996
11237         hc    375    bbb    H11  11237 0.09515400   1.008000   ; qtot 374.570150
11238         hc    375    bbb    H12  11238 0.09515400   1.008000   ; qtot 374.665304
11239         c3    375    bbb     C7  11239 0.21842400  12.010000   ; qtot 374.883728
11240         h1    375    bbb    H13  11240 0.04500300   1.008000   ; qtot 374.928731
11241         h1    375    bbb    H14  11241 0.04500300   1.008000   ; qtot 374.973734
11242         c3    375    bbb     C8  11242 -0.06455200  12.010000   ; qtot 374.909182
11243         h1    375    bbb    H15  11243 0.13554100   1.008000   ; qtot 375.044723
11244         h1    375    bbb    H16  11244 0.13554100   1.008000   ; qtot 375.180264
11245         c3    375    bbb     C9  11245 -0.06455200  12.010000   ; qtot 375.115712
11246         h1    375    bbb    H17  11246 0.13554100   1.008000   ; qtot 375.251253
11247         h1    375    bbb    H18  11247 0.13554100   1.008000   ; qtot 375.386794
11248         os    375    bbb     O1  11248 -0.62587700  16.000000   ; qtot 374.760917
11249         hn    375    bbb    H19  11249 0.23982500   1.008000   ; qtot 375.000742
; residue  376 bbb rtp bbb q 1.0
11250         n4    376    bbb     N1  11250 0.03726400  14.010000   ; qtot 375.038006
11251         c3    376    bbb     C1  11251 -0.07020100  12.010000   ; qtot 374.967805
11252         hx    376    bbb     H1  11252 0.12219000   1.008000   ; qtot 375.089995
11253         hx    376    bbb     H2  11253 0.12219000   1.008000   ; qtot 375.212185
11254         c3    376    bbb     C2  11254 -0.07020100  12.010000   ; qtot 375.141984
11255         hx    376    bbb     H3  11255 0.12219000   1.008000   ; qtot 375.264174
11256         hx    376    bbb     H4  11256 0.12219000   1.008000   ; qtot 375.386364
11257         c3    376    bbb     C3  11257 -0.39007700  12.010000   ; qtot 374.996287
11258         hx    376    bbb     H5  11258 0.14940300   1.008000   ; qtot 375.145690
11259         hx    376    bbb     H6  11259 0.14940300   1.008000   ; qtot 375.295093
11260         c3    376    bbb     C4  11260 0.18057300  12.010000   ; qtot 375.475666
11261         hc    376    bbb     H7  11261 0.01788900   1.008000   ; qtot 375.493555
11262         hc    376    bbb     H8  11262 0.01788900   1.008000   ; qtot 375.511444
11263         c3    376    bbb     C5  11263 -0.11337700  12.010000   ; qtot 375.398067
11264         hc    376    bbb     H9  11264 0.09515400   1.008000   ; qtot 375.493221
11265         hc    376    bbb    H10  11265 0.09515400   1.008000   ; qtot 375.588375
11266         c3    376    bbb     C6  11266 -0.11337700  12.010000   ; qtot 375.474998
11267         hc    376    bbb    H11  11267 0.09515400   1.008000   ; qtot 375.570152
11268         hc    376    bbb    H12  11268 0.09515400   1.008000   ; qtot 375.665306
11269         c3    376    bbb     C7  11269 0.21842400  12.010000   ; qtot 375.883730
11270         h1    376    bbb    H13  11270 0.04500300   1.008000   ; qtot 375.928733
11271         h1    376    bbb    H14  11271 0.04500300   1.008000   ; qtot 375.973736
11272         c3    376    bbb     C8  11272 -0.06455200  12.010000   ; qtot 375.909184
11273         h1    376    bbb    H15  11273 0.13554100   1.008000   ; qtot 376.044725
11274         h1    376    bbb    H16  11274 0.13554100   1.008000   ; qtot 376.180266
11275         c3    376    bbb     C9  11275 -0.06455200  12.010000   ; qtot 376.115714
11276         h1    376    bbb    H17  11276 0.13554100   1.008000   ; qtot 376.251255
11277         h1    376    bbb    H18  11277 0.13554100   1.008000   ; qtot 376.386796
11278         os    376    bbb     O1  11278 -0.62587700  16.000000   ; qtot 375.760919
11279         hn    376    bbb    H19  11279 0.23982500   1.008000   ; qtot 376.000744
; residue  377 bbb rtp bbb q 1.0
11280         n4    377    bbb     N1  11280 0.03726400  14.010000   ; qtot 376.038008
11281         c3    377    bbb     C1  11281 -0.07020100  12.010000   ; qtot 375.967807
11282         hx    377    bbb     H1  11282 0.12219000   1.008000   ; qtot 376.089997
11283         hx    377    bbb     H2  11283 0.12219000   1.008000   ; qtot 376.212187
11284         c3    377    bbb     C2  11284 -0.07020100  12.010000   ; qtot 376.141986
11285         hx    377    bbb     H3  11285 0.12219000   1.008000   ; qtot 376.264176
11286         hx    377    bbb     H4  11286 0.12219000   1.008000   ; qtot 376.386366
11287         c3    377    bbb     C3  11287 -0.39007700  12.010000   ; qtot 375.996289
11288         hx    377    bbb     H5  11288 0.14940300   1.008000   ; qtot 376.145692
11289         hx    377    bbb     H6  11289 0.14940300   1.008000   ; qtot 376.295095
11290         c3    377    bbb     C4  11290 0.18057300  12.010000   ; qtot 376.475668
11291         hc    377    bbb     H7  11291 0.01788900   1.008000   ; qtot 376.493557
11292         hc    377    bbb     H8  11292 0.01788900   1.008000   ; qtot 376.511446
11293         c3    377    bbb     C5  11293 -0.11337700  12.010000   ; qtot 376.398069
11294         hc    377    bbb     H9  11294 0.09515400   1.008000   ; qtot 376.493223
11295         hc    377    bbb    H10  11295 0.09515400   1.008000   ; qtot 376.588377
11296         c3    377    bbb     C6  11296 -0.11337700  12.010000   ; qtot 376.475000
11297         hc    377    bbb    H11  11297 0.09515400   1.008000   ; qtot 376.570154
11298         hc    377    bbb    H12  11298 0.09515400   1.008000   ; qtot 376.665308
11299         c3    377    bbb     C7  11299 0.21842400  12.010000   ; qtot 376.883732
11300         h1    377    bbb    H13  11300 0.04500300   1.008000   ; qtot 376.928735
11301         h1    377    bbb    H14  11301 0.04500300   1.008000   ; qtot 376.973738
11302         c3    377    bbb     C8  11302 -0.06455200  12.010000   ; qtot 376.909186
11303         h1    377    bbb    H15  11303 0.13554100   1.008000   ; qtot 377.044727
11304         h1    377    bbb    H16  11304 0.13554100   1.008000   ; qtot 377.180268
11305         c3    377    bbb     C9  11305 -0.06455200  12.010000   ; qtot 377.115716
11306         h1    377    bbb    H17  11306 0.13554100   1.008000   ; qtot 377.251257
11307         h1    377    bbb    H18  11307 0.13554100   1.008000   ; qtot 377.386798
11308         os    377    bbb     O1  11308 -0.62587700  16.000000   ; qtot 376.760921
11309         hn    377    bbb    H19  11309 0.23982500   1.008000   ; qtot 377.000746
; residue  378 bbb rtp bbb q 1.0
11310         n4    378    bbb     N1  11310 0.03726400  14.010000   ; qtot 377.038010
11311         c3    378    bbb     C1  11311 -0.07020100  12.010000   ; qtot 376.967809
11312         hx    378    bbb     H1  11312 0.12219000   1.008000   ; qtot 377.089999
11313         hx    378    bbb     H2  11313 0.12219000   1.008000   ; qtot 377.212189
11314         c3    378    bbb     C2  11314 -0.07020100  12.010000   ; qtot 377.141988
11315         hx    378    bbb     H3  11315 0.12219000   1.008000   ; qtot 377.264178
11316         hx    378    bbb     H4  11316 0.12219000   1.008000   ; qtot 377.386368
11317         c3    378    bbb     C3  11317 -0.39007700  12.010000   ; qtot 376.996291
11318         hx    378    bbb     H5  11318 0.14940300   1.008000   ; qtot 377.145694
11319         hx    378    bbb     H6  11319 0.14940300   1.008000   ; qtot 377.295097
11320         c3    378    bbb     C4  11320 0.18057300  12.010000   ; qtot 377.475670
11321         hc    378    bbb     H7  11321 0.01788900   1.008000   ; qtot 377.493559
11322         hc    378    bbb     H8  11322 0.01788900   1.008000   ; qtot 377.511448
11323         c3    378    bbb     C5  11323 -0.11337700  12.010000   ; qtot 377.398071
11324         hc    378    bbb     H9  11324 0.09515400   1.008000   ; qtot 377.493225
11325         hc    378    bbb    H10  11325 0.09515400   1.008000   ; qtot 377.588379
11326         c3    378    bbb     C6  11326 -0.11337700  12.010000   ; qtot 377.475002
11327         hc    378    bbb    H11  11327 0.09515400   1.008000   ; qtot 377.570156
11328         hc    378    bbb    H12  11328 0.09515400   1.008000   ; qtot 377.665310
11329         c3    378    bbb     C7  11329 0.21842400  12.010000   ; qtot 377.883734
11330         h1    378    bbb    H13  11330 0.04500300   1.008000   ; qtot 377.928737
11331         h1    378    bbb    H14  11331 0.04500300   1.008000   ; qtot 377.973740
11332         c3    378    bbb     C8  11332 -0.06455200  12.010000   ; qtot 377.909188
11333         h1    378    bbb    H15  11333 0.13554100   1.008000   ; qtot 378.044729
11334         h1    378    bbb    H16  11334 0.13554100   1.008000   ; qtot 378.180270
11335         c3    378    bbb     C9  11335 -0.06455200  12.010000   ; qtot 378.115718
11336         h1    378    bbb    H17  11336 0.13554100   1.008000   ; qtot 378.251259
11337         h1    378    bbb    H18  11337 0.13554100   1.008000   ; qtot 378.386800
11338         os    378    bbb     O1  11338 -0.62587700  16.000000   ; qtot 377.760923
11339         hn    378    bbb    H19  11339 0.23982500   1.008000   ; qtot 378.000748
; residue  379 bbb rtp bbb q 1.0
11340         n4    379    bbb     N1  11340 0.03726400  14.010000   ; qtot 378.038012
11341         c3    379    bbb     C1  11341 -0.07020100  12.010000   ; qtot 377.967811
11342         hx    379    bbb     H1  11342 0.12219000   1.008000   ; qtot 378.090001
11343         hx    379    bbb     H2  11343 0.12219000   1.008000   ; qtot 378.212191
11344         c3    379    bbb     C2  11344 -0.07020100  12.010000   ; qtot 378.141990
11345         hx    379    bbb     H3  11345 0.12219000   1.008000   ; qtot 378.264180
11346         hx    379    bbb     H4  11346 0.12219000   1.008000   ; qtot 378.386370
11347         c3    379    bbb     C3  11347 -0.39007700  12.010000   ; qtot 377.996293
11348         hx    379    bbb     H5  11348 0.14940300   1.008000   ; qtot 378.145696
11349         hx    379    bbb     H6  11349 0.14940300   1.008000   ; qtot 378.295099
11350         c3    379    bbb     C4  11350 0.18057300  12.010000   ; qtot 378.475672
11351         hc    379    bbb     H7  11351 0.01788900   1.008000   ; qtot 378.493561
11352         hc    379    bbb     H8  11352 0.01788900   1.008000   ; qtot 378.511450
11353         c3    379    bbb     C5  11353 -0.11337700  12.010000   ; qtot 378.398073
11354         hc    379    bbb     H9  11354 0.09515400   1.008000   ; qtot 378.493227
11355         hc    379    bbb    H10  11355 0.09515400   1.008000   ; qtot 378.588381
11356         c3    379    bbb     C6  11356 -0.11337700  12.010000   ; qtot 378.475004
11357         hc    379    bbb    H11  11357 0.09515400   1.008000   ; qtot 378.570158
11358         hc    379    bbb    H12  11358 0.09515400   1.008000   ; qtot 378.665312
11359         c3    379    bbb     C7  11359 0.21842400  12.010000   ; qtot 378.883736
11360         h1    379    bbb    H13  11360 0.04500300   1.008000   ; qtot 378.928739
11361         h1    379    bbb    H14  11361 0.04500300   1.008000   ; qtot 378.973742
11362         c3    379    bbb     C8  11362 -0.06455200  12.010000   ; qtot 378.909190
11363         h1    379    bbb    H15  11363 0.13554100   1.008000   ; qtot 379.044731
11364         h1    379    bbb    H16  11364 0.13554100   1.008000   ; qtot 379.180272
11365         c3    379    bbb     C9  11365 -0.06455200  12.010000   ; qtot 379.115720
11366         h1    379    bbb    H17  11366 0.13554100   1.008000   ; qtot 379.251261
11367         h1    379    bbb    H18  11367 0.13554100   1.008000   ; qtot 379.386802
11368         os    379    bbb     O1  11368 -0.62587700  16.000000   ; qtot 378.760925
11369         hn    379    bbb    H19  11369 0.23982500   1.008000   ; qtot 379.000750
; residue  380 bbb rtp bbb q 1.0
11370         n4    380    bbb     N1  11370 0.03726400  14.010000   ; qtot 379.038014
11371         c3    380    bbb     C1  11371 -0.07020100  12.010000   ; qtot 378.967813
11372         hx    380    bbb     H1  11372 0.12219000   1.008000   ; qtot 379.090003
11373         hx    380    bbb     H2  11373 0.12219000   1.008000   ; qtot 379.212193
11374         c3    380    bbb     C2  11374 -0.07020100  12.010000   ; qtot 379.141992
11375         hx    380    bbb     H3  11375 0.12219000   1.008000   ; qtot 379.264182
11376         hx    380    bbb     H4  11376 0.12219000   1.008000   ; qtot 379.386372
11377         c3    380    bbb     C3  11377 -0.39007700  12.010000   ; qtot 378.996295
11378         hx    380    bbb     H5  11378 0.14940300   1.008000   ; qtot 379.145698
11379         hx    380    bbb     H6  11379 0.14940300   1.008000   ; qtot 379.295101
11380         c3    380    bbb     C4  11380 0.18057300  12.010000   ; qtot 379.475674
11381         hc    380    bbb     H7  11381 0.01788900   1.008000   ; qtot 379.493563
11382         hc    380    bbb     H8  11382 0.01788900   1.008000   ; qtot 379.511452
11383         c3    380    bbb     C5  11383 -0.11337700  12.010000   ; qtot 379.398075
11384         hc    380    bbb     H9  11384 0.09515400   1.008000   ; qtot 379.493229
11385         hc    380    bbb    H10  11385 0.09515400   1.008000   ; qtot 379.588383
11386         c3    380    bbb     C6  11386 -0.11337700  12.010000   ; qtot 379.475006
11387         hc    380    bbb    H11  11387 0.09515400   1.008000   ; qtot 379.570160
11388         hc    380    bbb    H12  11388 0.09515400   1.008000   ; qtot 379.665314
11389         c3    380    bbb     C7  11389 0.21842400  12.010000   ; qtot 379.883738
11390         h1    380    bbb    H13  11390 0.04500300   1.008000   ; qtot 379.928741
11391         h1    380    bbb    H14  11391 0.04500300   1.008000   ; qtot 379.973744
11392         c3    380    bbb     C8  11392 -0.06455200  12.010000   ; qtot 379.909192
11393         h1    380    bbb    H15  11393 0.13554100   1.008000   ; qtot 380.044733
11394         h1    380    bbb    H16  11394 0.13554100   1.008000   ; qtot 380.180274
11395         c3    380    bbb     C9  11395 -0.06455200  12.010000   ; qtot 380.115722
11396         h1    380    bbb    H17  11396 0.13554100   1.008000   ; qtot 380.251263
11397         h1    380    bbb    H18  11397 0.13554100   1.008000   ; qtot 380.386804
11398         os    380    bbb     O1  11398 -0.62587700  16.000000   ; qtot 379.760927
11399         hn    380    bbb    H19  11399 0.23982500   1.008000   ; qtot 380.000752
; residue  381 bbb rtp bbb q 1.0
11400         n4    381    bbb     N1  11400 0.03726400  14.010000   ; qtot 380.038016
11401         c3    381    bbb     C1  11401 -0.07020100  12.010000   ; qtot 379.967815
11402         hx    381    bbb     H1  11402 0.12219000   1.008000   ; qtot 380.090005
11403         hx    381    bbb     H2  11403 0.12219000   1.008000   ; qtot 380.212195
11404         c3    381    bbb     C2  11404 -0.07020100  12.010000   ; qtot 380.141994
11405         hx    381    bbb     H3  11405 0.12219000   1.008000   ; qtot 380.264184
11406         hx    381    bbb     H4  11406 0.12219000   1.008000   ; qtot 380.386374
11407         c3    381    bbb     C3  11407 -0.39007700  12.010000   ; qtot 379.996297
11408         hx    381    bbb     H5  11408 0.14940300   1.008000   ; qtot 380.145700
11409         hx    381    bbb     H6  11409 0.14940300   1.008000   ; qtot 380.295103
11410         c3    381    bbb     C4  11410 0.18057300  12.010000   ; qtot 380.475676
11411         hc    381    bbb     H7  11411 0.01788900   1.008000   ; qtot 380.493565
11412         hc    381    bbb     H8  11412 0.01788900   1.008000   ; qtot 380.511454
11413         c3    381    bbb     C5  11413 -0.11337700  12.010000   ; qtot 380.398077
11414         hc    381    bbb     H9  11414 0.09515400   1.008000   ; qtot 380.493231
11415         hc    381    bbb    H10  11415 0.09515400   1.008000   ; qtot 380.588385
11416         c3    381    bbb     C6  11416 -0.11337700  12.010000   ; qtot 380.475008
11417         hc    381    bbb    H11  11417 0.09515400   1.008000   ; qtot 380.570162
11418         hc    381    bbb    H12  11418 0.09515400   1.008000   ; qtot 380.665316
11419         c3    381    bbb     C7  11419 0.21842400  12.010000   ; qtot 380.883740
11420         h1    381    bbb    H13  11420 0.04500300   1.008000   ; qtot 380.928743
11421         h1    381    bbb    H14  11421 0.04500300   1.008000   ; qtot 380.973746
11422         c3    381    bbb     C8  11422 -0.06455200  12.010000   ; qtot 380.909194
11423         h1    381    bbb    H15  11423 0.13554100   1.008000   ; qtot 381.044735
11424         h1    381    bbb    H16  11424 0.13554100   1.008000   ; qtot 381.180276
11425         c3    381    bbb     C9  11425 -0.06455200  12.010000   ; qtot 381.115724
11426         h1    381    bbb    H17  11426 0.13554100   1.008000   ; qtot 381.251265
11427         h1    381    bbb    H18  11427 0.13554100   1.008000   ; qtot 381.386806
11428         os    381    bbb     O1  11428 -0.62587700  16.000000   ; qtot 380.760929
11429         hn    381    bbb    H19  11429 0.23982500   1.008000   ; qtot 381.000754
; residue  382 bbb rtp bbb q 1.0
11430         n4    382    bbb     N1  11430 0.03726400  14.010000   ; qtot 381.038018
11431         c3    382    bbb     C1  11431 -0.07020100  12.010000   ; qtot 380.967817
11432         hx    382    bbb     H1  11432 0.12219000   1.008000   ; qtot 381.090007
11433         hx    382    bbb     H2  11433 0.12219000   1.008000   ; qtot 381.212197
11434         c3    382    bbb     C2  11434 -0.07020100  12.010000   ; qtot 381.141996
11435         hx    382    bbb     H3  11435 0.12219000   1.008000   ; qtot 381.264186
11436         hx    382    bbb     H4  11436 0.12219000   1.008000   ; qtot 381.386376
11437         c3    382    bbb     C3  11437 -0.39007700  12.010000   ; qtot 380.996299
11438         hx    382    bbb     H5  11438 0.14940300   1.008000   ; qtot 381.145702
11439         hx    382    bbb     H6  11439 0.14940300   1.008000   ; qtot 381.295105
11440         c3    382    bbb     C4  11440 0.18057300  12.010000   ; qtot 381.475678
11441         hc    382    bbb     H7  11441 0.01788900   1.008000   ; qtot 381.493567
11442         hc    382    bbb     H8  11442 0.01788900   1.008000   ; qtot 381.511456
11443         c3    382    bbb     C5  11443 -0.11337700  12.010000   ; qtot 381.398079
11444         hc    382    bbb     H9  11444 0.09515400   1.008000   ; qtot 381.493233
11445         hc    382    bbb    H10  11445 0.09515400   1.008000   ; qtot 381.588387
11446         c3    382    bbb     C6  11446 -0.11337700  12.010000   ; qtot 381.475010
11447         hc    382    bbb    H11  11447 0.09515400   1.008000   ; qtot 381.570164
11448         hc    382    bbb    H12  11448 0.09515400   1.008000   ; qtot 381.665318
11449         c3    382    bbb     C7  11449 0.21842400  12.010000   ; qtot 381.883742
11450         h1    382    bbb    H13  11450 0.04500300   1.008000   ; qtot 381.928745
11451         h1    382    bbb    H14  11451 0.04500300   1.008000   ; qtot 381.973748
11452         c3    382    bbb     C8  11452 -0.06455200  12.010000   ; qtot 381.909196
11453         h1    382    bbb    H15  11453 0.13554100   1.008000   ; qtot 382.044737
11454         h1    382    bbb    H16  11454 0.13554100   1.008000   ; qtot 382.180278
11455         c3    382    bbb     C9  11455 -0.06455200  12.010000   ; qtot 382.115726
11456         h1    382    bbb    H17  11456 0.13554100   1.008000   ; qtot 382.251267
11457         h1    382    bbb    H18  11457 0.13554100   1.008000   ; qtot 382.386808
11458         os    382    bbb     O1  11458 -0.62587700  16.000000   ; qtot 381.760931
11459         hn    382    bbb    H19  11459 0.23982500   1.008000   ; qtot 382.000756
; residue  383 ccc rtp ccc q 0.0
11460         c3    383    ccc     C1  11460 -0.33178800  12.010000   ; qtot 381.668968
11461         c3    383    ccc     C2  11461 0.30606500  12.010000   ; qtot 381.975033
11462         h1    383    ccc     H1  11462 0.11662300   1.008000   ; qtot 382.091656
11463         h1    383    ccc     H2  11463 0.11526800   1.008000   ; qtot 382.206924
11464         c3    383    ccc     C3  11464 0.15592700  12.010000   ; qtot 382.362851
11465         c3    383    ccc     C4  11465 0.28383300  12.010000   ; qtot 382.646684
11466         c3    383    ccc     C5  11466 0.32403300  12.010000   ; qtot 382.970717
11467         h1    383    ccc     H3  11467 0.13386900   1.008000   ; qtot 383.104586
11468         h1    383    ccc     H4  11468 0.10146700   1.008000   ; qtot 383.206053
11469         h2    383    ccc     H5  11469 0.10960400   1.008000   ; qtot 383.315657
11470         os    383    ccc     O1  11470 -0.28650000  16.000000   ; qtot 383.029157
11471         oh    383    ccc     O2  11471 -0.86012500  16.000000   ; qtot 382.169032
11472         oh    383    ccc     O3  11472 -0.83772800  16.000000   ; qtot 381.331304
11473         oh    383    ccc     O4  11473 -0.77449700  16.000000   ; qtot 380.556807
11474         c3    383    ccc     C6  11474 0.37576500  12.010000   ; qtot 380.932572
11475         ho    383    ccc     H6  11475 0.53656000   1.008000   ; qtot 381.469132
11476         ho    383    ccc     H7  11476 0.49492100   1.008000   ; qtot 381.964053
11477         ho    383    ccc     H8  11477 0.51297200   1.008000   ; qtot 382.477025
11478         h1    383    ccc     H9  11478 0.05653400   1.008000   ; qtot 382.533559
11479         h1    383    ccc    H10  11479 0.05653400   1.008000   ; qtot 382.590093
11480         oh    383    ccc     O5  11480 -0.84113600  16.000000   ; qtot 381.748957
11481         ho    383    ccc    H11  11481 0.51201600   1.008000   ; qtot 382.260973
11482         os    383    ccc     O6  11482 -0.26013600  16.000000   ; qtot 382.000837
; residue  384 ccc rtp ccc q 0.0
11483         c3    384    ccc     C1  11483 -0.33178800  12.010000   ; qtot 381.669049
11484         c3    384    ccc     C2  11484 0.30606500  12.010000   ; qtot 381.975114
11485         h1    384    ccc     H1  11485 0.11662300   1.008000   ; qtot 382.091737
11486         h1    384    ccc     H2  11486 0.11526800   1.008000   ; qtot 382.207005
11487         c3    384    ccc     C3  11487 0.15592700  12.010000   ; qtot 382.362932
11488         c3    384    ccc     C4  11488 0.28383300  12.010000   ; qtot 382.646765
11489         c3    384    ccc     C5  11489 0.32403300  12.010000   ; qtot 382.970798
11490         h1    384    ccc     H3  11490 0.13386900   1.008000   ; qtot 383.104667
11491         h1    384    ccc     H4  11491 0.10146700   1.008000   ; qtot 383.206134
11492         h2    384    ccc     H5  11492 0.10960400   1.008000   ; qtot 383.315738
11493         os    384    ccc     O1  11493 -0.28650000  16.000000   ; qtot 383.029238
11494         oh    384    ccc     O2  11494 -0.86012500  16.000000   ; qtot 382.169113
11495         oh    384    ccc     O3  11495 -0.83772800  16.000000   ; qtot 381.331385
11496         oh    384    ccc     O4  11496 -0.77449700  16.000000   ; qtot 380.556888
11497         c3    384    ccc     C6  11497 0.37576500  12.010000   ; qtot 380.932653
11498         ho    384    ccc     H6  11498 0.53656000   1.008000   ; qtot 381.469213
11499         ho    384    ccc     H7  11499 0.49492100   1.008000   ; qtot 381.964134
11500         ho    384    ccc     H8  11500 0.51297200   1.008000   ; qtot 382.477106
11501         h1    384    ccc     H9  11501 0.05653400   1.008000   ; qtot 382.533640
11502         h1    384    ccc    H10  11502 0.05653400   1.008000   ; qtot 382.590174
11503         oh    384    ccc     O5  11503 -0.84113600  16.000000   ; qtot 381.749038
11504         ho    384    ccc    H11  11504 0.51201600   1.008000   ; qtot 382.261054
11505         os    384    ccc     O6  11505 -0.26013600  16.000000   ; qtot 382.000918
; residue  385 ccc rtp ccc q 0.0
11506         c3    385    ccc     C1  11506 -0.33178800  12.010000   ; qtot 381.669130
11507         c3    385    ccc     C2  11507 0.30606500  12.010000   ; qtot 381.975195
11508         h1    385    ccc     H1  11508 0.11662300   1.008000   ; qtot 382.091818
11509         h1    385    ccc     H2  11509 0.11526800   1.008000   ; qtot 382.207086
11510         c3    385    ccc     C3  11510 0.15592700  12.010000   ; qtot 382.363013
11511         c3    385    ccc     C4  11511 0.28383300  12.010000   ; qtot 382.646846
11512         c3    385    ccc     C5  11512 0.32403300  12.010000   ; qtot 382.970879
11513         h1    385    ccc     H3  11513 0.13386900   1.008000   ; qtot 383.104748
11514         h1    385    ccc     H4  11514 0.10146700   1.008000   ; qtot 383.206215
11515         h2    385    ccc     H5  11515 0.10960400   1.008000   ; qtot 383.315819
11516         os    385    ccc     O1  11516 -0.28650000  16.000000   ; qtot 383.029319
11517         oh    385    ccc     O2  11517 -0.86012500  16.000000   ; qtot 382.169194
11518         oh    385    ccc     O3  11518 -0.83772800  16.000000   ; qtot 381.331466
11519         oh    385    ccc     O4  11519 -0.77449700  16.000000   ; qtot 380.556969
11520         c3    385    ccc     C6  11520 0.37576500  12.010000   ; qtot 380.932734
11521         ho    385    ccc     H6  11521 0.53656000   1.008000   ; qtot 381.469294
11522         ho    385    ccc     H7  11522 0.49492100   1.008000   ; qtot 381.964215
11523         ho    385    ccc     H8  11523 0.51297200   1.008000   ; qtot 382.477187
11524         h1    385    ccc     H9  11524 0.05653400   1.008000   ; qtot 382.533721
11525         h1    385    ccc    H10  11525 0.05653400   1.008000   ; qtot 382.590255
11526         oh    385    ccc     O5  11526 -0.84113600  16.000000   ; qtot 381.749119
11527         ho    385    ccc    H11  11527 0.51201600   1.008000   ; qtot 382.261135
11528         os    385    ccc     O6  11528 -0.26013600  16.000000   ; qtot 382.000999
; residue  386 ccc rtp ccc q 0.0
11529         c3    386    ccc     C1  11529 -0.33178800  12.010000   ; qtot 381.669211
11530         c3    386    ccc     C2  11530 0.30606500  12.010000   ; qtot 381.975276
11531         h1    386    ccc     H1  11531 0.11662300   1.008000   ; qtot 382.091899
11532         h1    386    ccc     H2  11532 0.11526800   1.008000   ; qtot 382.207167
11533         c3    386    ccc     C3  11533 0.15592700  12.010000   ; qtot 382.363094
11534         c3    386    ccc     C4  11534 0.28383300  12.010000   ; qtot 382.646927
11535         c3    386    ccc     C5  11535 0.32403300  12.010000   ; qtot 382.970960
11536         h1    386    ccc     H3  11536 0.13386900   1.008000   ; qtot 383.104829
11537         h1    386    ccc     H4  11537 0.10146700   1.008000   ; qtot 383.206296
11538         h2    386    ccc     H5  11538 0.10960400   1.008000   ; qtot 383.315900
11539         os    386    ccc     O1  11539 -0.28650000  16.000000   ; qtot 383.029400
11540         oh    386    ccc     O2  11540 -0.86012500  16.000000   ; qtot 382.169275
11541         oh    386    ccc     O3  11541 -0.83772800  16.000000   ; qtot 381.331547
11542         oh    386    ccc     O4  11542 -0.77449700  16.000000   ; qtot 380.557050
11543         c3    386    ccc     C6  11543 0.37576500  12.010000   ; qtot 380.932815
11544         ho    386    ccc     H6  11544 0.53656000   1.008000   ; qtot 381.469375
11545         ho    386    ccc     H7  11545 0.49492100   1.008000   ; qtot 381.964296
11546         ho    386    ccc     H8  11546 0.51297200   1.008000   ; qtot 382.477268
11547         h1    386    ccc     H9  11547 0.05653400   1.008000   ; qtot 382.533802
11548         h1    386    ccc    H10  11548 0.05653400   1.008000   ; qtot 382.590336
11549         oh    386    ccc     O5  11549 -0.84113600  16.000000   ; qtot 381.749200
11550         ho    386    ccc    H11  11550 0.51201600   1.008000   ; qtot 382.261216
11551         os    386    ccc     O6  11551 -0.26013600  16.000000   ; qtot 382.001080
; residue  387 ccc rtp ccc q 0.0
11552         c3    387    ccc     C1  11552 -0.33178800  12.010000   ; qtot 381.669292
11553         c3    387    ccc     C2  11553 0.30606500  12.010000   ; qtot 381.975357
11554         h1    387    ccc     H1  11554 0.11662300   1.008000   ; qtot 382.091980
11555         h1    387    ccc     H2  11555 0.11526800   1.008000   ; qtot 382.207248
11556         c3    387    ccc     C3  11556 0.15592700  12.010000   ; qtot 382.363175
11557         c3    387    ccc     C4  11557 0.28383300  12.010000   ; qtot 382.647008
11558         c3    387    ccc     C5  11558 0.32403300  12.010000   ; qtot 382.971041
11559         h1    387    ccc     H3  11559 0.13386900   1.008000   ; qtot 383.104910
11560         h1    387    ccc     H4  11560 0.10146700   1.008000   ; qtot 383.206377
11561         h2    387    ccc     H5  11561 0.10960400   1.008000   ; qtot 383.315981
11562         os    387    ccc     O1  11562 -0.28650000  16.000000   ; qtot 383.029481
11563         oh    387    ccc     O2  11563 -0.86012500  16.000000   ; qtot 382.169356
11564         oh    387    ccc     O3  11564 -0.83772800  16.000000   ; qtot 381.331628
11565         oh    387    ccc     O4  11565 -0.77449700  16.000000   ; qtot 380.557131
11566         c3    387    ccc     C6  11566 0.37576500  12.010000   ; qtot 380.932896
11567         ho    387    ccc     H6  11567 0.53656000   1.008000   ; qtot 381.469456
11568         ho    387    ccc     H7  11568 0.49492100   1.008000   ; qtot 381.964377
11569         ho    387    ccc     H8  11569 0.51297200   1.008000   ; qtot 382.477349
11570         h1    387    ccc     H9  11570 0.05653400   1.008000   ; qtot 382.533883
11571         h1    387    ccc    H10  11571 0.05653400   1.008000   ; qtot 382.590417
11572         oh    387    ccc     O5  11572 -0.84113600  16.000000   ; qtot 381.749281
11573         ho    387    ccc    H11  11573 0.51201600   1.008000   ; qtot 382.261297
11574         os    387    ccc     O6  11574 -0.26013600  16.000000   ; qtot 382.001161
; residue  388 ccc rtp ccc q 0.0
11575         c3    388    ccc     C1  11575 -0.33178800  12.010000   ; qtot 381.669373
11576         c3    388    ccc     C2  11576 0.30606500  12.010000   ; qtot 381.975438
11577         h1    388    ccc     H1  11577 0.11662300   1.008000   ; qtot 382.092061
11578         h1    388    ccc     H2  11578 0.11526800   1.008000   ; qtot 382.207329
11579         c3    388    ccc     C3  11579 0.15592700  12.010000   ; qtot 382.363256
11580         c3    388    ccc     C4  11580 0.28383300  12.010000   ; qtot 382.647089
11581         c3    388    ccc     C5  11581 0.32403300  12.010000   ; qtot 382.971122
11582         h1    388    ccc     H3  11582 0.13386900   1.008000   ; qtot 383.104991
11583         h1    388    ccc     H4  11583 0.10146700   1.008000   ; qtot 383.206458
11584         h2    388    ccc     H5  11584 0.10960400   1.008000   ; qtot 383.316062
11585         os    388    ccc     O1  11585 -0.28650000  16.000000   ; qtot 383.029562
11586         oh    388    ccc     O2  11586 -0.86012500  16.000000   ; qtot 382.169437
11587         oh    388    ccc     O3  11587 -0.83772800  16.000000   ; qtot 381.331709
11588         oh    388    ccc     O4  11588 -0.77449700  16.000000   ; qtot 380.557212
11589         c3    388    ccc     C6  11589 0.37576500  12.010000   ; qtot 380.932977
11590         ho    388    ccc     H6  11590 0.53656000   1.008000   ; qtot 381.469537
11591         ho    388    ccc     H7  11591 0.49492100   1.008000   ; qtot 381.964458
11592         ho    388    ccc     H8  11592 0.51297200   1.008000   ; qtot 382.477430
11593         h1    388    ccc     H9  11593 0.05653400   1.008000   ; qtot 382.533964
11594         h1    388    ccc    H10  11594 0.05653400   1.008000   ; qtot 382.590498
11595         oh    388    ccc     O5  11595 -0.84113600  16.000000   ; qtot 381.749362
11596         ho    388    ccc    H11  11596 0.51201600   1.008000   ; qtot 382.261378
11597         os    388    ccc     O6  11597 -0.26013600  16.000000   ; qtot 382.001242
; residue  389 ccc rtp ccc q 0.0
11598         c3    389    ccc     C1  11598 -0.33178800  12.010000   ; qtot 381.669454
11599         c3    389    ccc     C2  11599 0.30606500  12.010000   ; qtot 381.975519
11600         h1    389    ccc     H1  11600 0.11662300   1.008000   ; qtot 382.092142
11601         h1    389    ccc     H2  11601 0.11526800   1.008000   ; qtot 382.207410
11602         c3    389    ccc     C3  11602 0.15592700  12.010000   ; qtot 382.363337
11603         c3    389    ccc     C4  11603 0.28383300  12.010000   ; qtot 382.647170
11604         c3    389    ccc     C5  11604 0.32403300  12.010000   ; qtot 382.971203
11605         h1    389    ccc     H3  11605 0.13386900   1.008000   ; qtot 383.105072
11606         h1    389    ccc     H4  11606 0.10146700   1.008000   ; qtot 383.206539
11607         h2    389    ccc     H5  11607 0.10960400   1.008000   ; qtot 383.316143
11608         os    389    ccc     O1  11608 -0.28650000  16.000000   ; qtot 383.029643
11609         oh    389    ccc     O2  11609 -0.86012500  16.000000   ; qtot 382.169518
11610         oh    389    ccc     O3  11610 -0.83772800  16.000000   ; qtot 381.331790
11611         oh    389    ccc     O4  11611 -0.77449700  16.000000   ; qtot 380.557293
11612         c3    389    ccc     C6  11612 0.37576500  12.010000   ; qtot 380.933058
11613         ho    389    ccc     H6  11613 0.53656000   1.008000   ; qtot 381.469618
11614         ho    389    ccc     H7  11614 0.49492100   1.008000   ; qtot 381.964539
11615         ho    389    ccc     H8  11615 0.51297200   1.008000   ; qtot 382.477511
11616         h1    389    ccc     H9  11616 0.05653400   1.008000   ; qtot 382.534045
11617         h1    389    ccc    H10  11617 0.05653400   1.008000   ; qtot 382.590579
11618         oh    389    ccc     O5  11618 -0.84113600  16.000000   ; qtot 381.749443
11619         ho    389    ccc    H11  11619 0.51201600   1.008000   ; qtot 382.261459
11620         os    389    ccc     O6  11620 -0.26013600  16.000000   ; qtot 382.001323
; residue  390 ccc rtp ccc q 0.0
11621         c3    390    ccc     C1  11621 -0.33178800  12.010000   ; qtot 381.669535
11622         c3    390    ccc     C2  11622 0.30606500  12.010000   ; qtot 381.975600
11623         h1    390    ccc     H1  11623 0.11662300   1.008000   ; qtot 382.092223
11624         h1    390    ccc     H2  11624 0.11526800   1.008000   ; qtot 382.207491
11625         c3    390    ccc     C3  11625 0.15592700  12.010000   ; qtot 382.363418
11626         c3    390    ccc     C4  11626 0.28383300  12.010000   ; qtot 382.647251
11627         c3    390    ccc     C5  11627 0.32403300  12.010000   ; qtot 382.971284
11628         h1    390    ccc     H3  11628 0.13386900   1.008000   ; qtot 383.105153
11629         h1    390    ccc     H4  11629 0.10146700   1.008000   ; qtot 383.206620
11630         h2    390    ccc     H5  11630 0.10960400   1.008000   ; qtot 383.316224
11631         os    390    ccc     O1  11631 -0.28650000  16.000000   ; qtot 383.029724
11632         oh    390    ccc     O2  11632 -0.86012500  16.000000   ; qtot 382.169599
11633         oh    390    ccc     O3  11633 -0.83772800  16.000000   ; qtot 381.331871
11634         oh    390    ccc     O4  11634 -0.77449700  16.000000   ; qtot 380.557374
11635         c3    390    ccc     C6  11635 0.37576500  12.010000   ; qtot 380.933139
11636         ho    390    ccc     H6  11636 0.53656000   1.008000   ; qtot 381.469699
11637         ho    390    ccc     H7  11637 0.49492100   1.008000   ; qtot 381.964620
11638         ho    390    ccc     H8  11638 0.51297200   1.008000   ; qtot 382.477592
11639         h1    390    ccc     H9  11639 0.05653400   1.008000   ; qtot 382.534126
11640         h1    390    ccc    H10  11640 0.05653400   1.008000   ; qtot 382.590660
11641         oh    390    ccc     O5  11641 -0.84113600  16.000000   ; qtot 381.749524
11642         ho    390    ccc    H11  11642 0.51201600   1.008000   ; qtot 382.261540
11643         os    390    ccc     O6  11643 -0.26013600  16.000000   ; qtot 382.001404
; residue  391 ccc rtp ccc q 0.0
11644         c3    391    ccc     C1  11644 -0.33178800  12.010000   ; qtot 381.669616
11645         c3    391    ccc     C2  11645 0.30606500  12.010000   ; qtot 381.975681
11646         h1    391    ccc     H1  11646 0.11662300   1.008000   ; qtot 382.092304
11647         h1    391    ccc     H2  11647 0.11526800   1.008000   ; qtot 382.207572
11648         c3    391    ccc     C3  11648 0.15592700  12.010000   ; qtot 382.363499
11649         c3    391    ccc     C4  11649 0.28383300  12.010000   ; qtot 382.647332
11650         c3    391    ccc     C5  11650 0.32403300  12.010000   ; qtot 382.971365
11651         h1    391    ccc     H3  11651 0.13386900   1.008000   ; qtot 383.105234
11652         h1    391    ccc     H4  11652 0.10146700   1.008000   ; qtot 383.206701
11653         h2    391    ccc     H5  11653 0.10960400   1.008000   ; qtot 383.316305
11654         os    391    ccc     O1  11654 -0.28650000  16.000000   ; qtot 383.029805
11655         oh    391    ccc     O2  11655 -0.86012500  16.000000   ; qtot 382.169680
11656         oh    391    ccc     O3  11656 -0.83772800  16.000000   ; qtot 381.331952
11657         oh    391    ccc     O4  11657 -0.77449700  16.000000   ; qtot 380.557455
11658         c3    391    ccc     C6  11658 0.37576500  12.010000   ; qtot 380.933220
11659         ho    391    ccc     H6  11659 0.53656000   1.008000   ; qtot 381.469780
11660         ho    391    ccc     H7  11660 0.49492100   1.008000   ; qtot 381.964701
11661         ho    391    ccc     H8  11661 0.51297200   1.008000   ; qtot 382.477673
11662         h1    391    ccc     H9  11662 0.05653400   1.008000   ; qtot 382.534207
11663         h1    391    ccc    H10  11663 0.05653400   1.008000   ; qtot 382.590741
11664         oh    391    ccc     O5  11664 -0.84113600  16.000000   ; qtot 381.749605
11665         ho    391    ccc    H11  11665 0.51201600   1.008000   ; qtot 382.261621
11666         os    391    ccc     O6  11666 -0.26013600  16.000000   ; qtot 382.001485
; residue  392 ccc rtp ccc q 0.0
11667         c3    392    ccc     C1  11667 -0.33178800  12.010000   ; qtot 381.669697
11668         c3    392    ccc     C2  11668 0.30606500  12.010000   ; qtot 381.975762
11669         h1    392    ccc     H1  11669 0.11662300   1.008000   ; qtot 382.092385
11670         h1    392    ccc     H2  11670 0.11526800   1.008000   ; qtot 382.207653
11671         c3    392    ccc     C3  11671 0.15592700  12.010000   ; qtot 382.363580
11672         c3    392    ccc     C4  11672 0.28383300  12.010000   ; qtot 382.647413
11673         c3    392    ccc     C5  11673 0.32403300  12.010000   ; qtot 382.971446
11674         h1    392    ccc     H3  11674 0.13386900   1.008000   ; qtot 383.105315
11675         h1    392    ccc     H4  11675 0.10146700   1.008000   ; qtot 383.206782
11676         h2    392    ccc     H5  11676 0.10960400   1.008000   ; qtot 383.316386
11677         os    392    ccc     O1  11677 -0.28650000  16.000000   ; qtot 383.029886
11678         oh    392    ccc     O2  11678 -0.86012500  16.000000   ; qtot 382.169761
11679         oh    392    ccc     O3  11679 -0.83772800  16.000000   ; qtot 381.332033
11680         oh    392    ccc     O4  11680 -0.77449700  16.000000   ; qtot 380.557536
11681         c3    392    ccc     C6  11681 0.37576500  12.010000   ; qtot 380.933301
11682         ho    392    ccc     H6  11682 0.53656000   1.008000   ; qtot 381.469861
11683         ho    392    ccc     H7  11683 0.49492100   1.008000   ; qtot 381.964782
11684         ho    392    ccc     H8  11684 0.51297200   1.008000   ; qtot 382.477754
11685         h1    392    ccc     H9  11685 0.05653400   1.008000   ; qtot 382.534288
11686         h1    392    ccc    H10  11686 0.05653400   1.008000   ; qtot 382.590822
11687         oh    392    ccc     O5  11687 -0.84113600  16.000000   ; qtot 381.749686
11688         ho    392    ccc    H11  11688 0.51201600   1.008000   ; qtot 382.261702
11689         os    392    ccc     O6  11689 -0.26013600  16.000000   ; qtot 382.001566
; residue  393 ccc rtp ccc q 0.0
11690         c3    393    ccc     C1  11690 -0.33178800  12.010000   ; qtot 381.669778
11691         c3    393    ccc     C2  11691 0.30606500  12.010000   ; qtot 381.975843
11692         h1    393    ccc     H1  11692 0.11662300   1.008000   ; qtot 382.092466
11693         h1    393    ccc     H2  11693 0.11526800   1.008000   ; qtot 382.207734
11694         c3    393    ccc     C3  11694 0.15592700  12.010000   ; qtot 382.363661
11695         c3    393    ccc     C4  11695 0.28383300  12.010000   ; qtot 382.647494
11696         c3    393    ccc     C5  11696 0.32403300  12.010000   ; qtot 382.971527
11697         h1    393    ccc     H3  11697 0.13386900   1.008000   ; qtot 383.105396
11698         h1    393    ccc     H4  11698 0.10146700   1.008000   ; qtot 383.206863
11699         h2    393    ccc     H5  11699 0.10960400   1.008000   ; qtot 383.316467
11700         os    393    ccc     O1  11700 -0.28650000  16.000000   ; qtot 383.029967
11701         oh    393    ccc     O2  11701 -0.86012500  16.000000   ; qtot 382.169842
11702         oh    393    ccc     O3  11702 -0.83772800  16.000000   ; qtot 381.332114
11703         oh    393    ccc     O4  11703 -0.77449700  16.000000   ; qtot 380.557617
11704         c3    393    ccc     C6  11704 0.37576500  12.010000   ; qtot 380.933382
11705         ho    393    ccc     H6  11705 0.53656000   1.008000   ; qtot 381.469942
11706         ho    393    ccc     H7  11706 0.49492100   1.008000   ; qtot 381.964863
11707         ho    393    ccc     H8  11707 0.51297200   1.008000   ; qtot 382.477835
11708         h1    393    ccc     H9  11708 0.05653400   1.008000   ; qtot 382.534369
11709         h1    393    ccc    H10  11709 0.05653400   1.008000   ; qtot 382.590903
11710         oh    393    ccc     O5  11710 -0.84113600  16.000000   ; qtot 381.749767
11711         ho    393    ccc    H11  11711 0.51201600   1.008000   ; qtot 382.261783
11712         os    393    ccc     O6  11712 -0.26013600  16.000000   ; qtot 382.001647
; residue  394 ccc rtp ccc q 0.0
11713         c3    394    ccc     C1  11713 -0.33178800  12.010000   ; qtot 381.669859
11714         c3    394    ccc     C2  11714 0.30606500  12.010000   ; qtot 381.975924
11715         h1    394    ccc     H1  11715 0.11662300   1.008000   ; qtot 382.092547
11716         h1    394    ccc     H2  11716 0.11526800   1.008000   ; qtot 382.207815
11717         c3    394    ccc     C3  11717 0.15592700  12.010000   ; qtot 382.363742
11718         c3    394    ccc     C4  11718 0.28383300  12.010000   ; qtot 382.647575
11719         c3    394    ccc     C5  11719 0.32403300  12.010000   ; qtot 382.971608
11720         h1    394    ccc     H3  11720 0.13386900   1.008000   ; qtot 383.105477
11721         h1    394    ccc     H4  11721 0.10146700   1.008000   ; qtot 383.206944
11722         h2    394    ccc     H5  11722 0.10960400   1.008000   ; qtot 383.316548
11723         os    394    ccc     O1  11723 -0.28650000  16.000000   ; qtot 383.030048
11724         oh    394    ccc     O2  11724 -0.86012500  16.000000   ; qtot 382.169923
11725         oh    394    ccc     O3  11725 -0.83772800  16.000000   ; qtot 381.332195
11726         oh    394    ccc     O4  11726 -0.77449700  16.000000   ; qtot 380.557698
11727         c3    394    ccc     C6  11727 0.37576500  12.010000   ; qtot 380.933463
11728         ho    394    ccc     H6  11728 0.53656000   1.008000   ; qtot 381.470023
11729         ho    394    ccc     H7  11729 0.49492100   1.008000   ; qtot 381.964944
11730         ho    394    ccc     H8  11730 0.51297200   1.008000   ; qtot 382.477916
11731         h1    394    ccc     H9  11731 0.05653400   1.008000   ; qtot 382.534450
11732         h1    394    ccc    H10  11732 0.05653400   1.008000   ; qtot 382.590984
11733         oh    394    ccc     O5  11733 -0.84113600  16.000000   ; qtot 381.749848
11734         ho    394    ccc    H11  11734 0.51201600   1.008000   ; qtot 382.261864
11735         os    394    ccc     O6  11735 -0.26013600  16.000000   ; qtot 382.001728
; residue  395 ccc rtp ccc q 0.0
11736         c3    395    ccc     C1  11736 -0.33178800  12.010000   ; qtot 381.669940
11737         c3    395    ccc     C2  11737 0.30606500  12.010000   ; qtot 381.976005
11738         h1    395    ccc     H1  11738 0.11662300   1.008000   ; qtot 382.092628
11739         h1    395    ccc     H2  11739 0.11526800   1.008000   ; qtot 382.207896
11740         c3    395    ccc     C3  11740 0.15592700  12.010000   ; qtot 382.363823
11741         c3    395    ccc     C4  11741 0.28383300  12.010000   ; qtot 382.647656
11742         c3    395    ccc     C5  11742 0.32403300  12.010000   ; qtot 382.971689
11743         h1    395    ccc     H3  11743 0.13386900   1.008000   ; qtot 383.105558
11744         h1    395    ccc     H4  11744 0.10146700   1.008000   ; qtot 383.207025
11745         h2    395    ccc     H5  11745 0.10960400   1.008000   ; qtot 383.316629
11746         os    395    ccc     O1  11746 -0.28650000  16.000000   ; qtot 383.030129
11747         oh    395    ccc     O2  11747 -0.86012500  16.000000   ; qtot 382.170004
11748         oh    395    ccc     O3  11748 -0.83772800  16.000000   ; qtot 381.332276
11749         oh    395    ccc     O4  11749 -0.77449700  16.000000   ; qtot 380.557779
11750         c3    395    ccc     C6  11750 0.37576500  12.010000   ; qtot 380.933544
11751         ho    395    ccc     H6  11751 0.53656000   1.008000   ; qtot 381.470104
11752         ho    395    ccc     H7  11752 0.49492100   1.008000   ; qtot 381.965025
11753         ho    395    ccc     H8  11753 0.51297200   1.008000   ; qtot 382.477997
11754         h1    395    ccc     H9  11754 0.05653400   1.008000   ; qtot 382.534531
11755         h1    395    ccc    H10  11755 0.05653400   1.008000   ; qtot 382.591065
11756         oh    395    ccc     O5  11756 -0.84113600  16.000000   ; qtot 381.749929
11757         ho    395    ccc    H11  11757 0.51201600   1.008000   ; qtot 382.261945
11758         os    395    ccc     O6  11758 -0.26013600  16.000000   ; qtot 382.001809
; residue  396 ccc rtp ccc q 0.0
11759         c3    396    ccc     C1  11759 -0.33178800  12.010000   ; qtot 381.670021
11760         c3    396    ccc     C2  11760 0.30606500  12.010000   ; qtot 381.976086
11761         h1    396    ccc     H1  11761 0.11662300   1.008000   ; qtot 382.092709
11762         h1    396    ccc     H2  11762 0.11526800   1.008000   ; qtot 382.207977
11763         c3    396    ccc     C3  11763 0.15592700  12.010000   ; qtot 382.363904
11764         c3    396    ccc     C4  11764 0.28383300  12.010000   ; qtot 382.647737
11765         c3    396    ccc     C5  11765 0.32403300  12.010000   ; qtot 382.971770
11766         h1    396    ccc     H3  11766 0.13386900   1.008000   ; qtot 383.105639
11767         h1    396    ccc     H4  11767 0.10146700   1.008000   ; qtot 383.207106
11768         h2    396    ccc     H5  11768 0.10960400   1.008000   ; qtot 383.316710
11769         os    396    ccc     O1  11769 -0.28650000  16.000000   ; qtot 383.030210
11770         oh    396    ccc     O2  11770 -0.86012500  16.000000   ; qtot 382.170085
11771         oh    396    ccc     O3  11771 -0.83772800  16.000000   ; qtot 381.332357
11772         oh    396    ccc     O4  11772 -0.77449700  16.000000   ; qtot 380.557860
11773         c3    396    ccc     C6  11773 0.37576500  12.010000   ; qtot 380.933625
11774         ho    396    ccc     H6  11774 0.53656000   1.008000   ; qtot 381.470185
11775         ho    396    ccc     H7  11775 0.49492100   1.008000   ; qtot 381.965106
11776         ho    396    ccc     H8  11776 0.51297200   1.008000   ; qtot 382.478078
11777         h1    396    ccc     H9  11777 0.05653400   1.008000   ; qtot 382.534612
11778         h1    396    ccc    H10  11778 0.05653400   1.008000   ; qtot 382.591146
11779         oh    396    ccc     O5  11779 -0.84113600  16.000000   ; qtot 381.750010
11780         ho    396    ccc    H11  11780 0.51201600   1.008000   ; qtot 382.262026
11781         os    396    ccc     O6  11781 -0.26013600  16.000000   ; qtot 382.001890
; residue  397 ccc rtp ccc q 0.0
11782         c3    397    ccc     C1  11782 -0.33178800  12.010000   ; qtot 381.670102
11783         c3    397    ccc     C2  11783 0.30606500  12.010000   ; qtot 381.976167
11784         h1    397    ccc     H1  11784 0.11662300   1.008000   ; qtot 382.092790
11785         h1    397    ccc     H2  11785 0.11526800   1.008000   ; qtot 382.208058
11786         c3    397    ccc     C3  11786 0.15592700  12.010000   ; qtot 382.363985
11787         c3    397    ccc     C4  11787 0.28383300  12.010000   ; qtot 382.647818
11788         c3    397    ccc     C5  11788 0.32403300  12.010000   ; qtot 382.971851
11789         h1    397    ccc     H3  11789 0.13386900   1.008000   ; qtot 383.105720
11790         h1    397    ccc     H4  11790 0.10146700   1.008000   ; qtot 383.207187
11791         h2    397    ccc     H5  11791 0.10960400   1.008000   ; qtot 383.316791
11792         os    397    ccc     O1  11792 -0.28650000  16.000000   ; qtot 383.030291
11793         oh    397    ccc     O2  11793 -0.86012500  16.000000   ; qtot 382.170166
11794         oh    397    ccc     O3  11794 -0.83772800  16.000000   ; qtot 381.332438
11795         oh    397    ccc     O4  11795 -0.77449700  16.000000   ; qtot 380.557941
11796         c3    397    ccc     C6  11796 0.37576500  12.010000   ; qtot 380.933706
11797         ho    397    ccc     H6  11797 0.53656000   1.008000   ; qtot 381.470266
11798         ho    397    ccc     H7  11798 0.49492100   1.008000   ; qtot 381.965187
11799         ho    397    ccc     H8  11799 0.51297200   1.008000   ; qtot 382.478159
11800         h1    397    ccc     H9  11800 0.05653400   1.008000   ; qtot 382.534693
11801         h1    397    ccc    H10  11801 0.05653400   1.008000   ; qtot 382.591227
11802         oh    397    ccc     O5  11802 -0.84113600  16.000000   ; qtot 381.750091
11803         ho    397    ccc    H11  11803 0.51201600   1.008000   ; qtot 382.262107
11804         os    397    ccc     O6  11804 -0.26013600  16.000000   ; qtot 382.001971
; residue  398 ccc rtp ccc q 0.0
11805         c3    398    ccc     C1  11805 -0.33178800  12.010000   ; qtot 381.670183
11806         c3    398    ccc     C2  11806 0.30606500  12.010000   ; qtot 381.976248
11807         h1    398    ccc     H1  11807 0.11662300   1.008000   ; qtot 382.092871
11808         h1    398    ccc     H2  11808 0.11526800   1.008000   ; qtot 382.208139
11809         c3    398    ccc     C3  11809 0.15592700  12.010000   ; qtot 382.364066
11810         c3    398    ccc     C4  11810 0.28383300  12.010000   ; qtot 382.647899
11811         c3    398    ccc     C5  11811 0.32403300  12.010000   ; qtot 382.971932
11812         h1    398    ccc     H3  11812 0.13386900   1.008000   ; qtot 383.105801
11813         h1    398    ccc     H4  11813 0.10146700   1.008000   ; qtot 383.207268
11814         h2    398    ccc     H5  11814 0.10960400   1.008000   ; qtot 383.316872
11815         os    398    ccc     O1  11815 -0.28650000  16.000000   ; qtot 383.030372
11816         oh    398    ccc     O2  11816 -0.86012500  16.000000   ; qtot 382.170247
11817         oh    398    ccc     O3  11817 -0.83772800  16.000000   ; qtot 381.332519
11818         oh    398    ccc     O4  11818 -0.77449700  16.000000   ; qtot 380.558022
11819         c3    398    ccc     C6  11819 0.37576500  12.010000   ; qtot 380.933787
11820         ho    398    ccc     H6  11820 0.53656000   1.008000   ; qtot 381.470347
11821         ho    398    ccc     H7  11821 0.49492100   1.008000   ; qtot 381.965268
11822         ho    398    ccc     H8  11822 0.51297200   1.008000   ; qtot 382.478240
11823         h1    398    ccc     H9  11823 0.05653400   1.008000   ; qtot 382.534774
11824         h1    398    ccc    H10  11824 0.05653400   1.008000   ; qtot 382.591308
11825         oh    398    ccc     O5  11825 -0.84113600  16.000000   ; qtot 381.750172
11826         ho    398    ccc    H11  11826 0.51201600   1.008000   ; qtot 382.262188
11827         os    398    ccc     O6  11827 -0.26013600  16.000000   ; qtot 382.002052
; residue  399 ccc rtp ccc q 0.0
11828         c3    399    ccc     C1  11828 -0.33178800  12.010000   ; qtot 381.670264
11829         c3    399    ccc     C2  11829 0.30606500  12.010000   ; qtot 381.976329
11830         h1    399    ccc     H1  11830 0.11662300   1.008000   ; qtot 382.092952
11831         h1    399    ccc     H2  11831 0.11526800   1.008000   ; qtot 382.208220
11832         c3    399    ccc     C3  11832 0.15592700  12.010000   ; qtot 382.364147
11833         c3    399    ccc     C4  11833 0.28383300  12.010000   ; qtot 382.647980
11834         c3    399    ccc     C5  11834 0.32403300  12.010000   ; qtot 382.972013
11835         h1    399    ccc     H3  11835 0.13386900   1.008000   ; qtot 383.105882
11836         h1    399    ccc     H4  11836 0.10146700   1.008000   ; qtot 383.207349
11837         h2    399    ccc     H5  11837 0.10960400   1.008000   ; qtot 383.316953
11838         os    399    ccc     O1  11838 -0.28650000  16.000000   ; qtot 383.030453
11839         oh    399    ccc     O2  11839 -0.86012500  16.000000   ; qtot 382.170328
11840         oh    399    ccc     O3  11840 -0.83772800  16.000000   ; qtot 381.332600
11841         oh    399    ccc     O4  11841 -0.77449700  16.000000   ; qtot 380.558103
11842         c3    399    ccc     C6  11842 0.37576500  12.010000   ; qtot 380.933868
11843         ho    399    ccc     H6  11843 0.53656000   1.008000   ; qtot 381.470428
11844         ho    399    ccc     H7  11844 0.49492100   1.008000   ; qtot 381.965349
11845         ho    399    ccc     H8  11845 0.51297200   1.008000   ; qtot 382.478321
11846         h1    399    ccc     H9  11846 0.05653400   1.008000   ; qtot 382.534855
11847         h1    399    ccc    H10  11847 0.05653400   1.008000   ; qtot 382.591389
11848         oh    399    ccc     O5  11848 -0.84113600  16.000000   ; qtot 381.750253
11849         ho    399    ccc    H11  11849 0.51201600   1.008000   ; qtot 382.262269
11850         os    399    ccc     O6  11850 -0.26013600  16.000000   ; qtot 382.002133
; residue  400 ccc rtp ccc q 0.0
11851         c3    400    ccc     C1  11851 -0.33178800  12.010000   ; qtot 381.670345
11852         c3    400    ccc     C2  11852 0.30606500  12.010000   ; qtot 381.976410
11853         h1    400    ccc     H1  11853 0.11662300   1.008000   ; qtot 382.093033
11854         h1    400    ccc     H2  11854 0.11526800   1.008000   ; qtot 382.208301
11855         c3    400    ccc     C3  11855 0.15592700  12.010000   ; qtot 382.364228
11856         c3    400    ccc     C4  11856 0.28383300  12.010000   ; qtot 382.648061
11857         c3    400    ccc     C5  11857 0.32403300  12.010000   ; qtot 382.972094
11858         h1    400    ccc     H3  11858 0.13386900   1.008000   ; qtot 383.105963
11859         h1    400    ccc     H4  11859 0.10146700   1.008000   ; qtot 383.207430
11860         h2    400    ccc     H5  11860 0.10960400   1.008000   ; qtot 383.317034
11861         os    400    ccc     O1  11861 -0.28650000  16.000000   ; qtot 383.030534
11862         oh    400    ccc     O2  11862 -0.86012500  16.000000   ; qtot 382.170409
11863         oh    400    ccc     O3  11863 -0.83772800  16.000000   ; qtot 381.332681
11864         oh    400    ccc     O4  11864 -0.77449700  16.000000   ; qtot 380.558184
11865         c3    400    ccc     C6  11865 0.37576500  12.010000   ; qtot 380.933949
11866         ho    400    ccc     H6  11866 0.53656000   1.008000   ; qtot 381.470509
11867         ho    400    ccc     H7  11867 0.49492100   1.008000   ; qtot 381.965430
11868         ho    400    ccc     H8  11868 0.51297200   1.008000   ; qtot 382.478402
11869         h1    400    ccc     H9  11869 0.05653400   1.008000   ; qtot 382.534936
11870         h1    400    ccc    H10  11870 0.05653400   1.008000   ; qtot 382.591470
11871         oh    400    ccc     O5  11871 -0.84113600  16.000000   ; qtot 381.750334
11872         ho    400    ccc    H11  11872 0.51201600   1.008000   ; qtot 382.262350
11873         os    400    ccc     O6  11873 -0.26013600  16.000000   ; qtot 382.002214
; residue  401 ccc rtp ccc q 0.0
11874         c3    401    ccc     C1  11874 -0.33178800  12.010000   ; qtot 381.670426
11875         c3    401    ccc     C2  11875 0.30606500  12.010000   ; qtot 381.976491
11876         h1    401    ccc     H1  11876 0.11662300   1.008000   ; qtot 382.093114
11877         h1    401    ccc     H2  11877 0.11526800   1.008000   ; qtot 382.208382
11878         c3    401    ccc     C3  11878 0.15592700  12.010000   ; qtot 382.364309
11879         c3    401    ccc     C4  11879 0.28383300  12.010000   ; qtot 382.648142
11880         c3    401    ccc     C5  11880 0.32403300  12.010000   ; qtot 382.972175
11881         h1    401    ccc     H3  11881 0.13386900   1.008000   ; qtot 383.106044
11882         h1    401    ccc     H4  11882 0.10146700   1.008000   ; qtot 383.207511
11883         h2    401    ccc     H5  11883 0.10960400   1.008000   ; qtot 383.317115
11884         os    401    ccc     O1  11884 -0.28650000  16.000000   ; qtot 383.030615
11885         oh    401    ccc     O2  11885 -0.86012500  16.000000   ; qtot 382.170490
11886         oh    401    ccc     O3  11886 -0.83772800  16.000000   ; qtot 381.332762
11887         oh    401    ccc     O4  11887 -0.77449700  16.000000   ; qtot 380.558265
11888         c3    401    ccc     C6  11888 0.37576500  12.010000   ; qtot 380.934030
11889         ho    401    ccc     H6  11889 0.53656000   1.008000   ; qtot 381.470590
11890         ho    401    ccc     H7  11890 0.49492100   1.008000   ; qtot 381.965511
11891         ho    401    ccc     H8  11891 0.51297200   1.008000   ; qtot 382.478483
11892         h1    401    ccc     H9  11892 0.05653400   1.008000   ; qtot 382.535017
11893         h1    401    ccc    H10  11893 0.05653400   1.008000   ; qtot 382.591551
11894         oh    401    ccc     O5  11894 -0.84113600  16.000000   ; qtot 381.750415
11895         ho    401    ccc    H11  11895 0.51201600   1.008000   ; qtot 382.262431
11896         os    401    ccc     O6  11896 -0.26013600  16.000000   ; qtot 382.002295
; residue  402 ccc rtp ccc q 0.0
11897         c3    402    ccc     C1  11897 -0.33178800  12.010000   ; qtot 381.670507
11898         c3    402    ccc     C2  11898 0.30606500  12.010000   ; qtot 381.976572
11899         h1    402    ccc     H1  11899 0.11662300   1.008000   ; qtot 382.093195
11900         h1    402    ccc     H2  11900 0.11526800   1.008000   ; qtot 382.208463
11901         c3    402    ccc     C3  11901 0.15592700  12.010000   ; qtot 382.364390
11902         c3    402    ccc     C4  11902 0.28383300  12.010000   ; qtot 382.648223
11903         c3    402    ccc     C5  11903 0.32403300  12.010000   ; qtot 382.972256
11904         h1    402    ccc     H3  11904 0.13386900   1.008000   ; qtot 383.106125
11905         h1    402    ccc     H4  11905 0.10146700   1.008000   ; qtot 383.207592
11906         h2    402    ccc     H5  11906 0.10960400   1.008000   ; qtot 383.317196
11907         os    402    ccc     O1  11907 -0.28650000  16.000000   ; qtot 383.030696
11908         oh    402    ccc     O2  11908 -0.86012500  16.000000   ; qtot 382.170571
11909         oh    402    ccc     O3  11909 -0.83772800  16.000000   ; qtot 381.332843
11910         oh    402    ccc     O4  11910 -0.77449700  16.000000   ; qtot 380.558346
11911         c3    402    ccc     C6  11911 0.37576500  12.010000   ; qtot 380.934111
11912         ho    402    ccc     H6  11912 0.53656000   1.008000   ; qtot 381.470671
11913         ho    402    ccc     H7  11913 0.49492100   1.008000   ; qtot 381.965592
11914         ho    402    ccc     H8  11914 0.51297200   1.008000   ; qtot 382.478564
11915         h1    402    ccc     H9  11915 0.05653400   1.008000   ; qtot 382.535098
11916         h1    402    ccc    H10  11916 0.05653400   1.008000   ; qtot 382.591632
11917         oh    402    ccc     O5  11917 -0.84113600  16.000000   ; qtot 381.750496
11918         ho    402    ccc    H11  11918 0.51201600   1.008000   ; qtot 382.262512
11919         os    402    ccc     O6  11919 -0.26013600  16.000000   ; qtot 382.002376
; residue  403 ccc rtp ccc q 0.0
11920         c3    403    ccc     C1  11920 -0.33178800  12.010000   ; qtot 381.670588
11921         c3    403    ccc     C2  11921 0.30606500  12.010000   ; qtot 381.976653
11922         h1    403    ccc     H1  11922 0.11662300   1.008000   ; qtot 382.093276
11923         h1    403    ccc     H2  11923 0.11526800   1.008000   ; qtot 382.208544
11924         c3    403    ccc     C3  11924 0.15592700  12.010000   ; qtot 382.364471
11925         c3    403    ccc     C4  11925 0.28383300  12.010000   ; qtot 382.648304
11926         c3    403    ccc     C5  11926 0.32403300  12.010000   ; qtot 382.972337
11927         h1    403    ccc     H3  11927 0.13386900   1.008000   ; qtot 383.106206
11928         h1    403    ccc     H4  11928 0.10146700   1.008000   ; qtot 383.207673
11929         h2    403    ccc     H5  11929 0.10960400   1.008000   ; qtot 383.317277
11930         os    403    ccc     O1  11930 -0.28650000  16.000000   ; qtot 383.030777
11931         oh    403    ccc     O2  11931 -0.86012500  16.000000   ; qtot 382.170652
11932         oh    403    ccc     O3  11932 -0.83772800  16.000000   ; qtot 381.332924
11933         oh    403    ccc     O4  11933 -0.77449700  16.000000   ; qtot 380.558427
11934         c3    403    ccc     C6  11934 0.37576500  12.010000   ; qtot 380.934192
11935         ho    403    ccc     H6  11935 0.53656000   1.008000   ; qtot 381.470752
11936         ho    403    ccc     H7  11936 0.49492100   1.008000   ; qtot 381.965673
11937         ho    403    ccc     H8  11937 0.51297200   1.008000   ; qtot 382.478645
11938         h1    403    ccc     H9  11938 0.05653400   1.008000   ; qtot 382.535179
11939         h1    403    ccc    H10  11939 0.05653400   1.008000   ; qtot 382.591713
11940         oh    403    ccc     O5  11940 -0.84113600  16.000000   ; qtot 381.750577
11941         ho    403    ccc    H11  11941 0.51201600   1.008000   ; qtot 382.262593
11942         os    403    ccc     O6  11942 -0.26013600  16.000000   ; qtot 382.002457
; residue  404 ccc rtp ccc q 0.0
11943         c3    404    ccc     C1  11943 -0.33178800  12.010000   ; qtot 381.670669
11944         c3    404    ccc     C2  11944 0.30606500  12.010000   ; qtot 381.976734
11945         h1    404    ccc     H1  11945 0.11662300   1.008000   ; qtot 382.093357
11946         h1    404    ccc     H2  11946 0.11526800   1.008000   ; qtot 382.208625
11947         c3    404    ccc     C3  11947 0.15592700  12.010000   ; qtot 382.364552
11948         c3    404    ccc     C4  11948 0.28383300  12.010000   ; qtot 382.648385
11949         c3    404    ccc     C5  11949 0.32403300  12.010000   ; qtot 382.972418
11950         h1    404    ccc     H3  11950 0.13386900   1.008000   ; qtot 383.106287
11951         h1    404    ccc     H4  11951 0.10146700   1.008000   ; qtot 383.207754
11952         h2    404    ccc     H5  11952 0.10960400   1.008000   ; qtot 383.317358
11953         os    404    ccc     O1  11953 -0.28650000  16.000000   ; qtot 383.030858
11954         oh    404    ccc     O2  11954 -0.86012500  16.000000   ; qtot 382.170733
11955         oh    404    ccc     O3  11955 -0.83772800  16.000000   ; qtot 381.333005
11956         oh    404    ccc     O4  11956 -0.77449700  16.000000   ; qtot 380.558508
11957         c3    404    ccc     C6  11957 0.37576500  12.010000   ; qtot 380.934273
11958         ho    404    ccc     H6  11958 0.53656000   1.008000   ; qtot 381.470833
11959         ho    404    ccc     H7  11959 0.49492100   1.008000   ; qtot 381.965754
11960         ho    404    ccc     H8  11960 0.51297200   1.008000   ; qtot 382.478726
11961         h1    404    ccc     H9  11961 0.05653400   1.008000   ; qtot 382.535260
11962         h1    404    ccc    H10  11962 0.05653400   1.008000   ; qtot 382.591794
11963         oh    404    ccc     O5  11963 -0.84113600  16.000000   ; qtot 381.750658
11964         ho    404    ccc    H11  11964 0.51201600   1.008000   ; qtot 382.262674
11965         os    404    ccc     O6  11965 -0.26013600  16.000000   ; qtot 382.002538
; residue  405 ccc rtp ccc q 0.0
11966         c3    405    ccc     C1  11966 -0.33178800  12.010000   ; qtot 381.670750
11967         c3    405    ccc     C2  11967 0.30606500  12.010000   ; qtot 381.976815
11968         h1    405    ccc     H1  11968 0.11662300   1.008000   ; qtot 382.093438
11969         h1    405    ccc     H2  11969 0.11526800   1.008000   ; qtot 382.208706
11970         c3    405    ccc     C3  11970 0.15592700  12.010000   ; qtot 382.364633
11971         c3    405    ccc     C4  11971 0.28383300  12.010000   ; qtot 382.648466
11972         c3    405    ccc     C5  11972 0.32403300  12.010000   ; qtot 382.972499
11973         h1    405    ccc     H3  11973 0.13386900   1.008000   ; qtot 383.106368
11974         h1    405    ccc     H4  11974 0.10146700   1.008000   ; qtot 383.207835
11975         h2    405    ccc     H5  11975 0.10960400   1.008000   ; qtot 383.317439
11976         os    405    ccc     O1  11976 -0.28650000  16.000000   ; qtot 383.030939
11977         oh    405    ccc     O2  11977 -0.86012500  16.000000   ; qtot 382.170814
11978         oh    405    ccc     O3  11978 -0.83772800  16.000000   ; qtot 381.333086
11979         oh    405    ccc     O4  11979 -0.77449700  16.000000   ; qtot 380.558589
11980         c3    405    ccc     C6  11980 0.37576500  12.010000   ; qtot 380.934354
11981         ho    405    ccc     H6  11981 0.53656000   1.008000   ; qtot 381.470914
11982         ho    405    ccc     H7  11982 0.49492100   1.008000   ; qtot 381.965835
11983         ho    405    ccc     H8  11983 0.51297200   1.008000   ; qtot 382.478807
11984         h1    405    ccc     H9  11984 0.05653400   1.008000   ; qtot 382.535341
11985         h1    405    ccc    H10  11985 0.05653400   1.008000   ; qtot 382.591875
11986         oh    405    ccc     O5  11986 -0.84113600  16.000000   ; qtot 381.750739
11987         ho    405    ccc    H11  11987 0.51201600   1.008000   ; qtot 382.262755
11988         os    405    ccc     O6  11988 -0.26013600  16.000000   ; qtot 382.002619
; residue  406 ccc rtp ccc q 0.0
11989         c3    406    ccc     C1  11989 -0.33178800  12.010000   ; qtot 381.670831
11990         c3    406    ccc     C2  11990 0.30606500  12.010000   ; qtot 381.976896
11991         h1    406    ccc     H1  11991 0.11662300   1.008000   ; qtot 382.093519
11992         h1    406    ccc     H2  11992 0.11526800   1.008000   ; qtot 382.208787
11993         c3    406    ccc     C3  11993 0.15592700  12.010000   ; qtot 382.364714
11994         c3    406    ccc     C4  11994 0.28383300  12.010000   ; qtot 382.648547
11995         c3    406    ccc     C5  11995 0.32403300  12.010000   ; qtot 382.972580
11996         h1    406    ccc     H3  11996 0.13386900   1.008000   ; qtot 383.106449
11997         h1    406    ccc     H4  11997 0.10146700   1.008000   ; qtot 383.207916
11998         h2    406    ccc     H5  11998 0.10960400   1.008000   ; qtot 383.317520
11999         os    406    ccc     O1  11999 -0.28650000  16.000000   ; qtot 383.031020
12000         oh    406    ccc     O2  12000 -0.86012500  16.000000   ; qtot 382.170895
12001         oh    406    ccc     O3  12001 -0.83772800  16.000000   ; qtot 381.333167
12002         oh    406    ccc     O4  12002 -0.77449700  16.000000   ; qtot 380.558670
12003         c3    406    ccc     C6  12003 0.37576500  12.010000   ; qtot 380.934435
12004         ho    406    ccc     H6  12004 0.53656000   1.008000   ; qtot 381.470995
12005         ho    406    ccc     H7  12005 0.49492100   1.008000   ; qtot 381.965916
12006         ho    406    ccc     H8  12006 0.51297200   1.008000   ; qtot 382.478888
12007         h1    406    ccc     H9  12007 0.05653400   1.008000   ; qtot 382.535422
12008         h1    406    ccc    H10  12008 0.05653400   1.008000   ; qtot 382.591956
12009         oh    406    ccc     O5  12009 -0.84113600  16.000000   ; qtot 381.750820
12010         ho    406    ccc    H11  12010 0.51201600   1.008000   ; qtot 382.262836
12011         os    406    ccc     O6  12011 -0.26013600  16.000000   ; qtot 382.002700
; residue  407 ccc rtp ccc q 0.0
12012         c3    407    ccc     C1  12012 -0.33178800  12.010000   ; qtot 381.670912
12013         c3    407    ccc     C2  12013 0.30606500  12.010000   ; qtot 381.976977
12014         h1    407    ccc     H1  12014 0.11662300   1.008000   ; qtot 382.093600
12015         h1    407    ccc     H2  12015 0.11526800   1.008000   ; qtot 382.208868
12016         c3    407    ccc     C3  12016 0.15592700  12.010000   ; qtot 382.364795
12017         c3    407    ccc     C4  12017 0.28383300  12.010000   ; qtot 382.648628
12018         c3    407    ccc     C5  12018 0.32403300  12.010000   ; qtot 382.972661
12019         h1    407    ccc     H3  12019 0.13386900   1.008000   ; qtot 383.106530
12020         h1    407    ccc     H4  12020 0.10146700   1.008000   ; qtot 383.207997
12021         h2    407    ccc     H5  12021 0.10960400   1.008000   ; qtot 383.317601
12022         os    407    ccc     O1  12022 -0.28650000  16.000000   ; qtot 383.031101
12023         oh    407    ccc     O2  12023 -0.86012500  16.000000   ; qtot 382.170976
12024         oh    407    ccc     O3  12024 -0.83772800  16.000000   ; qtot 381.333248
12025         oh    407    ccc     O4  12025 -0.77449700  16.000000   ; qtot 380.558751
12026         c3    407    ccc     C6  12026 0.37576500  12.010000   ; qtot 380.934516
12027         ho    407    ccc     H6  12027 0.53656000   1.008000   ; qtot 381.471076
12028         ho    407    ccc     H7  12028 0.49492100   1.008000   ; qtot 381.965997
12029         ho    407    ccc     H8  12029 0.51297200   1.008000   ; qtot 382.478969
12030         h1    407    ccc     H9  12030 0.05653400   1.008000   ; qtot 382.535503
12031         h1    407    ccc    H10  12031 0.05653400   1.008000   ; qtot 382.592037
12032         oh    407    ccc     O5  12032 -0.84113600  16.000000   ; qtot 381.750901
12033         ho    407    ccc    H11  12033 0.51201600   1.008000   ; qtot 382.262917
12034         os    407    ccc     O6  12034 -0.26013600  16.000000   ; qtot 382.002781
; residue  408 ccc rtp ccc q 0.0
12035         c3    408    ccc     C1  12035 -0.33178800  12.010000   ; qtot 381.670993
12036         c3    408    ccc     C2  12036 0.30606500  12.010000   ; qtot 381.977058
12037         h1    408    ccc     H1  12037 0.11662300   1.008000   ; qtot 382.093681
12038         h1    408    ccc     H2  12038 0.11526800   1.008000   ; qtot 382.208949
12039         c3    408    ccc     C3  12039 0.15592700  12.010000   ; qtot 382.364876
12040         c3    408    ccc     C4  12040 0.28383300  12.010000   ; qtot 382.648709
12041         c3    408    ccc     C5  12041 0.32403300  12.010000   ; qtot 382.972742
12042         h1    408    ccc     H3  12042 0.13386900   1.008000   ; qtot 383.106611
12043         h1    408    ccc     H4  12043 0.10146700   1.008000   ; qtot 383.208078
12044         h2    408    ccc     H5  12044 0.10960400   1.008000   ; qtot 383.317682
12045         os    408    ccc     O1  12045 -0.28650000  16.000000   ; qtot 383.031182
12046         oh    408    ccc     O2  12046 -0.86012500  16.000000   ; qtot 382.171057
12047         oh    408    ccc     O3  12047 -0.83772800  16.000000   ; qtot 381.333329
12048         oh    408    ccc     O4  12048 -0.77449700  16.000000   ; qtot 380.558832
12049         c3    408    ccc     C6  12049 0.37576500  12.010000   ; qtot 380.934597
12050         ho    408    ccc     H6  12050 0.53656000   1.008000   ; qtot 381.471157
12051         ho    408    ccc     H7  12051 0.49492100   1.008000   ; qtot 381.966078
12052         ho    408    ccc     H8  12052 0.51297200   1.008000   ; qtot 382.479050
12053         h1    408    ccc     H9  12053 0.05653400   1.008000   ; qtot 382.535584
12054         h1    408    ccc    H10  12054 0.05653400   1.008000   ; qtot 382.592118
12055         oh    408    ccc     O5  12055 -0.84113600  16.000000   ; qtot 381.750982
12056         ho    408    ccc    H11  12056 0.51201600   1.008000   ; qtot 382.262998
12057         os    408    ccc     O6  12057 -0.26013600  16.000000   ; qtot 382.002862
; residue  409 ccc rtp ccc q 0.0
12058         c3    409    ccc     C1  12058 -0.33178800  12.010000   ; qtot 381.671074
12059         c3    409    ccc     C2  12059 0.30606500  12.010000   ; qtot 381.977139
12060         h1    409    ccc     H1  12060 0.11662300   1.008000   ; qtot 382.093762
12061         h1    409    ccc     H2  12061 0.11526800   1.008000   ; qtot 382.209030
12062         c3    409    ccc     C3  12062 0.15592700  12.010000   ; qtot 382.364957
12063         c3    409    ccc     C4  12063 0.28383300  12.010000   ; qtot 382.648790
12064         c3    409    ccc     C5  12064 0.32403300  12.010000   ; qtot 382.972823
12065         h1    409    ccc     H3  12065 0.13386900   1.008000   ; qtot 383.106692
12066         h1    409    ccc     H4  12066 0.10146700   1.008000   ; qtot 383.208159
12067         h2    409    ccc     H5  12067 0.10960400   1.008000   ; qtot 383.317763
12068         os    409    ccc     O1  12068 -0.28650000  16.000000   ; qtot 383.031263
12069         oh    409    ccc     O2  12069 -0.86012500  16.000000   ; qtot 382.171138
12070         oh    409    ccc     O3  12070 -0.83772800  16.000000   ; qtot 381.333410
12071         oh    409    ccc     O4  12071 -0.77449700  16.000000   ; qtot 380.558913
12072         c3    409    ccc     C6  12072 0.37576500  12.010000   ; qtot 380.934678
12073         ho    409    ccc     H6  12073 0.53656000   1.008000   ; qtot 381.471238
12074         ho    409    ccc     H7  12074 0.49492100   1.008000   ; qtot 381.966159
12075         ho    409    ccc     H8  12075 0.51297200   1.008000   ; qtot 382.479131
12076         h1    409    ccc     H9  12076 0.05653400   1.008000   ; qtot 382.535665
12077         h1    409    ccc    H10  12077 0.05653400   1.008000   ; qtot 382.592199
12078         oh    409    ccc     O5  12078 -0.84113600  16.000000   ; qtot 381.751063
12079         ho    409    ccc    H11  12079 0.51201600   1.008000   ; qtot 382.263079
12080         os    409    ccc     O6  12080 -0.26013600  16.000000   ; qtot 382.002943
; residue  410 ccc rtp ccc q 0.0
12081         c3    410    ccc     C1  12081 -0.33178800  12.010000   ; qtot 381.671155
12082         c3    410    ccc     C2  12082 0.30606500  12.010000   ; qtot 381.977220
12083         h1    410    ccc     H1  12083 0.11662300   1.008000   ; qtot 382.093843
12084         h1    410    ccc     H2  12084 0.11526800   1.008000   ; qtot 382.209111
12085         c3    410    ccc     C3  12085 0.15592700  12.010000   ; qtot 382.365038
12086         c3    410    ccc     C4  12086 0.28383300  12.010000   ; qtot 382.648871
12087         c3    410    ccc     C5  12087 0.32403300  12.010000   ; qtot 382.972904
12088         h1    410    ccc     H3  12088 0.13386900   1.008000   ; qtot 383.106773
12089         h1    410    ccc     H4  12089 0.10146700   1.008000   ; qtot 383.208240
12090         h2    410    ccc     H5  12090 0.10960400   1.008000   ; qtot 383.317844
12091         os    410    ccc     O1  12091 -0.28650000  16.000000   ; qtot 383.031344
12092         oh    410    ccc     O2  12092 -0.86012500  16.000000   ; qtot 382.171219
12093         oh    410    ccc     O3  12093 -0.83772800  16.000000   ; qtot 381.333491
12094         oh    410    ccc     O4  12094 -0.77449700  16.000000   ; qtot 380.558994
12095         c3    410    ccc     C6  12095 0.37576500  12.010000   ; qtot 380.934759
12096         ho    410    ccc     H6  12096 0.53656000   1.008000   ; qtot 381.471319
12097         ho    410    ccc     H7  12097 0.49492100   1.008000   ; qtot 381.966240
12098         ho    410    ccc     H8  12098 0.51297200   1.008000   ; qtot 382.479212
12099         h1    410    ccc     H9  12099 0.05653400   1.008000   ; qtot 382.535746
12100         h1    410    ccc    H10  12100 0.05653400   1.008000   ; qtot 382.592280
12101         oh    410    ccc     O5  12101 -0.84113600  16.000000   ; qtot 381.751144
12102         ho    410    ccc    H11  12102 0.51201600   1.008000   ; qtot 382.263160
12103         os    410    ccc     O6  12103 -0.26013600  16.000000   ; qtot 382.003024
; residue  411 ccc rtp ccc q 0.0
12104         c3    411    ccc     C1  12104 -0.33178800  12.010000   ; qtot 381.671236
12105         c3    411    ccc     C2  12105 0.30606500  12.010000   ; qtot 381.977301
12106         h1    411    ccc     H1  12106 0.11662300   1.008000   ; qtot 382.093924
12107         h1    411    ccc     H2  12107 0.11526800   1.008000   ; qtot 382.209192
12108         c3    411    ccc     C3  12108 0.15592700  12.010000   ; qtot 382.365119
12109         c3    411    ccc     C4  12109 0.28383300  12.010000   ; qtot 382.648952
12110         c3    411    ccc     C5  12110 0.32403300  12.010000   ; qtot 382.972985
12111         h1    411    ccc     H3  12111 0.13386900   1.008000   ; qtot 383.106854
12112         h1    411    ccc     H4  12112 0.10146700   1.008000   ; qtot 383.208321
12113         h2    411    ccc     H5  12113 0.10960400   1.008000   ; qtot 383.317925
12114         os    411    ccc     O1  12114 -0.28650000  16.000000   ; qtot 383.031425
12115         oh    411    ccc     O2  12115 -0.86012500  16.000000   ; qtot 382.171300
12116         oh    411    ccc     O3  12116 -0.83772800  16.000000   ; qtot 381.333572
12117         oh    411    ccc     O4  12117 -0.77449700  16.000000   ; qtot 380.559075
12118         c3    411    ccc     C6  12118 0.37576500  12.010000   ; qtot 380.934840
12119         ho    411    ccc     H6  12119 0.53656000   1.008000   ; qtot 381.471400
12120         ho    411    ccc     H7  12120 0.49492100   1.008000   ; qtot 381.966321
12121         ho    411    ccc     H8  12121 0.51297200   1.008000   ; qtot 382.479293
12122         h1    411    ccc     H9  12122 0.05653400   1.008000   ; qtot 382.535827
12123         h1    411    ccc    H10  12123 0.05653400   1.008000   ; qtot 382.592361
12124         oh    411    ccc     O5  12124 -0.84113600  16.000000   ; qtot 381.751225
12125         ho    411    ccc    H11  12125 0.51201600   1.008000   ; qtot 382.263241
12126         os    411    ccc     O6  12126 -0.26013600  16.000000   ; qtot 382.003105
; residue  412 ccc rtp ccc q 0.0
12127         c3    412    ccc     C1  12127 -0.33178800  12.010000   ; qtot 381.671317
12128         c3    412    ccc     C2  12128 0.30606500  12.010000   ; qtot 381.977382
12129         h1    412    ccc     H1  12129 0.11662300   1.008000   ; qtot 382.094005
12130         h1    412    ccc     H2  12130 0.11526800   1.008000   ; qtot 382.209273
12131         c3    412    ccc     C3  12131 0.15592700  12.010000   ; qtot 382.365200
12132         c3    412    ccc     C4  12132 0.28383300  12.010000   ; qtot 382.649033
12133         c3    412    ccc     C5  12133 0.32403300  12.010000   ; qtot 382.973066
12134         h1    412    ccc     H3  12134 0.13386900   1.008000   ; qtot 383.106935
12135         h1    412    ccc     H4  12135 0.10146700   1.008000   ; qtot 383.208402
12136         h2    412    ccc     H5  12136 0.10960400   1.008000   ; qtot 383.318006
12137         os    412    ccc     O1  12137 -0.28650000  16.000000   ; qtot 383.031506
12138         oh    412    ccc     O2  12138 -0.86012500  16.000000   ; qtot 382.171381
12139         oh    412    ccc     O3  12139 -0.83772800  16.000000   ; qtot 381.333653
12140         oh    412    ccc     O4  12140 -0.77449700  16.000000   ; qtot 380.559156
12141         c3    412    ccc     C6  12141 0.37576500  12.010000   ; qtot 380.934921
12142         ho    412    ccc     H6  12142 0.53656000   1.008000   ; qtot 381.471481
12143         ho    412    ccc     H7  12143 0.49492100   1.008000   ; qtot 381.966402
12144         ho    412    ccc     H8  12144 0.51297200   1.008000   ; qtot 382.479374
12145         h1    412    ccc     H9  12145 0.05653400   1.008000   ; qtot 382.535908
12146         h1    412    ccc    H10  12146 0.05653400   1.008000   ; qtot 382.592442
12147         oh    412    ccc     O5  12147 -0.84113600  16.000000   ; qtot 381.751306
12148         ho    412    ccc    H11  12148 0.51201600   1.008000   ; qtot 382.263322
12149         os    412    ccc     O6  12149 -0.26013600  16.000000   ; qtot 382.003186
; residue  413 ccc rtp ccc q 0.0
12150         c3    413    ccc     C1  12150 -0.33178800  12.010000   ; qtot 381.671398
12151         c3    413    ccc     C2  12151 0.30606500  12.010000   ; qtot 381.977463
12152         h1    413    ccc     H1  12152 0.11662300   1.008000   ; qtot 382.094086
12153         h1    413    ccc     H2  12153 0.11526800   1.008000   ; qtot 382.209354
12154         c3    413    ccc     C3  12154 0.15592700  12.010000   ; qtot 382.365281
12155         c3    413    ccc     C4  12155 0.28383300  12.010000   ; qtot 382.649114
12156         c3    413    ccc     C5  12156 0.32403300  12.010000   ; qtot 382.973147
12157         h1    413    ccc     H3  12157 0.13386900   1.008000   ; qtot 383.107016
12158         h1    413    ccc     H4  12158 0.10146700   1.008000   ; qtot 383.208483
12159         h2    413    ccc     H5  12159 0.10960400   1.008000   ; qtot 383.318087
12160         os    413    ccc     O1  12160 -0.28650000  16.000000   ; qtot 383.031587
12161         oh    413    ccc     O2  12161 -0.86012500  16.000000   ; qtot 382.171462
12162         oh    413    ccc     O3  12162 -0.83772800  16.000000   ; qtot 381.333734
12163         oh    413    ccc     O4  12163 -0.77449700  16.000000   ; qtot 380.559237
12164         c3    413    ccc     C6  12164 0.37576500  12.010000   ; qtot 380.935002
12165         ho    413    ccc     H6  12165 0.53656000   1.008000   ; qtot 381.471562
12166         ho    413    ccc     H7  12166 0.49492100   1.008000   ; qtot 381.966483
12167         ho    413    ccc     H8  12167 0.51297200   1.008000   ; qtot 382.479455
12168         h1    413    ccc     H9  12168 0.05653400   1.008000   ; qtot 382.535989
12169         h1    413    ccc    H10  12169 0.05653400   1.008000   ; qtot 382.592523
12170         oh    413    ccc     O5  12170 -0.84113600  16.000000   ; qtot 381.751387
12171         ho    413    ccc    H11  12171 0.51201600   1.008000   ; qtot 382.263403
12172         os    413    ccc     O6  12172 -0.26013600  16.000000   ; qtot 382.003267
; residue  414 ccc rtp ccc q 0.0
12173         c3    414    ccc     C1  12173 -0.33178800  12.010000   ; qtot 381.671479
12174         c3    414    ccc     C2  12174 0.30606500  12.010000   ; qtot 381.977544
12175         h1    414    ccc     H1  12175 0.11662300   1.008000   ; qtot 382.094167
12176         h1    414    ccc     H2  12176 0.11526800   1.008000   ; qtot 382.209435
12177         c3    414    ccc     C3  12177 0.15592700  12.010000   ; qtot 382.365362
12178         c3    414    ccc     C4  12178 0.28383300  12.010000   ; qtot 382.649195
12179         c3    414    ccc     C5  12179 0.32403300  12.010000   ; qtot 382.973228
12180         h1    414    ccc     H3  12180 0.13386900   1.008000   ; qtot 383.107097
12181         h1    414    ccc     H4  12181 0.10146700   1.008000   ; qtot 383.208564
12182         h2    414    ccc     H5  12182 0.10960400   1.008000   ; qtot 383.318168
12183         os    414    ccc     O1  12183 -0.28650000  16.000000   ; qtot 383.031668
12184         oh    414    ccc     O2  12184 -0.86012500  16.000000   ; qtot 382.171543
12185         oh    414    ccc     O3  12185 -0.83772800  16.000000   ; qtot 381.333815
12186         oh    414    ccc     O4  12186 -0.77449700  16.000000   ; qtot 380.559318
12187         c3    414    ccc     C6  12187 0.37576500  12.010000   ; qtot 380.935083
12188         ho    414    ccc     H6  12188 0.53656000   1.008000   ; qtot 381.471643
12189         ho    414    ccc     H7  12189 0.49492100   1.008000   ; qtot 381.966564
12190         ho    414    ccc     H8  12190 0.51297200   1.008000   ; qtot 382.479536
12191         h1    414    ccc     H9  12191 0.05653400   1.008000   ; qtot 382.536070
12192         h1    414    ccc    H10  12192 0.05653400   1.008000   ; qtot 382.592604
12193         oh    414    ccc     O5  12193 -0.84113600  16.000000   ; qtot 381.751468
12194         ho    414    ccc    H11  12194 0.51201600   1.008000   ; qtot 382.263484
12195         os    414    ccc     O6  12195 -0.26013600  16.000000   ; qtot 382.003348
; residue  415 ccc rtp ccc q 0.0
12196         c3    415    ccc     C1  12196 -0.33178800  12.010000   ; qtot 381.671560
12197         c3    415    ccc     C2  12197 0.30606500  12.010000   ; qtot 381.977625
12198         h1    415    ccc     H1  12198 0.11662300   1.008000   ; qtot 382.094248
12199         h1    415    ccc     H2  12199 0.11526800   1.008000   ; qtot 382.209516
12200         c3    415    ccc     C3  12200 0.15592700  12.010000   ; qtot 382.365443
12201         c3    415    ccc     C4  12201 0.28383300  12.010000   ; qtot 382.649276
12202         c3    415    ccc     C5  12202 0.32403300  12.010000   ; qtot 382.973309
12203         h1    415    ccc     H3  12203 0.13386900   1.008000   ; qtot 383.107178
12204         h1    415    ccc     H4  12204 0.10146700   1.008000   ; qtot 383.208645
12205         h2    415    ccc     H5  12205 0.10960400   1.008000   ; qtot 383.318249
12206         os    415    ccc     O1  12206 -0.28650000  16.000000   ; qtot 383.031749
12207         oh    415    ccc     O2  12207 -0.86012500  16.000000   ; qtot 382.171624
12208         oh    415    ccc     O3  12208 -0.83772800  16.000000   ; qtot 381.333896
12209         oh    415    ccc     O4  12209 -0.77449700  16.000000   ; qtot 380.559399
12210         c3    415    ccc     C6  12210 0.37576500  12.010000   ; qtot 380.935164
12211         ho    415    ccc     H6  12211 0.53656000   1.008000   ; qtot 381.471724
12212         ho    415    ccc     H7  12212 0.49492100   1.008000   ; qtot 381.966645
12213         ho    415    ccc     H8  12213 0.51297200   1.008000   ; qtot 382.479617
12214         h1    415    ccc     H9  12214 0.05653400   1.008000   ; qtot 382.536151
12215         h1    415    ccc    H10  12215 0.05653400   1.008000   ; qtot 382.592685
12216         oh    415    ccc     O5  12216 -0.84113600  16.000000   ; qtot 381.751549
12217         ho    415    ccc    H11  12217 0.51201600   1.008000   ; qtot 382.263565
12218         os    415    ccc     O6  12218 -0.26013600  16.000000   ; qtot 382.003429
; residue  416 ccc rtp ccc q 0.0
12219         c3    416    ccc     C1  12219 -0.33178800  12.010000   ; qtot 381.671641
12220         c3    416    ccc     C2  12220 0.30606500  12.010000   ; qtot 381.977706
12221         h1    416    ccc     H1  12221 0.11662300   1.008000   ; qtot 382.094329
12222         h1    416    ccc     H2  12222 0.11526800   1.008000   ; qtot 382.209597
12223         c3    416    ccc     C3  12223 0.15592700  12.010000   ; qtot 382.365524
12224         c3    416    ccc     C4  12224 0.28383300  12.010000   ; qtot 382.649357
12225         c3    416    ccc     C5  12225 0.32403300  12.010000   ; qtot 382.973390
12226         h1    416    ccc     H3  12226 0.13386900   1.008000   ; qtot 383.107259
12227         h1    416    ccc     H4  12227 0.10146700   1.008000   ; qtot 383.208726
12228         h2    416    ccc     H5  12228 0.10960400   1.008000   ; qtot 383.318330
12229         os    416    ccc     O1  12229 -0.28650000  16.000000   ; qtot 383.031830
12230         oh    416    ccc     O2  12230 -0.86012500  16.000000   ; qtot 382.171705
12231         oh    416    ccc     O3  12231 -0.83772800  16.000000   ; qtot 381.333977
12232         oh    416    ccc     O4  12232 -0.77449700  16.000000   ; qtot 380.559480
12233         c3    416    ccc     C6  12233 0.37576500  12.010000   ; qtot 380.935245
12234         ho    416    ccc     H6  12234 0.53656000   1.008000   ; qtot 381.471805
12235         ho    416    ccc     H7  12235 0.49492100   1.008000   ; qtot 381.966726
12236         ho    416    ccc     H8  12236 0.51297200   1.008000   ; qtot 382.479698
12237         h1    416    ccc     H9  12237 0.05653400   1.008000   ; qtot 382.536232
12238         h1    416    ccc    H10  12238 0.05653400   1.008000   ; qtot 382.592766
12239         oh    416    ccc     O5  12239 -0.84113600  16.000000   ; qtot 381.751630
12240         ho    416    ccc    H11  12240 0.51201600   1.008000   ; qtot 382.263646
12241         os    416    ccc     O6  12241 -0.26013600  16.000000   ; qtot 382.003510
; residue  417 ccc rtp ccc q 0.0
12242         c3    417    ccc     C1  12242 -0.33178800  12.010000   ; qtot 381.671722
12243         c3    417    ccc     C2  12243 0.30606500  12.010000   ; qtot 381.977787
12244         h1    417    ccc     H1  12244 0.11662300   1.008000   ; qtot 382.094410
12245         h1    417    ccc     H2  12245 0.11526800   1.008000   ; qtot 382.209678
12246         c3    417    ccc     C3  12246 0.15592700  12.010000   ; qtot 382.365605
12247         c3    417    ccc     C4  12247 0.28383300  12.010000   ; qtot 382.649438
12248         c3    417    ccc     C5  12248 0.32403300  12.010000   ; qtot 382.973471
12249         h1    417    ccc     H3  12249 0.13386900   1.008000   ; qtot 383.107340
12250         h1    417    ccc     H4  12250 0.10146700   1.008000   ; qtot 383.208807
12251         h2    417    ccc     H5  12251 0.10960400   1.008000   ; qtot 383.318411
12252         os    417    ccc     O1  12252 -0.28650000  16.000000   ; qtot 383.031911
12253         oh    417    ccc     O2  12253 -0.86012500  16.000000   ; qtot 382.171786
12254         oh    417    ccc     O3  12254 -0.83772800  16.000000   ; qtot 381.334058
12255         oh    417    ccc     O4  12255 -0.77449700  16.000000   ; qtot 380.559561
12256         c3    417    ccc     C6  12256 0.37576500  12.010000   ; qtot 380.935326
12257         ho    417    ccc     H6  12257 0.53656000   1.008000   ; qtot 381.471886
12258         ho    417    ccc     H7  12258 0.49492100   1.008000   ; qtot 381.966807
12259         ho    417    ccc     H8  12259 0.51297200   1.008000   ; qtot 382.479779
12260         h1    417    ccc     H9  12260 0.05653400   1.008000   ; qtot 382.536313
12261         h1    417    ccc    H10  12261 0.05653400   1.008000   ; qtot 382.592847
12262         oh    417    ccc     O5  12262 -0.84113600  16.000000   ; qtot 381.751711
12263         ho    417    ccc    H11  12263 0.51201600   1.008000   ; qtot 382.263727
12264         os    417    ccc     O6  12264 -0.26013600  16.000000   ; qtot 382.003591
; residue  418 ccc rtp ccc q 0.0
12265         c3    418    ccc     C1  12265 -0.33178800  12.010000   ; qtot 381.671803
12266         c3    418    ccc     C2  12266 0.30606500  12.010000   ; qtot 381.977868
12267         h1    418    ccc     H1  12267 0.11662300   1.008000   ; qtot 382.094491
12268         h1    418    ccc     H2  12268 0.11526800   1.008000   ; qtot 382.209759
12269         c3    418    ccc     C3  12269 0.15592700  12.010000   ; qtot 382.365686
12270         c3    418    ccc     C4  12270 0.28383300  12.010000   ; qtot 382.649519
12271         c3    418    ccc     C5  12271 0.32403300  12.010000   ; qtot 382.973552
12272         h1    418    ccc     H3  12272 0.13386900   1.008000   ; qtot 383.107421
12273         h1    418    ccc     H4  12273 0.10146700   1.008000   ; qtot 383.208888
12274         h2    418    ccc     H5  12274 0.10960400   1.008000   ; qtot 383.318492
12275         os    418    ccc     O1  12275 -0.28650000  16.000000   ; qtot 383.031992
12276         oh    418    ccc     O2  12276 -0.86012500  16.000000   ; qtot 382.171867
12277         oh    418    ccc     O3  12277 -0.83772800  16.000000   ; qtot 381.334139
12278         oh    418    ccc     O4  12278 -0.77449700  16.000000   ; qtot 380.559642
12279         c3    418    ccc     C6  12279 0.37576500  12.010000   ; qtot 380.935407
12280         ho    418    ccc     H6  12280 0.53656000   1.008000   ; qtot 381.471967
12281         ho    418    ccc     H7  12281 0.49492100   1.008000   ; qtot 381.966888
12282         ho    418    ccc     H8  12282 0.51297200   1.008000   ; qtot 382.479860
12283         h1    418    ccc     H9  12283 0.05653400   1.008000   ; qtot 382.536394
12284         h1    418    ccc    H10  12284 0.05653400   1.008000   ; qtot 382.592928
12285         oh    418    ccc     O5  12285 -0.84113600  16.000000   ; qtot 381.751792
12286         ho    418    ccc    H11  12286 0.51201600   1.008000   ; qtot 382.263808
12287         os    418    ccc     O6  12287 -0.26013600  16.000000   ; qtot 382.003672
; residue  419 ccc rtp ccc q 0.0
12288         c3    419    ccc     C1  12288 -0.33178800  12.010000   ; qtot 381.671884
12289         c3    419    ccc     C2  12289 0.30606500  12.010000   ; qtot 381.977949
12290         h1    419    ccc     H1  12290 0.11662300   1.008000   ; qtot 382.094572
12291         h1    419    ccc     H2  12291 0.11526800   1.008000   ; qtot 382.209840
12292         c3    419    ccc     C3  12292 0.15592700  12.010000   ; qtot 382.365767
12293         c3    419    ccc     C4  12293 0.28383300  12.010000   ; qtot 382.649600
12294         c3    419    ccc     C5  12294 0.32403300  12.010000   ; qtot 382.973633
12295         h1    419    ccc     H3  12295 0.13386900   1.008000   ; qtot 383.107502
12296         h1    419    ccc     H4  12296 0.10146700   1.008000   ; qtot 383.208969
12297         h2    419    ccc     H5  12297 0.10960400   1.008000   ; qtot 383.318573
12298         os    419    ccc     O1  12298 -0.28650000  16.000000   ; qtot 383.032073
12299         oh    419    ccc     O2  12299 -0.86012500  16.000000   ; qtot 382.171948
12300         oh    419    ccc     O3  12300 -0.83772800  16.000000   ; qtot 381.334220
12301         oh    419    ccc     O4  12301 -0.77449700  16.000000   ; qtot 380.559723
12302         c3    419    ccc     C6  12302 0.37576500  12.010000   ; qtot 380.935488
12303         ho    419    ccc     H6  12303 0.53656000   1.008000   ; qtot 381.472048
12304         ho    419    ccc     H7  12304 0.49492100   1.008000   ; qtot 381.966969
12305         ho    419    ccc     H8  12305 0.51297200   1.008000   ; qtot 382.479941
12306         h1    419    ccc     H9  12306 0.05653400   1.008000   ; qtot 382.536475
12307         h1    419    ccc    H10  12307 0.05653400   1.008000   ; qtot 382.593009
12308         oh    419    ccc     O5  12308 -0.84113600  16.000000   ; qtot 381.751873
12309         ho    419    ccc    H11  12309 0.51201600   1.008000   ; qtot 382.263889
12310         os    419    ccc     O6  12310 -0.26013600  16.000000   ; qtot 382.003753
; residue  420 ccc rtp ccc q 0.0
12311         c3    420    ccc     C1  12311 -0.33178800  12.010000   ; qtot 381.671965
12312         c3    420    ccc     C2  12312 0.30606500  12.010000   ; qtot 381.978030
12313         h1    420    ccc     H1  12313 0.11662300   1.008000   ; qtot 382.094653
12314         h1    420    ccc     H2  12314 0.11526800   1.008000   ; qtot 382.209921
12315         c3    420    ccc     C3  12315 0.15592700  12.010000   ; qtot 382.365848
12316         c3    420    ccc     C4  12316 0.28383300  12.010000   ; qtot 382.649681
12317         c3    420    ccc     C5  12317 0.32403300  12.010000   ; qtot 382.973714
12318         h1    420    ccc     H3  12318 0.13386900   1.008000   ; qtot 383.107583
12319         h1    420    ccc     H4  12319 0.10146700   1.008000   ; qtot 383.209050
12320         h2    420    ccc     H5  12320 0.10960400   1.008000   ; qtot 383.318654
12321         os    420    ccc     O1  12321 -0.28650000  16.000000   ; qtot 383.032154
12322         oh    420    ccc     O2  12322 -0.86012500  16.000000   ; qtot 382.172029
12323         oh    420    ccc     O3  12323 -0.83772800  16.000000   ; qtot 381.334301
12324         oh    420    ccc     O4  12324 -0.77449700  16.000000   ; qtot 380.559804
12325         c3    420    ccc     C6  12325 0.37576500  12.010000   ; qtot 380.935569
12326         ho    420    ccc     H6  12326 0.53656000   1.008000   ; qtot 381.472129
12327         ho    420    ccc     H7  12327 0.49492100   1.008000   ; qtot 381.967050
12328         ho    420    ccc     H8  12328 0.51297200   1.008000   ; qtot 382.480022
12329         h1    420    ccc     H9  12329 0.05653400   1.008000   ; qtot 382.536556
12330         h1    420    ccc    H10  12330 0.05653400   1.008000   ; qtot 382.593090
12331         oh    420    ccc     O5  12331 -0.84113600  16.000000   ; qtot 381.751954
12332         ho    420    ccc    H11  12332 0.51201600   1.008000   ; qtot 382.263970
12333         os    420    ccc     O6  12333 -0.26013600  16.000000   ; qtot 382.003834
; residue  421 ccc rtp ccc q 0.0
12334         c3    421    ccc     C1  12334 -0.33178800  12.010000   ; qtot 381.672046
12335         c3    421    ccc     C2  12335 0.30606500  12.010000   ; qtot 381.978111
12336         h1    421    ccc     H1  12336 0.11662300   1.008000   ; qtot 382.094734
12337         h1    421    ccc     H2  12337 0.11526800   1.008000   ; qtot 382.210002
12338         c3    421    ccc     C3  12338 0.15592700  12.010000   ; qtot 382.365929
12339         c3    421    ccc     C4  12339 0.28383300  12.010000   ; qtot 382.649762
12340         c3    421    ccc     C5  12340 0.32403300  12.010000   ; qtot 382.973795
12341         h1    421    ccc     H3  12341 0.13386900   1.008000   ; qtot 383.107664
12342         h1    421    ccc     H4  12342 0.10146700   1.008000   ; qtot 383.209131
12343         h2    421    ccc     H5  12343 0.10960400   1.008000   ; qtot 383.318735
12344         os    421    ccc     O1  12344 -0.28650000  16.000000   ; qtot 383.032235
12345         oh    421    ccc     O2  12345 -0.86012500  16.000000   ; qtot 382.172110
12346         oh    421    ccc     O3  12346 -0.83772800  16.000000   ; qtot 381.334382
12347         oh    421    ccc     O4  12347 -0.77449700  16.000000   ; qtot 380.559885
12348         c3    421    ccc     C6  12348 0.37576500  12.010000   ; qtot 380.935650
12349         ho    421    ccc     H6  12349 0.53656000   1.008000   ; qtot 381.472210
12350         ho    421    ccc     H7  12350 0.49492100   1.008000   ; qtot 381.967131
12351         ho    421    ccc     H8  12351 0.51297200   1.008000   ; qtot 382.480103
12352         h1    421    ccc     H9  12352 0.05653400   1.008000   ; qtot 382.536637
12353         h1    421    ccc    H10  12353 0.05653400   1.008000   ; qtot 382.593171
12354         oh    421    ccc     O5  12354 -0.84113600  16.000000   ; qtot 381.752035
12355         ho    421    ccc    H11  12355 0.51201600   1.008000   ; qtot 382.264051
12356         os    421    ccc     O6  12356 -0.26013600  16.000000   ; qtot 382.003915
; residue  422 ccc rtp ccc q 0.0
12357         c3    422    ccc     C1  12357 -0.33178800  12.010000   ; qtot 381.672127
12358         c3    422    ccc     C2  12358 0.30606500  12.010000   ; qtot 381.978192
12359         h1    422    ccc     H1  12359 0.11662300   1.008000   ; qtot 382.094815
12360         h1    422    ccc     H2  12360 0.11526800   1.008000   ; qtot 382.210083
12361         c3    422    ccc     C3  12361 0.15592700  12.010000   ; qtot 382.366010
12362         c3    422    ccc     C4  12362 0.28383300  12.010000   ; qtot 382.649843
12363         c3    422    ccc     C5  12363 0.32403300  12.010000   ; qtot 382.973876
12364         h1    422    ccc     H3  12364 0.13386900   1.008000   ; qtot 383.107745
12365         h1    422    ccc     H4  12365 0.10146700   1.008000   ; qtot 383.209212
12366         h2    422    ccc     H5  12366 0.10960400   1.008000   ; qtot 383.318816
12367         os    422    ccc     O1  12367 -0.28650000  16.000000   ; qtot 383.032316
12368         oh    422    ccc     O2  12368 -0.86012500  16.000000   ; qtot 382.172191
12369         oh    422    ccc     O3  12369 -0.83772800  16.000000   ; qtot 381.334463
12370         oh    422    ccc     O4  12370 -0.77449700  16.000000   ; qtot 380.559966
12371         c3    422    ccc     C6  12371 0.37576500  12.010000   ; qtot 380.935731
12372         ho    422    ccc     H6  12372 0.53656000   1.008000   ; qtot 381.472291
12373         ho    422    ccc     H7  12373 0.49492100   1.008000   ; qtot 381.967212
12374         ho    422    ccc     H8  12374 0.51297200   1.008000   ; qtot 382.480184
12375         h1    422    ccc     H9  12375 0.05653400   1.008000   ; qtot 382.536718
12376         h1    422    ccc    H10  12376 0.05653400   1.008000   ; qtot 382.593252
12377         oh    422    ccc     O5  12377 -0.84113600  16.000000   ; qtot 381.752116
12378         ho    422    ccc    H11  12378 0.51201600   1.008000   ; qtot 382.264132
12379         os    422    ccc     O6  12379 -0.26013600  16.000000   ; qtot 382.003996
; residue  423 ccc rtp ccc q 0.0
12380         c3    423    ccc     C1  12380 -0.33178800  12.010000   ; qtot 381.672208
12381         c3    423    ccc     C2  12381 0.30606500  12.010000   ; qtot 381.978273
12382         h1    423    ccc     H1  12382 0.11662300   1.008000   ; qtot 382.094896
12383         h1    423    ccc     H2  12383 0.11526800   1.008000   ; qtot 382.210164
12384         c3    423    ccc     C3  12384 0.15592700  12.010000   ; qtot 382.366091
12385         c3    423    ccc     C4  12385 0.28383300  12.010000   ; qtot 382.649924
12386         c3    423    ccc     C5  12386 0.32403300  12.010000   ; qtot 382.973957
12387         h1    423    ccc     H3  12387 0.13386900   1.008000   ; qtot 383.107826
12388         h1    423    ccc     H4  12388 0.10146700   1.008000   ; qtot 383.209293
12389         h2    423    ccc     H5  12389 0.10960400   1.008000   ; qtot 383.318897
12390         os    423    ccc     O1  12390 -0.28650000  16.000000   ; qtot 383.032397
12391         oh    423    ccc     O2  12391 -0.86012500  16.000000   ; qtot 382.172272
12392         oh    423    ccc     O3  12392 -0.83772800  16.000000   ; qtot 381.334544
12393         oh    423    ccc     O4  12393 -0.77449700  16.000000   ; qtot 380.560047
12394         c3    423    ccc     C6  12394 0.37576500  12.010000   ; qtot 380.935812
12395         ho    423    ccc     H6  12395 0.53656000   1.008000   ; qtot 381.472372
12396         ho    423    ccc     H7  12396 0.49492100   1.008000   ; qtot 381.967293
12397         ho    423    ccc     H8  12397 0.51297200   1.008000   ; qtot 382.480265
12398         h1    423    ccc     H9  12398 0.05653400   1.008000   ; qtot 382.536799
12399         h1    423    ccc    H10  12399 0.05653400   1.008000   ; qtot 382.593333
12400         oh    423    ccc     O5  12400 -0.84113600  16.000000   ; qtot 381.752197
12401         ho    423    ccc    H11  12401 0.51201600   1.008000   ; qtot 382.264213
12402         os    423    ccc     O6  12402 -0.26013600  16.000000   ; qtot 382.004077
; residue  424 ccc rtp ccc q 0.0
12403         c3    424    ccc     C1  12403 -0.33178800  12.010000   ; qtot 381.672289
12404         c3    424    ccc     C2  12404 0.30606500  12.010000   ; qtot 381.978354
12405         h1    424    ccc     H1  12405 0.11662300   1.008000   ; qtot 382.094977
12406         h1    424    ccc     H2  12406 0.11526800   1.008000   ; qtot 382.210245
12407         c3    424    ccc     C3  12407 0.15592700  12.010000   ; qtot 382.366172
12408         c3    424    ccc     C4  12408 0.28383300  12.010000   ; qtot 382.650005
12409         c3    424    ccc     C5  12409 0.32403300  12.010000   ; qtot 382.974038
12410         h1    424    ccc     H3  12410 0.13386900   1.008000   ; qtot 383.107907
12411         h1    424    ccc     H4  12411 0.10146700   1.008000   ; qtot 383.209374
12412         h2    424    ccc     H5  12412 0.10960400   1.008000   ; qtot 383.318978
12413         os    424    ccc     O1  12413 -0.28650000  16.000000   ; qtot 383.032478
12414         oh    424    ccc     O2  12414 -0.86012500  16.000000   ; qtot 382.172353
12415         oh    424    ccc     O3  12415 -0.83772800  16.000000   ; qtot 381.334625
12416         oh    424    ccc     O4  12416 -0.77449700  16.000000   ; qtot 380.560128
12417         c3    424    ccc     C6  12417 0.37576500  12.010000   ; qtot 380.935893
12418         ho    424    ccc     H6  12418 0.53656000   1.008000   ; qtot 381.472453
12419         ho    424    ccc     H7  12419 0.49492100   1.008000   ; qtot 381.967374
12420         ho    424    ccc     H8  12420 0.51297200   1.008000   ; qtot 382.480346
12421         h1    424    ccc     H9  12421 0.05653400   1.008000   ; qtot 382.536880
12422         h1    424    ccc    H10  12422 0.05653400   1.008000   ; qtot 382.593414
12423         oh    424    ccc     O5  12423 -0.84113600  16.000000   ; qtot 381.752278
12424         ho    424    ccc    H11  12424 0.51201600   1.008000   ; qtot 382.264294
12425         os    424    ccc     O6  12425 -0.26013600  16.000000   ; qtot 382.004158
; residue  425 ccc rtp ccc q 0.0
12426         c3    425    ccc     C1  12426 -0.33178800  12.010000   ; qtot 381.672370
12427         c3    425    ccc     C2  12427 0.30606500  12.010000   ; qtot 381.978435
12428         h1    425    ccc     H1  12428 0.11662300   1.008000   ; qtot 382.095058
12429         h1    425    ccc     H2  12429 0.11526800   1.008000   ; qtot 382.210326
12430         c3    425    ccc     C3  12430 0.15592700  12.010000   ; qtot 382.366253
12431         c3    425    ccc     C4  12431 0.28383300  12.010000   ; qtot 382.650086
12432         c3    425    ccc     C5  12432 0.32403300  12.010000   ; qtot 382.974119
12433         h1    425    ccc     H3  12433 0.13386900   1.008000   ; qtot 383.107988
12434         h1    425    ccc     H4  12434 0.10146700   1.008000   ; qtot 383.209455
12435         h2    425    ccc     H5  12435 0.10960400   1.008000   ; qtot 383.319059
12436         os    425    ccc     O1  12436 -0.28650000  16.000000   ; qtot 383.032559
12437         oh    425    ccc     O2  12437 -0.86012500  16.000000   ; qtot 382.172434
12438         oh    425    ccc     O3  12438 -0.83772800  16.000000   ; qtot 381.334706
12439         oh    425    ccc     O4  12439 -0.77449700  16.000000   ; qtot 380.560209
12440         c3    425    ccc     C6  12440 0.37576500  12.010000   ; qtot 380.935974
12441         ho    425    ccc     H6  12441 0.53656000   1.008000   ; qtot 381.472534
12442         ho    425    ccc     H7  12442 0.49492100   1.008000   ; qtot 381.967455
12443         ho    425    ccc     H8  12443 0.51297200   1.008000   ; qtot 382.480427
12444         h1    425    ccc     H9  12444 0.05653400   1.008000   ; qtot 382.536961
12445         h1    425    ccc    H10  12445 0.05653400   1.008000   ; qtot 382.593495
12446         oh    425    ccc     O5  12446 -0.84113600  16.000000   ; qtot 381.752359
12447         ho    425    ccc    H11  12447 0.51201600   1.008000   ; qtot 382.264375
12448         os    425    ccc     O6  12448 -0.26013600  16.000000   ; qtot 382.004239
; residue  426 ccc rtp ccc q 0.0
12449         c3    426    ccc     C1  12449 -0.33178800  12.010000   ; qtot 381.672451
12450         c3    426    ccc     C2  12450 0.30606500  12.010000   ; qtot 381.978516
12451         h1    426    ccc     H1  12451 0.11662300   1.008000   ; qtot 382.095139
12452         h1    426    ccc     H2  12452 0.11526800   1.008000   ; qtot 382.210407
12453         c3    426    ccc     C3  12453 0.15592700  12.010000   ; qtot 382.366334
12454         c3    426    ccc     C4  12454 0.28383300  12.010000   ; qtot 382.650167
12455         c3    426    ccc     C5  12455 0.32403300  12.010000   ; qtot 382.974200
12456         h1    426    ccc     H3  12456 0.13386900   1.008000   ; qtot 383.108069
12457         h1    426    ccc     H4  12457 0.10146700   1.008000   ; qtot 383.209536
12458         h2    426    ccc     H5  12458 0.10960400   1.008000   ; qtot 383.319140
12459         os    426    ccc     O1  12459 -0.28650000  16.000000   ; qtot 383.032640
12460         oh    426    ccc     O2  12460 -0.86012500  16.000000   ; qtot 382.172515
12461         oh    426    ccc     O3  12461 -0.83772800  16.000000   ; qtot 381.334787
12462         oh    426    ccc     O4  12462 -0.77449700  16.000000   ; qtot 380.560290
12463         c3    426    ccc     C6  12463 0.37576500  12.010000   ; qtot 380.936055
12464         ho    426    ccc     H6  12464 0.53656000   1.008000   ; qtot 381.472615
12465         ho    426    ccc     H7  12465 0.49492100   1.008000   ; qtot 381.967536
12466         ho    426    ccc     H8  12466 0.51297200   1.008000   ; qtot 382.480508
12467         h1    426    ccc     H9  12467 0.05653400   1.008000   ; qtot 382.537042
12468         h1    426    ccc    H10  12468 0.05653400   1.008000   ; qtot 382.593576
12469         oh    426    ccc     O5  12469 -0.84113600  16.000000   ; qtot 381.752440
12470         ho    426    ccc    H11  12470 0.51201600   1.008000   ; qtot 382.264456
12471         os    426    ccc     O6  12471 -0.26013600  16.000000   ; qtot 382.004320
; residue  427 ccc rtp ccc q 0.0
12472         c3    427    ccc     C1  12472 -0.33178800  12.010000   ; qtot 381.672532
12473         c3    427    ccc     C2  12473 0.30606500  12.010000   ; qtot 381.978597
12474         h1    427    ccc     H1  12474 0.11662300   1.008000   ; qtot 382.095220
12475         h1    427    ccc     H2  12475 0.11526800   1.008000   ; qtot 382.210488
12476         c3    427    ccc     C3  12476 0.15592700  12.010000   ; qtot 382.366415
12477         c3    427    ccc     C4  12477 0.28383300  12.010000   ; qtot 382.650248
12478         c3    427    ccc     C5  12478 0.32403300  12.010000   ; qtot 382.974281
12479         h1    427    ccc     H3  12479 0.13386900   1.008000   ; qtot 383.108150
12480         h1    427    ccc     H4  12480 0.10146700   1.008000   ; qtot 383.209617
12481         h2    427    ccc     H5  12481 0.10960400   1.008000   ; qtot 383.319221
12482         os    427    ccc     O1  12482 -0.28650000  16.000000   ; qtot 383.032721
12483         oh    427    ccc     O2  12483 -0.86012500  16.000000   ; qtot 382.172596
12484         oh    427    ccc     O3  12484 -0.83772800  16.000000   ; qtot 381.334868
12485         oh    427    ccc     O4  12485 -0.77449700  16.000000   ; qtot 380.560371
12486         c3    427    ccc     C6  12486 0.37576500  12.010000   ; qtot 380.936136
12487         ho    427    ccc     H6  12487 0.53656000   1.008000   ; qtot 381.472696
12488         ho    427    ccc     H7  12488 0.49492100   1.008000   ; qtot 381.967617
12489         ho    427    ccc     H8  12489 0.51297200   1.008000   ; qtot 382.480589
12490         h1    427    ccc     H9  12490 0.05653400   1.008000   ; qtot 382.537123
12491         h1    427    ccc    H10  12491 0.05653400   1.008000   ; qtot 382.593657
12492         oh    427    ccc     O5  12492 -0.84113600  16.000000   ; qtot 381.752521
12493         ho    427    ccc    H11  12493 0.51201600   1.008000   ; qtot 382.264537
12494         os    427    ccc     O6  12494 -0.26013600  16.000000   ; qtot 382.004401
; residue  428 ccc rtp ccc q 0.0
12495         c3    428    ccc     C1  12495 -0.33178800  12.010000   ; qtot 381.672613
12496         c3    428    ccc     C2  12496 0.30606500  12.010000   ; qtot 381.978678
12497         h1    428    ccc     H1  12497 0.11662300   1.008000   ; qtot 382.095301
12498         h1    428    ccc     H2  12498 0.11526800   1.008000   ; qtot 382.210569
12499         c3    428    ccc     C3  12499 0.15592700  12.010000   ; qtot 382.366496
12500         c3    428    ccc     C4  12500 0.28383300  12.010000   ; qtot 382.650329
12501         c3    428    ccc     C5  12501 0.32403300  12.010000   ; qtot 382.974362
12502         h1    428    ccc     H3  12502 0.13386900   1.008000   ; qtot 383.108231
12503         h1    428    ccc     H4  12503 0.10146700   1.008000   ; qtot 383.209698
12504         h2    428    ccc     H5  12504 0.10960400   1.008000   ; qtot 383.319302
12505         os    428    ccc     O1  12505 -0.28650000  16.000000   ; qtot 383.032802
12506         oh    428    ccc     O2  12506 -0.86012500  16.000000   ; qtot 382.172677
12507         oh    428    ccc     O3  12507 -0.83772800  16.000000   ; qtot 381.334949
12508         oh    428    ccc     O4  12508 -0.77449700  16.000000   ; qtot 380.560452
12509         c3    428    ccc     C6  12509 0.37576500  12.010000   ; qtot 380.936217
12510         ho    428    ccc     H6  12510 0.53656000   1.008000   ; qtot 381.472777
12511         ho    428    ccc     H7  12511 0.49492100   1.008000   ; qtot 381.967698
12512         ho    428    ccc     H8  12512 0.51297200   1.008000   ; qtot 382.480670
12513         h1    428    ccc     H9  12513 0.05653400   1.008000   ; qtot 382.537204
12514         h1    428    ccc    H10  12514 0.05653400   1.008000   ; qtot 382.593738
12515         oh    428    ccc     O5  12515 -0.84113600  16.000000   ; qtot 381.752602
12516         ho    428    ccc    H11  12516 0.51201600   1.008000   ; qtot 382.264618
12517         os    428    ccc     O6  12517 -0.26013600  16.000000   ; qtot 382.004482
; residue  429 ccc rtp ccc q 0.0
12518         c3    429    ccc     C1  12518 -0.33178800  12.010000   ; qtot 381.672694
12519         c3    429    ccc     C2  12519 0.30606500  12.010000   ; qtot 381.978759
12520         h1    429    ccc     H1  12520 0.11662300   1.008000   ; qtot 382.095382
12521         h1    429    ccc     H2  12521 0.11526800   1.008000   ; qtot 382.210650
12522         c3    429    ccc     C3  12522 0.15592700  12.010000   ; qtot 382.366577
12523         c3    429    ccc     C4  12523 0.28383300  12.010000   ; qtot 382.650410
12524         c3    429    ccc     C5  12524 0.32403300  12.010000   ; qtot 382.974443
12525         h1    429    ccc     H3  12525 0.13386900   1.008000   ; qtot 383.108312
12526         h1    429    ccc     H4  12526 0.10146700   1.008000   ; qtot 383.209779
12527         h2    429    ccc     H5  12527 0.10960400   1.008000   ; qtot 383.319383
12528         os    429    ccc     O1  12528 -0.28650000  16.000000   ; qtot 383.032883
12529         oh    429    ccc     O2  12529 -0.86012500  16.000000   ; qtot 382.172758
12530         oh    429    ccc     O3  12530 -0.83772800  16.000000   ; qtot 381.335030
12531         oh    429    ccc     O4  12531 -0.77449700  16.000000   ; qtot 380.560533
12532         c3    429    ccc     C6  12532 0.37576500  12.010000   ; qtot 380.936298
12533         ho    429    ccc     H6  12533 0.53656000   1.008000   ; qtot 381.472858
12534         ho    429    ccc     H7  12534 0.49492100   1.008000   ; qtot 381.967779
12535         ho    429    ccc     H8  12535 0.51297200   1.008000   ; qtot 382.480751
12536         h1    429    ccc     H9  12536 0.05653400   1.008000   ; qtot 382.537285
12537         h1    429    ccc    H10  12537 0.05653400   1.008000   ; qtot 382.593819
12538         oh    429    ccc     O5  12538 -0.84113600  16.000000   ; qtot 381.752683
12539         ho    429    ccc    H11  12539 0.51201600   1.008000   ; qtot 382.264699
12540         os    429    ccc     O6  12540 -0.26013600  16.000000   ; qtot 382.004563
; residue  430 ccc rtp ccc q 0.0
12541         c3    430    ccc     C1  12541 -0.33178800  12.010000   ; qtot 381.672775
12542         c3    430    ccc     C2  12542 0.30606500  12.010000   ; qtot 381.978840
12543         h1    430    ccc     H1  12543 0.11662300   1.008000   ; qtot 382.095463
12544         h1    430    ccc     H2  12544 0.11526800   1.008000   ; qtot 382.210731
12545         c3    430    ccc     C3  12545 0.15592700  12.010000   ; qtot 382.366658
12546         c3    430    ccc     C4  12546 0.28383300  12.010000   ; qtot 382.650491
12547         c3    430    ccc     C5  12547 0.32403300  12.010000   ; qtot 382.974524
12548         h1    430    ccc     H3  12548 0.13386900   1.008000   ; qtot 383.108393
12549         h1    430    ccc     H4  12549 0.10146700   1.008000   ; qtot 383.209860
12550         h2    430    ccc     H5  12550 0.10960400   1.008000   ; qtot 383.319464
12551         os    430    ccc     O1  12551 -0.28650000  16.000000   ; qtot 383.032964
12552         oh    430    ccc     O2  12552 -0.86012500  16.000000   ; qtot 382.172839
12553         oh    430    ccc     O3  12553 -0.83772800  16.000000   ; qtot 381.335111
12554         oh    430    ccc     O4  12554 -0.77449700  16.000000   ; qtot 380.560614
12555         c3    430    ccc     C6  12555 0.37576500  12.010000   ; qtot 380.936379
12556         ho    430    ccc     H6  12556 0.53656000   1.008000   ; qtot 381.472939
12557         ho    430    ccc     H7  12557 0.49492100   1.008000   ; qtot 381.967860
12558         ho    430    ccc     H8  12558 0.51297200   1.008000   ; qtot 382.480832
12559         h1    430    ccc     H9  12559 0.05653400   1.008000   ; qtot 382.537366
12560         h1    430    ccc    H10  12560 0.05653400   1.008000   ; qtot 382.593900
12561         oh    430    ccc     O5  12561 -0.84113600  16.000000   ; qtot 381.752764
12562         ho    430    ccc    H11  12562 0.51201600   1.008000   ; qtot 382.264780
12563         os    430    ccc     O6  12563 -0.26013600  16.000000   ; qtot 382.004644
; residue  431 ccc rtp ccc q 0.0
12564         c3    431    ccc     C1  12564 -0.33178800  12.010000   ; qtot 381.672856
12565         c3    431    ccc     C2  12565 0.30606500  12.010000   ; qtot 381.978921
12566         h1    431    ccc     H1  12566 0.11662300   1.008000   ; qtot 382.095544
12567         h1    431    ccc     H2  12567 0.11526800   1.008000   ; qtot 382.210812
12568         c3    431    ccc     C3  12568 0.15592700  12.010000   ; qtot 382.366739
12569         c3    431    ccc     C4  12569 0.28383300  12.010000   ; qtot 382.650572
12570         c3    431    ccc     C5  12570 0.32403300  12.010000   ; qtot 382.974605
12571         h1    431    ccc     H3  12571 0.13386900   1.008000   ; qtot 383.108474
12572         h1    431    ccc     H4  12572 0.10146700   1.008000   ; qtot 383.209941
12573         h2    431    ccc     H5  12573 0.10960400   1.008000   ; qtot 383.319545
12574         os    431    ccc     O1  12574 -0.28650000  16.000000   ; qtot 383.033045
12575         oh    431    ccc     O2  12575 -0.86012500  16.000000   ; qtot 382.172920
12576         oh    431    ccc     O3  12576 -0.83772800  16.000000   ; qtot 381.335192
12577         oh    431    ccc     O4  12577 -0.77449700  16.000000   ; qtot 380.560695
12578         c3    431    ccc     C6  12578 0.37576500  12.010000   ; qtot 380.936460
12579         ho    431    ccc     H6  12579 0.53656000   1.008000   ; qtot 381.473020
12580         ho    431    ccc     H7  12580 0.49492100   1.008000   ; qtot 381.967941
12581         ho    431    ccc     H8  12581 0.51297200   1.008000   ; qtot 382.480913
12582         h1    431    ccc     H9  12582 0.05653400   1.008000   ; qtot 382.537447
12583         h1    431    ccc    H10  12583 0.05653400   1.008000   ; qtot 382.593981
12584         oh    431    ccc     O5  12584 -0.84113600  16.000000   ; qtot 381.752845
12585         ho    431    ccc    H11  12585 0.51201600   1.008000   ; qtot 382.264861
12586         os    431    ccc     O6  12586 -0.26013600  16.000000   ; qtot 382.004725
; residue  432 ccc rtp ccc q 0.0
12587         c3    432    ccc     C1  12587 -0.33178800  12.010000   ; qtot 381.672937
12588         c3    432    ccc     C2  12588 0.30606500  12.010000   ; qtot 381.979002
12589         h1    432    ccc     H1  12589 0.11662300   1.008000   ; qtot 382.095625
12590         h1    432    ccc     H2  12590 0.11526800   1.008000   ; qtot 382.210893
12591         c3    432    ccc     C3  12591 0.15592700  12.010000   ; qtot 382.366820
12592         c3    432    ccc     C4  12592 0.28383300  12.010000   ; qtot 382.650653
12593         c3    432    ccc     C5  12593 0.32403300  12.010000   ; qtot 382.974686
12594         h1    432    ccc     H3  12594 0.13386900   1.008000   ; qtot 383.108555
12595         h1    432    ccc     H4  12595 0.10146700   1.008000   ; qtot 383.210022
12596         h2    432    ccc     H5  12596 0.10960400   1.008000   ; qtot 383.319626
12597         os    432    ccc     O1  12597 -0.28650000  16.000000   ; qtot 383.033126
12598         oh    432    ccc     O2  12598 -0.86012500  16.000000   ; qtot 382.173001
12599         oh    432    ccc     O3  12599 -0.83772800  16.000000   ; qtot 381.335273
12600         oh    432    ccc     O4  12600 -0.77449700  16.000000   ; qtot 380.560776
12601         c3    432    ccc     C6  12601 0.37576500  12.010000   ; qtot 380.936541
12602         ho    432    ccc     H6  12602 0.53656000   1.008000   ; qtot 381.473101
12603         ho    432    ccc     H7  12603 0.49492100   1.008000   ; qtot 381.968022
12604         ho    432    ccc     H8  12604 0.51297200   1.008000   ; qtot 382.480994
12605         h1    432    ccc     H9  12605 0.05653400   1.008000   ; qtot 382.537528
12606         h1    432    ccc    H10  12606 0.05653400   1.008000   ; qtot 382.594062
12607         oh    432    ccc     O5  12607 -0.84113600  16.000000   ; qtot 381.752926
12608         ho    432    ccc    H11  12608 0.51201600   1.008000   ; qtot 382.264942
12609         os    432    ccc     O6  12609 -0.26013600  16.000000   ; qtot 382.004806
; residue  433 ccc rtp ccc q 0.0
12610         c3    433    ccc     C1  12610 -0.33178800  12.010000   ; qtot 381.673018
12611         c3    433    ccc     C2  12611 0.30606500  12.010000   ; qtot 381.979083
12612         h1    433    ccc     H1  12612 0.11662300   1.008000   ; qtot 382.095706
12613         h1    433    ccc     H2  12613 0.11526800   1.008000   ; qtot 382.210974
12614         c3    433    ccc     C3  12614 0.15592700  12.010000   ; qtot 382.366901
12615         c3    433    ccc     C4  12615 0.28383300  12.010000   ; qtot 382.650734
12616         c3    433    ccc     C5  12616 0.32403300  12.010000   ; qtot 382.974767
12617         h1    433    ccc     H3  12617 0.13386900   1.008000   ; qtot 383.108636
12618         h1    433    ccc     H4  12618 0.10146700   1.008000   ; qtot 383.210103
12619         h2    433    ccc     H5  12619 0.10960400   1.008000   ; qtot 383.319707
12620         os    433    ccc     O1  12620 -0.28650000  16.000000   ; qtot 383.033207
12621         oh    433    ccc     O2  12621 -0.86012500  16.000000   ; qtot 382.173082
12622         oh    433    ccc     O3  12622 -0.83772800  16.000000   ; qtot 381.335354
12623         oh    433    ccc     O4  12623 -0.77449700  16.000000   ; qtot 380.560857
12624         c3    433    ccc     C6  12624 0.37576500  12.010000   ; qtot 380.936622
12625         ho    433    ccc     H6  12625 0.53656000   1.008000   ; qtot 381.473182
12626         ho    433    ccc     H7  12626 0.49492100   1.008000   ; qtot 381.968103
12627         ho    433    ccc     H8  12627 0.51297200   1.008000   ; qtot 382.481075
12628         h1    433    ccc     H9  12628 0.05653400   1.008000   ; qtot 382.537609
12629         h1    433    ccc    H10  12629 0.05653400   1.008000   ; qtot 382.594143
12630         oh    433    ccc     O5  12630 -0.84113600  16.000000   ; qtot 381.753007
12631         ho    433    ccc    H11  12631 0.51201600   1.008000   ; qtot 382.265023
12632         os    433    ccc     O6  12632 -0.26013600  16.000000   ; qtot 382.004887
; residue  434 ccc rtp ccc q 0.0
12633         c3    434    ccc     C1  12633 -0.33178800  12.010000   ; qtot 381.673099
12634         c3    434    ccc     C2  12634 0.30606500  12.010000   ; qtot 381.979164
12635         h1    434    ccc     H1  12635 0.11662300   1.008000   ; qtot 382.095787
12636         h1    434    ccc     H2  12636 0.11526800   1.008000   ; qtot 382.211055
12637         c3    434    ccc     C3  12637 0.15592700  12.010000   ; qtot 382.366982
12638         c3    434    ccc     C4  12638 0.28383300  12.010000   ; qtot 382.650815
12639         c3    434    ccc     C5  12639 0.32403300  12.010000   ; qtot 382.974848
12640         h1    434    ccc     H3  12640 0.13386900   1.008000   ; qtot 383.108717
12641         h1    434    ccc     H4  12641 0.10146700   1.008000   ; qtot 383.210184
12642         h2    434    ccc     H5  12642 0.10960400   1.008000   ; qtot 383.319788
12643         os    434    ccc     O1  12643 -0.28650000  16.000000   ; qtot 383.033288
12644         oh    434    ccc     O2  12644 -0.86012500  16.000000   ; qtot 382.173163
12645         oh    434    ccc     O3  12645 -0.83772800  16.000000   ; qtot 381.335435
12646         oh    434    ccc     O4  12646 -0.77449700  16.000000   ; qtot 380.560938
12647         c3    434    ccc     C6  12647 0.37576500  12.010000   ; qtot 380.936703
12648         ho    434    ccc     H6  12648 0.53656000   1.008000   ; qtot 381.473263
12649         ho    434    ccc     H7  12649 0.49492100   1.008000   ; qtot 381.968184
12650         ho    434    ccc     H8  12650 0.51297200   1.008000   ; qtot 382.481156
12651         h1    434    ccc     H9  12651 0.05653400   1.008000   ; qtot 382.537690
12652         h1    434    ccc    H10  12652 0.05653400   1.008000   ; qtot 382.594224
12653         oh    434    ccc     O5  12653 -0.84113600  16.000000   ; qtot 381.753088
12654         ho    434    ccc    H11  12654 0.51201600   1.008000   ; qtot 382.265104
12655         os    434    ccc     O6  12655 -0.26013600  16.000000   ; qtot 382.004968
; residue  435 ccc rtp ccc q 0.0
12656         c3    435    ccc     C1  12656 -0.33178800  12.010000   ; qtot 381.673180
12657         c3    435    ccc     C2  12657 0.30606500  12.010000   ; qtot 381.979245
12658         h1    435    ccc     H1  12658 0.11662300   1.008000   ; qtot 382.095868
12659         h1    435    ccc     H2  12659 0.11526800   1.008000   ; qtot 382.211136
12660         c3    435    ccc     C3  12660 0.15592700  12.010000   ; qtot 382.367063
12661         c3    435    ccc     C4  12661 0.28383300  12.010000   ; qtot 382.650896
12662         c3    435    ccc     C5  12662 0.32403300  12.010000   ; qtot 382.974929
12663         h1    435    ccc     H3  12663 0.13386900   1.008000   ; qtot 383.108798
12664         h1    435    ccc     H4  12664 0.10146700   1.008000   ; qtot 383.210265
12665         h2    435    ccc     H5  12665 0.10960400   1.008000   ; qtot 383.319869
12666         os    435    ccc     O1  12666 -0.28650000  16.000000   ; qtot 383.033369
12667         oh    435    ccc     O2  12667 -0.86012500  16.000000   ; qtot 382.173244
12668         oh    435    ccc     O3  12668 -0.83772800  16.000000   ; qtot 381.335516
12669         oh    435    ccc     O4  12669 -0.77449700  16.000000   ; qtot 380.561019
12670         c3    435    ccc     C6  12670 0.37576500  12.010000   ; qtot 380.936784
12671         ho    435    ccc     H6  12671 0.53656000   1.008000   ; qtot 381.473344
12672         ho    435    ccc     H7  12672 0.49492100   1.008000   ; qtot 381.968265
12673         ho    435    ccc     H8  12673 0.51297200   1.008000   ; qtot 382.481237
12674         h1    435    ccc     H9  12674 0.05653400   1.008000   ; qtot 382.537771
12675         h1    435    ccc    H10  12675 0.05653400   1.008000   ; qtot 382.594305
12676         oh    435    ccc     O5  12676 -0.84113600  16.000000   ; qtot 381.753169
12677         ho    435    ccc    H11  12677 0.51201600   1.008000   ; qtot 382.265185
12678         os    435    ccc     O6  12678 -0.26013600  16.000000   ; qtot 382.005049
; residue  436 ccc rtp ccc q 0.0
12679         c3    436    ccc     C1  12679 -0.33178800  12.010000   ; qtot 381.673261
12680         c3    436    ccc     C2  12680 0.30606500  12.010000   ; qtot 381.979326
12681         h1    436    ccc     H1  12681 0.11662300   1.008000   ; qtot 382.095949
12682         h1    436    ccc     H2  12682 0.11526800   1.008000   ; qtot 382.211217
12683         c3    436    ccc     C3  12683 0.15592700  12.010000   ; qtot 382.367144
12684         c3    436    ccc     C4  12684 0.28383300  12.010000   ; qtot 382.650977
12685         c3    436    ccc     C5  12685 0.32403300  12.010000   ; qtot 382.975010
12686         h1    436    ccc     H3  12686 0.13386900   1.008000   ; qtot 383.108879
12687         h1    436    ccc     H4  12687 0.10146700   1.008000   ; qtot 383.210346
12688         h2    436    ccc     H5  12688 0.10960400   1.008000   ; qtot 383.319950
12689         os    436    ccc     O1  12689 -0.28650000  16.000000   ; qtot 383.033450
12690         oh    436    ccc     O2  12690 -0.86012500  16.000000   ; qtot 382.173325
12691         oh    436    ccc     O3  12691 -0.83772800  16.000000   ; qtot 381.335597
12692         oh    436    ccc     O4  12692 -0.77449700  16.000000   ; qtot 380.561100
12693         c3    436    ccc     C6  12693 0.37576500  12.010000   ; qtot 380.936865
12694         ho    436    ccc     H6  12694 0.53656000   1.008000   ; qtot 381.473425
12695         ho    436    ccc     H7  12695 0.49492100   1.008000   ; qtot 381.968346
12696         ho    436    ccc     H8  12696 0.51297200   1.008000   ; qtot 382.481318
12697         h1    436    ccc     H9  12697 0.05653400   1.008000   ; qtot 382.537852
12698         h1    436    ccc    H10  12698 0.05653400   1.008000   ; qtot 382.594386
12699         oh    436    ccc     O5  12699 -0.84113600  16.000000   ; qtot 381.753250
12700         ho    436    ccc    H11  12700 0.51201600   1.008000   ; qtot 382.265266
12701         os    436    ccc     O6  12701 -0.26013600  16.000000   ; qtot 382.005130
; residue  437 ccc rtp ccc q 0.0
12702         c3    437    ccc     C1  12702 -0.33178800  12.010000   ; qtot 381.673342
12703         c3    437    ccc     C2  12703 0.30606500  12.010000   ; qtot 381.979407
12704         h1    437    ccc     H1  12704 0.11662300   1.008000   ; qtot 382.096030
12705         h1    437    ccc     H2  12705 0.11526800   1.008000   ; qtot 382.211298
12706         c3    437    ccc     C3  12706 0.15592700  12.010000   ; qtot 382.367225
12707         c3    437    ccc     C4  12707 0.28383300  12.010000   ; qtot 382.651058
12708         c3    437    ccc     C5  12708 0.32403300  12.010000   ; qtot 382.975091
12709         h1    437    ccc     H3  12709 0.13386900   1.008000   ; qtot 383.108960
12710         h1    437    ccc     H4  12710 0.10146700   1.008000   ; qtot 383.210427
12711         h2    437    ccc     H5  12711 0.10960400   1.008000   ; qtot 383.320031
12712         os    437    ccc     O1  12712 -0.28650000  16.000000   ; qtot 383.033531
12713         oh    437    ccc     O2  12713 -0.86012500  16.000000   ; qtot 382.173406
12714         oh    437    ccc     O3  12714 -0.83772800  16.000000   ; qtot 381.335678
12715         oh    437    ccc     O4  12715 -0.77449700  16.000000   ; qtot 380.561181
12716         c3    437    ccc     C6  12716 0.37576500  12.010000   ; qtot 380.936946
12717         ho    437    ccc     H6  12717 0.53656000   1.008000   ; qtot 381.473506
12718         ho    437    ccc     H7  12718 0.49492100   1.008000   ; qtot 381.968427
12719         ho    437    ccc     H8  12719 0.51297200   1.008000   ; qtot 382.481399
12720         h1    437    ccc     H9  12720 0.05653400   1.008000   ; qtot 382.537933
12721         h1    437    ccc    H10  12721 0.05653400   1.008000   ; qtot 382.594467
12722         oh    437    ccc     O5  12722 -0.84113600  16.000000   ; qtot 381.753331
12723         ho    437    ccc    H11  12723 0.51201600   1.008000   ; qtot 382.265347
12724         os    437    ccc     O6  12724 -0.26013600  16.000000   ; qtot 382.005211
; residue  438 ccc rtp ccc q 0.0
12725         c3    438    ccc     C1  12725 -0.33178800  12.010000   ; qtot 381.673423
12726         c3    438    ccc     C2  12726 0.30606500  12.010000   ; qtot 381.979488
12727         h1    438    ccc     H1  12727 0.11662300   1.008000   ; qtot 382.096111
12728         h1    438    ccc     H2  12728 0.11526800   1.008000   ; qtot 382.211379
12729         c3    438    ccc     C3  12729 0.15592700  12.010000   ; qtot 382.367306
12730         c3    438    ccc     C4  12730 0.28383300  12.010000   ; qtot 382.651139
12731         c3    438    ccc     C5  12731 0.32403300  12.010000   ; qtot 382.975172
12732         h1    438    ccc     H3  12732 0.13386900   1.008000   ; qtot 383.109041
12733         h1    438    ccc     H4  12733 0.10146700   1.008000   ; qtot 383.210508
12734         h2    438    ccc     H5  12734 0.10960400   1.008000   ; qtot 383.320112
12735         os    438    ccc     O1  12735 -0.28650000  16.000000   ; qtot 383.033612
12736         oh    438    ccc     O2  12736 -0.86012500  16.000000   ; qtot 382.173487
12737         oh    438    ccc     O3  12737 -0.83772800  16.000000   ; qtot 381.335759
12738         oh    438    ccc     O4  12738 -0.77449700  16.000000   ; qtot 380.561262
12739         c3    438    ccc     C6  12739 0.37576500  12.010000   ; qtot 380.937027
12740         ho    438    ccc     H6  12740 0.53656000   1.008000   ; qtot 381.473587
12741         ho    438    ccc     H7  12741 0.49492100   1.008000   ; qtot 381.968508
12742         ho    438    ccc     H8  12742 0.51297200   1.008000   ; qtot 382.481480
12743         h1    438    ccc     H9  12743 0.05653400   1.008000   ; qtot 382.538014
12744         h1    438    ccc    H10  12744 0.05653400   1.008000   ; qtot 382.594548
12745         oh    438    ccc     O5  12745 -0.84113600  16.000000   ; qtot 381.753412
12746         ho    438    ccc    H11  12746 0.51201600   1.008000   ; qtot 382.265428
12747         os    438    ccc     O6  12747 -0.26013600  16.000000   ; qtot 382.005292
; residue  439 ccc rtp ccc q 0.0
12748         c3    439    ccc     C1  12748 -0.33178800  12.010000   ; qtot 381.673504
12749         c3    439    ccc     C2  12749 0.30606500  12.010000   ; qtot 381.979569
12750         h1    439    ccc     H1  12750 0.11662300   1.008000   ; qtot 382.096192
12751         h1    439    ccc     H2  12751 0.11526800   1.008000   ; qtot 382.211460
12752         c3    439    ccc     C3  12752 0.15592700  12.010000   ; qtot 382.367387
12753         c3    439    ccc     C4  12753 0.28383300  12.010000   ; qtot 382.651220
12754         c3    439    ccc     C5  12754 0.32403300  12.010000   ; qtot 382.975253
12755         h1    439    ccc     H3  12755 0.13386900   1.008000   ; qtot 383.109122
12756         h1    439    ccc     H4  12756 0.10146700   1.008000   ; qtot 383.210589
12757         h2    439    ccc     H5  12757 0.10960400   1.008000   ; qtot 383.320193
12758         os    439    ccc     O1  12758 -0.28650000  16.000000   ; qtot 383.033693
12759         oh    439    ccc     O2  12759 -0.86012500  16.000000   ; qtot 382.173568
12760         oh    439    ccc     O3  12760 -0.83772800  16.000000   ; qtot 381.335840
12761         oh    439    ccc     O4  12761 -0.77449700  16.000000   ; qtot 380.561343
12762         c3    439    ccc     C6  12762 0.37576500  12.010000   ; qtot 380.937108
12763         ho    439    ccc     H6  12763 0.53656000   1.008000   ; qtot 381.473668
12764         ho    439    ccc     H7  12764 0.49492100   1.008000   ; qtot 381.968589
12765         ho    439    ccc     H8  12765 0.51297200   1.008000   ; qtot 382.481561
12766         h1    439    ccc     H9  12766 0.05653400   1.008000   ; qtot 382.538095
12767         h1    439    ccc    H10  12767 0.05653400   1.008000   ; qtot 382.594629
12768         oh    439    ccc     O5  12768 -0.84113600  16.000000   ; qtot 381.753493
12769         ho    439    ccc    H11  12769 0.51201600   1.008000   ; qtot 382.265509
12770         os    439    ccc     O6  12770 -0.26013600  16.000000   ; qtot 382.005373
; residue  440 ccc rtp ccc q 0.0
12771         c3    440    ccc     C1  12771 -0.33178800  12.010000   ; qtot 381.673585
12772         c3    440    ccc     C2  12772 0.30606500  12.010000   ; qtot 381.979650
12773         h1    440    ccc     H1  12773 0.11662300   1.008000   ; qtot 382.096273
12774         h1    440    ccc     H2  12774 0.11526800   1.008000   ; qtot 382.211541
12775         c3    440    ccc     C3  12775 0.15592700  12.010000   ; qtot 382.367468
12776         c3    440    ccc     C4  12776 0.28383300  12.010000   ; qtot 382.651301
12777         c3    440    ccc     C5  12777 0.32403300  12.010000   ; qtot 382.975334
12778         h1    440    ccc     H3  12778 0.13386900   1.008000   ; qtot 383.109203
12779         h1    440    ccc     H4  12779 0.10146700   1.008000   ; qtot 383.210670
12780         h2    440    ccc     H5  12780 0.10960400   1.008000   ; qtot 383.320274
12781         os    440    ccc     O1  12781 -0.28650000  16.000000   ; qtot 383.033774
12782         oh    440    ccc     O2  12782 -0.86012500  16.000000   ; qtot 382.173649
12783         oh    440    ccc     O3  12783 -0.83772800  16.000000   ; qtot 381.335921
12784         oh    440    ccc     O4  12784 -0.77449700  16.000000   ; qtot 380.561424
12785         c3    440    ccc     C6  12785 0.37576500  12.010000   ; qtot 380.937189
12786         ho    440    ccc     H6  12786 0.53656000   1.008000   ; qtot 381.473749
12787         ho    440    ccc     H7  12787 0.49492100   1.008000   ; qtot 381.968670
12788         ho    440    ccc     H8  12788 0.51297200   1.008000   ; qtot 382.481642
12789         h1    440    ccc     H9  12789 0.05653400   1.008000   ; qtot 382.538176
12790         h1    440    ccc    H10  12790 0.05653400   1.008000   ; qtot 382.594710
12791         oh    440    ccc     O5  12791 -0.84113600  16.000000   ; qtot 381.753574
12792         ho    440    ccc    H11  12792 0.51201600   1.008000   ; qtot 382.265590
12793         os    440    ccc     O6  12793 -0.26013600  16.000000   ; qtot 382.005454
; residue  441 ccc rtp ccc q 0.0
12794         c3    441    ccc     C1  12794 -0.33178800  12.010000   ; qtot 381.673666
12795         c3    441    ccc     C2  12795 0.30606500  12.010000   ; qtot 381.979731
12796         h1    441    ccc     H1  12796 0.11662300   1.008000   ; qtot 382.096354
12797         h1    441    ccc     H2  12797 0.11526800   1.008000   ; qtot 382.211622
12798         c3    441    ccc     C3  12798 0.15592700  12.010000   ; qtot 382.367549
12799         c3    441    ccc     C4  12799 0.28383300  12.010000   ; qtot 382.651382
12800         c3    441    ccc     C5  12800 0.32403300  12.010000   ; qtot 382.975415
12801         h1    441    ccc     H3  12801 0.13386900   1.008000   ; qtot 383.109284
12802         h1    441    ccc     H4  12802 0.10146700   1.008000   ; qtot 383.210751
12803         h2    441    ccc     H5  12803 0.10960400   1.008000   ; qtot 383.320355
12804         os    441    ccc     O1  12804 -0.28650000  16.000000   ; qtot 383.033855
12805         oh    441    ccc     O2  12805 -0.86012500  16.000000   ; qtot 382.173730
12806         oh    441    ccc     O3  12806 -0.83772800  16.000000   ; qtot 381.336002
12807         oh    441    ccc     O4  12807 -0.77449700  16.000000   ; qtot 380.561505
12808         c3    441    ccc     C6  12808 0.37576500  12.010000   ; qtot 380.937270
12809         ho    441    ccc     H6  12809 0.53656000   1.008000   ; qtot 381.473830
12810         ho    441    ccc     H7  12810 0.49492100   1.008000   ; qtot 381.968751
12811         ho    441    ccc     H8  12811 0.51297200   1.008000   ; qtot 382.481723
12812         h1    441    ccc     H9  12812 0.05653400   1.008000   ; qtot 382.538257
12813         h1    441    ccc    H10  12813 0.05653400   1.008000   ; qtot 382.594791
12814         oh    441    ccc     O5  12814 -0.84113600  16.000000   ; qtot 381.753655
12815         ho    441    ccc    H11  12815 0.51201600   1.008000   ; qtot 382.265671
12816         os    441    ccc     O6  12816 -0.26013600  16.000000   ; qtot 382.005535
; residue  442 ccc rtp ccc q 0.0
12817         c3    442    ccc     C1  12817 -0.33178800  12.010000   ; qtot 381.673747
12818         c3    442    ccc     C2  12818 0.30606500  12.010000   ; qtot 381.979812
12819         h1    442    ccc     H1  12819 0.11662300   1.008000   ; qtot 382.096435
12820         h1    442    ccc     H2  12820 0.11526800   1.008000   ; qtot 382.211703
12821         c3    442    ccc     C3  12821 0.15592700  12.010000   ; qtot 382.367630
12822         c3    442    ccc     C4  12822 0.28383300  12.010000   ; qtot 382.651463
12823         c3    442    ccc     C5  12823 0.32403300  12.010000   ; qtot 382.975496
12824         h1    442    ccc     H3  12824 0.13386900   1.008000   ; qtot 383.109365
12825         h1    442    ccc     H4  12825 0.10146700   1.008000   ; qtot 383.210832
12826         h2    442    ccc     H5  12826 0.10960400   1.008000   ; qtot 383.320436
12827         os    442    ccc     O1  12827 -0.28650000  16.000000   ; qtot 383.033936
12828         oh    442    ccc     O2  12828 -0.86012500  16.000000   ; qtot 382.173811
12829         oh    442    ccc     O3  12829 -0.83772800  16.000000   ; qtot 381.336083
12830         oh    442    ccc     O4  12830 -0.77449700  16.000000   ; qtot 380.561586
12831         c3    442    ccc     C6  12831 0.37576500  12.010000   ; qtot 380.937351
12832         ho    442    ccc     H6  12832 0.53656000   1.008000   ; qtot 381.473911
12833         ho    442    ccc     H7  12833 0.49492100   1.008000   ; qtot 381.968832
12834         ho    442    ccc     H8  12834 0.51297200   1.008000   ; qtot 382.481804
12835         h1    442    ccc     H9  12835 0.05653400   1.008000   ; qtot 382.538338
12836         h1    442    ccc    H10  12836 0.05653400   1.008000   ; qtot 382.594872
12837         oh    442    ccc     O5  12837 -0.84113600  16.000000   ; qtot 381.753736
12838         ho    442    ccc    H11  12838 0.51201600   1.008000   ; qtot 382.265752
12839         os    442    ccc     O6  12839 -0.26013600  16.000000   ; qtot 382.005616
; residue  443 ccc rtp ccc q 0.0
12840         c3    443    ccc     C1  12840 -0.33178800  12.010000   ; qtot 381.673828
12841         c3    443    ccc     C2  12841 0.30606500  12.010000   ; qtot 381.979893
12842         h1    443    ccc     H1  12842 0.11662300   1.008000   ; qtot 382.096516
12843         h1    443    ccc     H2  12843 0.11526800   1.008000   ; qtot 382.211784
12844         c3    443    ccc     C3  12844 0.15592700  12.010000   ; qtot 382.367711
12845         c3    443    ccc     C4  12845 0.28383300  12.010000   ; qtot 382.651544
12846         c3    443    ccc     C5  12846 0.32403300  12.010000   ; qtot 382.975577
12847         h1    443    ccc     H3  12847 0.13386900   1.008000   ; qtot 383.109446
12848         h1    443    ccc     H4  12848 0.10146700   1.008000   ; qtot 383.210913
12849         h2    443    ccc     H5  12849 0.10960400   1.008000   ; qtot 383.320517
12850         os    443    ccc     O1  12850 -0.28650000  16.000000   ; qtot 383.034017
12851         oh    443    ccc     O2  12851 -0.86012500  16.000000   ; qtot 382.173892
12852         oh    443    ccc     O3  12852 -0.83772800  16.000000   ; qtot 381.336164
12853         oh    443    ccc     O4  12853 -0.77449700  16.000000   ; qtot 380.561667
12854         c3    443    ccc     C6  12854 0.37576500  12.010000   ; qtot 380.937432
12855         ho    443    ccc     H6  12855 0.53656000   1.008000   ; qtot 381.473992
12856         ho    443    ccc     H7  12856 0.49492100   1.008000   ; qtot 381.968913
12857         ho    443    ccc     H8  12857 0.51297200   1.008000   ; qtot 382.481885
12858         h1    443    ccc     H9  12858 0.05653400   1.008000   ; qtot 382.538419
12859         h1    443    ccc    H10  12859 0.05653400   1.008000   ; qtot 382.594953
12860         oh    443    ccc     O5  12860 -0.84113600  16.000000   ; qtot 381.753817
12861         ho    443    ccc    H11  12861 0.51201600   1.008000   ; qtot 382.265833
12862         os    443    ccc     O6  12862 -0.26013600  16.000000   ; qtot 382.005697
; residue  444 ccc rtp ccc q 0.0
12863         c3    444    ccc     C1  12863 -0.33178800  12.010000   ; qtot 381.673909
12864         c3    444    ccc     C2  12864 0.30606500  12.010000   ; qtot 381.979974
12865         h1    444    ccc     H1  12865 0.11662300   1.008000   ; qtot 382.096597
12866         h1    444    ccc     H2  12866 0.11526800   1.008000   ; qtot 382.211865
12867         c3    444    ccc     C3  12867 0.15592700  12.010000   ; qtot 382.367792
12868         c3    444    ccc     C4  12868 0.28383300  12.010000   ; qtot 382.651625
12869         c3    444    ccc     C5  12869 0.32403300  12.010000   ; qtot 382.975658
12870         h1    444    ccc     H3  12870 0.13386900   1.008000   ; qtot 383.109527
12871         h1    444    ccc     H4  12871 0.10146700   1.008000   ; qtot 383.210994
12872         h2    444    ccc     H5  12872 0.10960400   1.008000   ; qtot 383.320598
12873         os    444    ccc     O1  12873 -0.28650000  16.000000   ; qtot 383.034098
12874         oh    444    ccc     O2  12874 -0.86012500  16.000000   ; qtot 382.173973
12875         oh    444    ccc     O3  12875 -0.83772800  16.000000   ; qtot 381.336245
12876         oh    444    ccc     O4  12876 -0.77449700  16.000000   ; qtot 380.561748
12877         c3    444    ccc     C6  12877 0.37576500  12.010000   ; qtot 380.937513
12878         ho    444    ccc     H6  12878 0.53656000   1.008000   ; qtot 381.474073
12879         ho    444    ccc     H7  12879 0.49492100   1.008000   ; qtot 381.968994
12880         ho    444    ccc     H8  12880 0.51297200   1.008000   ; qtot 382.481966
12881         h1    444    ccc     H9  12881 0.05653400   1.008000   ; qtot 382.538500
12882         h1    444    ccc    H10  12882 0.05653400   1.008000   ; qtot 382.595034
12883         oh    444    ccc     O5  12883 -0.84113600  16.000000   ; qtot 381.753898
12884         ho    444    ccc    H11  12884 0.51201600   1.008000   ; qtot 382.265914
12885         os    444    ccc     O6  12885 -0.26013600  16.000000   ; qtot 382.005778
; residue  445 ccc rtp ccc q 0.0
12886         c3    445    ccc     C1  12886 -0.33178800  12.010000   ; qtot 381.673990
12887         c3    445    ccc     C2  12887 0.30606500  12.010000   ; qtot 381.980055
12888         h1    445    ccc     H1  12888 0.11662300   1.008000   ; qtot 382.096678
12889         h1    445    ccc     H2  12889 0.11526800   1.008000   ; qtot 382.211946
12890         c3    445    ccc     C3  12890 0.15592700  12.010000   ; qtot 382.367873
12891         c3    445    ccc     C4  12891 0.28383300  12.010000   ; qtot 382.651706
12892         c3    445    ccc     C5  12892 0.32403300  12.010000   ; qtot 382.975739
12893         h1    445    ccc     H3  12893 0.13386900   1.008000   ; qtot 383.109608
12894         h1    445    ccc     H4  12894 0.10146700   1.008000   ; qtot 383.211075
12895         h2    445    ccc     H5  12895 0.10960400   1.008000   ; qtot 383.320679
12896         os    445    ccc     O1  12896 -0.28650000  16.000000   ; qtot 383.034179
12897         oh    445    ccc     O2  12897 -0.86012500  16.000000   ; qtot 382.174054
12898         oh    445    ccc     O3  12898 -0.83772800  16.000000   ; qtot 381.336326
12899         oh    445    ccc     O4  12899 -0.77449700  16.000000   ; qtot 380.561829
12900         c3    445    ccc     C6  12900 0.37576500  12.010000   ; qtot 380.937594
12901         ho    445    ccc     H6  12901 0.53656000   1.008000   ; qtot 381.474154
12902         ho    445    ccc     H7  12902 0.49492100   1.008000   ; qtot 381.969075
12903         ho    445    ccc     H8  12903 0.51297200   1.008000   ; qtot 382.482047
12904         h1    445    ccc     H9  12904 0.05653400   1.008000   ; qtot 382.538581
12905         h1    445    ccc    H10  12905 0.05653400   1.008000   ; qtot 382.595115
12906         oh    445    ccc     O5  12906 -0.84113600  16.000000   ; qtot 381.753979
12907         ho    445    ccc    H11  12907 0.51201600   1.008000   ; qtot 382.265995
12908         os    445    ccc     O6  12908 -0.26013600  16.000000   ; qtot 382.005859
; residue  446 ccc rtp ccc q 0.0
12909         c3    446    ccc     C1  12909 -0.33178800  12.010000   ; qtot 381.674071
12910         c3    446    ccc     C2  12910 0.30606500  12.010000   ; qtot 381.980136
12911         h1    446    ccc     H1  12911 0.11662300   1.008000   ; qtot 382.096759
12912         h1    446    ccc     H2  12912 0.11526800   1.008000   ; qtot 382.212027
12913         c3    446    ccc     C3  12913 0.15592700  12.010000   ; qtot 382.367954
12914         c3    446    ccc     C4  12914 0.28383300  12.010000   ; qtot 382.651787
12915         c3    446    ccc     C5  12915 0.32403300  12.010000   ; qtot 382.975820
12916         h1    446    ccc     H3  12916 0.13386900   1.008000   ; qtot 383.109689
12917         h1    446    ccc     H4  12917 0.10146700   1.008000   ; qtot 383.211156
12918         h2    446    ccc     H5  12918 0.10960400   1.008000   ; qtot 383.320760
12919         os    446    ccc     O1  12919 -0.28650000  16.000000   ; qtot 383.034260
12920         oh    446    ccc     O2  12920 -0.86012500  16.000000   ; qtot 382.174135
12921         oh    446    ccc     O3  12921 -0.83772800  16.000000   ; qtot 381.336407
12922         oh    446    ccc     O4  12922 -0.77449700  16.000000   ; qtot 380.561910
12923         c3    446    ccc     C6  12923 0.37576500  12.010000   ; qtot 380.937675
12924         ho    446    ccc     H6  12924 0.53656000   1.008000   ; qtot 381.474235
12925         ho    446    ccc     H7  12925 0.49492100   1.008000   ; qtot 381.969156
12926         ho    446    ccc     H8  12926 0.51297200   1.008000   ; qtot 382.482128
12927         h1    446    ccc     H9  12927 0.05653400   1.008000   ; qtot 382.538662
12928         h1    446    ccc    H10  12928 0.05653400   1.008000   ; qtot 382.595196
12929         oh    446    ccc     O5  12929 -0.84113600  16.000000   ; qtot 381.754060
12930         ho    446    ccc    H11  12930 0.51201600   1.008000   ; qtot 382.266076
12931         os    446    ccc     O6  12931 -0.26013600  16.000000   ; qtot 382.005940
; residue  447 ccc rtp ccc q 0.0
12932         c3    447    ccc     C1  12932 -0.33178800  12.010000   ; qtot 381.674152
12933         c3    447    ccc     C2  12933 0.30606500  12.010000   ; qtot 381.980217
12934         h1    447    ccc     H1  12934 0.11662300   1.008000   ; qtot 382.096840
12935         h1    447    ccc     H2  12935 0.11526800   1.008000   ; qtot 382.212108
12936         c3    447    ccc     C3  12936 0.15592700  12.010000   ; qtot 382.368035
12937         c3    447    ccc     C4  12937 0.28383300  12.010000   ; qtot 382.651868
12938         c3    447    ccc     C5  12938 0.32403300  12.010000   ; qtot 382.975901
12939         h1    447    ccc     H3  12939 0.13386900   1.008000   ; qtot 383.109770
12940         h1    447    ccc     H4  12940 0.10146700   1.008000   ; qtot 383.211237
12941         h2    447    ccc     H5  12941 0.10960400   1.008000   ; qtot 383.320841
12942         os    447    ccc     O1  12942 -0.28650000  16.000000   ; qtot 383.034341
12943         oh    447    ccc     O2  12943 -0.86012500  16.000000   ; qtot 382.174216
12944         oh    447    ccc     O3  12944 -0.83772800  16.000000   ; qtot 381.336488
12945         oh    447    ccc     O4  12945 -0.77449700  16.000000   ; qtot 380.561991
12946         c3    447    ccc     C6  12946 0.37576500  12.010000   ; qtot 380.937756
12947         ho    447    ccc     H6  12947 0.53656000   1.008000   ; qtot 381.474316
12948         ho    447    ccc     H7  12948 0.49492100   1.008000   ; qtot 381.969237
12949         ho    447    ccc     H8  12949 0.51297200   1.008000   ; qtot 382.482209
12950         h1    447    ccc     H9  12950 0.05653400   1.008000   ; qtot 382.538743
12951         h1    447    ccc    H10  12951 0.05653400   1.008000   ; qtot 382.595277
12952         oh    447    ccc     O5  12952 -0.84113600  16.000000   ; qtot 381.754141
12953         ho    447    ccc    H11  12953 0.51201600   1.008000   ; qtot 382.266157
12954         os    447    ccc     O6  12954 -0.26013600  16.000000   ; qtot 382.006021
; residue  448 ccc rtp ccc q 0.0
12955         c3    448    ccc     C1  12955 -0.33178800  12.010000   ; qtot 381.674233
12956         c3    448    ccc     C2  12956 0.30606500  12.010000   ; qtot 381.980298
12957         h1    448    ccc     H1  12957 0.11662300   1.008000   ; qtot 382.096921
12958         h1    448    ccc     H2  12958 0.11526800   1.008000   ; qtot 382.212189
12959         c3    448    ccc     C3  12959 0.15592700  12.010000   ; qtot 382.368116
12960         c3    448    ccc     C4  12960 0.28383300  12.010000   ; qtot 382.651949
12961         c3    448    ccc     C5  12961 0.32403300  12.010000   ; qtot 382.975982
12962         h1    448    ccc     H3  12962 0.13386900   1.008000   ; qtot 383.109851
12963         h1    448    ccc     H4  12963 0.10146700   1.008000   ; qtot 383.211318
12964         h2    448    ccc     H5  12964 0.10960400   1.008000   ; qtot 383.320922
12965         os    448    ccc     O1  12965 -0.28650000  16.000000   ; qtot 383.034422
12966         oh    448    ccc     O2  12966 -0.86012500  16.000000   ; qtot 382.174297
12967         oh    448    ccc     O3  12967 -0.83772800  16.000000   ; qtot 381.336569
12968         oh    448    ccc     O4  12968 -0.77449700  16.000000   ; qtot 380.562072
12969         c3    448    ccc     C6  12969 0.37576500  12.010000   ; qtot 380.937837
12970         ho    448    ccc     H6  12970 0.53656000   1.008000   ; qtot 381.474397
12971         ho    448    ccc     H7  12971 0.49492100   1.008000   ; qtot 381.969318
12972         ho    448    ccc     H8  12972 0.51297200   1.008000   ; qtot 382.482290
12973         h1    448    ccc     H9  12973 0.05653400   1.008000   ; qtot 382.538824
12974         h1    448    ccc    H10  12974 0.05653400   1.008000   ; qtot 382.595358
12975         oh    448    ccc     O5  12975 -0.84113600  16.000000   ; qtot 381.754222
12976         ho    448    ccc    H11  12976 0.51201600   1.008000   ; qtot 382.266238
12977         os    448    ccc     O6  12977 -0.26013600  16.000000   ; qtot 382.006102
; residue  449 ccc rtp ccc q 0.0
12978         c3    449    ccc     C1  12978 -0.33178800  12.010000   ; qtot 381.674314
12979         c3    449    ccc     C2  12979 0.30606500  12.010000   ; qtot 381.980379
12980         h1    449    ccc     H1  12980 0.11662300   1.008000   ; qtot 382.097002
12981         h1    449    ccc     H2  12981 0.11526800   1.008000   ; qtot 382.212270
12982         c3    449    ccc     C3  12982 0.15592700  12.010000   ; qtot 382.368197
12983         c3    449    ccc     C4  12983 0.28383300  12.010000   ; qtot 382.652030
12984         c3    449    ccc     C5  12984 0.32403300  12.010000   ; qtot 382.976063
12985         h1    449    ccc     H3  12985 0.13386900   1.008000   ; qtot 383.109932
12986         h1    449    ccc     H4  12986 0.10146700   1.008000   ; qtot 383.211399
12987         h2    449    ccc     H5  12987 0.10960400   1.008000   ; qtot 383.321003
12988         os    449    ccc     O1  12988 -0.28650000  16.000000   ; qtot 383.034503
12989         oh    449    ccc     O2  12989 -0.86012500  16.000000   ; qtot 382.174378
12990         oh    449    ccc     O3  12990 -0.83772800  16.000000   ; qtot 381.336650
12991         oh    449    ccc     O4  12991 -0.77449700  16.000000   ; qtot 380.562153
12992         c3    449    ccc     C6  12992 0.37576500  12.010000   ; qtot 380.937918
12993         ho    449    ccc     H6  12993 0.53656000   1.008000   ; qtot 381.474478
12994         ho    449    ccc     H7  12994 0.49492100   1.008000   ; qtot 381.969399
12995         ho    449    ccc     H8  12995 0.51297200   1.008000   ; qtot 382.482371
12996         h1    449    ccc     H9  12996 0.05653400   1.008000   ; qtot 382.538905
12997         h1    449    ccc    H10  12997 0.05653400   1.008000   ; qtot 382.595439
12998         oh    449    ccc     O5  12998 -0.84113600  16.000000   ; qtot 381.754303
12999         ho    449    ccc    H11  12999 0.51201600   1.008000   ; qtot 382.266319
13000         os    449    ccc     O6  13000 -0.26013600  16.000000   ; qtot 382.006183
; residue  450 ccc rtp ccc q 0.0
13001         c3    450    ccc     C1  13001 -0.33178800  12.010000   ; qtot 381.674395
13002         c3    450    ccc     C2  13002 0.30606500  12.010000   ; qtot 381.980460
13003         h1    450    ccc     H1  13003 0.11662300   1.008000   ; qtot 382.097083
13004         h1    450    ccc     H2  13004 0.11526800   1.008000   ; qtot 382.212351
13005         c3    450    ccc     C3  13005 0.15592700  12.010000   ; qtot 382.368278
13006         c3    450    ccc     C4  13006 0.28383300  12.010000   ; qtot 382.652111
13007         c3    450    ccc     C5  13007 0.32403300  12.010000   ; qtot 382.976144
13008         h1    450    ccc     H3  13008 0.13386900   1.008000   ; qtot 383.110013
13009         h1    450    ccc     H4  13009 0.10146700   1.008000   ; qtot 383.211480
13010         h2    450    ccc     H5  13010 0.10960400   1.008000   ; qtot 383.321084
13011         os    450    ccc     O1  13011 -0.28650000  16.000000   ; qtot 383.034584
13012         oh    450    ccc     O2  13012 -0.86012500  16.000000   ; qtot 382.174459
13013         oh    450    ccc     O3  13013 -0.83772800  16.000000   ; qtot 381.336731
13014         oh    450    ccc     O4  13014 -0.77449700  16.000000   ; qtot 380.562234
13015         c3    450    ccc     C6  13015 0.37576500  12.010000   ; qtot 380.937999
13016         ho    450    ccc     H6  13016 0.53656000   1.008000   ; qtot 381.474559
13017         ho    450    ccc     H7  13017 0.49492100   1.008000   ; qtot 381.969480
13018         ho    450    ccc     H8  13018 0.51297200   1.008000   ; qtot 382.482452
13019         h1    450    ccc     H9  13019 0.05653400   1.008000   ; qtot 382.538986
13020         h1    450    ccc    H10  13020 0.05653400   1.008000   ; qtot 382.595520
13021         oh    450    ccc     O5  13021 -0.84113600  16.000000   ; qtot 381.754384
13022         ho    450    ccc    H11  13022 0.51201600   1.008000   ; qtot 382.266400
13023         os    450    ccc     O6  13023 -0.26013600  16.000000   ; qtot 382.006264
; residue  451 ccc rtp ccc q 0.0
13024         c3    451    ccc     C1  13024 -0.33178800  12.010000   ; qtot 381.674476
13025         c3    451    ccc     C2  13025 0.30606500  12.010000   ; qtot 381.980541
13026         h1    451    ccc     H1  13026 0.11662300   1.008000   ; qtot 382.097164
13027         h1    451    ccc     H2  13027 0.11526800   1.008000   ; qtot 382.212432
13028         c3    451    ccc     C3  13028 0.15592700  12.010000   ; qtot 382.368359
13029         c3    451    ccc     C4  13029 0.28383300  12.010000   ; qtot 382.652192
13030         c3    451    ccc     C5  13030 0.32403300  12.010000   ; qtot 382.976225
13031         h1    451    ccc     H3  13031 0.13386900   1.008000   ; qtot 383.110094
13032         h1    451    ccc     H4  13032 0.10146700   1.008000   ; qtot 383.211561
13033         h2    451    ccc     H5  13033 0.10960400   1.008000   ; qtot 383.321165
13034         os    451    ccc     O1  13034 -0.28650000  16.000000   ; qtot 383.034665
13035         oh    451    ccc     O2  13035 -0.86012500  16.000000   ; qtot 382.174540
13036         oh    451    ccc     O3  13036 -0.83772800  16.000000   ; qtot 381.336812
13037         oh    451    ccc     O4  13037 -0.77449700  16.000000   ; qtot 380.562315
13038         c3    451    ccc     C6  13038 0.37576500  12.010000   ; qtot 380.938080
13039         ho    451    ccc     H6  13039 0.53656000   1.008000   ; qtot 381.474640
13040         ho    451    ccc     H7  13040 0.49492100   1.008000   ; qtot 381.969561
13041         ho    451    ccc     H8  13041 0.51297200   1.008000   ; qtot 382.482533
13042         h1    451    ccc     H9  13042 0.05653400   1.008000   ; qtot 382.539067
13043         h1    451    ccc    H10  13043 0.05653400   1.008000   ; qtot 382.595601
13044         oh    451    ccc     O5  13044 -0.84113600  16.000000   ; qtot 381.754465
13045         ho    451    ccc    H11  13045 0.51201600   1.008000   ; qtot 382.266481
13046         os    451    ccc     O6  13046 -0.26013600  16.000000   ; qtot 382.006345
; residue  452 ccc rtp ccc q 0.0
13047         c3    452    ccc     C1  13047 -0.33178800  12.010000   ; qtot 381.674557
13048         c3    452    ccc     C2  13048 0.30606500  12.010000   ; qtot 381.980622
13049         h1    452    ccc     H1  13049 0.11662300   1.008000   ; qtot 382.097245
13050         h1    452    ccc     H2  13050 0.11526800   1.008000   ; qtot 382.212513
13051         c3    452    ccc     C3  13051 0.15592700  12.010000   ; qtot 382.368440
13052         c3    452    ccc     C4  13052 0.28383300  12.010000   ; qtot 382.652273
13053         c3    452    ccc     C5  13053 0.32403300  12.010000   ; qtot 382.976306
13054         h1    452    ccc     H3  13054 0.13386900   1.008000   ; qtot 383.110175
13055         h1    452    ccc     H4  13055 0.10146700   1.008000   ; qtot 383.211642
13056         h2    452    ccc     H5  13056 0.10960400   1.008000   ; qtot 383.321246
13057         os    452    ccc     O1  13057 -0.28650000  16.000000   ; qtot 383.034746
13058         oh    452    ccc     O2  13058 -0.86012500  16.000000   ; qtot 382.174621
13059         oh    452    ccc     O3  13059 -0.83772800  16.000000   ; qtot 381.336893
13060         oh    452    ccc     O4  13060 -0.77449700  16.000000   ; qtot 380.562396
13061         c3    452    ccc     C6  13061 0.37576500  12.010000   ; qtot 380.938161
13062         ho    452    ccc     H6  13062 0.53656000   1.008000   ; qtot 381.474721
13063         ho    452    ccc     H7  13063 0.49492100   1.008000   ; qtot 381.969642
13064         ho    452    ccc     H8  13064 0.51297200   1.008000   ; qtot 382.482614
13065         h1    452    ccc     H9  13065 0.05653400   1.008000   ; qtot 382.539148
13066         h1    452    ccc    H10  13066 0.05653400   1.008000   ; qtot 382.595682
13067         oh    452    ccc     O5  13067 -0.84113600  16.000000   ; qtot 381.754546
13068         ho    452    ccc    H11  13068 0.51201600   1.008000   ; qtot 382.266562
13069         os    452    ccc     O6  13069 -0.26013600  16.000000   ; qtot 382.006426
; residue  453 ccc rtp ccc q 0.0
13070         c3    453    ccc     C1  13070 -0.33178800  12.010000   ; qtot 381.674638
13071         c3    453    ccc     C2  13071 0.30606500  12.010000   ; qtot 381.980703
13072         h1    453    ccc     H1  13072 0.11662300   1.008000   ; qtot 382.097326
13073         h1    453    ccc     H2  13073 0.11526800   1.008000   ; qtot 382.212594
13074         c3    453    ccc     C3  13074 0.15592700  12.010000   ; qtot 382.368521
13075         c3    453    ccc     C4  13075 0.28383300  12.010000   ; qtot 382.652354
13076         c3    453    ccc     C5  13076 0.32403300  12.010000   ; qtot 382.976387
13077         h1    453    ccc     H3  13077 0.13386900   1.008000   ; qtot 383.110256
13078         h1    453    ccc     H4  13078 0.10146700   1.008000   ; qtot 383.211723
13079         h2    453    ccc     H5  13079 0.10960400   1.008000   ; qtot 383.321327
13080         os    453    ccc     O1  13080 -0.28650000  16.000000   ; qtot 383.034827
13081         oh    453    ccc     O2  13081 -0.86012500  16.000000   ; qtot 382.174702
13082         oh    453    ccc     O3  13082 -0.83772800  16.000000   ; qtot 381.336974
13083         oh    453    ccc     O4  13083 -0.77449700  16.000000   ; qtot 380.562477
13084         c3    453    ccc     C6  13084 0.37576500  12.010000   ; qtot 380.938242
13085         ho    453    ccc     H6  13085 0.53656000   1.008000   ; qtot 381.474802
13086         ho    453    ccc     H7  13086 0.49492100   1.008000   ; qtot 381.969723
13087         ho    453    ccc     H8  13087 0.51297200   1.008000   ; qtot 382.482695
13088         h1    453    ccc     H9  13088 0.05653400   1.008000   ; qtot 382.539229
13089         h1    453    ccc    H10  13089 0.05653400   1.008000   ; qtot 382.595763
13090         oh    453    ccc     O5  13090 -0.84113600  16.000000   ; qtot 381.754627
13091         ho    453    ccc    H11  13091 0.51201600   1.008000   ; qtot 382.266643
13092         os    453    ccc     O6  13092 -0.26013600  16.000000   ; qtot 382.006507
; residue  454 ccc rtp ccc q 0.0
13093         c3    454    ccc     C1  13093 -0.33178800  12.010000   ; qtot 381.674719
13094         c3    454    ccc     C2  13094 0.30606500  12.010000   ; qtot 381.980784
13095         h1    454    ccc     H1  13095 0.11662300   1.008000   ; qtot 382.097407
13096         h1    454    ccc     H2  13096 0.11526800   1.008000   ; qtot 382.212675
13097         c3    454    ccc     C3  13097 0.15592700  12.010000   ; qtot 382.368602
13098         c3    454    ccc     C4  13098 0.28383300  12.010000   ; qtot 382.652435
13099         c3    454    ccc     C5  13099 0.32403300  12.010000   ; qtot 382.976468
13100         h1    454    ccc     H3  13100 0.13386900   1.008000   ; qtot 383.110337
13101         h1    454    ccc     H4  13101 0.10146700   1.008000   ; qtot 383.211804
13102         h2    454    ccc     H5  13102 0.10960400   1.008000   ; qtot 383.321408
13103         os    454    ccc     O1  13103 -0.28650000  16.000000   ; qtot 383.034908
13104         oh    454    ccc     O2  13104 -0.86012500  16.000000   ; qtot 382.174783
13105         oh    454    ccc     O3  13105 -0.83772800  16.000000   ; qtot 381.337055
13106         oh    454    ccc     O4  13106 -0.77449700  16.000000   ; qtot 380.562558
13107         c3    454    ccc     C6  13107 0.37576500  12.010000   ; qtot 380.938323
13108         ho    454    ccc     H6  13108 0.53656000   1.008000   ; qtot 381.474883
13109         ho    454    ccc     H7  13109 0.49492100   1.008000   ; qtot 381.969804
13110         ho    454    ccc     H8  13110 0.51297200   1.008000   ; qtot 382.482776
13111         h1    454    ccc     H9  13111 0.05653400   1.008000   ; qtot 382.539310
13112         h1    454    ccc    H10  13112 0.05653400   1.008000   ; qtot 382.595844
13113         oh    454    ccc     O5  13113 -0.84113600  16.000000   ; qtot 381.754708
13114         ho    454    ccc    H11  13114 0.51201600   1.008000   ; qtot 382.266724
13115         os    454    ccc     O6  13115 -0.26013600  16.000000   ; qtot 382.006588
; residue  455 ccc rtp ccc q 0.0
13116         c3    455    ccc     C1  13116 -0.33178800  12.010000   ; qtot 381.674800
13117         c3    455    ccc     C2  13117 0.30606500  12.010000   ; qtot 381.980865
13118         h1    455    ccc     H1  13118 0.11662300   1.008000   ; qtot 382.097488
13119         h1    455    ccc     H2  13119 0.11526800   1.008000   ; qtot 382.212756
13120         c3    455    ccc     C3  13120 0.15592700  12.010000   ; qtot 382.368683
13121         c3    455    ccc     C4  13121 0.28383300  12.010000   ; qtot 382.652516
13122         c3    455    ccc     C5  13122 0.32403300  12.010000   ; qtot 382.976549
13123         h1    455    ccc     H3  13123 0.13386900   1.008000   ; qtot 383.110418
13124         h1    455    ccc     H4  13124 0.10146700   1.008000   ; qtot 383.211885
13125         h2    455    ccc     H5  13125 0.10960400   1.008000   ; qtot 383.321489
13126         os    455    ccc     O1  13126 -0.28650000  16.000000   ; qtot 383.034989
13127         oh    455    ccc     O2  13127 -0.86012500  16.000000   ; qtot 382.174864
13128         oh    455    ccc     O3  13128 -0.83772800  16.000000   ; qtot 381.337136
13129         oh    455    ccc     O4  13129 -0.77449700  16.000000   ; qtot 380.562639
13130         c3    455    ccc     C6  13130 0.37576500  12.010000   ; qtot 380.938404
13131         ho    455    ccc     H6  13131 0.53656000   1.008000   ; qtot 381.474964
13132         ho    455    ccc     H7  13132 0.49492100   1.008000   ; qtot 381.969885
13133         ho    455    ccc     H8  13133 0.51297200   1.008000   ; qtot 382.482857
13134         h1    455    ccc     H9  13134 0.05653400   1.008000   ; qtot 382.539391
13135         h1    455    ccc    H10  13135 0.05653400   1.008000   ; qtot 382.595925
13136         oh    455    ccc     O5  13136 -0.84113600  16.000000   ; qtot 381.754789
13137         ho    455    ccc    H11  13137 0.51201600   1.008000   ; qtot 382.266805
13138         os    455    ccc     O6  13138 -0.26013600  16.000000   ; qtot 382.006669
; residue  456 ccc rtp ccc q 0.0
13139         c3    456    ccc     C1  13139 -0.33178800  12.010000   ; qtot 381.674881
13140         c3    456    ccc     C2  13140 0.30606500  12.010000   ; qtot 381.980946
13141         h1    456    ccc     H1  13141 0.11662300   1.008000   ; qtot 382.097569
13142         h1    456    ccc     H2  13142 0.11526800   1.008000   ; qtot 382.212837
13143         c3    456    ccc     C3  13143 0.15592700  12.010000   ; qtot 382.368764
13144         c3    456    ccc     C4  13144 0.28383300  12.010000   ; qtot 382.652597
13145         c3    456    ccc     C5  13145 0.32403300  12.010000   ; qtot 382.976630
13146         h1    456    ccc     H3  13146 0.13386900   1.008000   ; qtot 383.110499
13147         h1    456    ccc     H4  13147 0.10146700   1.008000   ; qtot 383.211966
13148         h2    456    ccc     H5  13148 0.10960400   1.008000   ; qtot 383.321570
13149         os    456    ccc     O1  13149 -0.28650000  16.000000   ; qtot 383.035070
13150         oh    456    ccc     O2  13150 -0.86012500  16.000000   ; qtot 382.174945
13151         oh    456    ccc     O3  13151 -0.83772800  16.000000   ; qtot 381.337217
13152         oh    456    ccc     O4  13152 -0.77449700  16.000000   ; qtot 380.562720
13153         c3    456    ccc     C6  13153 0.37576500  12.010000   ; qtot 380.938485
13154         ho    456    ccc     H6  13154 0.53656000   1.008000   ; qtot 381.475045
13155         ho    456    ccc     H7  13155 0.49492100   1.008000   ; qtot 381.969966
13156         ho    456    ccc     H8  13156 0.51297200   1.008000   ; qtot 382.482938
13157         h1    456    ccc     H9  13157 0.05653400   1.008000   ; qtot 382.539472
13158         h1    456    ccc    H10  13158 0.05653400   1.008000   ; qtot 382.596006
13159         oh    456    ccc     O5  13159 -0.84113600  16.000000   ; qtot 381.754870
13160         ho    456    ccc    H11  13160 0.51201600   1.008000   ; qtot 382.266886
13161         os    456    ccc     O6  13161 -0.26013600  16.000000   ; qtot 382.006750
; residue  457 ccc rtp ccc q 0.0
13162         c3    457    ccc     C1  13162 -0.33178800  12.010000   ; qtot 381.674962
13163         c3    457    ccc     C2  13163 0.30606500  12.010000   ; qtot 381.981027
13164         h1    457    ccc     H1  13164 0.11662300   1.008000   ; qtot 382.097650
13165         h1    457    ccc     H2  13165 0.11526800   1.008000   ; qtot 382.212918
13166         c3    457    ccc     C3  13166 0.15592700  12.010000   ; qtot 382.368845
13167         c3    457    ccc     C4  13167 0.28383300  12.010000   ; qtot 382.652678
13168         c3    457    ccc     C5  13168 0.32403300  12.010000   ; qtot 382.976711
13169         h1    457    ccc     H3  13169 0.13386900   1.008000   ; qtot 383.110580
13170         h1    457    ccc     H4  13170 0.10146700   1.008000   ; qtot 383.212047
13171         h2    457    ccc     H5  13171 0.10960400   1.008000   ; qtot 383.321651
13172         os    457    ccc     O1  13172 -0.28650000  16.000000   ; qtot 383.035151
13173         oh    457    ccc     O2  13173 -0.86012500  16.000000   ; qtot 382.175026
13174         oh    457    ccc     O3  13174 -0.83772800  16.000000   ; qtot 381.337298
13175         oh    457    ccc     O4  13175 -0.77449700  16.000000   ; qtot 380.562801
13176         c3    457    ccc     C6  13176 0.37576500  12.010000   ; qtot 380.938566
13177         ho    457    ccc     H6  13177 0.53656000   1.008000   ; qtot 381.475126
13178         ho    457    ccc     H7  13178 0.49492100   1.008000   ; qtot 381.970047
13179         ho    457    ccc     H8  13179 0.51297200   1.008000   ; qtot 382.483019
13180         h1    457    ccc     H9  13180 0.05653400   1.008000   ; qtot 382.539553
13181         h1    457    ccc    H10  13181 0.05653400   1.008000   ; qtot 382.596087
13182         oh    457    ccc     O5  13182 -0.84113600  16.000000   ; qtot 381.754951
13183         ho    457    ccc    H11  13183 0.51201600   1.008000   ; qtot 382.266967
13184         os    457    ccc     O6  13184 -0.26013600  16.000000   ; qtot 382.006831
; residue  458 ccc rtp ccc q 0.0
13185         c3    458    ccc     C1  13185 -0.33178800  12.010000   ; qtot 381.675043
13186         c3    458    ccc     C2  13186 0.30606500  12.010000   ; qtot 381.981108
13187         h1    458    ccc     H1  13187 0.11662300   1.008000   ; qtot 382.097731
13188         h1    458    ccc     H2  13188 0.11526800   1.008000   ; qtot 382.212999
13189         c3    458    ccc     C3  13189 0.15592700  12.010000   ; qtot 382.368926
13190         c3    458    ccc     C4  13190 0.28383300  12.010000   ; qtot 382.652759
13191         c3    458    ccc     C5  13191 0.32403300  12.010000   ; qtot 382.976792
13192         h1    458    ccc     H3  13192 0.13386900   1.008000   ; qtot 383.110661
13193         h1    458    ccc     H4  13193 0.10146700   1.008000   ; qtot 383.212128
13194         h2    458    ccc     H5  13194 0.10960400   1.008000   ; qtot 383.321732
13195         os    458    ccc     O1  13195 -0.28650000  16.000000   ; qtot 383.035232
13196         oh    458    ccc     O2  13196 -0.86012500  16.000000   ; qtot 382.175107
13197         oh    458    ccc     O3  13197 -0.83772800  16.000000   ; qtot 381.337379
13198         oh    458    ccc     O4  13198 -0.77449700  16.000000   ; qtot 380.562882
13199         c3    458    ccc     C6  13199 0.37576500  12.010000   ; qtot 380.938647
13200         ho    458    ccc     H6  13200 0.53656000   1.008000   ; qtot 381.475207
13201         ho    458    ccc     H7  13201 0.49492100   1.008000   ; qtot 381.970128
13202         ho    458    ccc     H8  13202 0.51297200   1.008000   ; qtot 382.483100
13203         h1    458    ccc     H9  13203 0.05653400   1.008000   ; qtot 382.539634
13204         h1    458    ccc    H10  13204 0.05653400   1.008000   ; qtot 382.596168
13205         oh    458    ccc     O5  13205 -0.84113600  16.000000   ; qtot 381.755032
13206         ho    458    ccc    H11  13206 0.51201600   1.008000   ; qtot 382.267048
13207         os    458    ccc     O6  13207 -0.26013600  16.000000   ; qtot 382.006912
; residue  459 ccc rtp ccc q 0.0
13208         c3    459    ccc     C1  13208 -0.33178800  12.010000   ; qtot 381.675124
13209         c3    459    ccc     C2  13209 0.30606500  12.010000   ; qtot 381.981189
13210         h1    459    ccc     H1  13210 0.11662300   1.008000   ; qtot 382.097812
13211         h1    459    ccc     H2  13211 0.11526800   1.008000   ; qtot 382.213080
13212         c3    459    ccc     C3  13212 0.15592700  12.010000   ; qtot 382.369007
13213         c3    459    ccc     C4  13213 0.28383300  12.010000   ; qtot 382.652840
13214         c3    459    ccc     C5  13214 0.32403300  12.010000   ; qtot 382.976873
13215         h1    459    ccc     H3  13215 0.13386900   1.008000   ; qtot 383.110742
13216         h1    459    ccc     H4  13216 0.10146700   1.008000   ; qtot 383.212209
13217         h2    459    ccc     H5  13217 0.10960400   1.008000   ; qtot 383.321813
13218         os    459    ccc     O1  13218 -0.28650000  16.000000   ; qtot 383.035313
13219         oh    459    ccc     O2  13219 -0.86012500  16.000000   ; qtot 382.175188
13220         oh    459    ccc     O3  13220 -0.83772800  16.000000   ; qtot 381.337460
13221         oh    459    ccc     O4  13221 -0.77449700  16.000000   ; qtot 380.562963
13222         c3    459    ccc     C6  13222 0.37576500  12.010000   ; qtot 380.938728
13223         ho    459    ccc     H6  13223 0.53656000   1.008000   ; qtot 381.475288
13224         ho    459    ccc     H7  13224 0.49492100   1.008000   ; qtot 381.970209
13225         ho    459    ccc     H8  13225 0.51297200   1.008000   ; qtot 382.483181
13226         h1    459    ccc     H9  13226 0.05653400   1.008000   ; qtot 382.539715
13227         h1    459    ccc    H10  13227 0.05653400   1.008000   ; qtot 382.596249
13228         oh    459    ccc     O5  13228 -0.84113600  16.000000   ; qtot 381.755113
13229         ho    459    ccc    H11  13229 0.51201600   1.008000   ; qtot 382.267129
13230         os    459    ccc     O6  13230 -0.26013600  16.000000   ; qtot 382.006993
; residue  460 ccc rtp ccc q 0.0
13231         c3    460    ccc     C1  13231 -0.33178800  12.010000   ; qtot 381.675205
13232         c3    460    ccc     C2  13232 0.30606500  12.010000   ; qtot 381.981270
13233         h1    460    ccc     H1  13233 0.11662300   1.008000   ; qtot 382.097893
13234         h1    460    ccc     H2  13234 0.11526800   1.008000   ; qtot 382.213161
13235         c3    460    ccc     C3  13235 0.15592700  12.010000   ; qtot 382.369088
13236         c3    460    ccc     C4  13236 0.28383300  12.010000   ; qtot 382.652921
13237         c3    460    ccc     C5  13237 0.32403300  12.010000   ; qtot 382.976954
13238         h1    460    ccc     H3  13238 0.13386900   1.008000   ; qtot 383.110823
13239         h1    460    ccc     H4  13239 0.10146700   1.008000   ; qtot 383.212290
13240         h2    460    ccc     H5  13240 0.10960400   1.008000   ; qtot 383.321894
13241         os    460    ccc     O1  13241 -0.28650000  16.000000   ; qtot 383.035394
13242         oh    460    ccc     O2  13242 -0.86012500  16.000000   ; qtot 382.175269
13243         oh    460    ccc     O3  13243 -0.83772800  16.000000   ; qtot 381.337541
13244         oh    460    ccc     O4  13244 -0.77449700  16.000000   ; qtot 380.563044
13245         c3    460    ccc     C6  13245 0.37576500  12.010000   ; qtot 380.938809
13246         ho    460    ccc     H6  13246 0.53656000   1.008000   ; qtot 381.475369
13247         ho    460    ccc     H7  13247 0.49492100   1.008000   ; qtot 381.970290
13248         ho    460    ccc     H8  13248 0.51297200   1.008000   ; qtot 382.483262
13249         h1    460    ccc     H9  13249 0.05653400   1.008000   ; qtot 382.539796
13250         h1    460    ccc    H10  13250 0.05653400   1.008000   ; qtot 382.596330
13251         oh    460    ccc     O5  13251 -0.84113600  16.000000   ; qtot 381.755194
13252         ho    460    ccc    H11  13252 0.51201600   1.008000   ; qtot 382.267210
13253         os    460    ccc     O6  13253 -0.26013600  16.000000   ; qtot 382.007074
; residue  461 ccc rtp ccc q 0.0
13254         c3    461    ccc     C1  13254 -0.33178800  12.010000   ; qtot 381.675286
13255         c3    461    ccc     C2  13255 0.30606500  12.010000   ; qtot 381.981351
13256         h1    461    ccc     H1  13256 0.11662300   1.008000   ; qtot 382.097974
13257         h1    461    ccc     H2  13257 0.11526800   1.008000   ; qtot 382.213242
13258         c3    461    ccc     C3  13258 0.15592700  12.010000   ; qtot 382.369169
13259         c3    461    ccc     C4  13259 0.28383300  12.010000   ; qtot 382.653002
13260         c3    461    ccc     C5  13260 0.32403300  12.010000   ; qtot 382.977035
13261         h1    461    ccc     H3  13261 0.13386900   1.008000   ; qtot 383.110904
13262         h1    461    ccc     H4  13262 0.10146700   1.008000   ; qtot 383.212371
13263         h2    461    ccc     H5  13263 0.10960400   1.008000   ; qtot 383.321975
13264         os    461    ccc     O1  13264 -0.28650000  16.000000   ; qtot 383.035475
13265         oh    461    ccc     O2  13265 -0.86012500  16.000000   ; qtot 382.175350
13266         oh    461    ccc     O3  13266 -0.83772800  16.000000   ; qtot 381.337622
13267         oh    461    ccc     O4  13267 -0.77449700  16.000000   ; qtot 380.563125
13268         c3    461    ccc     C6  13268 0.37576500  12.010000   ; qtot 380.938890
13269         ho    461    ccc     H6  13269 0.53656000   1.008000   ; qtot 381.475450
13270         ho    461    ccc     H7  13270 0.49492100   1.008000   ; qtot 381.970371
13271         ho    461    ccc     H8  13271 0.51297200   1.008000   ; qtot 382.483343
13272         h1    461    ccc     H9  13272 0.05653400   1.008000   ; qtot 382.539877
13273         h1    461    ccc    H10  13273 0.05653400   1.008000   ; qtot 382.596411
13274         oh    461    ccc     O5  13274 -0.84113600  16.000000   ; qtot 381.755275
13275         ho    461    ccc    H11  13275 0.51201600   1.008000   ; qtot 382.267291
13276         os    461    ccc     O6  13276 -0.26013600  16.000000   ; qtot 382.007155
; residue  462 ccc rtp ccc q 0.0
13277         c3    462    ccc     C1  13277 -0.33178800  12.010000   ; qtot 381.675367
13278         c3    462    ccc     C2  13278 0.30606500  12.010000   ; qtot 381.981432
13279         h1    462    ccc     H1  13279 0.11662300   1.008000   ; qtot 382.098055
13280         h1    462    ccc     H2  13280 0.11526800   1.008000   ; qtot 382.213323
13281         c3    462    ccc     C3  13281 0.15592700  12.010000   ; qtot 382.369250
13282         c3    462    ccc     C4  13282 0.28383300  12.010000   ; qtot 382.653083
13283         c3    462    ccc     C5  13283 0.32403300  12.010000   ; qtot 382.977116
13284         h1    462    ccc     H3  13284 0.13386900   1.008000   ; qtot 383.110985
13285         h1    462    ccc     H4  13285 0.10146700   1.008000   ; qtot 383.212452
13286         h2    462    ccc     H5  13286 0.10960400   1.008000   ; qtot 383.322056
13287         os    462    ccc     O1  13287 -0.28650000  16.000000   ; qtot 383.035556
13288         oh    462    ccc     O2  13288 -0.86012500  16.000000   ; qtot 382.175431
13289         oh    462    ccc     O3  13289 -0.83772800  16.000000   ; qtot 381.337703
13290         oh    462    ccc     O4  13290 -0.77449700  16.000000   ; qtot 380.563206
13291         c3    462    ccc     C6  13291 0.37576500  12.010000   ; qtot 380.938971
13292         ho    462    ccc     H6  13292 0.53656000   1.008000   ; qtot 381.475531
13293         ho    462    ccc     H7  13293 0.49492100   1.008000   ; qtot 381.970452
13294         ho    462    ccc     H8  13294 0.51297200   1.008000   ; qtot 382.483424
13295         h1    462    ccc     H9  13295 0.05653400   1.008000   ; qtot 382.539958
13296         h1    462    ccc    H10  13296 0.05653400   1.008000   ; qtot 382.596492
13297         oh    462    ccc     O5  13297 -0.84113600  16.000000   ; qtot 381.755356
13298         ho    462    ccc    H11  13298 0.51201600   1.008000   ; qtot 382.267372
13299         os    462    ccc     O6  13299 -0.26013600  16.000000   ; qtot 382.007236
; residue  463 ccc rtp ccc q 0.0
13300         c3    463    ccc     C1  13300 -0.33178800  12.010000   ; qtot 381.675448
13301         c3    463    ccc     C2  13301 0.30606500  12.010000   ; qtot 381.981513
13302         h1    463    ccc     H1  13302 0.11662300   1.008000   ; qtot 382.098136
13303         h1    463    ccc     H2  13303 0.11526800   1.008000   ; qtot 382.213404
13304         c3    463    ccc     C3  13304 0.15592700  12.010000   ; qtot 382.369331
13305         c3    463    ccc     C4  13305 0.28383300  12.010000   ; qtot 382.653164
13306         c3    463    ccc     C5  13306 0.32403300  12.010000   ; qtot 382.977197
13307         h1    463    ccc     H3  13307 0.13386900   1.008000   ; qtot 383.111066
13308         h1    463    ccc     H4  13308 0.10146700   1.008000   ; qtot 383.212533
13309         h2    463    ccc     H5  13309 0.10960400   1.008000   ; qtot 383.322137
13310         os    463    ccc     O1  13310 -0.28650000  16.000000   ; qtot 383.035637
13311         oh    463    ccc     O2  13311 -0.86012500  16.000000   ; qtot 382.175512
13312         oh    463    ccc     O3  13312 -0.83772800  16.000000   ; qtot 381.337784
13313         oh    463    ccc     O4  13313 -0.77449700  16.000000   ; qtot 380.563287
13314         c3    463    ccc     C6  13314 0.37576500  12.010000   ; qtot 380.939052
13315         ho    463    ccc     H6  13315 0.53656000   1.008000   ; qtot 381.475612
13316         ho    463    ccc     H7  13316 0.49492100   1.008000   ; qtot 381.970533
13317         ho    463    ccc     H8  13317 0.51297200   1.008000   ; qtot 382.483505
13318         h1    463    ccc     H9  13318 0.05653400   1.008000   ; qtot 382.540039
13319         h1    463    ccc    H10  13319 0.05653400   1.008000   ; qtot 382.596573
13320         oh    463    ccc     O5  13320 -0.84113600  16.000000   ; qtot 381.755437
13321         ho    463    ccc    H11  13321 0.51201600   1.008000   ; qtot 382.267453
13322         os    463    ccc     O6  13322 -0.26013600  16.000000   ; qtot 382.007317
; residue  464 ccc rtp ccc q 0.0
13323         c3    464    ccc     C1  13323 -0.33178800  12.010000   ; qtot 381.675529
13324         c3    464    ccc     C2  13324 0.30606500  12.010000   ; qtot 381.981594
13325         h1    464    ccc     H1  13325 0.11662300   1.008000   ; qtot 382.098217
13326         h1    464    ccc     H2  13326 0.11526800   1.008000   ; qtot 382.213485
13327         c3    464    ccc     C3  13327 0.15592700  12.010000   ; qtot 382.369412
13328         c3    464    ccc     C4  13328 0.28383300  12.010000   ; qtot 382.653245
13329         c3    464    ccc     C5  13329 0.32403300  12.010000   ; qtot 382.977278
13330         h1    464    ccc     H3  13330 0.13386900   1.008000   ; qtot 383.111147
13331         h1    464    ccc     H4  13331 0.10146700   1.008000   ; qtot 383.212614
13332         h2    464    ccc     H5  13332 0.10960400   1.008000   ; qtot 383.322218
13333         os    464    ccc     O1  13333 -0.28650000  16.000000   ; qtot 383.035718
13334         oh    464    ccc     O2  13334 -0.86012500  16.000000   ; qtot 382.175593
13335         oh    464    ccc     O3  13335 -0.83772800  16.000000   ; qtot 381.337865
13336         oh    464    ccc     O4  13336 -0.77449700  16.000000   ; qtot 380.563368
13337         c3    464    ccc     C6  13337 0.37576500  12.010000   ; qtot 380.939133
13338         ho    464    ccc     H6  13338 0.53656000   1.008000   ; qtot 381.475693
13339         ho    464    ccc     H7  13339 0.49492100   1.008000   ; qtot 381.970614
13340         ho    464    ccc     H8  13340 0.51297200   1.008000   ; qtot 382.483586
13341         h1    464    ccc     H9  13341 0.05653400   1.008000   ; qtot 382.540120
13342         h1    464    ccc    H10  13342 0.05653400   1.008000   ; qtot 382.596654
13343         oh    464    ccc     O5  13343 -0.84113600  16.000000   ; qtot 381.755518
13344         ho    464    ccc    H11  13344 0.51201600   1.008000   ; qtot 382.267534
13345         os    464    ccc     O6  13345 -0.26013600  16.000000   ; qtot 382.007398
; residue  465 ccc rtp ccc q 0.0
13346         c3    465    ccc     C1  13346 -0.33178800  12.010000   ; qtot 381.675610
13347         c3    465    ccc     C2  13347 0.30606500  12.010000   ; qtot 381.981675
13348         h1    465    ccc     H1  13348 0.11662300   1.008000   ; qtot 382.098298
13349         h1    465    ccc     H2  13349 0.11526800   1.008000   ; qtot 382.213566
13350         c3    465    ccc     C3  13350 0.15592700  12.010000   ; qtot 382.369493
13351         c3    465    ccc     C4  13351 0.28383300  12.010000   ; qtot 382.653326
13352         c3    465    ccc     C5  13352 0.32403300  12.010000   ; qtot 382.977359
13353         h1    465    ccc     H3  13353 0.13386900   1.008000   ; qtot 383.111228
13354         h1    465    ccc     H4  13354 0.10146700   1.008000   ; qtot 383.212695
13355         h2    465    ccc     H5  13355 0.10960400   1.008000   ; qtot 383.322299
13356         os    465    ccc     O1  13356 -0.28650000  16.000000   ; qtot 383.035799
13357         oh    465    ccc     O2  13357 -0.86012500  16.000000   ; qtot 382.175674
13358         oh    465    ccc     O3  13358 -0.83772800  16.000000   ; qtot 381.337946
13359         oh    465    ccc     O4  13359 -0.77449700  16.000000   ; qtot 380.563449
13360         c3    465    ccc     C6  13360 0.37576500  12.010000   ; qtot 380.939214
13361         ho    465    ccc     H6  13361 0.53656000   1.008000   ; qtot 381.475774
13362         ho    465    ccc     H7  13362 0.49492100   1.008000   ; qtot 381.970695
13363         ho    465    ccc     H8  13363 0.51297200   1.008000   ; qtot 382.483667
13364         h1    465    ccc     H9  13364 0.05653400   1.008000   ; qtot 382.540201
13365         h1    465    ccc    H10  13365 0.05653400   1.008000   ; qtot 382.596735
13366         oh    465    ccc     O5  13366 -0.84113600  16.000000   ; qtot 381.755599
13367         ho    465    ccc    H11  13367 0.51201600   1.008000   ; qtot 382.267615
13368         os    465    ccc     O6  13368 -0.26013600  16.000000   ; qtot 382.007479
; residue  466 ccc rtp ccc q 0.0
13369         c3    466    ccc     C1  13369 -0.33178800  12.010000   ; qtot 381.675691
13370         c3    466    ccc     C2  13370 0.30606500  12.010000   ; qtot 381.981756
13371         h1    466    ccc     H1  13371 0.11662300   1.008000   ; qtot 382.098379
13372         h1    466    ccc     H2  13372 0.11526800   1.008000   ; qtot 382.213647
13373         c3    466    ccc     C3  13373 0.15592700  12.010000   ; qtot 382.369574
13374         c3    466    ccc     C4  13374 0.28383300  12.010000   ; qtot 382.653407
13375         c3    466    ccc     C5  13375 0.32403300  12.010000   ; qtot 382.977440
13376         h1    466    ccc     H3  13376 0.13386900   1.008000   ; qtot 383.111309
13377         h1    466    ccc     H4  13377 0.10146700   1.008000   ; qtot 383.212776
13378         h2    466    ccc     H5  13378 0.10960400   1.008000   ; qtot 383.322380
13379         os    466    ccc     O1  13379 -0.28650000  16.000000   ; qtot 383.035880
13380         oh    466    ccc     O2  13380 -0.86012500  16.000000   ; qtot 382.175755
13381         oh    466    ccc     O3  13381 -0.83772800  16.000000   ; qtot 381.338027
13382         oh    466    ccc     O4  13382 -0.77449700  16.000000   ; qtot 380.563530
13383         c3    466    ccc     C6  13383 0.37576500  12.010000   ; qtot 380.939295
13384         ho    466    ccc     H6  13384 0.53656000   1.008000   ; qtot 381.475855
13385         ho    466    ccc     H7  13385 0.49492100   1.008000   ; qtot 381.970776
13386         ho    466    ccc     H8  13386 0.51297200   1.008000   ; qtot 382.483748
13387         h1    466    ccc     H9  13387 0.05653400   1.008000   ; qtot 382.540282
13388         h1    466    ccc    H10  13388 0.05653400   1.008000   ; qtot 382.596816
13389         oh    466    ccc     O5  13389 -0.84113600  16.000000   ; qtot 381.755680
13390         ho    466    ccc    H11  13390 0.51201600   1.008000   ; qtot 382.267696
13391         os    466    ccc     O6  13391 -0.26013600  16.000000   ; qtot 382.007560
; residue  467 ccc rtp ccc q 0.0
13392         c3    467    ccc     C1  13392 -0.33178800  12.010000   ; qtot 381.675772
13393         c3    467    ccc     C2  13393 0.30606500  12.010000   ; qtot 381.981837
13394         h1    467    ccc     H1  13394 0.11662300   1.008000   ; qtot 382.098460
13395         h1    467    ccc     H2  13395 0.11526800   1.008000   ; qtot 382.213728
13396         c3    467    ccc     C3  13396 0.15592700  12.010000   ; qtot 382.369655
13397         c3    467    ccc     C4  13397 0.28383300  12.010000   ; qtot 382.653488
13398         c3    467    ccc     C5  13398 0.32403300  12.010000   ; qtot 382.977521
13399         h1    467    ccc     H3  13399 0.13386900   1.008000   ; qtot 383.111390
13400         h1    467    ccc     H4  13400 0.10146700   1.008000   ; qtot 383.212857
13401         h2    467    ccc     H5  13401 0.10960400   1.008000   ; qtot 383.322461
13402         os    467    ccc     O1  13402 -0.28650000  16.000000   ; qtot 383.035961
13403         oh    467    ccc     O2  13403 -0.86012500  16.000000   ; qtot 382.175836
13404         oh    467    ccc     O3  13404 -0.83772800  16.000000   ; qtot 381.338108
13405         oh    467    ccc     O4  13405 -0.77449700  16.000000   ; qtot 380.563611
13406         c3    467    ccc     C6  13406 0.37576500  12.010000   ; qtot 380.939376
13407         ho    467    ccc     H6  13407 0.53656000   1.008000   ; qtot 381.475936
13408         ho    467    ccc     H7  13408 0.49492100   1.008000   ; qtot 381.970857
13409         ho    467    ccc     H8  13409 0.51297200   1.008000   ; qtot 382.483829
13410         h1    467    ccc     H9  13410 0.05653400   1.008000   ; qtot 382.540363
13411         h1    467    ccc    H10  13411 0.05653400   1.008000   ; qtot 382.596897
13412         oh    467    ccc     O5  13412 -0.84113600  16.000000   ; qtot 381.755761
13413         ho    467    ccc    H11  13413 0.51201600   1.008000   ; qtot 382.267777
13414         os    467    ccc     O6  13414 -0.26013600  16.000000   ; qtot 382.007641
; residue  468 ccc rtp ccc q 0.0
13415         c3    468    ccc     C1  13415 -0.33178800  12.010000   ; qtot 381.675853
13416         c3    468    ccc     C2  13416 0.30606500  12.010000   ; qtot 381.981918
13417         h1    468    ccc     H1  13417 0.11662300   1.008000   ; qtot 382.098541
13418         h1    468    ccc     H2  13418 0.11526800   1.008000   ; qtot 382.213809
13419         c3    468    ccc     C3  13419 0.15592700  12.010000   ; qtot 382.369736
13420         c3    468    ccc     C4  13420 0.28383300  12.010000   ; qtot 382.653569
13421         c3    468    ccc     C5  13421 0.32403300  12.010000   ; qtot 382.977602
13422         h1    468    ccc     H3  13422 0.13386900   1.008000   ; qtot 383.111471
13423         h1    468    ccc     H4  13423 0.10146700   1.008000   ; qtot 383.212938
13424         h2    468    ccc     H5  13424 0.10960400   1.008000   ; qtot 383.322542
13425         os    468    ccc     O1  13425 -0.28650000  16.000000   ; qtot 383.036042
13426         oh    468    ccc     O2  13426 -0.86012500  16.000000   ; qtot 382.175917
13427         oh    468    ccc     O3  13427 -0.83772800  16.000000   ; qtot 381.338189
13428         oh    468    ccc     O4  13428 -0.77449700  16.000000   ; qtot 380.563692
13429         c3    468    ccc     C6  13429 0.37576500  12.010000   ; qtot 380.939457
13430         ho    468    ccc     H6  13430 0.53656000   1.008000   ; qtot 381.476017
13431         ho    468    ccc     H7  13431 0.49492100   1.008000   ; qtot 381.970938
13432         ho    468    ccc     H8  13432 0.51297200   1.008000   ; qtot 382.483910
13433         h1    468    ccc     H9  13433 0.05653400   1.008000   ; qtot 382.540444
13434         h1    468    ccc    H10  13434 0.05653400   1.008000   ; qtot 382.596978
13435         oh    468    ccc     O5  13435 -0.84113600  16.000000   ; qtot 381.755842
13436         ho    468    ccc    H11  13436 0.51201600   1.008000   ; qtot 382.267858
13437         os    468    ccc     O6  13437 -0.26013600  16.000000   ; qtot 382.007722
; residue  469 ccc rtp ccc q 0.0
13438         c3    469    ccc     C1  13438 -0.33178800  12.010000   ; qtot 381.675934
13439         c3    469    ccc     C2  13439 0.30606500  12.010000   ; qtot 381.981999
13440         h1    469    ccc     H1  13440 0.11662300   1.008000   ; qtot 382.098622
13441         h1    469    ccc     H2  13441 0.11526800   1.008000   ; qtot 382.213890
13442         c3    469    ccc     C3  13442 0.15592700  12.010000   ; qtot 382.369817
13443         c3    469    ccc     C4  13443 0.28383300  12.010000   ; qtot 382.653650
13444         c3    469    ccc     C5  13444 0.32403300  12.010000   ; qtot 382.977683
13445         h1    469    ccc     H3  13445 0.13386900   1.008000   ; qtot 383.111552
13446         h1    469    ccc     H4  13446 0.10146700   1.008000   ; qtot 383.213019
13447         h2    469    ccc     H5  13447 0.10960400   1.008000   ; qtot 383.322623
13448         os    469    ccc     O1  13448 -0.28650000  16.000000   ; qtot 383.036123
13449         oh    469    ccc     O2  13449 -0.86012500  16.000000   ; qtot 382.175998
13450         oh    469    ccc     O3  13450 -0.83772800  16.000000   ; qtot 381.338270
13451         oh    469    ccc     O4  13451 -0.77449700  16.000000   ; qtot 380.563773
13452         c3    469    ccc     C6  13452 0.37576500  12.010000   ; qtot 380.939538
13453         ho    469    ccc     H6  13453 0.53656000   1.008000   ; qtot 381.476098
13454         ho    469    ccc     H7  13454 0.49492100   1.008000   ; qtot 381.971019
13455         ho    469    ccc     H8  13455 0.51297200   1.008000   ; qtot 382.483991
13456         h1    469    ccc     H9  13456 0.05653400   1.008000   ; qtot 382.540525
13457         h1    469    ccc    H10  13457 0.05653400   1.008000   ; qtot 382.597059
13458         oh    469    ccc     O5  13458 -0.84113600  16.000000   ; qtot 381.755923
13459         ho    469    ccc    H11  13459 0.51201600   1.008000   ; qtot 382.267939
13460         os    469    ccc     O6  13460 -0.26013600  16.000000   ; qtot 382.007803
; residue  470 ccc rtp ccc q 0.0
13461         c3    470    ccc     C1  13461 -0.33178800  12.010000   ; qtot 381.676015
13462         c3    470    ccc     C2  13462 0.30606500  12.010000   ; qtot 381.982080
13463         h1    470    ccc     H1  13463 0.11662300   1.008000   ; qtot 382.098703
13464         h1    470    ccc     H2  13464 0.11526800   1.008000   ; qtot 382.213971
13465         c3    470    ccc     C3  13465 0.15592700  12.010000   ; qtot 382.369898
13466         c3    470    ccc     C4  13466 0.28383300  12.010000   ; qtot 382.653731
13467         c3    470    ccc     C5  13467 0.32403300  12.010000   ; qtot 382.977764
13468         h1    470    ccc     H3  13468 0.13386900   1.008000   ; qtot 383.111633
13469         h1    470    ccc     H4  13469 0.10146700   1.008000   ; qtot 383.213100
13470         h2    470    ccc     H5  13470 0.10960400   1.008000   ; qtot 383.322704
13471         os    470    ccc     O1  13471 -0.28650000  16.000000   ; qtot 383.036204
13472         oh    470    ccc     O2  13472 -0.86012500  16.000000   ; qtot 382.176079
13473         oh    470    ccc     O3  13473 -0.83772800  16.000000   ; qtot 381.338351
13474         oh    470    ccc     O4  13474 -0.77449700  16.000000   ; qtot 380.563854
13475         c3    470    ccc     C6  13475 0.37576500  12.010000   ; qtot 380.939619
13476         ho    470    ccc     H6  13476 0.53656000   1.008000   ; qtot 381.476179
13477         ho    470    ccc     H7  13477 0.49492100   1.008000   ; qtot 381.971100
13478         ho    470    ccc     H8  13478 0.51297200   1.008000   ; qtot 382.484072
13479         h1    470    ccc     H9  13479 0.05653400   1.008000   ; qtot 382.540606
13480         h1    470    ccc    H10  13480 0.05653400   1.008000   ; qtot 382.597140
13481         oh    470    ccc     O5  13481 -0.84113600  16.000000   ; qtot 381.756004
13482         ho    470    ccc    H11  13482 0.51201600   1.008000   ; qtot 382.268020
13483         os    470    ccc     O6  13483 -0.26013600  16.000000   ; qtot 382.007884
; residue  471 ccc rtp ccc q 0.0
13484         c3    471    ccc     C1  13484 -0.33178800  12.010000   ; qtot 381.676096
13485         c3    471    ccc     C2  13485 0.30606500  12.010000   ; qtot 381.982161
13486         h1    471    ccc     H1  13486 0.11662300   1.008000   ; qtot 382.098784
13487         h1    471    ccc     H2  13487 0.11526800   1.008000   ; qtot 382.214052
13488         c3    471    ccc     C3  13488 0.15592700  12.010000   ; qtot 382.369979
13489         c3    471    ccc     C4  13489 0.28383300  12.010000   ; qtot 382.653812
13490         c3    471    ccc     C5  13490 0.32403300  12.010000   ; qtot 382.977845
13491         h1    471    ccc     H3  13491 0.13386900   1.008000   ; qtot 383.111714
13492         h1    471    ccc     H4  13492 0.10146700   1.008000   ; qtot 383.213181
13493         h2    471    ccc     H5  13493 0.10960400   1.008000   ; qtot 383.322785
13494         os    471    ccc     O1  13494 -0.28650000  16.000000   ; qtot 383.036285
13495         oh    471    ccc     O2  13495 -0.86012500  16.000000   ; qtot 382.176160
13496         oh    471    ccc     O3  13496 -0.83772800  16.000000   ; qtot 381.338432
13497         oh    471    ccc     O4  13497 -0.77449700  16.000000   ; qtot 380.563935
13498         c3    471    ccc     C6  13498 0.37576500  12.010000   ; qtot 380.939700
13499         ho    471    ccc     H6  13499 0.53656000   1.008000   ; qtot 381.476260
13500         ho    471    ccc     H7  13500 0.49492100   1.008000   ; qtot 381.971181
13501         ho    471    ccc     H8  13501 0.51297200   1.008000   ; qtot 382.484153
13502         h1    471    ccc     H9  13502 0.05653400   1.008000   ; qtot 382.540687
13503         h1    471    ccc    H10  13503 0.05653400   1.008000   ; qtot 382.597221
13504         oh    471    ccc     O5  13504 -0.84113600  16.000000   ; qtot 381.756085
13505         ho    471    ccc    H11  13505 0.51201600   1.008000   ; qtot 382.268101
13506         os    471    ccc     O6  13506 -0.26013600  16.000000   ; qtot 382.007965
; residue  472 ccc rtp ccc q 0.0
13507         c3    472    ccc     C1  13507 -0.33178800  12.010000   ; qtot 381.676177
13508         c3    472    ccc     C2  13508 0.30606500  12.010000   ; qtot 381.982242
13509         h1    472    ccc     H1  13509 0.11662300   1.008000   ; qtot 382.098865
13510         h1    472    ccc     H2  13510 0.11526800   1.008000   ; qtot 382.214133
13511         c3    472    ccc     C3  13511 0.15592700  12.010000   ; qtot 382.370060
13512         c3    472    ccc     C4  13512 0.28383300  12.010000   ; qtot 382.653893
13513         c3    472    ccc     C5  13513 0.32403300  12.010000   ; qtot 382.977926
13514         h1    472    ccc     H3  13514 0.13386900   1.008000   ; qtot 383.111795
13515         h1    472    ccc     H4  13515 0.10146700   1.008000   ; qtot 383.213262
13516         h2    472    ccc     H5  13516 0.10960400   1.008000   ; qtot 383.322866
13517         os    472    ccc     O1  13517 -0.28650000  16.000000   ; qtot 383.036366
13518         oh    472    ccc     O2  13518 -0.86012500  16.000000   ; qtot 382.176241
13519         oh    472    ccc     O3  13519 -0.83772800  16.000000   ; qtot 381.338513
13520         oh    472    ccc     O4  13520 -0.77449700  16.000000   ; qtot 380.564016
13521         c3    472    ccc     C6  13521 0.37576500  12.010000   ; qtot 380.939781
13522         ho    472    ccc     H6  13522 0.53656000   1.008000   ; qtot 381.476341
13523         ho    472    ccc     H7  13523 0.49492100   1.008000   ; qtot 381.971262
13524         ho    472    ccc     H8  13524 0.51297200   1.008000   ; qtot 382.484234
13525         h1    472    ccc     H9  13525 0.05653400   1.008000   ; qtot 382.540768
13526         h1    472    ccc    H10  13526 0.05653400   1.008000   ; qtot 382.597302
13527         oh    472    ccc     O5  13527 -0.84113600  16.000000   ; qtot 381.756166
13528         ho    472    ccc    H11  13528 0.51201600   1.008000   ; qtot 382.268182
13529         os    472    ccc     O6  13529 -0.26013600  16.000000   ; qtot 382.008046
; residue  473 ccc rtp ccc q 0.0
13530         c3    473    ccc     C1  13530 -0.33178800  12.010000   ; qtot 381.676258
13531         c3    473    ccc     C2  13531 0.30606500  12.010000   ; qtot 381.982323
13532         h1    473    ccc     H1  13532 0.11662300   1.008000   ; qtot 382.098946
13533         h1    473    ccc     H2  13533 0.11526800   1.008000   ; qtot 382.214214
13534         c3    473    ccc     C3  13534 0.15592700  12.010000   ; qtot 382.370141
13535         c3    473    ccc     C4  13535 0.28383300  12.010000   ; qtot 382.653974
13536         c3    473    ccc     C5  13536 0.32403300  12.010000   ; qtot 382.978007
13537         h1    473    ccc     H3  13537 0.13386900   1.008000   ; qtot 383.111876
13538         h1    473    ccc     H4  13538 0.10146700   1.008000   ; qtot 383.213343
13539         h2    473    ccc     H5  13539 0.10960400   1.008000   ; qtot 383.322947
13540         os    473    ccc     O1  13540 -0.28650000  16.000000   ; qtot 383.036447
13541         oh    473    ccc     O2  13541 -0.86012500  16.000000   ; qtot 382.176322
13542         oh    473    ccc     O3  13542 -0.83772800  16.000000   ; qtot 381.338594
13543         oh    473    ccc     O4  13543 -0.77449700  16.000000   ; qtot 380.564097
13544         c3    473    ccc     C6  13544 0.37576500  12.010000   ; qtot 380.939862
13545         ho    473    ccc     H6  13545 0.53656000   1.008000   ; qtot 381.476422
13546         ho    473    ccc     H7  13546 0.49492100   1.008000   ; qtot 381.971343
13547         ho    473    ccc     H8  13547 0.51297200   1.008000   ; qtot 382.484315
13548         h1    473    ccc     H9  13548 0.05653400   1.008000   ; qtot 382.540849
13549         h1    473    ccc    H10  13549 0.05653400   1.008000   ; qtot 382.597383
13550         oh    473    ccc     O5  13550 -0.84113600  16.000000   ; qtot 381.756247
13551         ho    473    ccc    H11  13551 0.51201600   1.008000   ; qtot 382.268263
13552         os    473    ccc     O6  13552 -0.26013600  16.000000   ; qtot 382.008127
; residue  474 ccc rtp ccc q 0.0
13553         c3    474    ccc     C1  13553 -0.33178800  12.010000   ; qtot 381.676339
13554         c3    474    ccc     C2  13554 0.30606500  12.010000   ; qtot 381.982404
13555         h1    474    ccc     H1  13555 0.11662300   1.008000   ; qtot 382.099027
13556         h1    474    ccc     H2  13556 0.11526800   1.008000   ; qtot 382.214295
13557         c3    474    ccc     C3  13557 0.15592700  12.010000   ; qtot 382.370222
13558         c3    474    ccc     C4  13558 0.28383300  12.010000   ; qtot 382.654055
13559         c3    474    ccc     C5  13559 0.32403300  12.010000   ; qtot 382.978088
13560         h1    474    ccc     H3  13560 0.13386900   1.008000   ; qtot 383.111957
13561         h1    474    ccc     H4  13561 0.10146700   1.008000   ; qtot 383.213424
13562         h2    474    ccc     H5  13562 0.10960400   1.008000   ; qtot 383.323028
13563         os    474    ccc     O1  13563 -0.28650000  16.000000   ; qtot 383.036528
13564         oh    474    ccc     O2  13564 -0.86012500  16.000000   ; qtot 382.176403
13565         oh    474    ccc     O3  13565 -0.83772800  16.000000   ; qtot 381.338675
13566         oh    474    ccc     O4  13566 -0.77449700  16.000000   ; qtot 380.564178
13567         c3    474    ccc     C6  13567 0.37576500  12.010000   ; qtot 380.939943
13568         ho    474    ccc     H6  13568 0.53656000   1.008000   ; qtot 381.476503
13569         ho    474    ccc     H7  13569 0.49492100   1.008000   ; qtot 381.971424
13570         ho    474    ccc     H8  13570 0.51297200   1.008000   ; qtot 382.484396
13571         h1    474    ccc     H9  13571 0.05653400   1.008000   ; qtot 382.540930
13572         h1    474    ccc    H10  13572 0.05653400   1.008000   ; qtot 382.597464
13573         oh    474    ccc     O5  13573 -0.84113600  16.000000   ; qtot 381.756328
13574         ho    474    ccc    H11  13574 0.51201600   1.008000   ; qtot 382.268344
13575         os    474    ccc     O6  13575 -0.26013600  16.000000   ; qtot 382.008208
; residue  475 ccc rtp ccc q 0.0
13576         c3    475    ccc     C1  13576 -0.33178800  12.010000   ; qtot 381.676420
13577         c3    475    ccc     C2  13577 0.30606500  12.010000   ; qtot 381.982485
13578         h1    475    ccc     H1  13578 0.11662300   1.008000   ; qtot 382.099108
13579         h1    475    ccc     H2  13579 0.11526800   1.008000   ; qtot 382.214376
13580         c3    475    ccc     C3  13580 0.15592700  12.010000   ; qtot 382.370303
13581         c3    475    ccc     C4  13581 0.28383300  12.010000   ; qtot 382.654136
13582         c3    475    ccc     C5  13582 0.32403300  12.010000   ; qtot 382.978169
13583         h1    475    ccc     H3  13583 0.13386900   1.008000   ; qtot 383.112038
13584         h1    475    ccc     H4  13584 0.10146700   1.008000   ; qtot 383.213505
13585         h2    475    ccc     H5  13585 0.10960400   1.008000   ; qtot 383.323109
13586         os    475    ccc     O1  13586 -0.28650000  16.000000   ; qtot 383.036609
13587         oh    475    ccc     O2  13587 -0.86012500  16.000000   ; qtot 382.176484
13588         oh    475    ccc     O3  13588 -0.83772800  16.000000   ; qtot 381.338756
13589         oh    475    ccc     O4  13589 -0.77449700  16.000000   ; qtot 380.564259
13590         c3    475    ccc     C6  13590 0.37576500  12.010000   ; qtot 380.940024
13591         ho    475    ccc     H6  13591 0.53656000   1.008000   ; qtot 381.476584
13592         ho    475    ccc     H7  13592 0.49492100   1.008000   ; qtot 381.971505
13593         ho    475    ccc     H8  13593 0.51297200   1.008000   ; qtot 382.484477
13594         h1    475    ccc     H9  13594 0.05653400   1.008000   ; qtot 382.541011
13595         h1    475    ccc    H10  13595 0.05653400   1.008000   ; qtot 382.597545
13596         oh    475    ccc     O5  13596 -0.84113600  16.000000   ; qtot 381.756409
13597         ho    475    ccc    H11  13597 0.51201600   1.008000   ; qtot 382.268425
13598         os    475    ccc     O6  13598 -0.26013600  16.000000   ; qtot 382.008289
; residue  476 ccc rtp ccc q 0.0
13599         c3    476    ccc     C1  13599 -0.33178800  12.010000   ; qtot 381.676501
13600         c3    476    ccc     C2  13600 0.30606500  12.010000   ; qtot 381.982566
13601         h1    476    ccc     H1  13601 0.11662300   1.008000   ; qtot 382.099189
13602         h1    476    ccc     H2  13602 0.11526800   1.008000   ; qtot 382.214457
13603         c3    476    ccc     C3  13603 0.15592700  12.010000   ; qtot 382.370384
13604         c3    476    ccc     C4  13604 0.28383300  12.010000   ; qtot 382.654217
13605         c3    476    ccc     C5  13605 0.32403300  12.010000   ; qtot 382.978250
13606         h1    476    ccc     H3  13606 0.13386900   1.008000   ; qtot 383.112119
13607         h1    476    ccc     H4  13607 0.10146700   1.008000   ; qtot 383.213586
13608         h2    476    ccc     H5  13608 0.10960400   1.008000   ; qtot 383.323190
13609         os    476    ccc     O1  13609 -0.28650000  16.000000   ; qtot 383.036690
13610         oh    476    ccc     O2  13610 -0.86012500  16.000000   ; qtot 382.176565
13611         oh    476    ccc     O3  13611 -0.83772800  16.000000   ; qtot 381.338837
13612         oh    476    ccc     O4  13612 -0.77449700  16.000000   ; qtot 380.564340
13613         c3    476    ccc     C6  13613 0.37576500  12.010000   ; qtot 380.940105
13614         ho    476    ccc     H6  13614 0.53656000   1.008000   ; qtot 381.476665
13615         ho    476    ccc     H7  13615 0.49492100   1.008000   ; qtot 381.971586
13616         ho    476    ccc     H8  13616 0.51297200   1.008000   ; qtot 382.484558
13617         h1    476    ccc     H9  13617 0.05653400   1.008000   ; qtot 382.541092
13618         h1    476    ccc    H10  13618 0.05653400   1.008000   ; qtot 382.597626
13619         oh    476    ccc     O5  13619 -0.84113600  16.000000   ; qtot 381.756490
13620         ho    476    ccc    H11  13620 0.51201600   1.008000   ; qtot 382.268506
13621         os    476    ccc     O6  13621 -0.26013600  16.000000   ; qtot 382.008370
; residue  477 ccc rtp ccc q 0.0
13622         c3    477    ccc     C1  13622 -0.33178800  12.010000   ; qtot 381.676582
13623         c3    477    ccc     C2  13623 0.30606500  12.010000   ; qtot 381.982647
13624         h1    477    ccc     H1  13624 0.11662300   1.008000   ; qtot 382.099270
13625         h1    477    ccc     H2  13625 0.11526800   1.008000   ; qtot 382.214538
13626         c3    477    ccc     C3  13626 0.15592700  12.010000   ; qtot 382.370465
13627         c3    477    ccc     C4  13627 0.28383300  12.010000   ; qtot 382.654298
13628         c3    477    ccc     C5  13628 0.32403300  12.010000   ; qtot 382.978331
13629         h1    477    ccc     H3  13629 0.13386900   1.008000   ; qtot 383.112200
13630         h1    477    ccc     H4  13630 0.10146700   1.008000   ; qtot 383.213667
13631         h2    477    ccc     H5  13631 0.10960400   1.008000   ; qtot 383.323271
13632         os    477    ccc     O1  13632 -0.28650000  16.000000   ; qtot 383.036771
13633         oh    477    ccc     O2  13633 -0.86012500  16.000000   ; qtot 382.176646
13634         oh    477    ccc     O3  13634 -0.83772800  16.000000   ; qtot 381.338918
13635         oh    477    ccc     O4  13635 -0.77449700  16.000000   ; qtot 380.564421
13636         c3    477    ccc     C6  13636 0.37576500  12.010000   ; qtot 380.940186
13637         ho    477    ccc     H6  13637 0.53656000   1.008000   ; qtot 381.476746
13638         ho    477    ccc     H7  13638 0.49492100   1.008000   ; qtot 381.971667
13639         ho    477    ccc     H8  13639 0.51297200   1.008000   ; qtot 382.484639
13640         h1    477    ccc     H9  13640 0.05653400   1.008000   ; qtot 382.541173
13641         h1    477    ccc    H10  13641 0.05653400   1.008000   ; qtot 382.597707
13642         oh    477    ccc     O5  13642 -0.84113600  16.000000   ; qtot 381.756571
13643         ho    477    ccc    H11  13643 0.51201600   1.008000   ; qtot 382.268587
13644         os    477    ccc     O6  13644 -0.26013600  16.000000   ; qtot 382.008451
; residue  478 ccc rtp ccc q 0.0
13645         c3    478    ccc     C1  13645 -0.33178800  12.010000   ; qtot 381.676663
13646         c3    478    ccc     C2  13646 0.30606500  12.010000   ; qtot 381.982728
13647         h1    478    ccc     H1  13647 0.11662300   1.008000   ; qtot 382.099351
13648         h1    478    ccc     H2  13648 0.11526800   1.008000   ; qtot 382.214619
13649         c3    478    ccc     C3  13649 0.15592700  12.010000   ; qtot 382.370546
13650         c3    478    ccc     C4  13650 0.28383300  12.010000   ; qtot 382.654379
13651         c3    478    ccc     C5  13651 0.32403300  12.010000   ; qtot 382.978412
13652         h1    478    ccc     H3  13652 0.13386900   1.008000   ; qtot 383.112281
13653         h1    478    ccc     H4  13653 0.10146700   1.008000   ; qtot 383.213748
13654         h2    478    ccc     H5  13654 0.10960400   1.008000   ; qtot 383.323352
13655         os    478    ccc     O1  13655 -0.28650000  16.000000   ; qtot 383.036852
13656         oh    478    ccc     O2  13656 -0.86012500  16.000000   ; qtot 382.176727
13657         oh    478    ccc     O3  13657 -0.83772800  16.000000   ; qtot 381.338999
13658         oh    478    ccc     O4  13658 -0.77449700  16.000000   ; qtot 380.564502
13659         c3    478    ccc     C6  13659 0.37576500  12.010000   ; qtot 380.940267
13660         ho    478    ccc     H6  13660 0.53656000   1.008000   ; qtot 381.476827
13661         ho    478    ccc     H7  13661 0.49492100   1.008000   ; qtot 381.971748
13662         ho    478    ccc     H8  13662 0.51297200   1.008000   ; qtot 382.484720
13663         h1    478    ccc     H9  13663 0.05653400   1.008000   ; qtot 382.541254
13664         h1    478    ccc    H10  13664 0.05653400   1.008000   ; qtot 382.597788
13665         oh    478    ccc     O5  13665 -0.84113600  16.000000   ; qtot 381.756652
13666         ho    478    ccc    H11  13666 0.51201600   1.008000   ; qtot 382.268668
13667         os    478    ccc     O6  13667 -0.26013600  16.000000   ; qtot 382.008532
; residue  479 ccc rtp ccc q 0.0
13668         c3    479    ccc     C1  13668 -0.33178800  12.010000   ; qtot 381.676744
13669         c3    479    ccc     C2  13669 0.30606500  12.010000   ; qtot 381.982809
13670         h1    479    ccc     H1  13670 0.11662300   1.008000   ; qtot 382.099432
13671         h1    479    ccc     H2  13671 0.11526800   1.008000   ; qtot 382.214700
13672         c3    479    ccc     C3  13672 0.15592700  12.010000   ; qtot 382.370627
13673         c3    479    ccc     C4  13673 0.28383300  12.010000   ; qtot 382.654460
13674         c3    479    ccc     C5  13674 0.32403300  12.010000   ; qtot 382.978493
13675         h1    479    ccc     H3  13675 0.13386900   1.008000   ; qtot 383.112362
13676         h1    479    ccc     H4  13676 0.10146700   1.008000   ; qtot 383.213829
13677         h2    479    ccc     H5  13677 0.10960400   1.008000   ; qtot 383.323433
13678         os    479    ccc     O1  13678 -0.28650000  16.000000   ; qtot 383.036933
13679         oh    479    ccc     O2  13679 -0.86012500  16.000000   ; qtot 382.176808
13680         oh    479    ccc     O3  13680 -0.83772800  16.000000   ; qtot 381.339080
13681         oh    479    ccc     O4  13681 -0.77449700  16.000000   ; qtot 380.564583
13682         c3    479    ccc     C6  13682 0.37576500  12.010000   ; qtot 380.940348
13683         ho    479    ccc     H6  13683 0.53656000   1.008000   ; qtot 381.476908
13684         ho    479    ccc     H7  13684 0.49492100   1.008000   ; qtot 381.971829
13685         ho    479    ccc     H8  13685 0.51297200   1.008000   ; qtot 382.484801
13686         h1    479    ccc     H9  13686 0.05653400   1.008000   ; qtot 382.541335
13687         h1    479    ccc    H10  13687 0.05653400   1.008000   ; qtot 382.597869
13688         oh    479    ccc     O5  13688 -0.84113600  16.000000   ; qtot 381.756733
13689         ho    479    ccc    H11  13689 0.51201600   1.008000   ; qtot 382.268749
13690         os    479    ccc     O6  13690 -0.26013600  16.000000   ; qtot 382.008613
; residue  480 ccc rtp ccc q 0.0
13691         c3    480    ccc     C1  13691 -0.33178800  12.010000   ; qtot 381.676825
13692         c3    480    ccc     C2  13692 0.30606500  12.010000   ; qtot 381.982890
13693         h1    480    ccc     H1  13693 0.11662300   1.008000   ; qtot 382.099513
13694         h1    480    ccc     H2  13694 0.11526800   1.008000   ; qtot 382.214781
13695         c3    480    ccc     C3  13695 0.15592700  12.010000   ; qtot 382.370708
13696         c3    480    ccc     C4  13696 0.28383300  12.010000   ; qtot 382.654541
13697         c3    480    ccc     C5  13697 0.32403300  12.010000   ; qtot 382.978574
13698         h1    480    ccc     H3  13698 0.13386900   1.008000   ; qtot 383.112443
13699         h1    480    ccc     H4  13699 0.10146700   1.008000   ; qtot 383.213910
13700         h2    480    ccc     H5  13700 0.10960400   1.008000   ; qtot 383.323514
13701         os    480    ccc     O1  13701 -0.28650000  16.000000   ; qtot 383.037014
13702         oh    480    ccc     O2  13702 -0.86012500  16.000000   ; qtot 382.176889
13703         oh    480    ccc     O3  13703 -0.83772800  16.000000   ; qtot 381.339161
13704         oh    480    ccc     O4  13704 -0.77449700  16.000000   ; qtot 380.564664
13705         c3    480    ccc     C6  13705 0.37576500  12.010000   ; qtot 380.940429
13706         ho    480    ccc     H6  13706 0.53656000   1.008000   ; qtot 381.476989
13707         ho    480    ccc     H7  13707 0.49492100   1.008000   ; qtot 381.971910
13708         ho    480    ccc     H8  13708 0.51297200   1.008000   ; qtot 382.484882
13709         h1    480    ccc     H9  13709 0.05653400   1.008000   ; qtot 382.541416
13710         h1    480    ccc    H10  13710 0.05653400   1.008000   ; qtot 382.597950
13711         oh    480    ccc     O5  13711 -0.84113600  16.000000   ; qtot 381.756814
13712         ho    480    ccc    H11  13712 0.51201600   1.008000   ; qtot 382.268830
13713         os    480    ccc     O6  13713 -0.26013600  16.000000   ; qtot 382.008694
; residue  481 ccc rtp ccc q 0.0
13714         c3    481    ccc     C1  13714 -0.33178800  12.010000   ; qtot 381.676906
13715         c3    481    ccc     C2  13715 0.30606500  12.010000   ; qtot 381.982971
13716         h1    481    ccc     H1  13716 0.11662300   1.008000   ; qtot 382.099594
13717         h1    481    ccc     H2  13717 0.11526800   1.008000   ; qtot 382.214862
13718         c3    481    ccc     C3  13718 0.15592700  12.010000   ; qtot 382.370789
13719         c3    481    ccc     C4  13719 0.28383300  12.010000   ; qtot 382.654622
13720         c3    481    ccc     C5  13720 0.32403300  12.010000   ; qtot 382.978655
13721         h1    481    ccc     H3  13721 0.13386900   1.008000   ; qtot 383.112524
13722         h1    481    ccc     H4  13722 0.10146700   1.008000   ; qtot 383.213991
13723         h2    481    ccc     H5  13723 0.10960400   1.008000   ; qtot 383.323595
13724         os    481    ccc     O1  13724 -0.28650000  16.000000   ; qtot 383.037095
13725         oh    481    ccc     O2  13725 -0.86012500  16.000000   ; qtot 382.176970
13726         oh    481    ccc     O3  13726 -0.83772800  16.000000   ; qtot 381.339242
13727         oh    481    ccc     O4  13727 -0.77449700  16.000000   ; qtot 380.564745
13728         c3    481    ccc     C6  13728 0.37576500  12.010000   ; qtot 380.940510
13729         ho    481    ccc     H6  13729 0.53656000   1.008000   ; qtot 381.477070
13730         ho    481    ccc     H7  13730 0.49492100   1.008000   ; qtot 381.971991
13731         ho    481    ccc     H8  13731 0.51297200   1.008000   ; qtot 382.484963
13732         h1    481    ccc     H9  13732 0.05653400   1.008000   ; qtot 382.541497
13733         h1    481    ccc    H10  13733 0.05653400   1.008000   ; qtot 382.598031
13734         oh    481    ccc     O5  13734 -0.84113600  16.000000   ; qtot 381.756895
13735         ho    481    ccc    H11  13735 0.51201600   1.008000   ; qtot 382.268911
13736         os    481    ccc     O6  13736 -0.26013600  16.000000   ; qtot 382.008775
; residue  482 ccc rtp ccc q 0.0
13737         c3    482    ccc     C1  13737 -0.33178800  12.010000   ; qtot 381.676987
13738         c3    482    ccc     C2  13738 0.30606500  12.010000   ; qtot 381.983052
13739         h1    482    ccc     H1  13739 0.11662300   1.008000   ; qtot 382.099675
13740         h1    482    ccc     H2  13740 0.11526800   1.008000   ; qtot 382.214943
13741         c3    482    ccc     C3  13741 0.15592700  12.010000   ; qtot 382.370870
13742         c3    482    ccc     C4  13742 0.28383300  12.010000   ; qtot 382.654703
13743         c3    482    ccc     C5  13743 0.32403300  12.010000   ; qtot 382.978736
13744         h1    482    ccc     H3  13744 0.13386900   1.008000   ; qtot 383.112605
13745         h1    482    ccc     H4  13745 0.10146700   1.008000   ; qtot 383.214072
13746         h2    482    ccc     H5  13746 0.10960400   1.008000   ; qtot 383.323676
13747         os    482    ccc     O1  13747 -0.28650000  16.000000   ; qtot 383.037176
13748         oh    482    ccc     O2  13748 -0.86012500  16.000000   ; qtot 382.177051
13749         oh    482    ccc     O3  13749 -0.83772800  16.000000   ; qtot 381.339323
13750         oh    482    ccc     O4  13750 -0.77449700  16.000000   ; qtot 380.564826
13751         c3    482    ccc     C6  13751 0.37576500  12.010000   ; qtot 380.940591
13752         ho    482    ccc     H6  13752 0.53656000   1.008000   ; qtot 381.477151
13753         ho    482    ccc     H7  13753 0.49492100   1.008000   ; qtot 381.972072
13754         ho    482    ccc     H8  13754 0.51297200   1.008000   ; qtot 382.485044
13755         h1    482    ccc     H9  13755 0.05653400   1.008000   ; qtot 382.541578
13756         h1    482    ccc    H10  13756 0.05653400   1.008000   ; qtot 382.598112
13757         oh    482    ccc     O5  13757 -0.84113600  16.000000   ; qtot 381.756976
13758         ho    482    ccc    H11  13758 0.51201600   1.008000   ; qtot 382.268992
13759         os    482    ccc     O6  13759 -0.26013600  16.000000   ; qtot 382.008856
; residue  483 ccc rtp ccc q 0.0
13760         c3    483    ccc     C1  13760 -0.33178800  12.010000   ; qtot 381.677068
13761         c3    483    ccc     C2  13761 0.30606500  12.010000   ; qtot 381.983133
13762         h1    483    ccc     H1  13762 0.11662300   1.008000   ; qtot 382.099756
13763         h1    483    ccc     H2  13763 0.11526800   1.008000   ; qtot 382.215024
13764         c3    483    ccc     C3  13764 0.15592700  12.010000   ; qtot 382.370951
13765         c3    483    ccc     C4  13765 0.28383300  12.010000   ; qtot 382.654784
13766         c3    483    ccc     C5  13766 0.32403300  12.010000   ; qtot 382.978817
13767         h1    483    ccc     H3  13767 0.13386900   1.008000   ; qtot 383.112686
13768         h1    483    ccc     H4  13768 0.10146700   1.008000   ; qtot 383.214153
13769         h2    483    ccc     H5  13769 0.10960400   1.008000   ; qtot 383.323757
13770         os    483    ccc     O1  13770 -0.28650000  16.000000   ; qtot 383.037257
13771         oh    483    ccc     O2  13771 -0.86012500  16.000000   ; qtot 382.177132
13772         oh    483    ccc     O3  13772 -0.83772800  16.000000   ; qtot 381.339404
13773         oh    483    ccc     O4  13773 -0.77449700  16.000000   ; qtot 380.564907
13774         c3    483    ccc     C6  13774 0.37576500  12.010000   ; qtot 380.940672
13775         ho    483    ccc     H6  13775 0.53656000   1.008000   ; qtot 381.477232
13776         ho    483    ccc     H7  13776 0.49492100   1.008000   ; qtot 381.972153
13777         ho    483    ccc     H8  13777 0.51297200   1.008000   ; qtot 382.485125
13778         h1    483    ccc     H9  13778 0.05653400   1.008000   ; qtot 382.541659
13779         h1    483    ccc    H10  13779 0.05653400   1.008000   ; qtot 382.598193
13780         oh    483    ccc     O5  13780 -0.84113600  16.000000   ; qtot 381.757057
13781         ho    483    ccc    H11  13781 0.51201600   1.008000   ; qtot 382.269073
13782         os    483    ccc     O6  13782 -0.26013600  16.000000   ; qtot 382.008937
; residue  484 ccc rtp ccc q 0.0
13783         c3    484    ccc     C1  13783 -0.33178800  12.010000   ; qtot 381.677149
13784         c3    484    ccc     C2  13784 0.30606500  12.010000   ; qtot 381.983214
13785         h1    484    ccc     H1  13785 0.11662300   1.008000   ; qtot 382.099837
13786         h1    484    ccc     H2  13786 0.11526800   1.008000   ; qtot 382.215105
13787         c3    484    ccc     C3  13787 0.15592700  12.010000   ; qtot 382.371032
13788         c3    484    ccc     C4  13788 0.28383300  12.010000   ; qtot 382.654865
13789         c3    484    ccc     C5  13789 0.32403300  12.010000   ; qtot 382.978898
13790         h1    484    ccc     H3  13790 0.13386900   1.008000   ; qtot 383.112767
13791         h1    484    ccc     H4  13791 0.10146700   1.008000   ; qtot 383.214234
13792         h2    484    ccc     H5  13792 0.10960400   1.008000   ; qtot 383.323838
13793         os    484    ccc     O1  13793 -0.28650000  16.000000   ; qtot 383.037338
13794         oh    484    ccc     O2  13794 -0.86012500  16.000000   ; qtot 382.177213
13795         oh    484    ccc     O3  13795 -0.83772800  16.000000   ; qtot 381.339485
13796         oh    484    ccc     O4  13796 -0.77449700  16.000000   ; qtot 380.564988
13797         c3    484    ccc     C6  13797 0.37576500  12.010000   ; qtot 380.940753
13798         ho    484    ccc     H6  13798 0.53656000   1.008000   ; qtot 381.477313
13799         ho    484    ccc     H7  13799 0.49492100   1.008000   ; qtot 381.972234
13800         ho    484    ccc     H8  13800 0.51297200   1.008000   ; qtot 382.485206
13801         h1    484    ccc     H9  13801 0.05653400   1.008000   ; qtot 382.541740
13802         h1    484    ccc    H10  13802 0.05653400   1.008000   ; qtot 382.598274
13803         oh    484    ccc     O5  13803 -0.84113600  16.000000   ; qtot 381.757138
13804         ho    484    ccc    H11  13804 0.51201600   1.008000   ; qtot 382.269154
13805         os    484    ccc     O6  13805 -0.26013600  16.000000   ; qtot 382.009018
; residue  485 ccc rtp ccc q 0.0
13806         c3    485    ccc     C1  13806 -0.33178800  12.010000   ; qtot 381.677230
13807         c3    485    ccc     C2  13807 0.30606500  12.010000   ; qtot 381.983295
13808         h1    485    ccc     H1  13808 0.11662300   1.008000   ; qtot 382.099918
13809         h1    485    ccc     H2  13809 0.11526800   1.008000   ; qtot 382.215186
13810         c3    485    ccc     C3  13810 0.15592700  12.010000   ; qtot 382.371113
13811         c3    485    ccc     C4  13811 0.28383300  12.010000   ; qtot 382.654946
13812         c3    485    ccc     C5  13812 0.32403300  12.010000   ; qtot 382.978979
13813         h1    485    ccc     H3  13813 0.13386900   1.008000   ; qtot 383.112848
13814         h1    485    ccc     H4  13814 0.10146700   1.008000   ; qtot 383.214315
13815         h2    485    ccc     H5  13815 0.10960400   1.008000   ; qtot 383.323919
13816         os    485    ccc     O1  13816 -0.28650000  16.000000   ; qtot 383.037419
13817         oh    485    ccc     O2  13817 -0.86012500  16.000000   ; qtot 382.177294
13818         oh    485    ccc     O3  13818 -0.83772800  16.000000   ; qtot 381.339566
13819         oh    485    ccc     O4  13819 -0.77449700  16.000000   ; qtot 380.565069
13820         c3    485    ccc     C6  13820 0.37576500  12.010000   ; qtot 380.940834
13821         ho    485    ccc     H6  13821 0.53656000   1.008000   ; qtot 381.477394
13822         ho    485    ccc     H7  13822 0.49492100   1.008000   ; qtot 381.972315
13823         ho    485    ccc     H8  13823 0.51297200   1.008000   ; qtot 382.485287
13824         h1    485    ccc     H9  13824 0.05653400   1.008000   ; qtot 382.541821
13825         h1    485    ccc    H10  13825 0.05653400   1.008000   ; qtot 382.598355
13826         oh    485    ccc     O5  13826 -0.84113600  16.000000   ; qtot 381.757219
13827         ho    485    ccc    H11  13827 0.51201600   1.008000   ; qtot 382.269235
13828         os    485    ccc     O6  13828 -0.26013600  16.000000   ; qtot 382.009099
; residue  486 ccc rtp ccc q 0.0
13829         c3    486    ccc     C1  13829 -0.33178800  12.010000   ; qtot 381.677311
13830         c3    486    ccc     C2  13830 0.30606500  12.010000   ; qtot 381.983376
13831         h1    486    ccc     H1  13831 0.11662300   1.008000   ; qtot 382.099999
13832         h1    486    ccc     H2  13832 0.11526800   1.008000   ; qtot 382.215267
13833         c3    486    ccc     C3  13833 0.15592700  12.010000   ; qtot 382.371194
13834         c3    486    ccc     C4  13834 0.28383300  12.010000   ; qtot 382.655027
13835         c3    486    ccc     C5  13835 0.32403300  12.010000   ; qtot 382.979060
13836         h1    486    ccc     H3  13836 0.13386900   1.008000   ; qtot 383.112929
13837         h1    486    ccc     H4  13837 0.10146700   1.008000   ; qtot 383.214396
13838         h2    486    ccc     H5  13838 0.10960400   1.008000   ; qtot 383.324000
13839         os    486    ccc     O1  13839 -0.28650000  16.000000   ; qtot 383.037500
13840         oh    486    ccc     O2  13840 -0.86012500  16.000000   ; qtot 382.177375
13841         oh    486    ccc     O3  13841 -0.83772800  16.000000   ; qtot 381.339647
13842         oh    486    ccc     O4  13842 -0.77449700  16.000000   ; qtot 380.565150
13843         c3    486    ccc     C6  13843 0.37576500  12.010000   ; qtot 380.940915
13844         ho    486    ccc     H6  13844 0.53656000   1.008000   ; qtot 381.477475
13845         ho    486    ccc     H7  13845 0.49492100   1.008000   ; qtot 381.972396
13846         ho    486    ccc     H8  13846 0.51297200   1.008000   ; qtot 382.485368
13847         h1    486    ccc     H9  13847 0.05653400   1.008000   ; qtot 382.541902
13848         h1    486    ccc    H10  13848 0.05653400   1.008000   ; qtot 382.598436
13849         oh    486    ccc     O5  13849 -0.84113600  16.000000   ; qtot 381.757300
13850         ho    486    ccc    H11  13850 0.51201600   1.008000   ; qtot 382.269316
13851         os    486    ccc     O6  13851 -0.26013600  16.000000   ; qtot 382.009180
; residue  487 ccc rtp ccc q 0.0
13852         c3    487    ccc     C1  13852 -0.33178800  12.010000   ; qtot 381.677392
13853         c3    487    ccc     C2  13853 0.30606500  12.010000   ; qtot 381.983457
13854         h1    487    ccc     H1  13854 0.11662300   1.008000   ; qtot 382.100080
13855         h1    487    ccc     H2  13855 0.11526800   1.008000   ; qtot 382.215348
13856         c3    487    ccc     C3  13856 0.15592700  12.010000   ; qtot 382.371275
13857         c3    487    ccc     C4  13857 0.28383300  12.010000   ; qtot 382.655108
13858         c3    487    ccc     C5  13858 0.32403300  12.010000   ; qtot 382.979141
13859         h1    487    ccc     H3  13859 0.13386900   1.008000   ; qtot 383.113010
13860         h1    487    ccc     H4  13860 0.10146700   1.008000   ; qtot 383.214477
13861         h2    487    ccc     H5  13861 0.10960400   1.008000   ; qtot 383.324081
13862         os    487    ccc     O1  13862 -0.28650000  16.000000   ; qtot 383.037581
13863         oh    487    ccc     O2  13863 -0.86012500  16.000000   ; qtot 382.177456
13864         oh    487    ccc     O3  13864 -0.83772800  16.000000   ; qtot 381.339728
13865         oh    487    ccc     O4  13865 -0.77449700  16.000000   ; qtot 380.565231
13866         c3    487    ccc     C6  13866 0.37576500  12.010000   ; qtot 380.940996
13867         ho    487    ccc     H6  13867 0.53656000   1.008000   ; qtot 381.477556
13868         ho    487    ccc     H7  13868 0.49492100   1.008000   ; qtot 381.972477
13869         ho    487    ccc     H8  13869 0.51297200   1.008000   ; qtot 382.485449
13870         h1    487    ccc     H9  13870 0.05653400   1.008000   ; qtot 382.541983
13871         h1    487    ccc    H10  13871 0.05653400   1.008000   ; qtot 382.598517
13872         oh    487    ccc     O5  13872 -0.84113600  16.000000   ; qtot 381.757381
13873         ho    487    ccc    H11  13873 0.51201600   1.008000   ; qtot 382.269397
13874         os    487    ccc     O6  13874 -0.26013600  16.000000   ; qtot 382.009261
; residue  488 ccc rtp ccc q 0.0
13875         c3    488    ccc     C1  13875 -0.33178800  12.010000   ; qtot 381.677473
13876         c3    488    ccc     C2  13876 0.30606500  12.010000   ; qtot 381.983538
13877         h1    488    ccc     H1  13877 0.11662300   1.008000   ; qtot 382.100161
13878         h1    488    ccc     H2  13878 0.11526800   1.008000   ; qtot 382.215429
13879         c3    488    ccc     C3  13879 0.15592700  12.010000   ; qtot 382.371356
13880         c3    488    ccc     C4  13880 0.28383300  12.010000   ; qtot 382.655189
13881         c3    488    ccc     C5  13881 0.32403300  12.010000   ; qtot 382.979222
13882         h1    488    ccc     H3  13882 0.13386900   1.008000   ; qtot 383.113091
13883         h1    488    ccc     H4  13883 0.10146700   1.008000   ; qtot 383.214558
13884         h2    488    ccc     H5  13884 0.10960400   1.008000   ; qtot 383.324162
13885         os    488    ccc     O1  13885 -0.28650000  16.000000   ; qtot 383.037662
13886         oh    488    ccc     O2  13886 -0.86012500  16.000000   ; qtot 382.177537
13887         oh    488    ccc     O3  13887 -0.83772800  16.000000   ; qtot 381.339809
13888         oh    488    ccc     O4  13888 -0.77449700  16.000000   ; qtot 380.565312
13889         c3    488    ccc     C6  13889 0.37576500  12.010000   ; qtot 380.941077
13890         ho    488    ccc     H6  13890 0.53656000   1.008000   ; qtot 381.477637
13891         ho    488    ccc     H7  13891 0.49492100   1.008000   ; qtot 381.972558
13892         ho    488    ccc     H8  13892 0.51297200   1.008000   ; qtot 382.485530
13893         h1    488    ccc     H9  13893 0.05653400   1.008000   ; qtot 382.542064
13894         h1    488    ccc    H10  13894 0.05653400   1.008000   ; qtot 382.598598
13895         oh    488    ccc     O5  13895 -0.84113600  16.000000   ; qtot 381.757462
13896         ho    488    ccc    H11  13896 0.51201600   1.008000   ; qtot 382.269478
13897         os    488    ccc     O6  13897 -0.26013600  16.000000   ; qtot 382.009342
; residue  489 ccc rtp ccc q 0.0
13898         c3    489    ccc     C1  13898 -0.33178800  12.010000   ; qtot 381.677554
13899         c3    489    ccc     C2  13899 0.30606500  12.010000   ; qtot 381.983619
13900         h1    489    ccc     H1  13900 0.11662300   1.008000   ; qtot 382.100242
13901         h1    489    ccc     H2  13901 0.11526800   1.008000   ; qtot 382.215510
13902         c3    489    ccc     C3  13902 0.15592700  12.010000   ; qtot 382.371437
13903         c3    489    ccc     C4  13903 0.28383300  12.010000   ; qtot 382.655270
13904         c3    489    ccc     C5  13904 0.32403300  12.010000   ; qtot 382.979303
13905         h1    489    ccc     H3  13905 0.13386900   1.008000   ; qtot 383.113172
13906         h1    489    ccc     H4  13906 0.10146700   1.008000   ; qtot 383.214639
13907         h2    489    ccc     H5  13907 0.10960400   1.008000   ; qtot 383.324243
13908         os    489    ccc     O1  13908 -0.28650000  16.000000   ; qtot 383.037743
13909         oh    489    ccc     O2  13909 -0.86012500  16.000000   ; qtot 382.177618
13910         oh    489    ccc     O3  13910 -0.83772800  16.000000   ; qtot 381.339890
13911         oh    489    ccc     O4  13911 -0.77449700  16.000000   ; qtot 380.565393
13912         c3    489    ccc     C6  13912 0.37576500  12.010000   ; qtot 380.941158
13913         ho    489    ccc     H6  13913 0.53656000   1.008000   ; qtot 381.477718
13914         ho    489    ccc     H7  13914 0.49492100   1.008000   ; qtot 381.972639
13915         ho    489    ccc     H8  13915 0.51297200   1.008000   ; qtot 382.485611
13916         h1    489    ccc     H9  13916 0.05653400   1.008000   ; qtot 382.542145
13917         h1    489    ccc    H10  13917 0.05653400   1.008000   ; qtot 382.598679
13918         oh    489    ccc     O5  13918 -0.84113600  16.000000   ; qtot 381.757543
13919         ho    489    ccc    H11  13919 0.51201600   1.008000   ; qtot 382.269559
13920         os    489    ccc     O6  13920 -0.26013600  16.000000   ; qtot 382.009423
; residue  490 ccc rtp ccc q 0.0
13921         c3    490    ccc     C1  13921 -0.33178800  12.010000   ; qtot 381.677635
13922         c3    490    ccc     C2  13922 0.30606500  12.010000   ; qtot 381.983700
13923         h1    490    ccc     H1  13923 0.11662300   1.008000   ; qtot 382.100323
13924         h1    490    ccc     H2  13924 0.11526800   1.008000   ; qtot 382.215591
13925         c3    490    ccc     C3  13925 0.15592700  12.010000   ; qtot 382.371518
13926         c3    490    ccc     C4  13926 0.28383300  12.010000   ; qtot 382.655351
13927         c3    490    ccc     C5  13927 0.32403300  12.010000   ; qtot 382.979384
13928         h1    490    ccc     H3  13928 0.13386900   1.008000   ; qtot 383.113253
13929         h1    490    ccc     H4  13929 0.10146700   1.008000   ; qtot 383.214720
13930         h2    490    ccc     H5  13930 0.10960400   1.008000   ; qtot 383.324324
13931         os    490    ccc     O1  13931 -0.28650000  16.000000   ; qtot 383.037824
13932         oh    490    ccc     O2  13932 -0.86012500  16.000000   ; qtot 382.177699
13933         oh    490    ccc     O3  13933 -0.83772800  16.000000   ; qtot 381.339971
13934         oh    490    ccc     O4  13934 -0.77449700  16.000000   ; qtot 380.565474
13935         c3    490    ccc     C6  13935 0.37576500  12.010000   ; qtot 380.941239
13936         ho    490    ccc     H6  13936 0.53656000   1.008000   ; qtot 381.477799
13937         ho    490    ccc     H7  13937 0.49492100   1.008000   ; qtot 381.972720
13938         ho    490    ccc     H8  13938 0.51297200   1.008000   ; qtot 382.485692
13939         h1    490    ccc     H9  13939 0.05653400   1.008000   ; qtot 382.542226
13940         h1    490    ccc    H10  13940 0.05653400   1.008000   ; qtot 382.598760
13941         oh    490    ccc     O5  13941 -0.84113600  16.000000   ; qtot 381.757624
13942         ho    490    ccc    H11  13942 0.51201600   1.008000   ; qtot 382.269640
13943         os    490    ccc     O6  13943 -0.26013600  16.000000   ; qtot 382.009504
; residue  491 ccc rtp ccc q 0.0
13944         c3    491    ccc     C1  13944 -0.33178800  12.010000   ; qtot 381.677716
13945         c3    491    ccc     C2  13945 0.30606500  12.010000   ; qtot 381.983781
13946         h1    491    ccc     H1  13946 0.11662300   1.008000   ; qtot 382.100404
13947         h1    491    ccc     H2  13947 0.11526800   1.008000   ; qtot 382.215672
13948         c3    491    ccc     C3  13948 0.15592700  12.010000   ; qtot 382.371599
13949         c3    491    ccc     C4  13949 0.28383300  12.010000   ; qtot 382.655432
13950         c3    491    ccc     C5  13950 0.32403300  12.010000   ; qtot 382.979465
13951         h1    491    ccc     H3  13951 0.13386900   1.008000   ; qtot 383.113334
13952         h1    491    ccc     H4  13952 0.10146700   1.008000   ; qtot 383.214801
13953         h2    491    ccc     H5  13953 0.10960400   1.008000   ; qtot 383.324405
13954         os    491    ccc     O1  13954 -0.28650000  16.000000   ; qtot 383.037905
13955         oh    491    ccc     O2  13955 -0.86012500  16.000000   ; qtot 382.177780
13956         oh    491    ccc     O3  13956 -0.83772800  16.000000   ; qtot 381.340052
13957         oh    491    ccc     O4  13957 -0.77449700  16.000000   ; qtot 380.565555
13958         c3    491    ccc     C6  13958 0.37576500  12.010000   ; qtot 380.941320
13959         ho    491    ccc     H6  13959 0.53656000   1.008000   ; qtot 381.477880
13960         ho    491    ccc     H7  13960 0.49492100   1.008000   ; qtot 381.972801
13961         ho    491    ccc     H8  13961 0.51297200   1.008000   ; qtot 382.485773
13962         h1    491    ccc     H9  13962 0.05653400   1.008000   ; qtot 382.542307
13963         h1    491    ccc    H10  13963 0.05653400   1.008000   ; qtot 382.598841
13964         oh    491    ccc     O5  13964 -0.84113600  16.000000   ; qtot 381.757705
13965         ho    491    ccc    H11  13965 0.51201600   1.008000   ; qtot 382.269721
13966         os    491    ccc     O6  13966 -0.26013600  16.000000   ; qtot 382.009585
; residue  492 ccc rtp ccc q 0.0
13967         c3    492    ccc     C1  13967 -0.33178800  12.010000   ; qtot 381.677797
13968         c3    492    ccc     C2  13968 0.30606500  12.010000   ; qtot 381.983862
13969         h1    492    ccc     H1  13969 0.11662300   1.008000   ; qtot 382.100485
13970         h1    492    ccc     H2  13970 0.11526800   1.008000   ; qtot 382.215753
13971         c3    492    ccc     C3  13971 0.15592700  12.010000   ; qtot 382.371680
13972         c3    492    ccc     C4  13972 0.28383300  12.010000   ; qtot 382.655513
13973         c3    492    ccc     C5  13973 0.32403300  12.010000   ; qtot 382.979546
13974         h1    492    ccc     H3  13974 0.13386900   1.008000   ; qtot 383.113415
13975         h1    492    ccc     H4  13975 0.10146700   1.008000   ; qtot 383.214882
13976         h2    492    ccc     H5  13976 0.10960400   1.008000   ; qtot 383.324486
13977         os    492    ccc     O1  13977 -0.28650000  16.000000   ; qtot 383.037986
13978         oh    492    ccc     O2  13978 -0.86012500  16.000000   ; qtot 382.177861
13979         oh    492    ccc     O3  13979 -0.83772800  16.000000   ; qtot 381.340133
13980         oh    492    ccc     O4  13980 -0.77449700  16.000000   ; qtot 380.565636
13981         c3    492    ccc     C6  13981 0.37576500  12.010000   ; qtot 380.941401
13982         ho    492    ccc     H6  13982 0.53656000   1.008000   ; qtot 381.477961
13983         ho    492    ccc     H7  13983 0.49492100   1.008000   ; qtot 381.972882
13984         ho    492    ccc     H8  13984 0.51297200   1.008000   ; qtot 382.485854
13985         h1    492    ccc     H9  13985 0.05653400   1.008000   ; qtot 382.542388
13986         h1    492    ccc    H10  13986 0.05653400   1.008000   ; qtot 382.598922
13987         oh    492    ccc     O5  13987 -0.84113600  16.000000   ; qtot 381.757786
13988         ho    492    ccc    H11  13988 0.51201600   1.008000   ; qtot 382.269802
13989         os    492    ccc     O6  13989 -0.26013600  16.000000   ; qtot 382.009666
; residue  493 ccc rtp ccc q 0.0
13990         c3    493    ccc     C1  13990 -0.33178800  12.010000   ; qtot 381.677878
13991         c3    493    ccc     C2  13991 0.30606500  12.010000   ; qtot 381.983943
13992         h1    493    ccc     H1  13992 0.11662300   1.008000   ; qtot 382.100566
13993         h1    493    ccc     H2  13993 0.11526800   1.008000   ; qtot 382.215834
13994         c3    493    ccc     C3  13994 0.15592700  12.010000   ; qtot 382.371761
13995         c3    493    ccc     C4  13995 0.28383300  12.010000   ; qtot 382.655594
13996         c3    493    ccc     C5  13996 0.32403300  12.010000   ; qtot 382.979627
13997         h1    493    ccc     H3  13997 0.13386900   1.008000   ; qtot 383.113496
13998         h1    493    ccc     H4  13998 0.10146700   1.008000   ; qtot 383.214963
13999         h2    493    ccc     H5  13999 0.10960400   1.008000   ; qtot 383.324567
14000         os    493    ccc     O1  14000 -0.28650000  16.000000   ; qtot 383.038067
14001         oh    493    ccc     O2  14001 -0.86012500  16.000000   ; qtot 382.177942
14002         oh    493    ccc     O3  14002 -0.83772800  16.000000   ; qtot 381.340214
14003         oh    493    ccc     O4  14003 -0.77449700  16.000000   ; qtot 380.565717
14004         c3    493    ccc     C6  14004 0.37576500  12.010000   ; qtot 380.941482
14005         ho    493    ccc     H6  14005 0.53656000   1.008000   ; qtot 381.478042
14006         ho    493    ccc     H7  14006 0.49492100   1.008000   ; qtot 381.972963
14007         ho    493    ccc     H8  14007 0.51297200   1.008000   ; qtot 382.485935
14008         h1    493    ccc     H9  14008 0.05653400   1.008000   ; qtot 382.542469
14009         h1    493    ccc    H10  14009 0.05653400   1.008000   ; qtot 382.599003
14010         oh    493    ccc     O5  14010 -0.84113600  16.000000   ; qtot 381.757867
14011         ho    493    ccc    H11  14011 0.51201600   1.008000   ; qtot 382.269883
14012         os    493    ccc     O6  14012 -0.26013600  16.000000   ; qtot 382.009747
; residue  494 ccc rtp ccc q 0.0
14013         c3    494    ccc     C1  14013 -0.33178800  12.010000   ; qtot 381.677959
14014         c3    494    ccc     C2  14014 0.30606500  12.010000   ; qtot 381.984024
14015         h1    494    ccc     H1  14015 0.11662300   1.008000   ; qtot 382.100647
14016         h1    494    ccc     H2  14016 0.11526800   1.008000   ; qtot 382.215915
14017         c3    494    ccc     C3  14017 0.15592700  12.010000   ; qtot 382.371842
14018         c3    494    ccc     C4  14018 0.28383300  12.010000   ; qtot 382.655675
14019         c3    494    ccc     C5  14019 0.32403300  12.010000   ; qtot 382.979708
14020         h1    494    ccc     H3  14020 0.13386900   1.008000   ; qtot 383.113577
14021         h1    494    ccc     H4  14021 0.10146700   1.008000   ; qtot 383.215044
14022         h2    494    ccc     H5  14022 0.10960400   1.008000   ; qtot 383.324648
14023         os    494    ccc     O1  14023 -0.28650000  16.000000   ; qtot 383.038148
14024         oh    494    ccc     O2  14024 -0.86012500  16.000000   ; qtot 382.178023
14025         oh    494    ccc     O3  14025 -0.83772800  16.000000   ; qtot 381.340295
14026         oh    494    ccc     O4  14026 -0.77449700  16.000000   ; qtot 380.565798
14027         c3    494    ccc     C6  14027 0.37576500  12.010000   ; qtot 380.941563
14028         ho    494    ccc     H6  14028 0.53656000   1.008000   ; qtot 381.478123
14029         ho    494    ccc     H7  14029 0.49492100   1.008000   ; qtot 381.973044
14030         ho    494    ccc     H8  14030 0.51297200   1.008000   ; qtot 382.486016
14031         h1    494    ccc     H9  14031 0.05653400   1.008000   ; qtot 382.542550
14032         h1    494    ccc    H10  14032 0.05653400   1.008000   ; qtot 382.599084
14033         oh    494    ccc     O5  14033 -0.84113600  16.000000   ; qtot 381.757948
14034         ho    494    ccc    H11  14034 0.51201600   1.008000   ; qtot 382.269964
14035         os    494    ccc     O6  14035 -0.26013600  16.000000   ; qtot 382.009828
; residue  495 ccc rtp ccc q 0.0
14036         c3    495    ccc     C1  14036 -0.33178800  12.010000   ; qtot 381.678040
14037         c3    495    ccc     C2  14037 0.30606500  12.010000   ; qtot 381.984105
14038         h1    495    ccc     H1  14038 0.11662300   1.008000   ; qtot 382.100728
14039         h1    495    ccc     H2  14039 0.11526800   1.008000   ; qtot 382.215996
14040         c3    495    ccc     C3  14040 0.15592700  12.010000   ; qtot 382.371923
14041         c3    495    ccc     C4  14041 0.28383300  12.010000   ; qtot 382.655756
14042         c3    495    ccc     C5  14042 0.32403300  12.010000   ; qtot 382.979789
14043         h1    495    ccc     H3  14043 0.13386900   1.008000   ; qtot 383.113658
14044         h1    495    ccc     H4  14044 0.10146700   1.008000   ; qtot 383.215125
14045         h2    495    ccc     H5  14045 0.10960400   1.008000   ; qtot 383.324729
14046         os    495    ccc     O1  14046 -0.28650000  16.000000   ; qtot 383.038229
14047         oh    495    ccc     O2  14047 -0.86012500  16.000000   ; qtot 382.178104
14048         oh    495    ccc     O3  14048 -0.83772800  16.000000   ; qtot 381.340376
14049         oh    495    ccc     O4  14049 -0.77449700  16.000000   ; qtot 380.565879
14050         c3    495    ccc     C6  14050 0.37576500  12.010000   ; qtot 380.941644
14051         ho    495    ccc     H6  14051 0.53656000   1.008000   ; qtot 381.478204
14052         ho    495    ccc     H7  14052 0.49492100   1.008000   ; qtot 381.973125
14053         ho    495    ccc     H8  14053 0.51297200   1.008000   ; qtot 382.486097
14054         h1    495    ccc     H9  14054 0.05653400   1.008000   ; qtot 382.542631
14055         h1    495    ccc    H10  14055 0.05653400   1.008000   ; qtot 382.599165
14056         oh    495    ccc     O5  14056 -0.84113600  16.000000   ; qtot 381.758029
14057         ho    495    ccc    H11  14057 0.51201600   1.008000   ; qtot 382.270045
14058         os    495    ccc     O6  14058 -0.26013600  16.000000   ; qtot 382.009909
; residue  496 ccc rtp ccc q 0.0
14059         c3    496    ccc     C1  14059 -0.33178800  12.010000   ; qtot 381.678121
14060         c3    496    ccc     C2  14060 0.30606500  12.010000   ; qtot 381.984186
14061         h1    496    ccc     H1  14061 0.11662300   1.008000   ; qtot 382.100809
14062         h1    496    ccc     H2  14062 0.11526800   1.008000   ; qtot 382.216077
14063         c3    496    ccc     C3  14063 0.15592700  12.010000   ; qtot 382.372004
14064         c3    496    ccc     C4  14064 0.28383300  12.010000   ; qtot 382.655837
14065         c3    496    ccc     C5  14065 0.32403300  12.010000   ; qtot 382.979870
14066         h1    496    ccc     H3  14066 0.13386900   1.008000   ; qtot 383.113739
14067         h1    496    ccc     H4  14067 0.10146700   1.008000   ; qtot 383.215206
14068         h2    496    ccc     H5  14068 0.10960400   1.008000   ; qtot 383.324810
14069         os    496    ccc     O1  14069 -0.28650000  16.000000   ; qtot 383.038310
14070         oh    496    ccc     O2  14070 -0.86012500  16.000000   ; qtot 382.178185
14071         oh    496    ccc     O3  14071 -0.83772800  16.000000   ; qtot 381.340457
14072         oh    496    ccc     O4  14072 -0.77449700  16.000000   ; qtot 380.565960
14073         c3    496    ccc     C6  14073 0.37576500  12.010000   ; qtot 380.941725
14074         ho    496    ccc     H6  14074 0.53656000   1.008000   ; qtot 381.478285
14075         ho    496    ccc     H7  14075 0.49492100   1.008000   ; qtot 381.973206
14076         ho    496    ccc     H8  14076 0.51297200   1.008000   ; qtot 382.486178
14077         h1    496    ccc     H9  14077 0.05653400   1.008000   ; qtot 382.542712
14078         h1    496    ccc    H10  14078 0.05653400   1.008000   ; qtot 382.599246
14079         oh    496    ccc     O5  14079 -0.84113600  16.000000   ; qtot 381.758110
14080         ho    496    ccc    H11  14080 0.51201600   1.008000   ; qtot 382.270126
14081         os    496    ccc     O6  14081 -0.26013600  16.000000   ; qtot 382.009990
; residue  497 ccc rtp ccc q 0.0
14082         c3    497    ccc     C1  14082 -0.33178800  12.010000   ; qtot 381.678202
14083         c3    497    ccc     C2  14083 0.30606500  12.010000   ; qtot 381.984267
14084         h1    497    ccc     H1  14084 0.11662300   1.008000   ; qtot 382.100890
14085         h1    497    ccc     H2  14085 0.11526800   1.008000   ; qtot 382.216158
14086         c3    497    ccc     C3  14086 0.15592700  12.010000   ; qtot 382.372085
14087         c3    497    ccc     C4  14087 0.28383300  12.010000   ; qtot 382.655918
14088         c3    497    ccc     C5  14088 0.32403300  12.010000   ; qtot 382.979951
14089         h1    497    ccc     H3  14089 0.13386900   1.008000   ; qtot 383.113820
14090         h1    497    ccc     H4  14090 0.10146700   1.008000   ; qtot 383.215287
14091         h2    497    ccc     H5  14091 0.10960400   1.008000   ; qtot 383.324891
14092         os    497    ccc     O1  14092 -0.28650000  16.000000   ; qtot 383.038391
14093         oh    497    ccc     O2  14093 -0.86012500  16.000000   ; qtot 382.178266
14094         oh    497    ccc     O3  14094 -0.83772800  16.000000   ; qtot 381.340538
14095         oh    497    ccc     O4  14095 -0.77449700  16.000000   ; qtot 380.566041
14096         c3    497    ccc     C6  14096 0.37576500  12.010000   ; qtot 380.941806
14097         ho    497    ccc     H6  14097 0.53656000   1.008000   ; qtot 381.478366
14098         ho    497    ccc     H7  14098 0.49492100   1.008000   ; qtot 381.973287
14099         ho    497    ccc     H8  14099 0.51297200   1.008000   ; qtot 382.486259
14100         h1    497    ccc     H9  14100 0.05653400   1.008000   ; qtot 382.542793
14101         h1    497    ccc    H10  14101 0.05653400   1.008000   ; qtot 382.599327
14102         oh    497    ccc     O5  14102 -0.84113600  16.000000   ; qtot 381.758191
14103         ho    497    ccc    H11  14103 0.51201600   1.008000   ; qtot 382.270207
14104         os    497    ccc     O6  14104 -0.26013600  16.000000   ; qtot 382.010071
; residue  498 ccc rtp ccc q 0.0
14105         c3    498    ccc     C1  14105 -0.33178800  12.010000   ; qtot 381.678283
14106         c3    498    ccc     C2  14106 0.30606500  12.010000   ; qtot 381.984348
14107         h1    498    ccc     H1  14107 0.11662300   1.008000   ; qtot 382.100971
14108         h1    498    ccc     H2  14108 0.11526800   1.008000   ; qtot 382.216239
14109         c3    498    ccc     C3  14109 0.15592700  12.010000   ; qtot 382.372166
14110         c3    498    ccc     C4  14110 0.28383300  12.010000   ; qtot 382.655999
14111         c3    498    ccc     C5  14111 0.32403300  12.010000   ; qtot 382.980032
14112         h1    498    ccc     H3  14112 0.13386900   1.008000   ; qtot 383.113901
14113         h1    498    ccc     H4  14113 0.10146700   1.008000   ; qtot 383.215368
14114         h2    498    ccc     H5  14114 0.10960400   1.008000   ; qtot 383.324972
14115         os    498    ccc     O1  14115 -0.28650000  16.000000   ; qtot 383.038472
14116         oh    498    ccc     O2  14116 -0.86012500  16.000000   ; qtot 382.178347
14117         oh    498    ccc     O3  14117 -0.83772800  16.000000   ; qtot 381.340619
14118         oh    498    ccc     O4  14118 -0.77449700  16.000000   ; qtot 380.566122
14119         c3    498    ccc     C6  14119 0.37576500  12.010000   ; qtot 380.941887
14120         ho    498    ccc     H6  14120 0.53656000   1.008000   ; qtot 381.478447
14121         ho    498    ccc     H7  14121 0.49492100   1.008000   ; qtot 381.973368
14122         ho    498    ccc     H8  14122 0.51297200   1.008000   ; qtot 382.486340
14123         h1    498    ccc     H9  14123 0.05653400   1.008000   ; qtot 382.542874
14124         h1    498    ccc    H10  14124 0.05653400   1.008000   ; qtot 382.599408
14125         oh    498    ccc     O5  14125 -0.84113600  16.000000   ; qtot 381.758272
14126         ho    498    ccc    H11  14126 0.51201600   1.008000   ; qtot 382.270288
14127         os    498    ccc     O6  14127 -0.26013600  16.000000   ; qtot 382.010152
; residue  499 ccc rtp ccc q 0.0
14128         c3    499    ccc     C1  14128 -0.33178800  12.010000   ; qtot 381.678364
14129         c3    499    ccc     C2  14129 0.30606500  12.010000   ; qtot 381.984429
14130         h1    499    ccc     H1  14130 0.11662300   1.008000   ; qtot 382.101052
14131         h1    499    ccc     H2  14131 0.11526800   1.008000   ; qtot 382.216320
14132         c3    499    ccc     C3  14132 0.15592700  12.010000   ; qtot 382.372247
14133         c3    499    ccc     C4  14133 0.28383300  12.010000   ; qtot 382.656080
14134         c3    499    ccc     C5  14134 0.32403300  12.010000   ; qtot 382.980113
14135         h1    499    ccc     H3  14135 0.13386900   1.008000   ; qtot 383.113982
14136         h1    499    ccc     H4  14136 0.10146700   1.008000   ; qtot 383.215449
14137         h2    499    ccc     H5  14137 0.10960400   1.008000   ; qtot 383.325053
14138         os    499    ccc     O1  14138 -0.28650000  16.000000   ; qtot 383.038553
14139         oh    499    ccc     O2  14139 -0.86012500  16.000000   ; qtot 382.178428
14140         oh    499    ccc     O3  14140 -0.83772800  16.000000   ; qtot 381.340700
14141         oh    499    ccc     O4  14141 -0.77449700  16.000000   ; qtot 380.566203
14142         c3    499    ccc     C6  14142 0.37576500  12.010000   ; qtot 380.941968
14143         ho    499    ccc     H6  14143 0.53656000   1.008000   ; qtot 381.478528
14144         ho    499    ccc     H7  14144 0.49492100   1.008000   ; qtot 381.973449
14145         ho    499    ccc     H8  14145 0.51297200   1.008000   ; qtot 382.486421
14146         h1    499    ccc     H9  14146 0.05653400   1.008000   ; qtot 382.542955
14147         h1    499    ccc    H10  14147 0.05653400   1.008000   ; qtot 382.599489
14148         oh    499    ccc     O5  14148 -0.84113600  16.000000   ; qtot 381.758353
14149         ho    499    ccc    H11  14149 0.51201600   1.008000   ; qtot 382.270369
14150         os    499    ccc     O6  14150 -0.26013600  16.000000   ; qtot 382.010233
; residue  500 ccc rtp ccc q 0.0
14151         c3    500    ccc     C1  14151 -0.33178800  12.010000   ; qtot 381.678445
14152         c3    500    ccc     C2  14152 0.30606500  12.010000   ; qtot 381.984510
14153         h1    500    ccc     H1  14153 0.11662300   1.008000   ; qtot 382.101133
14154         h1    500    ccc     H2  14154 0.11526800   1.008000   ; qtot 382.216401
14155         c3    500    ccc     C3  14155 0.15592700  12.010000   ; qtot 382.372328
14156         c3    500    ccc     C4  14156 0.28383300  12.010000   ; qtot 382.656161
14157         c3    500    ccc     C5  14157 0.32403300  12.010000   ; qtot 382.980194
14158         h1    500    ccc     H3  14158 0.13386900   1.008000   ; qtot 383.114063
14159         h1    500    ccc     H4  14159 0.10146700   1.008000   ; qtot 383.215530
14160         h2    500    ccc     H5  14160 0.10960400   1.008000   ; qtot 383.325134
14161         os    500    ccc     O1  14161 -0.28650000  16.000000   ; qtot 383.038634
14162         oh    500    ccc     O2  14162 -0.86012500  16.000000   ; qtot 382.178509
14163         oh    500    ccc     O3  14163 -0.83772800  16.000000   ; qtot 381.340781
14164         oh    500    ccc     O4  14164 -0.77449700  16.000000   ; qtot 380.566284
14165         c3    500    ccc     C6  14165 0.37576500  12.010000   ; qtot 380.942049
14166         ho    500    ccc     H6  14166 0.53656000   1.008000   ; qtot 381.478609
14167         ho    500    ccc     H7  14167 0.49492100   1.008000   ; qtot 381.973530
14168         ho    500    ccc     H8  14168 0.51297200   1.008000   ; qtot 382.486502
14169         h1    500    ccc     H9  14169 0.05653400   1.008000   ; qtot 382.543036
14170         h1    500    ccc    H10  14170 0.05653400   1.008000   ; qtot 382.599570
14171         oh    500    ccc     O5  14171 -0.84113600  16.000000   ; qtot 381.758434
14172         ho    500    ccc    H11  14172 0.51201600   1.008000   ; qtot 382.270450
14173         os    500    ccc     O6  14173 -0.26013600  16.000000   ; qtot 382.010314
; residue  501 ccc rtp ccc q 0.0
14174         c3    501    ccc     C1  14174 -0.33178800  12.010000   ; qtot 381.678526
14175         c3    501    ccc     C2  14175 0.30606500  12.010000   ; qtot 381.984591
14176         h1    501    ccc     H1  14176 0.11662300   1.008000   ; qtot 382.101214
14177         h1    501    ccc     H2  14177 0.11526800   1.008000   ; qtot 382.216482
14178         c3    501    ccc     C3  14178 0.15592700  12.010000   ; qtot 382.372409
14179         c3    501    ccc     C4  14179 0.28383300  12.010000   ; qtot 382.656242
14180         c3    501    ccc     C5  14180 0.32403300  12.010000   ; qtot 382.980275
14181         h1    501    ccc     H3  14181 0.13386900   1.008000   ; qtot 383.114144
14182         h1    501    ccc     H4  14182 0.10146700   1.008000   ; qtot 383.215611
14183         h2    501    ccc     H5  14183 0.10960400   1.008000   ; qtot 383.325215
14184         os    501    ccc     O1  14184 -0.28650000  16.000000   ; qtot 383.038715
14185         oh    501    ccc     O2  14185 -0.86012500  16.000000   ; qtot 382.178590
14186         oh    501    ccc     O3  14186 -0.83772800  16.000000   ; qtot 381.340862
14187         oh    501    ccc     O4  14187 -0.77449700  16.000000   ; qtot 380.566365
14188         c3    501    ccc     C6  14188 0.37576500  12.010000   ; qtot 380.942130
14189         ho    501    ccc     H6  14189 0.53656000   1.008000   ; qtot 381.478690
14190         ho    501    ccc     H7  14190 0.49492100   1.008000   ; qtot 381.973611
14191         ho    501    ccc     H8  14191 0.51297200   1.008000   ; qtot 382.486583
14192         h1    501    ccc     H9  14192 0.05653400   1.008000   ; qtot 382.543117
14193         h1    501    ccc    H10  14193 0.05653400   1.008000   ; qtot 382.599651
14194         oh    501    ccc     O5  14194 -0.84113600  16.000000   ; qtot 381.758515
14195         ho    501    ccc    H11  14195 0.51201600   1.008000   ; qtot 382.270531
14196         os    501    ccc     O6  14196 -0.26013600  16.000000   ; qtot 382.010395
; residue  502 ccc rtp ccc q 0.0
14197         c3    502    ccc     C1  14197 -0.33178800  12.010000   ; qtot 381.678607
14198         c3    502    ccc     C2  14198 0.30606500  12.010000   ; qtot 381.984672
14199         h1    502    ccc     H1  14199 0.11662300   1.008000   ; qtot 382.101295
14200         h1    502    ccc     H2  14200 0.11526800   1.008000   ; qtot 382.216563
14201         c3    502    ccc     C3  14201 0.15592700  12.010000   ; qtot 382.372490
14202         c3    502    ccc     C4  14202 0.28383300  12.010000   ; qtot 382.656323
14203         c3    502    ccc     C5  14203 0.32403300  12.010000   ; qtot 382.980356
14204         h1    502    ccc     H3  14204 0.13386900   1.008000   ; qtot 383.114225
14205         h1    502    ccc     H4  14205 0.10146700   1.008000   ; qtot 383.215692
14206         h2    502    ccc     H5  14206 0.10960400   1.008000   ; qtot 383.325296
14207         os    502    ccc     O1  14207 -0.28650000  16.000000   ; qtot 383.038796
14208         oh    502    ccc     O2  14208 -0.86012500  16.000000   ; qtot 382.178671
14209         oh    502    ccc     O3  14209 -0.83772800  16.000000   ; qtot 381.340943
14210         oh    502    ccc     O4  14210 -0.77449700  16.000000   ; qtot 380.566446
14211         c3    502    ccc     C6  14211 0.37576500  12.010000   ; qtot 380.942211
14212         ho    502    ccc     H6  14212 0.53656000   1.008000   ; qtot 381.478771
14213         ho    502    ccc     H7  14213 0.49492100   1.008000   ; qtot 381.973692
14214         ho    502    ccc     H8  14214 0.51297200   1.008000   ; qtot 382.486664
14215         h1    502    ccc     H9  14215 0.05653400   1.008000   ; qtot 382.543198
14216         h1    502    ccc    H10  14216 0.05653400   1.008000   ; qtot 382.599732
14217         oh    502    ccc     O5  14217 -0.84113600  16.000000   ; qtot 381.758596
14218         ho    502    ccc    H11  14218 0.51201600   1.008000   ; qtot 382.270612
14219         os    502    ccc     O6  14219 -0.26013600  16.000000   ; qtot 382.010476
; residue  503 ccc rtp ccc q 0.0
14220         c3    503    ccc     C1  14220 -0.33178800  12.010000   ; qtot 381.678688
14221         c3    503    ccc     C2  14221 0.30606500  12.010000   ; qtot 381.984753
14222         h1    503    ccc     H1  14222 0.11662300   1.008000   ; qtot 382.101376
14223         h1    503    ccc     H2  14223 0.11526800   1.008000   ; qtot 382.216644
14224         c3    503    ccc     C3  14224 0.15592700  12.010000   ; qtot 382.372571
14225         c3    503    ccc     C4  14225 0.28383300  12.010000   ; qtot 382.656404
14226         c3    503    ccc     C5  14226 0.32403300  12.010000   ; qtot 382.980437
14227         h1    503    ccc     H3  14227 0.13386900   1.008000   ; qtot 383.114306
14228         h1    503    ccc     H4  14228 0.10146700   1.008000   ; qtot 383.215773
14229         h2    503    ccc     H5  14229 0.10960400   1.008000   ; qtot 383.325377
14230         os    503    ccc     O1  14230 -0.28650000  16.000000   ; qtot 383.038877
14231         oh    503    ccc     O2  14231 -0.86012500  16.000000   ; qtot 382.178752
14232         oh    503    ccc     O3  14232 -0.83772800  16.000000   ; qtot 381.341024
14233         oh    503    ccc     O4  14233 -0.77449700  16.000000   ; qtot 380.566527
14234         c3    503    ccc     C6  14234 0.37576500  12.010000   ; qtot 380.942292
14235         ho    503    ccc     H6  14235 0.53656000   1.008000   ; qtot 381.478852
14236         ho    503    ccc     H7  14236 0.49492100   1.008000   ; qtot 381.973773
14237         ho    503    ccc     H8  14237 0.51297200   1.008000   ; qtot 382.486745
14238         h1    503    ccc     H9  14238 0.05653400   1.008000   ; qtot 382.543279
14239         h1    503    ccc    H10  14239 0.05653400   1.008000   ; qtot 382.599813
14240         oh    503    ccc     O5  14240 -0.84113600  16.000000   ; qtot 381.758677
14241         ho    503    ccc    H11  14241 0.51201600   1.008000   ; qtot 382.270693
14242         os    503    ccc     O6  14242 -0.26013600  16.000000   ; qtot 382.010557
; residue  504 ccc rtp ccc q 0.0
14243         c3    504    ccc     C1  14243 -0.33178800  12.010000   ; qtot 381.678769
14244         c3    504    ccc     C2  14244 0.30606500  12.010000   ; qtot 381.984834
14245         h1    504    ccc     H1  14245 0.11662300   1.008000   ; qtot 382.101457
14246         h1    504    ccc     H2  14246 0.11526800   1.008000   ; qtot 382.216725
14247         c3    504    ccc     C3  14247 0.15592700  12.010000   ; qtot 382.372652
14248         c3    504    ccc     C4  14248 0.28383300  12.010000   ; qtot 382.656485
14249         c3    504    ccc     C5  14249 0.32403300  12.010000   ; qtot 382.980518
14250         h1    504    ccc     H3  14250 0.13386900   1.008000   ; qtot 383.114387
14251         h1    504    ccc     H4  14251 0.10146700   1.008000   ; qtot 383.215854
14252         h2    504    ccc     H5  14252 0.10960400   1.008000   ; qtot 383.325458
14253         os    504    ccc     O1  14253 -0.28650000  16.000000   ; qtot 383.038958
14254         oh    504    ccc     O2  14254 -0.86012500  16.000000   ; qtot 382.178833
14255         oh    504    ccc     O3  14255 -0.83772800  16.000000   ; qtot 381.341105
14256         oh    504    ccc     O4  14256 -0.77449700  16.000000   ; qtot 380.566608
14257         c3    504    ccc     C6  14257 0.37576500  12.010000   ; qtot 380.942373
14258         ho    504    ccc     H6  14258 0.53656000   1.008000   ; qtot 381.478933
14259         ho    504    ccc     H7  14259 0.49492100   1.008000   ; qtot 381.973854
14260         ho    504    ccc     H8  14260 0.51297200   1.008000   ; qtot 382.486826
14261         h1    504    ccc     H9  14261 0.05653400   1.008000   ; qtot 382.543360
14262         h1    504    ccc    H10  14262 0.05653400   1.008000   ; qtot 382.599894
14263         oh    504    ccc     O5  14263 -0.84113600  16.000000   ; qtot 381.758758
14264         ho    504    ccc    H11  14264 0.51201600   1.008000   ; qtot 382.270774
14265         os    504    ccc     O6  14265 -0.26013600  16.000000   ; qtot 382.010638
; residue  505 ccc rtp ccc q 0.0
14266         c3    505    ccc     C1  14266 -0.33178800  12.010000   ; qtot 381.678850
14267         c3    505    ccc     C2  14267 0.30606500  12.010000   ; qtot 381.984915
14268         h1    505    ccc     H1  14268 0.11662300   1.008000   ; qtot 382.101538
14269         h1    505    ccc     H2  14269 0.11526800   1.008000   ; qtot 382.216806
14270         c3    505    ccc     C3  14270 0.15592700  12.010000   ; qtot 382.372733
14271         c3    505    ccc     C4  14271 0.28383300  12.010000   ; qtot 382.656566
14272         c3    505    ccc     C5  14272 0.32403300  12.010000   ; qtot 382.980599
14273         h1    505    ccc     H3  14273 0.13386900   1.008000   ; qtot 383.114468
14274         h1    505    ccc     H4  14274 0.10146700   1.008000   ; qtot 383.215935
14275         h2    505    ccc     H5  14275 0.10960400   1.008000   ; qtot 383.325539
14276         os    505    ccc     O1  14276 -0.28650000  16.000000   ; qtot 383.039039
14277         oh    505    ccc     O2  14277 -0.86012500  16.000000   ; qtot 382.178914
14278         oh    505    ccc     O3  14278 -0.83772800  16.000000   ; qtot 381.341186
14279         oh    505    ccc     O4  14279 -0.77449700  16.000000   ; qtot 380.566689
14280         c3    505    ccc     C6  14280 0.37576500  12.010000   ; qtot 380.942454
14281         ho    505    ccc     H6  14281 0.53656000   1.008000   ; qtot 381.479014
14282         ho    505    ccc     H7  14282 0.49492100   1.008000   ; qtot 381.973935
14283         ho    505    ccc     H8  14283 0.51297200   1.008000   ; qtot 382.486907
14284         h1    505    ccc     H9  14284 0.05653400   1.008000   ; qtot 382.543441
14285         h1    505    ccc    H10  14285 0.05653400   1.008000   ; qtot 382.599975
14286         oh    505    ccc     O5  14286 -0.84113600  16.000000   ; qtot 381.758839
14287         ho    505    ccc    H11  14287 0.51201600   1.008000   ; qtot 382.270855
14288         os    505    ccc     O6  14288 -0.26013600  16.000000   ; qtot 382.010719
; residue  506 ccc rtp ccc q 0.0
14289         c3    506    ccc     C1  14289 -0.33178800  12.010000   ; qtot 381.678931
14290         c3    506    ccc     C2  14290 0.30606500  12.010000   ; qtot 381.984996
14291         h1    506    ccc     H1  14291 0.11662300   1.008000   ; qtot 382.101619
14292         h1    506    ccc     H2  14292 0.11526800   1.008000   ; qtot 382.216887
14293         c3    506    ccc     C3  14293 0.15592700  12.010000   ; qtot 382.372814
14294         c3    506    ccc     C4  14294 0.28383300  12.010000   ; qtot 382.656647
14295         c3    506    ccc     C5  14295 0.32403300  12.010000   ; qtot 382.980680
14296         h1    506    ccc     H3  14296 0.13386900   1.008000   ; qtot 383.114549
14297         h1    506    ccc     H4  14297 0.10146700   1.008000   ; qtot 383.216016
14298         h2    506    ccc     H5  14298 0.10960400   1.008000   ; qtot 383.325620
14299         os    506    ccc     O1  14299 -0.28650000  16.000000   ; qtot 383.039120
14300         oh    506    ccc     O2  14300 -0.86012500  16.000000   ; qtot 382.178995
14301         oh    506    ccc     O3  14301 -0.83772800  16.000000   ; qtot 381.341267
14302         oh    506    ccc     O4  14302 -0.77449700  16.000000   ; qtot 380.566770
14303         c3    506    ccc     C6  14303 0.37576500  12.010000   ; qtot 380.942535
14304         ho    506    ccc     H6  14304 0.53656000   1.008000   ; qtot 381.479095
14305         ho    506    ccc     H7  14305 0.49492100   1.008000   ; qtot 381.974016
14306         ho    506    ccc     H8  14306 0.51297200   1.008000   ; qtot 382.486988
14307         h1    506    ccc     H9  14307 0.05653400   1.008000   ; qtot 382.543522
14308         h1    506    ccc    H10  14308 0.05653400   1.008000   ; qtot 382.600056
14309         oh    506    ccc     O5  14309 -0.84113600  16.000000   ; qtot 381.758920
14310         ho    506    ccc    H11  14310 0.51201600   1.008000   ; qtot 382.270936
14311         os    506    ccc     O6  14311 -0.26013600  16.000000   ; qtot 382.010800
; residue  507 ccc rtp ccc q 0.0
14312         c3    507    ccc     C1  14312 -0.33178800  12.010000   ; qtot 381.679012
14313         c3    507    ccc     C2  14313 0.30606500  12.010000   ; qtot 381.985077
14314         h1    507    ccc     H1  14314 0.11662300   1.008000   ; qtot 382.101700
14315         h1    507    ccc     H2  14315 0.11526800   1.008000   ; qtot 382.216968
14316         c3    507    ccc     C3  14316 0.15592700  12.010000   ; qtot 382.372895
14317         c3    507    ccc     C4  14317 0.28383300  12.010000   ; qtot 382.656728
14318         c3    507    ccc     C5  14318 0.32403300  12.010000   ; qtot 382.980761
14319         h1    507    ccc     H3  14319 0.13386900   1.008000   ; qtot 383.114630
14320         h1    507    ccc     H4  14320 0.10146700   1.008000   ; qtot 383.216097
14321         h2    507    ccc     H5  14321 0.10960400   1.008000   ; qtot 383.325701
14322         os    507    ccc     O1  14322 -0.28650000  16.000000   ; qtot 383.039201
14323         oh    507    ccc     O2  14323 -0.86012500  16.000000   ; qtot 382.179076
14324         oh    507    ccc     O3  14324 -0.83772800  16.000000   ; qtot 381.341348
14325         oh    507    ccc     O4  14325 -0.77449700  16.000000   ; qtot 380.566851
14326         c3    507    ccc     C6  14326 0.37576500  12.010000   ; qtot 380.942616
14327         ho    507    ccc     H6  14327 0.53656000   1.008000   ; qtot 381.479176
14328         ho    507    ccc     H7  14328 0.49492100   1.008000   ; qtot 381.974097
14329         ho    507    ccc     H8  14329 0.51297200   1.008000   ; qtot 382.487069
14330         h1    507    ccc     H9  14330 0.05653400   1.008000   ; qtot 382.543603
14331         h1    507    ccc    H10  14331 0.05653400   1.008000   ; qtot 382.600137
14332         oh    507    ccc     O5  14332 -0.84113600  16.000000   ; qtot 381.759001
14333         ho    507    ccc    H11  14333 0.51201600   1.008000   ; qtot 382.271017
14334         os    507    ccc     O6  14334 -0.26013600  16.000000   ; qtot 382.010881
; residue  508 ccc rtp ccc q 0.0
14335         c3    508    ccc     C1  14335 -0.33178800  12.010000   ; qtot 381.679093
14336         c3    508    ccc     C2  14336 0.30606500  12.010000   ; qtot 381.985158
14337         h1    508    ccc     H1  14337 0.11662300   1.008000   ; qtot 382.101781
14338         h1    508    ccc     H2  14338 0.11526800   1.008000   ; qtot 382.217049
14339         c3    508    ccc     C3  14339 0.15592700  12.010000   ; qtot 382.372976
14340         c3    508    ccc     C4  14340 0.28383300  12.010000   ; qtot 382.656809
14341         c3    508    ccc     C5  14341 0.32403300  12.010000   ; qtot 382.980842
14342         h1    508    ccc     H3  14342 0.13386900   1.008000   ; qtot 383.114711
14343         h1    508    ccc     H4  14343 0.10146700   1.008000   ; qtot 383.216178
14344         h2    508    ccc     H5  14344 0.10960400   1.008000   ; qtot 383.325782
14345         os    508    ccc     O1  14345 -0.28650000  16.000000   ; qtot 383.039282
14346         oh    508    ccc     O2  14346 -0.86012500  16.000000   ; qtot 382.179157
14347         oh    508    ccc     O3  14347 -0.83772800  16.000000   ; qtot 381.341429
14348         oh    508    ccc     O4  14348 -0.77449700  16.000000   ; qtot 380.566932
14349         c3    508    ccc     C6  14349 0.37576500  12.010000   ; qtot 380.942697
14350         ho    508    ccc     H6  14350 0.53656000   1.008000   ; qtot 381.479257
14351         ho    508    ccc     H7  14351 0.49492100   1.008000   ; qtot 381.974178
14352         ho    508    ccc     H8  14352 0.51297200   1.008000   ; qtot 382.487150
14353         h1    508    ccc     H9  14353 0.05653400   1.008000   ; qtot 382.543684
14354         h1    508    ccc    H10  14354 0.05653400   1.008000   ; qtot 382.600218
14355         oh    508    ccc     O5  14355 -0.84113600  16.000000   ; qtot 381.759082
14356         ho    508    ccc    H11  14356 0.51201600   1.008000   ; qtot 382.271098
14357         os    508    ccc     O6  14357 -0.26013600  16.000000   ; qtot 382.010962
; residue  509 ccc rtp ccc q 0.0
14358         c3    509    ccc     C1  14358 -0.33178800  12.010000   ; qtot 381.679174
14359         c3    509    ccc     C2  14359 0.30606500  12.010000   ; qtot 381.985239
14360         h1    509    ccc     H1  14360 0.11662300   1.008000   ; qtot 382.101862
14361         h1    509    ccc     H2  14361 0.11526800   1.008000   ; qtot 382.217130
14362         c3    509    ccc     C3  14362 0.15592700  12.010000   ; qtot 382.373057
14363         c3    509    ccc     C4  14363 0.28383300  12.010000   ; qtot 382.656890
14364         c3    509    ccc     C5  14364 0.32403300  12.010000   ; qtot 382.980923
14365         h1    509    ccc     H3  14365 0.13386900   1.008000   ; qtot 383.114792
14366         h1    509    ccc     H4  14366 0.10146700   1.008000   ; qtot 383.216259
14367         h2    509    ccc     H5  14367 0.10960400   1.008000   ; qtot 383.325863
14368         os    509    ccc     O1  14368 -0.28650000  16.000000   ; qtot 383.039363
14369         oh    509    ccc     O2  14369 -0.86012500  16.000000   ; qtot 382.179238
14370         oh    509    ccc     O3  14370 -0.83772800  16.000000   ; qtot 381.341510
14371         oh    509    ccc     O4  14371 -0.77449700  16.000000   ; qtot 380.567013
14372         c3    509    ccc     C6  14372 0.37576500  12.010000   ; qtot 380.942778
14373         ho    509    ccc     H6  14373 0.53656000   1.008000   ; qtot 381.479338
14374         ho    509    ccc     H7  14374 0.49492100   1.008000   ; qtot 381.974259
14375         ho    509    ccc     H8  14375 0.51297200   1.008000   ; qtot 382.487231
14376         h1    509    ccc     H9  14376 0.05653400   1.008000   ; qtot 382.543765
14377         h1    509    ccc    H10  14377 0.05653400   1.008000   ; qtot 382.600299
14378         oh    509    ccc     O5  14378 -0.84113600  16.000000   ; qtot 381.759163
14379         ho    509    ccc    H11  14379 0.51201600   1.008000   ; qtot 382.271179
14380         os    509    ccc     O6  14380 -0.26013600  16.000000   ; qtot 382.011043
; residue  510 ccc rtp ccc q 0.0
14381         c3    510    ccc     C1  14381 -0.33178800  12.010000   ; qtot 381.679255
14382         c3    510    ccc     C2  14382 0.30606500  12.010000   ; qtot 381.985320
14383         h1    510    ccc     H1  14383 0.11662300   1.008000   ; qtot 382.101943
14384         h1    510    ccc     H2  14384 0.11526800   1.008000   ; qtot 382.217211
14385         c3    510    ccc     C3  14385 0.15592700  12.010000   ; qtot 382.373138
14386         c3    510    ccc     C4  14386 0.28383300  12.010000   ; qtot 382.656971
14387         c3    510    ccc     C5  14387 0.32403300  12.010000   ; qtot 382.981004
14388         h1    510    ccc     H3  14388 0.13386900   1.008000   ; qtot 383.114873
14389         h1    510    ccc     H4  14389 0.10146700   1.008000   ; qtot 383.216340
14390         h2    510    ccc     H5  14390 0.10960400   1.008000   ; qtot 383.325944
14391         os    510    ccc     O1  14391 -0.28650000  16.000000   ; qtot 383.039444
14392         oh    510    ccc     O2  14392 -0.86012500  16.000000   ; qtot 382.179319
14393         oh    510    ccc     O3  14393 -0.83772800  16.000000   ; qtot 381.341591
14394         oh    510    ccc     O4  14394 -0.77449700  16.000000   ; qtot 380.567094
14395         c3    510    ccc     C6  14395 0.37576500  12.010000   ; qtot 380.942859
14396         ho    510    ccc     H6  14396 0.53656000   1.008000   ; qtot 381.479419
14397         ho    510    ccc     H7  14397 0.49492100   1.008000   ; qtot 381.974340
14398         ho    510    ccc     H8  14398 0.51297200   1.008000   ; qtot 382.487312
14399         h1    510    ccc     H9  14399 0.05653400   1.008000   ; qtot 382.543846
14400         h1    510    ccc    H10  14400 0.05653400   1.008000   ; qtot 382.600380
14401         oh    510    ccc     O5  14401 -0.84113600  16.000000   ; qtot 381.759244
14402         ho    510    ccc    H11  14402 0.51201600   1.008000   ; qtot 382.271260
14403         os    510    ccc     O6  14403 -0.26013600  16.000000   ; qtot 382.011124
; residue  511 ccc rtp ccc q 0.0
14404         c3    511    ccc     C1  14404 -0.33178800  12.010000   ; qtot 381.679336
14405         c3    511    ccc     C2  14405 0.30606500  12.010000   ; qtot 381.985401
14406         h1    511    ccc     H1  14406 0.11662300   1.008000   ; qtot 382.102024
14407         h1    511    ccc     H2  14407 0.11526800   1.008000   ; qtot 382.217292
14408         c3    511    ccc     C3  14408 0.15592700  12.010000   ; qtot 382.373219
14409         c3    511    ccc     C4  14409 0.28383300  12.010000   ; qtot 382.657052
14410         c3    511    ccc     C5  14410 0.32403300  12.010000   ; qtot 382.981085
14411         h1    511    ccc     H3  14411 0.13386900   1.008000   ; qtot 383.114954
14412         h1    511    ccc     H4  14412 0.10146700   1.008000   ; qtot 383.216421
14413         h2    511    ccc     H5  14413 0.10960400   1.008000   ; qtot 383.326025
14414         os    511    ccc     O1  14414 -0.28650000  16.000000   ; qtot 383.039525
14415         oh    511    ccc     O2  14415 -0.86012500  16.000000   ; qtot 382.179400
14416         oh    511    ccc     O3  14416 -0.83772800  16.000000   ; qtot 381.341672
14417         oh    511    ccc     O4  14417 -0.77449700  16.000000   ; qtot 380.567175
14418         c3    511    ccc     C6  14418 0.37576500  12.010000   ; qtot 380.942940
14419         ho    511    ccc     H6  14419 0.53656000   1.008000   ; qtot 381.479500
14420         ho    511    ccc     H7  14420 0.49492100   1.008000   ; qtot 381.974421
14421         ho    511    ccc     H8  14421 0.51297200   1.008000   ; qtot 382.487393
14422         h1    511    ccc     H9  14422 0.05653400   1.008000   ; qtot 382.543927
14423         h1    511    ccc    H10  14423 0.05653400   1.008000   ; qtot 382.600461
14424         oh    511    ccc     O5  14424 -0.84113600  16.000000   ; qtot 381.759325
14425         ho    511    ccc    H11  14425 0.51201600   1.008000   ; qtot 382.271341
14426         os    511    ccc     O6  14426 -0.26013600  16.000000   ; qtot 382.011205
; residue  512 ccc rtp ccc q 0.0
14427         c3    512    ccc     C1  14427 -0.33178800  12.010000   ; qtot 381.679417
14428         c3    512    ccc     C2  14428 0.30606500  12.010000   ; qtot 381.985482
14429         h1    512    ccc     H1  14429 0.11662300   1.008000   ; qtot 382.102105
14430         h1    512    ccc     H2  14430 0.11526800   1.008000   ; qtot 382.217373
14431         c3    512    ccc     C3  14431 0.15592700  12.010000   ; qtot 382.373300
14432         c3    512    ccc     C4  14432 0.28383300  12.010000   ; qtot 382.657133
14433         c3    512    ccc     C5  14433 0.32403300  12.010000   ; qtot 382.981166
14434         h1    512    ccc     H3  14434 0.13386900   1.008000   ; qtot 383.115035
14435         h1    512    ccc     H4  14435 0.10146700   1.008000   ; qtot 383.216502
14436         h2    512    ccc     H5  14436 0.10960400   1.008000   ; qtot 383.326106
14437         os    512    ccc     O1  14437 -0.28650000  16.000000   ; qtot 383.039606
14438         oh    512    ccc     O2  14438 -0.86012500  16.000000   ; qtot 382.179481
14439         oh    512    ccc     O3  14439 -0.83772800  16.000000   ; qtot 381.341753
14440         oh    512    ccc     O4  14440 -0.77449700  16.000000   ; qtot 380.567256
14441         c3    512    ccc     C6  14441 0.37576500  12.010000   ; qtot 380.943021
14442         ho    512    ccc     H6  14442 0.53656000   1.008000   ; qtot 381.479581
14443         ho    512    ccc     H7  14443 0.49492100   1.008000   ; qtot 381.974502
14444         ho    512    ccc     H8  14444 0.51297200   1.008000   ; qtot 382.487474
14445         h1    512    ccc     H9  14445 0.05653400   1.008000   ; qtot 382.544008
14446         h1    512    ccc    H10  14446 0.05653400   1.008000   ; qtot 382.600542
14447         oh    512    ccc     O5  14447 -0.84113600  16.000000   ; qtot 381.759406
14448         ho    512    ccc    H11  14448 0.51201600   1.008000   ; qtot 382.271422
14449         os    512    ccc     O6  14449 -0.26013600  16.000000   ; qtot 382.011286
; residue  513 ccc rtp ccc q 0.0
14450         c3    513    ccc     C1  14450 -0.33178800  12.010000   ; qtot 381.679498
14451         c3    513    ccc     C2  14451 0.30606500  12.010000   ; qtot 381.985563
14452         h1    513    ccc     H1  14452 0.11662300   1.008000   ; qtot 382.102186
14453         h1    513    ccc     H2  14453 0.11526800   1.008000   ; qtot 382.217454
14454         c3    513    ccc     C3  14454 0.15592700  12.010000   ; qtot 382.373381
14455         c3    513    ccc     C4  14455 0.28383300  12.010000   ; qtot 382.657214
14456         c3    513    ccc     C5  14456 0.32403300  12.010000   ; qtot 382.981247
14457         h1    513    ccc     H3  14457 0.13386900   1.008000   ; qtot 383.115116
14458         h1    513    ccc     H4  14458 0.10146700   1.008000   ; qtot 383.216583
14459         h2    513    ccc     H5  14459 0.10960400   1.008000   ; qtot 383.326187
14460         os    513    ccc     O1  14460 -0.28650000  16.000000   ; qtot 383.039687
14461         oh    513    ccc     O2  14461 -0.86012500  16.000000   ; qtot 382.179562
14462         oh    513    ccc     O3  14462 -0.83772800  16.000000   ; qtot 381.341834
14463         oh    513    ccc     O4  14463 -0.77449700  16.000000   ; qtot 380.567337
14464         c3    513    ccc     C6  14464 0.37576500  12.010000   ; qtot 380.943102
14465         ho    513    ccc     H6  14465 0.53656000   1.008000   ; qtot 381.479662
14466         ho    513    ccc     H7  14466 0.49492100   1.008000   ; qtot 381.974583
14467         ho    513    ccc     H8  14467 0.51297200   1.008000   ; qtot 382.487555
14468         h1    513    ccc     H9  14468 0.05653400   1.008000   ; qtot 382.544089
14469         h1    513    ccc    H10  14469 0.05653400   1.008000   ; qtot 382.600623
14470         oh    513    ccc     O5  14470 -0.84113600  16.000000   ; qtot 381.759487
14471         ho    513    ccc    H11  14471 0.51201600   1.008000   ; qtot 382.271503
14472         os    513    ccc     O6  14472 -0.26013600  16.000000   ; qtot 382.011367
; residue  514 ccc rtp ccc q 0.0
14473         c3    514    ccc     C1  14473 -0.33178800  12.010000   ; qtot 381.679579
14474         c3    514    ccc     C2  14474 0.30606500  12.010000   ; qtot 381.985644
14475         h1    514    ccc     H1  14475 0.11662300   1.008000   ; qtot 382.102267
14476         h1    514    ccc     H2  14476 0.11526800   1.008000   ; qtot 382.217535
14477         c3    514    ccc     C3  14477 0.15592700  12.010000   ; qtot 382.373462
14478         c3    514    ccc     C4  14478 0.28383300  12.010000   ; qtot 382.657295
14479         c3    514    ccc     C5  14479 0.32403300  12.010000   ; qtot 382.981328
14480         h1    514    ccc     H3  14480 0.13386900   1.008000   ; qtot 383.115197
14481         h1    514    ccc     H4  14481 0.10146700   1.008000   ; qtot 383.216664
14482         h2    514    ccc     H5  14482 0.10960400   1.008000   ; qtot 383.326268
14483         os    514    ccc     O1  14483 -0.28650000  16.000000   ; qtot 383.039768
14484         oh    514    ccc     O2  14484 -0.86012500  16.000000   ; qtot 382.179643
14485         oh    514    ccc     O3  14485 -0.83772800  16.000000   ; qtot 381.341915
14486         oh    514    ccc     O4  14486 -0.77449700  16.000000   ; qtot 380.567418
14487         c3    514    ccc     C6  14487 0.37576500  12.010000   ; qtot 380.943183
14488         ho    514    ccc     H6  14488 0.53656000   1.008000   ; qtot 381.479743
14489         ho    514    ccc     H7  14489 0.49492100   1.008000   ; qtot 381.974664
14490         ho    514    ccc     H8  14490 0.51297200   1.008000   ; qtot 382.487636
14491         h1    514    ccc     H9  14491 0.05653400   1.008000   ; qtot 382.544170
14492         h1    514    ccc    H10  14492 0.05653400   1.008000   ; qtot 382.600704
14493         oh    514    ccc     O5  14493 -0.84113600  16.000000   ; qtot 381.759568
14494         ho    514    ccc    H11  14494 0.51201600   1.008000   ; qtot 382.271584
14495         os    514    ccc     O6  14495 -0.26013600  16.000000   ; qtot 382.011448
; residue  515 ccc rtp ccc q 0.0
14496         c3    515    ccc     C1  14496 -0.33178800  12.010000   ; qtot 381.679660
14497         c3    515    ccc     C2  14497 0.30606500  12.010000   ; qtot 381.985725
14498         h1    515    ccc     H1  14498 0.11662300   1.008000   ; qtot 382.102348
14499         h1    515    ccc     H2  14499 0.11526800   1.008000   ; qtot 382.217616
14500         c3    515    ccc     C3  14500 0.15592700  12.010000   ; qtot 382.373543
14501         c3    515    ccc     C4  14501 0.28383300  12.010000   ; qtot 382.657376
14502         c3    515    ccc     C5  14502 0.32403300  12.010000   ; qtot 382.981409
14503         h1    515    ccc     H3  14503 0.13386900   1.008000   ; qtot 383.115278
14504         h1    515    ccc     H4  14504 0.10146700   1.008000   ; qtot 383.216745
14505         h2    515    ccc     H5  14505 0.10960400   1.008000   ; qtot 383.326349
14506         os    515    ccc     O1  14506 -0.28650000  16.000000   ; qtot 383.039849
14507         oh    515    ccc     O2  14507 -0.86012500  16.000000   ; qtot 382.179724
14508         oh    515    ccc     O3  14508 -0.83772800  16.000000   ; qtot 381.341996
14509         oh    515    ccc     O4  14509 -0.77449700  16.000000   ; qtot 380.567499
14510         c3    515    ccc     C6  14510 0.37576500  12.010000   ; qtot 380.943264
14511         ho    515    ccc     H6  14511 0.53656000   1.008000   ; qtot 381.479824
14512         ho    515    ccc     H7  14512 0.49492100   1.008000   ; qtot 381.974745
14513         ho    515    ccc     H8  14513 0.51297200   1.008000   ; qtot 382.487717
14514         h1    515    ccc     H9  14514 0.05653400   1.008000   ; qtot 382.544251
14515         h1    515    ccc    H10  14515 0.05653400   1.008000   ; qtot 382.600785
14516         oh    515    ccc     O5  14516 -0.84113600  16.000000   ; qtot 381.759649
14517         ho    515    ccc    H11  14517 0.51201600   1.008000   ; qtot 382.271665
14518         os    515    ccc     O6  14518 -0.26013600  16.000000   ; qtot 382.011529
; residue  516 ccc rtp ccc q 0.0
14519         c3    516    ccc     C1  14519 -0.33178800  12.010000   ; qtot 381.679741
14520         c3    516    ccc     C2  14520 0.30606500  12.010000   ; qtot 381.985806
14521         h1    516    ccc     H1  14521 0.11662300   1.008000   ; qtot 382.102429
14522         h1    516    ccc     H2  14522 0.11526800   1.008000   ; qtot 382.217697
14523         c3    516    ccc     C3  14523 0.15592700  12.010000   ; qtot 382.373624
14524         c3    516    ccc     C4  14524 0.28383300  12.010000   ; qtot 382.657457
14525         c3    516    ccc     C5  14525 0.32403300  12.010000   ; qtot 382.981490
14526         h1    516    ccc     H3  14526 0.13386900   1.008000   ; qtot 383.115359
14527         h1    516    ccc     H4  14527 0.10146700   1.008000   ; qtot 383.216826
14528         h2    516    ccc     H5  14528 0.10960400   1.008000   ; qtot 383.326430
14529         os    516    ccc     O1  14529 -0.28650000  16.000000   ; qtot 383.039930
14530         oh    516    ccc     O2  14530 -0.86012500  16.000000   ; qtot 382.179805
14531         oh    516    ccc     O3  14531 -0.83772800  16.000000   ; qtot 381.342077
14532         oh    516    ccc     O4  14532 -0.77449700  16.000000   ; qtot 380.567580
14533         c3    516    ccc     C6  14533 0.37576500  12.010000   ; qtot 380.943345
14534         ho    516    ccc     H6  14534 0.53656000   1.008000   ; qtot 381.479905
14535         ho    516    ccc     H7  14535 0.49492100   1.008000   ; qtot 381.974826
14536         ho    516    ccc     H8  14536 0.51297200   1.008000   ; qtot 382.487798
14537         h1    516    ccc     H9  14537 0.05653400   1.008000   ; qtot 382.544332
14538         h1    516    ccc    H10  14538 0.05653400   1.008000   ; qtot 382.600866
14539         oh    516    ccc     O5  14539 -0.84113600  16.000000   ; qtot 381.759730
14540         ho    516    ccc    H11  14540 0.51201600   1.008000   ; qtot 382.271746
14541         os    516    ccc     O6  14541 -0.26013600  16.000000   ; qtot 382.011610
; residue  517 ccc rtp ccc q 0.0
14542         c3    517    ccc     C1  14542 -0.33178800  12.010000   ; qtot 381.679822
14543         c3    517    ccc     C2  14543 0.30606500  12.010000   ; qtot 381.985887
14544         h1    517    ccc     H1  14544 0.11662300   1.008000   ; qtot 382.102510
14545         h1    517    ccc     H2  14545 0.11526800   1.008000   ; qtot 382.217778
14546         c3    517    ccc     C3  14546 0.15592700  12.010000   ; qtot 382.373705
14547         c3    517    ccc     C4  14547 0.28383300  12.010000   ; qtot 382.657538
14548         c3    517    ccc     C5  14548 0.32403300  12.010000   ; qtot 382.981571
14549         h1    517    ccc     H3  14549 0.13386900   1.008000   ; qtot 383.115440
14550         h1    517    ccc     H4  14550 0.10146700   1.008000   ; qtot 383.216907
14551         h2    517    ccc     H5  14551 0.10960400   1.008000   ; qtot 383.326511
14552         os    517    ccc     O1  14552 -0.28650000  16.000000   ; qtot 383.040011
14553         oh    517    ccc     O2  14553 -0.86012500  16.000000   ; qtot 382.179886
14554         oh    517    ccc     O3  14554 -0.83772800  16.000000   ; qtot 381.342158
14555         oh    517    ccc     O4  14555 -0.77449700  16.000000   ; qtot 380.567661
14556         c3    517    ccc     C6  14556 0.37576500  12.010000   ; qtot 380.943426
14557         ho    517    ccc     H6  14557 0.53656000   1.008000   ; qtot 381.479986
14558         ho    517    ccc     H7  14558 0.49492100   1.008000   ; qtot 381.974907
14559         ho    517    ccc     H8  14559 0.51297200   1.008000   ; qtot 382.487879
14560         h1    517    ccc     H9  14560 0.05653400   1.008000   ; qtot 382.544413
14561         h1    517    ccc    H10  14561 0.05653400   1.008000   ; qtot 382.600947
14562         oh    517    ccc     O5  14562 -0.84113600  16.000000   ; qtot 381.759811
14563         ho    517    ccc    H11  14563 0.51201600   1.008000   ; qtot 382.271827
14564         os    517    ccc     O6  14564 -0.26013600  16.000000   ; qtot 382.011691
; residue  518 ccc rtp ccc q 0.0
14565         c3    518    ccc     C1  14565 -0.33178800  12.010000   ; qtot 381.679903
14566         c3    518    ccc     C2  14566 0.30606500  12.010000   ; qtot 381.985968
14567         h1    518    ccc     H1  14567 0.11662300   1.008000   ; qtot 382.102591
14568         h1    518    ccc     H2  14568 0.11526800   1.008000   ; qtot 382.217859
14569         c3    518    ccc     C3  14569 0.15592700  12.010000   ; qtot 382.373786
14570         c3    518    ccc     C4  14570 0.28383300  12.010000   ; qtot 382.657619
14571         c3    518    ccc     C5  14571 0.32403300  12.010000   ; qtot 382.981652
14572         h1    518    ccc     H3  14572 0.13386900   1.008000   ; qtot 383.115521
14573         h1    518    ccc     H4  14573 0.10146700   1.008000   ; qtot 383.216988
14574         h2    518    ccc     H5  14574 0.10960400   1.008000   ; qtot 383.326592
14575         os    518    ccc     O1  14575 -0.28650000  16.000000   ; qtot 383.040092
14576         oh    518    ccc     O2  14576 -0.86012500  16.000000   ; qtot 382.179967
14577         oh    518    ccc     O3  14577 -0.83772800  16.000000   ; qtot 381.342239
14578         oh    518    ccc     O4  14578 -0.77449700  16.000000   ; qtot 380.567742
14579         c3    518    ccc     C6  14579 0.37576500  12.010000   ; qtot 380.943507
14580         ho    518    ccc     H6  14580 0.53656000   1.008000   ; qtot 381.480067
14581         ho    518    ccc     H7  14581 0.49492100   1.008000   ; qtot 381.974988
14582         ho    518    ccc     H8  14582 0.51297200   1.008000   ; qtot 382.487960
14583         h1    518    ccc     H9  14583 0.05653400   1.008000   ; qtot 382.544494
14584         h1    518    ccc    H10  14584 0.05653400   1.008000   ; qtot 382.601028
14585         oh    518    ccc     O5  14585 -0.84113600  16.000000   ; qtot 381.759892
14586         ho    518    ccc    H11  14586 0.51201600   1.008000   ; qtot 382.271908
14587         os    518    ccc     O6  14587 -0.26013600  16.000000   ; qtot 382.011772
; residue  519 ccc rtp ccc q 0.0
14588         c3    519    ccc     C1  14588 -0.33178800  12.010000   ; qtot 381.679984
14589         c3    519    ccc     C2  14589 0.30606500  12.010000   ; qtot 381.986049
14590         h1    519    ccc     H1  14590 0.11662300   1.008000   ; qtot 382.102672
14591         h1    519    ccc     H2  14591 0.11526800   1.008000   ; qtot 382.217940
14592         c3    519    ccc     C3  14592 0.15592700  12.010000   ; qtot 382.373867
14593         c3    519    ccc     C4  14593 0.28383300  12.010000   ; qtot 382.657700
14594         c3    519    ccc     C5  14594 0.32403300  12.010000   ; qtot 382.981733
14595         h1    519    ccc     H3  14595 0.13386900   1.008000   ; qtot 383.115602
14596         h1    519    ccc     H4  14596 0.10146700   1.008000   ; qtot 383.217069
14597         h2    519    ccc     H5  14597 0.10960400   1.008000   ; qtot 383.326673
14598         os    519    ccc     O1  14598 -0.28650000  16.000000   ; qtot 383.040173
14599         oh    519    ccc     O2  14599 -0.86012500  16.000000   ; qtot 382.180048
14600         oh    519    ccc     O3  14600 -0.83772800  16.000000   ; qtot 381.342320
14601         oh    519    ccc     O4  14601 -0.77449700  16.000000   ; qtot 380.567823
14602         c3    519    ccc     C6  14602 0.37576500  12.010000   ; qtot 380.943588
14603         ho    519    ccc     H6  14603 0.53656000   1.008000   ; qtot 381.480148
14604         ho    519    ccc     H7  14604 0.49492100   1.008000   ; qtot 381.975069
14605         ho    519    ccc     H8  14605 0.51297200   1.008000   ; qtot 382.488041
14606         h1    519    ccc     H9  14606 0.05653400   1.008000   ; qtot 382.544575
14607         h1    519    ccc    H10  14607 0.05653400   1.008000   ; qtot 382.601109
14608         oh    519    ccc     O5  14608 -0.84113600  16.000000   ; qtot 381.759973
14609         ho    519    ccc    H11  14609 0.51201600   1.008000   ; qtot 382.271989
14610         os    519    ccc     O6  14610 -0.26013600  16.000000   ; qtot 382.011853
; residue  520 ccc rtp ccc q 0.0
14611         c3    520    ccc     C1  14611 -0.33178800  12.010000   ; qtot 381.680065
14612         c3    520    ccc     C2  14612 0.30606500  12.010000   ; qtot 381.986130
14613         h1    520    ccc     H1  14613 0.11662300   1.008000   ; qtot 382.102753
14614         h1    520    ccc     H2  14614 0.11526800   1.008000   ; qtot 382.218021
14615         c3    520    ccc     C3  14615 0.15592700  12.010000   ; qtot 382.373948
14616         c3    520    ccc     C4  14616 0.28383300  12.010000   ; qtot 382.657781
14617         c3    520    ccc     C5  14617 0.32403300  12.010000   ; qtot 382.981814
14618         h1    520    ccc     H3  14618 0.13386900   1.008000   ; qtot 383.115683
14619         h1    520    ccc     H4  14619 0.10146700   1.008000   ; qtot 383.217150
14620         h2    520    ccc     H5  14620 0.10960400   1.008000   ; qtot 383.326754
14621         os    520    ccc     O1  14621 -0.28650000  16.000000   ; qtot 383.040254
14622         oh    520    ccc     O2  14622 -0.86012500  16.000000   ; qtot 382.180129
14623         oh    520    ccc     O3  14623 -0.83772800  16.000000   ; qtot 381.342401
14624         oh    520    ccc     O4  14624 -0.77449700  16.000000   ; qtot 380.567904
14625         c3    520    ccc     C6  14625 0.37576500  12.010000   ; qtot 380.943669
14626         ho    520    ccc     H6  14626 0.53656000   1.008000   ; qtot 381.480229
14627         ho    520    ccc     H7  14627 0.49492100   1.008000   ; qtot 381.975150
14628         ho    520    ccc     H8  14628 0.51297200   1.008000   ; qtot 382.488122
14629         h1    520    ccc     H9  14629 0.05653400   1.008000   ; qtot 382.544656
14630         h1    520    ccc    H10  14630 0.05653400   1.008000   ; qtot 382.601190
14631         oh    520    ccc     O5  14631 -0.84113600  16.000000   ; qtot 381.760054
14632         ho    520    ccc    H11  14632 0.51201600   1.008000   ; qtot 382.272070
14633         os    520    ccc     O6  14633 -0.26013600  16.000000   ; qtot 382.011934
; residue  521 ccc rtp ccc q 0.0
14634         c3    521    ccc     C1  14634 -0.33178800  12.010000   ; qtot 381.680146
14635         c3    521    ccc     C2  14635 0.30606500  12.010000   ; qtot 381.986211
14636         h1    521    ccc     H1  14636 0.11662300   1.008000   ; qtot 382.102834
14637         h1    521    ccc     H2  14637 0.11526800   1.008000   ; qtot 382.218102
14638         c3    521    ccc     C3  14638 0.15592700  12.010000   ; qtot 382.374029
14639         c3    521    ccc     C4  14639 0.28383300  12.010000   ; qtot 382.657862
14640         c3    521    ccc     C5  14640 0.32403300  12.010000   ; qtot 382.981895
14641         h1    521    ccc     H3  14641 0.13386900   1.008000   ; qtot 383.115764
14642         h1    521    ccc     H4  14642 0.10146700   1.008000   ; qtot 383.217231
14643         h2    521    ccc     H5  14643 0.10960400   1.008000   ; qtot 383.326835
14644         os    521    ccc     O1  14644 -0.28650000  16.000000   ; qtot 383.040335
14645         oh    521    ccc     O2  14645 -0.86012500  16.000000   ; qtot 382.180210
14646         oh    521    ccc     O3  14646 -0.83772800  16.000000   ; qtot 381.342482
14647         oh    521    ccc     O4  14647 -0.77449700  16.000000   ; qtot 380.567985
14648         c3    521    ccc     C6  14648 0.37576500  12.010000   ; qtot 380.943750
14649         ho    521    ccc     H6  14649 0.53656000   1.008000   ; qtot 381.480310
14650         ho    521    ccc     H7  14650 0.49492100   1.008000   ; qtot 381.975231
14651         ho    521    ccc     H8  14651 0.51297200   1.008000   ; qtot 382.488203
14652         h1    521    ccc     H9  14652 0.05653400   1.008000   ; qtot 382.544737
14653         h1    521    ccc    H10  14653 0.05653400   1.008000   ; qtot 382.601271
14654         oh    521    ccc     O5  14654 -0.84113600  16.000000   ; qtot 381.760135
14655         ho    521    ccc    H11  14655 0.51201600   1.008000   ; qtot 382.272151
14656         os    521    ccc     O6  14656 -0.26013600  16.000000   ; qtot 382.012015
; residue  522 ccc rtp ccc q 0.0
14657         c3    522    ccc     C1  14657 -0.33178800  12.010000   ; qtot 381.680227
14658         c3    522    ccc     C2  14658 0.30606500  12.010000   ; qtot 381.986292
14659         h1    522    ccc     H1  14659 0.11662300   1.008000   ; qtot 382.102915
14660         h1    522    ccc     H2  14660 0.11526800   1.008000   ; qtot 382.218183
14661         c3    522    ccc     C3  14661 0.15592700  12.010000   ; qtot 382.374110
14662         c3    522    ccc     C4  14662 0.28383300  12.010000   ; qtot 382.657943
14663         c3    522    ccc     C5  14663 0.32403300  12.010000   ; qtot 382.981976
14664         h1    522    ccc     H3  14664 0.13386900   1.008000   ; qtot 383.115845
14665         h1    522    ccc     H4  14665 0.10146700   1.008000   ; qtot 383.217312
14666         h2    522    ccc     H5  14666 0.10960400   1.008000   ; qtot 383.326916
14667         os    522    ccc     O1  14667 -0.28650000  16.000000   ; qtot 383.040416
14668         oh    522    ccc     O2  14668 -0.86012500  16.000000   ; qtot 382.180291
14669         oh    522    ccc     O3  14669 -0.83772800  16.000000   ; qtot 381.342563
14670         oh    522    ccc     O4  14670 -0.77449700  16.000000   ; qtot 380.568066
14671         c3    522    ccc     C6  14671 0.37576500  12.010000   ; qtot 380.943831
14672         ho    522    ccc     H6  14672 0.53656000   1.008000   ; qtot 381.480391
14673         ho    522    ccc     H7  14673 0.49492100   1.008000   ; qtot 381.975312
14674         ho    522    ccc     H8  14674 0.51297200   1.008000   ; qtot 382.488284
14675         h1    522    ccc     H9  14675 0.05653400   1.008000   ; qtot 382.544818
14676         h1    522    ccc    H10  14676 0.05653400   1.008000   ; qtot 382.601352
14677         oh    522    ccc     O5  14677 -0.84113600  16.000000   ; qtot 381.760216
14678         ho    522    ccc    H11  14678 0.51201600   1.008000   ; qtot 382.272232
14679         os    522    ccc     O6  14679 -0.26013600  16.000000   ; qtot 382.012096
; residue  523 ccc rtp ccc q 0.0
14680         c3    523    ccc     C1  14680 -0.33178800  12.010000   ; qtot 381.680308
14681         c3    523    ccc     C2  14681 0.30606500  12.010000   ; qtot 381.986373
14682         h1    523    ccc     H1  14682 0.11662300   1.008000   ; qtot 382.102996
14683         h1    523    ccc     H2  14683 0.11526800   1.008000   ; qtot 382.218264
14684         c3    523    ccc     C3  14684 0.15592700  12.010000   ; qtot 382.374191
14685         c3    523    ccc     C4  14685 0.28383300  12.010000   ; qtot 382.658024
14686         c3    523    ccc     C5  14686 0.32403300  12.010000   ; qtot 382.982057
14687         h1    523    ccc     H3  14687 0.13386900   1.008000   ; qtot 383.115926
14688         h1    523    ccc     H4  14688 0.10146700   1.008000   ; qtot 383.217393
14689         h2    523    ccc     H5  14689 0.10960400   1.008000   ; qtot 383.326997
14690         os    523    ccc     O1  14690 -0.28650000  16.000000   ; qtot 383.040497
14691         oh    523    ccc     O2  14691 -0.86012500  16.000000   ; qtot 382.180372
14692         oh    523    ccc     O3  14692 -0.83772800  16.000000   ; qtot 381.342644
14693         oh    523    ccc     O4  14693 -0.77449700  16.000000   ; qtot 380.568147
14694         c3    523    ccc     C6  14694 0.37576500  12.010000   ; qtot 380.943912
14695         ho    523    ccc     H6  14695 0.53656000   1.008000   ; qtot 381.480472
14696         ho    523    ccc     H7  14696 0.49492100   1.008000   ; qtot 381.975393
14697         ho    523    ccc     H8  14697 0.51297200   1.008000   ; qtot 382.488365
14698         h1    523    ccc     H9  14698 0.05653400   1.008000   ; qtot 382.544899
14699         h1    523    ccc    H10  14699 0.05653400   1.008000   ; qtot 382.601433
14700         oh    523    ccc     O5  14700 -0.84113600  16.000000   ; qtot 381.760297
14701         ho    523    ccc    H11  14701 0.51201600   1.008000   ; qtot 382.272313
14702         os    523    ccc     O6  14702 -0.26013600  16.000000   ; qtot 382.012177
; residue  524 ccc rtp ccc q 0.0
14703         c3    524    ccc     C1  14703 -0.33178800  12.010000   ; qtot 381.680389
14704         c3    524    ccc     C2  14704 0.30606500  12.010000   ; qtot 381.986454
14705         h1    524    ccc     H1  14705 0.11662300   1.008000   ; qtot 382.103077
14706         h1    524    ccc     H2  14706 0.11526800   1.008000   ; qtot 382.218345
14707         c3    524    ccc     C3  14707 0.15592700  12.010000   ; qtot 382.374272
14708         c3    524    ccc     C4  14708 0.28383300  12.010000   ; qtot 382.658105
14709         c3    524    ccc     C5  14709 0.32403300  12.010000   ; qtot 382.982138
14710         h1    524    ccc     H3  14710 0.13386900   1.008000   ; qtot 383.116007
14711         h1    524    ccc     H4  14711 0.10146700   1.008000   ; qtot 383.217474
14712         h2    524    ccc     H5  14712 0.10960400   1.008000   ; qtot 383.327078
14713         os    524    ccc     O1  14713 -0.28650000  16.000000   ; qtot 383.040578
14714         oh    524    ccc     O2  14714 -0.86012500  16.000000   ; qtot 382.180453
14715         oh    524    ccc     O3  14715 -0.83772800  16.000000   ; qtot 381.342725
14716         oh    524    ccc     O4  14716 -0.77449700  16.000000   ; qtot 380.568228
14717         c3    524    ccc     C6  14717 0.37576500  12.010000   ; qtot 380.943993
14718         ho    524    ccc     H6  14718 0.53656000   1.008000   ; qtot 381.480553
14719         ho    524    ccc     H7  14719 0.49492100   1.008000   ; qtot 381.975474
14720         ho    524    ccc     H8  14720 0.51297200   1.008000   ; qtot 382.488446
14721         h1    524    ccc     H9  14721 0.05653400   1.008000   ; qtot 382.544980
14722         h1    524    ccc    H10  14722 0.05653400   1.008000   ; qtot 382.601514
14723         oh    524    ccc     O5  14723 -0.84113600  16.000000   ; qtot 381.760378
14724         ho    524    ccc    H11  14724 0.51201600   1.008000   ; qtot 382.272394
14725         os    524    ccc     O6  14725 -0.26013600  16.000000   ; qtot 382.012258
; residue  525 ccc rtp ccc q 0.0
14726         c3    525    ccc     C1  14726 -0.33178800  12.010000   ; qtot 381.680470
14727         c3    525    ccc     C2  14727 0.30606500  12.010000   ; qtot 381.986535
14728         h1    525    ccc     H1  14728 0.11662300   1.008000   ; qtot 382.103158
14729         h1    525    ccc     H2  14729 0.11526800   1.008000   ; qtot 382.218426
14730         c3    525    ccc     C3  14730 0.15592700  12.010000   ; qtot 382.374353
14731         c3    525    ccc     C4  14731 0.28383300  12.010000   ; qtot 382.658186
14732         c3    525    ccc     C5  14732 0.32403300  12.010000   ; qtot 382.982219
14733         h1    525    ccc     H3  14733 0.13386900   1.008000   ; qtot 383.116088
14734         h1    525    ccc     H4  14734 0.10146700   1.008000   ; qtot 383.217555
14735         h2    525    ccc     H5  14735 0.10960400   1.008000   ; qtot 383.327159
14736         os    525    ccc     O1  14736 -0.28650000  16.000000   ; qtot 383.040659
14737         oh    525    ccc     O2  14737 -0.86012500  16.000000   ; qtot 382.180534
14738         oh    525    ccc     O3  14738 -0.83772800  16.000000   ; qtot 381.342806
14739         oh    525    ccc     O4  14739 -0.77449700  16.000000   ; qtot 380.568309
14740         c3    525    ccc     C6  14740 0.37576500  12.010000   ; qtot 380.944074
14741         ho    525    ccc     H6  14741 0.53656000   1.008000   ; qtot 381.480634
14742         ho    525    ccc     H7  14742 0.49492100   1.008000   ; qtot 381.975555
14743         ho    525    ccc     H8  14743 0.51297200   1.008000   ; qtot 382.488527
14744         h1    525    ccc     H9  14744 0.05653400   1.008000   ; qtot 382.545061
14745         h1    525    ccc    H10  14745 0.05653400   1.008000   ; qtot 382.601595
14746         oh    525    ccc     O5  14746 -0.84113600  16.000000   ; qtot 381.760459
14747         ho    525    ccc    H11  14747 0.51201600   1.008000   ; qtot 382.272475
14748         os    525    ccc     O6  14748 -0.26013600  16.000000   ; qtot 382.012339
; residue  526 ccc rtp ccc q 0.0
14749         c3    526    ccc     C1  14749 -0.33178800  12.010000   ; qtot 381.680551
14750         c3    526    ccc     C2  14750 0.30606500  12.010000   ; qtot 381.986616
14751         h1    526    ccc     H1  14751 0.11662300   1.008000   ; qtot 382.103239
14752         h1    526    ccc     H2  14752 0.11526800   1.008000   ; qtot 382.218507
14753         c3    526    ccc     C3  14753 0.15592700  12.010000   ; qtot 382.374434
14754         c3    526    ccc     C4  14754 0.28383300  12.010000   ; qtot 382.658267
14755         c3    526    ccc     C5  14755 0.32403300  12.010000   ; qtot 382.982300
14756         h1    526    ccc     H3  14756 0.13386900   1.008000   ; qtot 383.116169
14757         h1    526    ccc     H4  14757 0.10146700   1.008000   ; qtot 383.217636
14758         h2    526    ccc     H5  14758 0.10960400   1.008000   ; qtot 383.327240
14759         os    526    ccc     O1  14759 -0.28650000  16.000000   ; qtot 383.040740
14760         oh    526    ccc     O2  14760 -0.86012500  16.000000   ; qtot 382.180615
14761         oh    526    ccc     O3  14761 -0.83772800  16.000000   ; qtot 381.342887
14762         oh    526    ccc     O4  14762 -0.77449700  16.000000   ; qtot 380.568390
14763         c3    526    ccc     C6  14763 0.37576500  12.010000   ; qtot 380.944155
14764         ho    526    ccc     H6  14764 0.53656000   1.008000   ; qtot 381.480715
14765         ho    526    ccc     H7  14765 0.49492100   1.008000   ; qtot 381.975636
14766         ho    526    ccc     H8  14766 0.51297200   1.008000   ; qtot 382.488608
14767         h1    526    ccc     H9  14767 0.05653400   1.008000   ; qtot 382.545142
14768         h1    526    ccc    H10  14768 0.05653400   1.008000   ; qtot 382.601676
14769         oh    526    ccc     O5  14769 -0.84113600  16.000000   ; qtot 381.760540
14770         ho    526    ccc    H11  14770 0.51201600   1.008000   ; qtot 382.272556
14771         os    526    ccc     O6  14771 -0.26013600  16.000000   ; qtot 382.012420
; residue  527 ccc rtp ccc q 0.0
14772         c3    527    ccc     C1  14772 -0.33178800  12.010000   ; qtot 381.680632
14773         c3    527    ccc     C2  14773 0.30606500  12.010000   ; qtot 381.986697
14774         h1    527    ccc     H1  14774 0.11662300   1.008000   ; qtot 382.103320
14775         h1    527    ccc     H2  14775 0.11526800   1.008000   ; qtot 382.218588
14776         c3    527    ccc     C3  14776 0.15592700  12.010000   ; qtot 382.374515
14777         c3    527    ccc     C4  14777 0.28383300  12.010000   ; qtot 382.658348
14778         c3    527    ccc     C5  14778 0.32403300  12.010000   ; qtot 382.982381
14779         h1    527    ccc     H3  14779 0.13386900   1.008000   ; qtot 383.116250
14780         h1    527    ccc     H4  14780 0.10146700   1.008000   ; qtot 383.217717
14781         h2    527    ccc     H5  14781 0.10960400   1.008000   ; qtot 383.327321
14782         os    527    ccc     O1  14782 -0.28650000  16.000000   ; qtot 383.040821
14783         oh    527    ccc     O2  14783 -0.86012500  16.000000   ; qtot 382.180696
14784         oh    527    ccc     O3  14784 -0.83772800  16.000000   ; qtot 381.342968
14785         oh    527    ccc     O4  14785 -0.77449700  16.000000   ; qtot 380.568471
14786         c3    527    ccc     C6  14786 0.37576500  12.010000   ; qtot 380.944236
14787         ho    527    ccc     H6  14787 0.53656000   1.008000   ; qtot 381.480796
14788         ho    527    ccc     H7  14788 0.49492100   1.008000   ; qtot 381.975717
14789         ho    527    ccc     H8  14789 0.51297200   1.008000   ; qtot 382.488689
14790         h1    527    ccc     H9  14790 0.05653400   1.008000   ; qtot 382.545223
14791         h1    527    ccc    H10  14791 0.05653400   1.008000   ; qtot 382.601757
14792         oh    527    ccc     O5  14792 -0.84113600  16.000000   ; qtot 381.760621
14793         ho    527    ccc    H11  14793 0.51201600   1.008000   ; qtot 382.272637
14794         os    527    ccc     O6  14794 -0.26013600  16.000000   ; qtot 382.012501
; residue  528 ccc rtp ccc q 0.0
14795         c3    528    ccc     C1  14795 -0.33178800  12.010000   ; qtot 381.680713
14796         c3    528    ccc     C2  14796 0.30606500  12.010000   ; qtot 381.986778
14797         h1    528    ccc     H1  14797 0.11662300   1.008000   ; qtot 382.103401
14798         h1    528    ccc     H2  14798 0.11526800   1.008000   ; qtot 382.218669
14799         c3    528    ccc     C3  14799 0.15592700  12.010000   ; qtot 382.374596
14800         c3    528    ccc     C4  14800 0.28383300  12.010000   ; qtot 382.658429
14801         c3    528    ccc     C5  14801 0.32403300  12.010000   ; qtot 382.982462
14802         h1    528    ccc     H3  14802 0.13386900   1.008000   ; qtot 383.116331
14803         h1    528    ccc     H4  14803 0.10146700   1.008000   ; qtot 383.217798
14804         h2    528    ccc     H5  14804 0.10960400   1.008000   ; qtot 383.327402
14805         os    528    ccc     O1  14805 -0.28650000  16.000000   ; qtot 383.040902
14806         oh    528    ccc     O2  14806 -0.86012500  16.000000   ; qtot 382.180777
14807         oh    528    ccc     O3  14807 -0.83772800  16.000000   ; qtot 381.343049
14808         oh    528    ccc     O4  14808 -0.77449700  16.000000   ; qtot 380.568552
14809         c3    528    ccc     C6  14809 0.37576500  12.010000   ; qtot 380.944317
14810         ho    528    ccc     H6  14810 0.53656000   1.008000   ; qtot 381.480877
14811         ho    528    ccc     H7  14811 0.49492100   1.008000   ; qtot 381.975798
14812         ho    528    ccc     H8  14812 0.51297200   1.008000   ; qtot 382.488770
14813         h1    528    ccc     H9  14813 0.05653400   1.008000   ; qtot 382.545304
14814         h1    528    ccc    H10  14814 0.05653400   1.008000   ; qtot 382.601838
14815         oh    528    ccc     O5  14815 -0.84113600  16.000000   ; qtot 381.760702
14816         ho    528    ccc    H11  14816 0.51201600   1.008000   ; qtot 382.272718
14817         os    528    ccc     O6  14817 -0.26013600  16.000000   ; qtot 382.012582
; residue  529 ccc rtp ccc q 0.0
14818         c3    529    ccc     C1  14818 -0.33178800  12.010000   ; qtot 381.680794
14819         c3    529    ccc     C2  14819 0.30606500  12.010000   ; qtot 381.986859
14820         h1    529    ccc     H1  14820 0.11662300   1.008000   ; qtot 382.103482
14821         h1    529    ccc     H2  14821 0.11526800   1.008000   ; qtot 382.218750
14822         c3    529    ccc     C3  14822 0.15592700  12.010000   ; qtot 382.374677
14823         c3    529    ccc     C4  14823 0.28383300  12.010000   ; qtot 382.658510
14824         c3    529    ccc     C5  14824 0.32403300  12.010000   ; qtot 382.982543
14825         h1    529    ccc     H3  14825 0.13386900   1.008000   ; qtot 383.116412
14826         h1    529    ccc     H4  14826 0.10146700   1.008000   ; qtot 383.217879
14827         h2    529    ccc     H5  14827 0.10960400   1.008000   ; qtot 383.327483
14828         os    529    ccc     O1  14828 -0.28650000  16.000000   ; qtot 383.040983
14829         oh    529    ccc     O2  14829 -0.86012500  16.000000   ; qtot 382.180858
14830         oh    529    ccc     O3  14830 -0.83772800  16.000000   ; qtot 381.343130
14831         oh    529    ccc     O4  14831 -0.77449700  16.000000   ; qtot 380.568633
14832         c3    529    ccc     C6  14832 0.37576500  12.010000   ; qtot 380.944398
14833         ho    529    ccc     H6  14833 0.53656000   1.008000   ; qtot 381.480958
14834         ho    529    ccc     H7  14834 0.49492100   1.008000   ; qtot 381.975879
14835         ho    529    ccc     H8  14835 0.51297200   1.008000   ; qtot 382.488851
14836         h1    529    ccc     H9  14836 0.05653400   1.008000   ; qtot 382.545385
14837         h1    529    ccc    H10  14837 0.05653400   1.008000   ; qtot 382.601919
14838         oh    529    ccc     O5  14838 -0.84113600  16.000000   ; qtot 381.760783
14839         ho    529    ccc    H11  14839 0.51201600   1.008000   ; qtot 382.272799
14840         os    529    ccc     O6  14840 -0.26013600  16.000000   ; qtot 382.012663
; residue  530 ccc rtp ccc q 0.0
14841         c3    530    ccc     C1  14841 -0.33178800  12.010000   ; qtot 381.680875
14842         c3    530    ccc     C2  14842 0.30606500  12.010000   ; qtot 381.986940
14843         h1    530    ccc     H1  14843 0.11662300   1.008000   ; qtot 382.103563
14844         h1    530    ccc     H2  14844 0.11526800   1.008000   ; qtot 382.218831
14845         c3    530    ccc     C3  14845 0.15592700  12.010000   ; qtot 382.374758
14846         c3    530    ccc     C4  14846 0.28383300  12.010000   ; qtot 382.658591
14847         c3    530    ccc     C5  14847 0.32403300  12.010000   ; qtot 382.982624
14848         h1    530    ccc     H3  14848 0.13386900   1.008000   ; qtot 383.116493
14849         h1    530    ccc     H4  14849 0.10146700   1.008000   ; qtot 383.217960
14850         h2    530    ccc     H5  14850 0.10960400   1.008000   ; qtot 383.327564
14851         os    530    ccc     O1  14851 -0.28650000  16.000000   ; qtot 383.041064
14852         oh    530    ccc     O2  14852 -0.86012500  16.000000   ; qtot 382.180939
14853         oh    530    ccc     O3  14853 -0.83772800  16.000000   ; qtot 381.343211
14854         oh    530    ccc     O4  14854 -0.77449700  16.000000   ; qtot 380.568714
14855         c3    530    ccc     C6  14855 0.37576500  12.010000   ; qtot 380.944479
14856         ho    530    ccc     H6  14856 0.53656000   1.008000   ; qtot 381.481039
14857         ho    530    ccc     H7  14857 0.49492100   1.008000   ; qtot 381.975960
14858         ho    530    ccc     H8  14858 0.51297200   1.008000   ; qtot 382.488932
14859         h1    530    ccc     H9  14859 0.05653400   1.008000   ; qtot 382.545466
14860         h1    530    ccc    H10  14860 0.05653400   1.008000   ; qtot 382.602000
14861         oh    530    ccc     O5  14861 -0.84113600  16.000000   ; qtot 381.760864
14862         ho    530    ccc    H11  14862 0.51201600   1.008000   ; qtot 382.272880
14863         os    530    ccc     O6  14863 -0.26013600  16.000000   ; qtot 382.012744
; residue  531 ccc rtp ccc q 0.0
14864         c3    531    ccc     C1  14864 -0.33178800  12.010000   ; qtot 381.680956
14865         c3    531    ccc     C2  14865 0.30606500  12.010000   ; qtot 381.987021
14866         h1    531    ccc     H1  14866 0.11662300   1.008000   ; qtot 382.103644
14867         h1    531    ccc     H2  14867 0.11526800   1.008000   ; qtot 382.218912
14868         c3    531    ccc     C3  14868 0.15592700  12.010000   ; qtot 382.374839
14869         c3    531    ccc     C4  14869 0.28383300  12.010000   ; qtot 382.658672
14870         c3    531    ccc     C5  14870 0.32403300  12.010000   ; qtot 382.982705
14871         h1    531    ccc     H3  14871 0.13386900   1.008000   ; qtot 383.116574
14872         h1    531    ccc     H4  14872 0.10146700   1.008000   ; qtot 383.218041
14873         h2    531    ccc     H5  14873 0.10960400   1.008000   ; qtot 383.327645
14874         os    531    ccc     O1  14874 -0.28650000  16.000000   ; qtot 383.041145
14875         oh    531    ccc     O2  14875 -0.86012500  16.000000   ; qtot 382.181020
14876         oh    531    ccc     O3  14876 -0.83772800  16.000000   ; qtot 381.343292
14877         oh    531    ccc     O4  14877 -0.77449700  16.000000   ; qtot 380.568795
14878         c3    531    ccc     C6  14878 0.37576500  12.010000   ; qtot 380.944560
14879         ho    531    ccc     H6  14879 0.53656000   1.008000   ; qtot 381.481120
14880         ho    531    ccc     H7  14880 0.49492100   1.008000   ; qtot 381.976041
14881         ho    531    ccc     H8  14881 0.51297200   1.008000   ; qtot 382.489013
14882         h1    531    ccc     H9  14882 0.05653400   1.008000   ; qtot 382.545547
14883         h1    531    ccc    H10  14883 0.05653400   1.008000   ; qtot 382.602081
14884         oh    531    ccc     O5  14884 -0.84113600  16.000000   ; qtot 381.760945
14885         ho    531    ccc    H11  14885 0.51201600   1.008000   ; qtot 382.272961
14886         os    531    ccc     O6  14886 -0.26013600  16.000000   ; qtot 382.012825
; residue  532 ccc rtp ccc q 0.0
14887         c3    532    ccc     C1  14887 -0.33178800  12.010000   ; qtot 381.681037
14888         c3    532    ccc     C2  14888 0.30606500  12.010000   ; qtot 381.987102
14889         h1    532    ccc     H1  14889 0.11662300   1.008000   ; qtot 382.103725
14890         h1    532    ccc     H2  14890 0.11526800   1.008000   ; qtot 382.218993
14891         c3    532    ccc     C3  14891 0.15592700  12.010000   ; qtot 382.374920
14892         c3    532    ccc     C4  14892 0.28383300  12.010000   ; qtot 382.658753
14893         c3    532    ccc     C5  14893 0.32403300  12.010000   ; qtot 382.982786
14894         h1    532    ccc     H3  14894 0.13386900   1.008000   ; qtot 383.116655
14895         h1    532    ccc     H4  14895 0.10146700   1.008000   ; qtot 383.218122
14896         h2    532    ccc     H5  14896 0.10960400   1.008000   ; qtot 383.327726
14897         os    532    ccc     O1  14897 -0.28650000  16.000000   ; qtot 383.041226
14898         oh    532    ccc     O2  14898 -0.86012500  16.000000   ; qtot 382.181101
14899         oh    532    ccc     O3  14899 -0.83772800  16.000000   ; qtot 381.343373
14900         oh    532    ccc     O4  14900 -0.77449700  16.000000   ; qtot 380.568876
14901         c3    532    ccc     C6  14901 0.37576500  12.010000   ; qtot 380.944641
14902         ho    532    ccc     H6  14902 0.53656000   1.008000   ; qtot 381.481201
14903         ho    532    ccc     H7  14903 0.49492100   1.008000   ; qtot 381.976122
14904         ho    532    ccc     H8  14904 0.51297200   1.008000   ; qtot 382.489094
14905         h1    532    ccc     H9  14905 0.05653400   1.008000   ; qtot 382.545628
14906         h1    532    ccc    H10  14906 0.05653400   1.008000   ; qtot 382.602162
14907         oh    532    ccc     O5  14907 -0.84113600  16.000000   ; qtot 381.761026
14908         ho    532    ccc    H11  14908 0.51201600   1.008000   ; qtot 382.273042
14909         os    532    ccc     O6  14909 -0.26013600  16.000000   ; qtot 382.012906
; residue  533 ccc rtp ccc q 0.0
14910         c3    533    ccc     C1  14910 -0.33178800  12.010000   ; qtot 381.681118
14911         c3    533    ccc     C2  14911 0.30606500  12.010000   ; qtot 381.987183
14912         h1    533    ccc     H1  14912 0.11662300   1.008000   ; qtot 382.103806
14913         h1    533    ccc     H2  14913 0.11526800   1.008000   ; qtot 382.219074
14914         c3    533    ccc     C3  14914 0.15592700  12.010000   ; qtot 382.375001
14915         c3    533    ccc     C4  14915 0.28383300  12.010000   ; qtot 382.658834
14916         c3    533    ccc     C5  14916 0.32403300  12.010000   ; qtot 382.982867
14917         h1    533    ccc     H3  14917 0.13386900   1.008000   ; qtot 383.116736
14918         h1    533    ccc     H4  14918 0.10146700   1.008000   ; qtot 383.218203
14919         h2    533    ccc     H5  14919 0.10960400   1.008000   ; qtot 383.327807
14920         os    533    ccc     O1  14920 -0.28650000  16.000000   ; qtot 383.041307
14921         oh    533    ccc     O2  14921 -0.86012500  16.000000   ; qtot 382.181182
14922         oh    533    ccc     O3  14922 -0.83772800  16.000000   ; qtot 381.343454
14923         oh    533    ccc     O4  14923 -0.77449700  16.000000   ; qtot 380.568957
14924         c3    533    ccc     C6  14924 0.37576500  12.010000   ; qtot 380.944722
14925         ho    533    ccc     H6  14925 0.53656000   1.008000   ; qtot 381.481282
14926         ho    533    ccc     H7  14926 0.49492100   1.008000   ; qtot 381.976203
14927         ho    533    ccc     H8  14927 0.51297200   1.008000   ; qtot 382.489175
14928         h1    533    ccc     H9  14928 0.05653400   1.008000   ; qtot 382.545709
14929         h1    533    ccc    H10  14929 0.05653400   1.008000   ; qtot 382.602243
14930         oh    533    ccc     O5  14930 -0.84113600  16.000000   ; qtot 381.761107
14931         ho    533    ccc    H11  14931 0.51201600   1.008000   ; qtot 382.273123
14932         os    533    ccc     O6  14932 -0.26013600  16.000000   ; qtot 382.012987
; residue  534 ccc rtp ccc q 0.0
14933         c3    534    ccc     C1  14933 -0.33178800  12.010000   ; qtot 381.681199
14934         c3    534    ccc     C2  14934 0.30606500  12.010000   ; qtot 381.987264
14935         h1    534    ccc     H1  14935 0.11662300   1.008000   ; qtot 382.103887
14936         h1    534    ccc     H2  14936 0.11526800   1.008000   ; qtot 382.219155
14937         c3    534    ccc     C3  14937 0.15592700  12.010000   ; qtot 382.375082
14938         c3    534    ccc     C4  14938 0.28383300  12.010000   ; qtot 382.658915
14939         c3    534    ccc     C5  14939 0.32403300  12.010000   ; qtot 382.982948
14940         h1    534    ccc     H3  14940 0.13386900   1.008000   ; qtot 383.116817
14941         h1    534    ccc     H4  14941 0.10146700   1.008000   ; qtot 383.218284
14942         h2    534    ccc     H5  14942 0.10960400   1.008000   ; qtot 383.327888
14943         os    534    ccc     O1  14943 -0.28650000  16.000000   ; qtot 383.041388
14944         oh    534    ccc     O2  14944 -0.86012500  16.000000   ; qtot 382.181263
14945         oh    534    ccc     O3  14945 -0.83772800  16.000000   ; qtot 381.343535
14946         oh    534    ccc     O4  14946 -0.77449700  16.000000   ; qtot 380.569038
14947         c3    534    ccc     C6  14947 0.37576500  12.010000   ; qtot 380.944803
14948         ho    534    ccc     H6  14948 0.53656000   1.008000   ; qtot 381.481363
14949         ho    534    ccc     H7  14949 0.49492100   1.008000   ; qtot 381.976284
14950         ho    534    ccc     H8  14950 0.51297200   1.008000   ; qtot 382.489256
14951         h1    534    ccc     H9  14951 0.05653400   1.008000   ; qtot 382.545790
14952         h1    534    ccc    H10  14952 0.05653400   1.008000   ; qtot 382.602324
14953         oh    534    ccc     O5  14953 -0.84113600  16.000000   ; qtot 381.761188
14954         ho    534    ccc    H11  14954 0.51201600   1.008000   ; qtot 382.273204
14955         os    534    ccc     O6  14955 -0.26013600  16.000000   ; qtot 382.013068
; residue  535 ccc rtp ccc q 0.0
14956         c3    535    ccc     C1  14956 -0.33178800  12.010000   ; qtot 381.681280
14957         c3    535    ccc     C2  14957 0.30606500  12.010000   ; qtot 381.987345
14958         h1    535    ccc     H1  14958 0.11662300   1.008000   ; qtot 382.103968
14959         h1    535    ccc     H2  14959 0.11526800   1.008000   ; qtot 382.219236
14960         c3    535    ccc     C3  14960 0.15592700  12.010000   ; qtot 382.375163
14961         c3    535    ccc     C4  14961 0.28383300  12.010000   ; qtot 382.658996
14962         c3    535    ccc     C5  14962 0.32403300  12.010000   ; qtot 382.983029
14963         h1    535    ccc     H3  14963 0.13386900   1.008000   ; qtot 383.116898
14964         h1    535    ccc     H4  14964 0.10146700   1.008000   ; qtot 383.218365
14965         h2    535    ccc     H5  14965 0.10960400   1.008000   ; qtot 383.327969
14966         os    535    ccc     O1  14966 -0.28650000  16.000000   ; qtot 383.041469
14967         oh    535    ccc     O2  14967 -0.86012500  16.000000   ; qtot 382.181344
14968         oh    535    ccc     O3  14968 -0.83772800  16.000000   ; qtot 381.343616
14969         oh    535    ccc     O4  14969 -0.77449700  16.000000   ; qtot 380.569119
14970         c3    535    ccc     C6  14970 0.37576500  12.010000   ; qtot 380.944884
14971         ho    535    ccc     H6  14971 0.53656000   1.008000   ; qtot 381.481444
14972         ho    535    ccc     H7  14972 0.49492100   1.008000   ; qtot 381.976365
14973         ho    535    ccc     H8  14973 0.51297200   1.008000   ; qtot 382.489337
14974         h1    535    ccc     H9  14974 0.05653400   1.008000   ; qtot 382.545871
14975         h1    535    ccc    H10  14975 0.05653400   1.008000   ; qtot 382.602405
14976         oh    535    ccc     O5  14976 -0.84113600  16.000000   ; qtot 381.761269
14977         ho    535    ccc    H11  14977 0.51201600   1.008000   ; qtot 382.273285
14978         os    535    ccc     O6  14978 -0.26013600  16.000000   ; qtot 382.013149
; residue  536 ccc rtp ccc q 0.0
14979         c3    536    ccc     C1  14979 -0.33178800  12.010000   ; qtot 381.681361
14980         c3    536    ccc     C2  14980 0.30606500  12.010000   ; qtot 381.987426
14981         h1    536    ccc     H1  14981 0.11662300   1.008000   ; qtot 382.104049
14982         h1    536    ccc     H2  14982 0.11526800   1.008000   ; qtot 382.219317
14983         c3    536    ccc     C3  14983 0.15592700  12.010000   ; qtot 382.375244
14984         c3    536    ccc     C4  14984 0.28383300  12.010000   ; qtot 382.659077
14985         c3    536    ccc     C5  14985 0.32403300  12.010000   ; qtot 382.983110
14986         h1    536    ccc     H3  14986 0.13386900   1.008000   ; qtot 383.116979
14987         h1    536    ccc     H4  14987 0.10146700   1.008000   ; qtot 383.218446
14988         h2    536    ccc     H5  14988 0.10960400   1.008000   ; qtot 383.328050
14989         os    536    ccc     O1  14989 -0.28650000  16.000000   ; qtot 383.041550
14990         oh    536    ccc     O2  14990 -0.86012500  16.000000   ; qtot 382.181425
14991         oh    536    ccc     O3  14991 -0.83772800  16.000000   ; qtot 381.343697
14992         oh    536    ccc     O4  14992 -0.77449700  16.000000   ; qtot 380.569200
14993         c3    536    ccc     C6  14993 0.37576500  12.010000   ; qtot 380.944965
14994         ho    536    ccc     H6  14994 0.53656000   1.008000   ; qtot 381.481525
14995         ho    536    ccc     H7  14995 0.49492100   1.008000   ; qtot 381.976446
14996         ho    536    ccc     H8  14996 0.51297200   1.008000   ; qtot 382.489418
14997         h1    536    ccc     H9  14997 0.05653400   1.008000   ; qtot 382.545952
14998         h1    536    ccc    H10  14998 0.05653400   1.008000   ; qtot 382.602486
14999         oh    536    ccc     O5  14999 -0.84113600  16.000000   ; qtot 381.761350
15000         ho    536    ccc    H11  15000 0.51201600   1.008000   ; qtot 382.273366
15001         os    536    ccc     O6  15001 -0.26013600  16.000000   ; qtot 382.013230
; residue  537 ccc rtp ccc q 0.0
15002         c3    537    ccc     C1  15002 -0.33178800  12.010000   ; qtot 381.681442
15003         c3    537    ccc     C2  15003 0.30606500  12.010000   ; qtot 381.987507
15004         h1    537    ccc     H1  15004 0.11662300   1.008000   ; qtot 382.104130
15005         h1    537    ccc     H2  15005 0.11526800   1.008000   ; qtot 382.219398
15006         c3    537    ccc     C3  15006 0.15592700  12.010000   ; qtot 382.375325
15007         c3    537    ccc     C4  15007 0.28383300  12.010000   ; qtot 382.659158
15008         c3    537    ccc     C5  15008 0.32403300  12.010000   ; qtot 382.983191
15009         h1    537    ccc     H3  15009 0.13386900   1.008000   ; qtot 383.117060
15010         h1    537    ccc     H4  15010 0.10146700   1.008000   ; qtot 383.218527
15011         h2    537    ccc     H5  15011 0.10960400   1.008000   ; qtot 383.328131
15012         os    537    ccc     O1  15012 -0.28650000  16.000000   ; qtot 383.041631
15013         oh    537    ccc     O2  15013 -0.86012500  16.000000   ; qtot 382.181506
15014         oh    537    ccc     O3  15014 -0.83772800  16.000000   ; qtot 381.343778
15015         oh    537    ccc     O4  15015 -0.77449700  16.000000   ; qtot 380.569281
15016         c3    537    ccc     C6  15016 0.37576500  12.010000   ; qtot 380.945046
15017         ho    537    ccc     H6  15017 0.53656000   1.008000   ; qtot 381.481606
15018         ho    537    ccc     H7  15018 0.49492100   1.008000   ; qtot 381.976527
15019         ho    537    ccc     H8  15019 0.51297200   1.008000   ; qtot 382.489499
15020         h1    537    ccc     H9  15020 0.05653400   1.008000   ; qtot 382.546033
15021         h1    537    ccc    H10  15021 0.05653400   1.008000   ; qtot 382.602567
15022         oh    537    ccc     O5  15022 -0.84113600  16.000000   ; qtot 381.761431
15023         ho    537    ccc    H11  15023 0.51201600   1.008000   ; qtot 382.273447
15024         os    537    ccc     O6  15024 -0.26013600  16.000000   ; qtot 382.013311
; residue  538 ccc rtp ccc q 0.0
15025         c3    538    ccc     C1  15025 -0.33178800  12.010000   ; qtot 381.681523
15026         c3    538    ccc     C2  15026 0.30606500  12.010000   ; qtot 381.987588
15027         h1    538    ccc     H1  15027 0.11662300   1.008000   ; qtot 382.104211
15028         h1    538    ccc     H2  15028 0.11526800   1.008000   ; qtot 382.219479
15029         c3    538    ccc     C3  15029 0.15592700  12.010000   ; qtot 382.375406
15030         c3    538    ccc     C4  15030 0.28383300  12.010000   ; qtot 382.659239
15031         c3    538    ccc     C5  15031 0.32403300  12.010000   ; qtot 382.983272
15032         h1    538    ccc     H3  15032 0.13386900   1.008000   ; qtot 383.117141
15033         h1    538    ccc     H4  15033 0.10146700   1.008000   ; qtot 383.218608
15034         h2    538    ccc     H5  15034 0.10960400   1.008000   ; qtot 383.328212
15035         os    538    ccc     O1  15035 -0.28650000  16.000000   ; qtot 383.041712
15036         oh    538    ccc     O2  15036 -0.86012500  16.000000   ; qtot 382.181587
15037         oh    538    ccc     O3  15037 -0.83772800  16.000000   ; qtot 381.343859
15038         oh    538    ccc     O4  15038 -0.77449700  16.000000   ; qtot 380.569362
15039         c3    538    ccc     C6  15039 0.37576500  12.010000   ; qtot 380.945127
15040         ho    538    ccc     H6  15040 0.53656000   1.008000   ; qtot 381.481687
15041         ho    538    ccc     H7  15041 0.49492100   1.008000   ; qtot 381.976608
15042         ho    538    ccc     H8  15042 0.51297200   1.008000   ; qtot 382.489580
15043         h1    538    ccc     H9  15043 0.05653400   1.008000   ; qtot 382.546114
15044         h1    538    ccc    H10  15044 0.05653400   1.008000   ; qtot 382.602648
15045         oh    538    ccc     O5  15045 -0.84113600  16.000000   ; qtot 381.761512
15046         ho    538    ccc    H11  15046 0.51201600   1.008000   ; qtot 382.273528
15047         os    538    ccc     O6  15047 -0.26013600  16.000000   ; qtot 382.013392
; residue  539 ccc rtp ccc q 0.0
15048         c3    539    ccc     C1  15048 -0.33178800  12.010000   ; qtot 381.681604
15049         c3    539    ccc     C2  15049 0.30606500  12.010000   ; qtot 381.987669
15050         h1    539    ccc     H1  15050 0.11662300   1.008000   ; qtot 382.104292
15051         h1    539    ccc     H2  15051 0.11526800   1.008000   ; qtot 382.219560
15052         c3    539    ccc     C3  15052 0.15592700  12.010000   ; qtot 382.375487
15053         c3    539    ccc     C4  15053 0.28383300  12.010000   ; qtot 382.659320
15054         c3    539    ccc     C5  15054 0.32403300  12.010000   ; qtot 382.983353
15055         h1    539    ccc     H3  15055 0.13386900   1.008000   ; qtot 383.117222
15056         h1    539    ccc     H4  15056 0.10146700   1.008000   ; qtot 383.218689
15057         h2    539    ccc     H5  15057 0.10960400   1.008000   ; qtot 383.328293
15058         os    539    ccc     O1  15058 -0.28650000  16.000000   ; qtot 383.041793
15059         oh    539    ccc     O2  15059 -0.86012500  16.000000   ; qtot 382.181668
15060         oh    539    ccc     O3  15060 -0.83772800  16.000000   ; qtot 381.343940
15061         oh    539    ccc     O4  15061 -0.77449700  16.000000   ; qtot 380.569443
15062         c3    539    ccc     C6  15062 0.37576500  12.010000   ; qtot 380.945208
15063         ho    539    ccc     H6  15063 0.53656000   1.008000   ; qtot 381.481768
15064         ho    539    ccc     H7  15064 0.49492100   1.008000   ; qtot 381.976689
15065         ho    539    ccc     H8  15065 0.51297200   1.008000   ; qtot 382.489661
15066         h1    539    ccc     H9  15066 0.05653400   1.008000   ; qtot 382.546195
15067         h1    539    ccc    H10  15067 0.05653400   1.008000   ; qtot 382.602729
15068         oh    539    ccc     O5  15068 -0.84113600  16.000000   ; qtot 381.761593
15069         ho    539    ccc    H11  15069 0.51201600   1.008000   ; qtot 382.273609
15070         os    539    ccc     O6  15070 -0.26013600  16.000000   ; qtot 382.013473
; residue  540 ccc rtp ccc q 0.0
15071         c3    540    ccc     C1  15071 -0.33178800  12.010000   ; qtot 381.681685
15072         c3    540    ccc     C2  15072 0.30606500  12.010000   ; qtot 381.987750
15073         h1    540    ccc     H1  15073 0.11662300   1.008000   ; qtot 382.104373
15074         h1    540    ccc     H2  15074 0.11526800   1.008000   ; qtot 382.219641
15075         c3    540    ccc     C3  15075 0.15592700  12.010000   ; qtot 382.375568
15076         c3    540    ccc     C4  15076 0.28383300  12.010000   ; qtot 382.659401
15077         c3    540    ccc     C5  15077 0.32403300  12.010000   ; qtot 382.983434
15078         h1    540    ccc     H3  15078 0.13386900   1.008000   ; qtot 383.117303
15079         h1    540    ccc     H4  15079 0.10146700   1.008000   ; qtot 383.218770
15080         h2    540    ccc     H5  15080 0.10960400   1.008000   ; qtot 383.328374
15081         os    540    ccc     O1  15081 -0.28650000  16.000000   ; qtot 383.041874
15082         oh    540    ccc     O2  15082 -0.86012500  16.000000   ; qtot 382.181749
15083         oh    540    ccc     O3  15083 -0.83772800  16.000000   ; qtot 381.344021
15084         oh    540    ccc     O4  15084 -0.77449700  16.000000   ; qtot 380.569524
15085         c3    540    ccc     C6  15085 0.37576500  12.010000   ; qtot 380.945289
15086         ho    540    ccc     H6  15086 0.53656000   1.008000   ; qtot 381.481849
15087         ho    540    ccc     H7  15087 0.49492100   1.008000   ; qtot 381.976770
15088         ho    540    ccc     H8  15088 0.51297200   1.008000   ; qtot 382.489742
15089         h1    540    ccc     H9  15089 0.05653400   1.008000   ; qtot 382.546276
15090         h1    540    ccc    H10  15090 0.05653400   1.008000   ; qtot 382.602810
15091         oh    540    ccc     O5  15091 -0.84113600  16.000000   ; qtot 381.761674
15092         ho    540    ccc    H11  15092 0.51201600   1.008000   ; qtot 382.273690
15093         os    540    ccc     O6  15093 -0.26013600  16.000000   ; qtot 382.013554
; residue  541 ccc rtp ccc q 0.0
15094         c3    541    ccc     C1  15094 -0.33178800  12.010000   ; qtot 381.681766
15095         c3    541    ccc     C2  15095 0.30606500  12.010000   ; qtot 381.987831
15096         h1    541    ccc     H1  15096 0.11662300   1.008000   ; qtot 382.104454
15097         h1    541    ccc     H2  15097 0.11526800   1.008000   ; qtot 382.219722
15098         c3    541    ccc     C3  15098 0.15592700  12.010000   ; qtot 382.375649
15099         c3    541    ccc     C4  15099 0.28383300  12.010000   ; qtot 382.659482
15100         c3    541    ccc     C5  15100 0.32403300  12.010000   ; qtot 382.983515
15101         h1    541    ccc     H3  15101 0.13386900   1.008000   ; qtot 383.117384
15102         h1    541    ccc     H4  15102 0.10146700   1.008000   ; qtot 383.218851
15103         h2    541    ccc     H5  15103 0.10960400   1.008000   ; qtot 383.328455
15104         os    541    ccc     O1  15104 -0.28650000  16.000000   ; qtot 383.041955
15105         oh    541    ccc     O2  15105 -0.86012500  16.000000   ; qtot 382.181830
15106         oh    541    ccc     O3  15106 -0.83772800  16.000000   ; qtot 381.344102
15107         oh    541    ccc     O4  15107 -0.77449700  16.000000   ; qtot 380.569605
15108         c3    541    ccc     C6  15108 0.37576500  12.010000   ; qtot 380.945370
15109         ho    541    ccc     H6  15109 0.53656000   1.008000   ; qtot 381.481930
15110         ho    541    ccc     H7  15110 0.49492100   1.008000   ; qtot 381.976851
15111         ho    541    ccc     H8  15111 0.51297200   1.008000   ; qtot 382.489823
15112         h1    541    ccc     H9  15112 0.05653400   1.008000   ; qtot 382.546357
15113         h1    541    ccc    H10  15113 0.05653400   1.008000   ; qtot 382.602891
15114         oh    541    ccc     O5  15114 -0.84113600  16.000000   ; qtot 381.761755
15115         ho    541    ccc    H11  15115 0.51201600   1.008000   ; qtot 382.273771
15116         os    541    ccc     O6  15116 -0.26013600  16.000000   ; qtot 382.013635
; residue  542 ccc rtp ccc q 0.0
15117         c3    542    ccc     C1  15117 -0.33178800  12.010000   ; qtot 381.681847
15118         c3    542    ccc     C2  15118 0.30606500  12.010000   ; qtot 381.987912
15119         h1    542    ccc     H1  15119 0.11662300   1.008000   ; qtot 382.104535
15120         h1    542    ccc     H2  15120 0.11526800   1.008000   ; qtot 382.219803
15121         c3    542    ccc     C3  15121 0.15592700  12.010000   ; qtot 382.375730
15122         c3    542    ccc     C4  15122 0.28383300  12.010000   ; qtot 382.659563
15123         c3    542    ccc     C5  15123 0.32403300  12.010000   ; qtot 382.983596
15124         h1    542    ccc     H3  15124 0.13386900   1.008000   ; qtot 383.117465
15125         h1    542    ccc     H4  15125 0.10146700   1.008000   ; qtot 383.218932
15126         h2    542    ccc     H5  15126 0.10960400   1.008000   ; qtot 383.328536
15127         os    542    ccc     O1  15127 -0.28650000  16.000000   ; qtot 383.042036
15128         oh    542    ccc     O2  15128 -0.86012500  16.000000   ; qtot 382.181911
15129         oh    542    ccc     O3  15129 -0.83772800  16.000000   ; qtot 381.344183
15130         oh    542    ccc     O4  15130 -0.77449700  16.000000   ; qtot 380.569686
15131         c3    542    ccc     C6  15131 0.37576500  12.010000   ; qtot 380.945451
15132         ho    542    ccc     H6  15132 0.53656000   1.008000   ; qtot 381.482011
15133         ho    542    ccc     H7  15133 0.49492100   1.008000   ; qtot 381.976932
15134         ho    542    ccc     H8  15134 0.51297200   1.008000   ; qtot 382.489904
15135         h1    542    ccc     H9  15135 0.05653400   1.008000   ; qtot 382.546438
15136         h1    542    ccc    H10  15136 0.05653400   1.008000   ; qtot 382.602972
15137         oh    542    ccc     O5  15137 -0.84113600  16.000000   ; qtot 381.761836
15138         ho    542    ccc    H11  15138 0.51201600   1.008000   ; qtot 382.273852
15139         os    542    ccc     O6  15139 -0.26013600  16.000000   ; qtot 382.013716
; residue  543 ccc rtp ccc q 0.0
15140         c3    543    ccc     C1  15140 -0.33178800  12.010000   ; qtot 381.681928
15141         c3    543    ccc     C2  15141 0.30606500  12.010000   ; qtot 381.987993
15142         h1    543    ccc     H1  15142 0.11662300   1.008000   ; qtot 382.104616
15143         h1    543    ccc     H2  15143 0.11526800   1.008000   ; qtot 382.219884
15144         c3    543    ccc     C3  15144 0.15592700  12.010000   ; qtot 382.375811
15145         c3    543    ccc     C4  15145 0.28383300  12.010000   ; qtot 382.659644
15146         c3    543    ccc     C5  15146 0.32403300  12.010000   ; qtot 382.983677
15147         h1    543    ccc     H3  15147 0.13386900   1.008000   ; qtot 383.117546
15148         h1    543    ccc     H4  15148 0.10146700   1.008000   ; qtot 383.219013
15149         h2    543    ccc     H5  15149 0.10960400   1.008000   ; qtot 383.328617
15150         os    543    ccc     O1  15150 -0.28650000  16.000000   ; qtot 383.042117
15151         oh    543    ccc     O2  15151 -0.86012500  16.000000   ; qtot 382.181992
15152         oh    543    ccc     O3  15152 -0.83772800  16.000000   ; qtot 381.344264
15153         oh    543    ccc     O4  15153 -0.77449700  16.000000   ; qtot 380.569767
15154         c3    543    ccc     C6  15154 0.37576500  12.010000   ; qtot 380.945532
15155         ho    543    ccc     H6  15155 0.53656000   1.008000   ; qtot 381.482092
15156         ho    543    ccc     H7  15156 0.49492100   1.008000   ; qtot 381.977013
15157         ho    543    ccc     H8  15157 0.51297200   1.008000   ; qtot 382.489985
15158         h1    543    ccc     H9  15158 0.05653400   1.008000   ; qtot 382.546519
15159         h1    543    ccc    H10  15159 0.05653400   1.008000   ; qtot 382.603053
15160         oh    543    ccc     O5  15160 -0.84113600  16.000000   ; qtot 381.761917
15161         ho    543    ccc    H11  15161 0.51201600   1.008000   ; qtot 382.273933
15162         os    543    ccc     O6  15162 -0.26013600  16.000000   ; qtot 382.013797
; residue  544 ccc rtp ccc q 0.0
15163         c3    544    ccc     C1  15163 -0.33178800  12.010000   ; qtot 381.682009
15164         c3    544    ccc     C2  15164 0.30606500  12.010000   ; qtot 381.988074
15165         h1    544    ccc     H1  15165 0.11662300   1.008000   ; qtot 382.104697
15166         h1    544    ccc     H2  15166 0.11526800   1.008000   ; qtot 382.219965
15167         c3    544    ccc     C3  15167 0.15592700  12.010000   ; qtot 382.375892
15168         c3    544    ccc     C4  15168 0.28383300  12.010000   ; qtot 382.659725
15169         c3    544    ccc     C5  15169 0.32403300  12.010000   ; qtot 382.983758
15170         h1    544    ccc     H3  15170 0.13386900   1.008000   ; qtot 383.117627
15171         h1    544    ccc     H4  15171 0.10146700   1.008000   ; qtot 383.219094
15172         h2    544    ccc     H5  15172 0.10960400   1.008000   ; qtot 383.328698
15173         os    544    ccc     O1  15173 -0.28650000  16.000000   ; qtot 383.042198
15174         oh    544    ccc     O2  15174 -0.86012500  16.000000   ; qtot 382.182073
15175         oh    544    ccc     O3  15175 -0.83772800  16.000000   ; qtot 381.344345
15176         oh    544    ccc     O4  15176 -0.77449700  16.000000   ; qtot 380.569848
15177         c3    544    ccc     C6  15177 0.37576500  12.010000   ; qtot 380.945613
15178         ho    544    ccc     H6  15178 0.53656000   1.008000   ; qtot 381.482173
15179         ho    544    ccc     H7  15179 0.49492100   1.008000   ; qtot 381.977094
15180         ho    544    ccc     H8  15180 0.51297200   1.008000   ; qtot 382.490066
15181         h1    544    ccc     H9  15181 0.05653400   1.008000   ; qtot 382.546600
15182         h1    544    ccc    H10  15182 0.05653400   1.008000   ; qtot 382.603134
15183         oh    544    ccc     O5  15183 -0.84113600  16.000000   ; qtot 381.761998
15184         ho    544    ccc    H11  15184 0.51201600   1.008000   ; qtot 382.274014
15185         os    544    ccc     O6  15185 -0.26013600  16.000000   ; qtot 382.013878
; residue  545 ccc rtp ccc q 0.0
15186         c3    545    ccc     C1  15186 -0.33178800  12.010000   ; qtot 381.682090
15187         c3    545    ccc     C2  15187 0.30606500  12.010000   ; qtot 381.988155
15188         h1    545    ccc     H1  15188 0.11662300   1.008000   ; qtot 382.104778
15189         h1    545    ccc     H2  15189 0.11526800   1.008000   ; qtot 382.220046
15190         c3    545    ccc     C3  15190 0.15592700  12.010000   ; qtot 382.375973
15191         c3    545    ccc     C4  15191 0.28383300  12.010000   ; qtot 382.659806
15192         c3    545    ccc     C5  15192 0.32403300  12.010000   ; qtot 382.983839
15193         h1    545    ccc     H3  15193 0.13386900   1.008000   ; qtot 383.117708
15194         h1    545    ccc     H4  15194 0.10146700   1.008000   ; qtot 383.219175
15195         h2    545    ccc     H5  15195 0.10960400   1.008000   ; qtot 383.328779
15196         os    545    ccc     O1  15196 -0.28650000  16.000000   ; qtot 383.042279
15197         oh    545    ccc     O2  15197 -0.86012500  16.000000   ; qtot 382.182154
15198         oh    545    ccc     O3  15198 -0.83772800  16.000000   ; qtot 381.344426
15199         oh    545    ccc     O4  15199 -0.77449700  16.000000   ; qtot 380.569929
15200         c3    545    ccc     C6  15200 0.37576500  12.010000   ; qtot 380.945694
15201         ho    545    ccc     H6  15201 0.53656000   1.008000   ; qtot 381.482254
15202         ho    545    ccc     H7  15202 0.49492100   1.008000   ; qtot 381.977175
15203         ho    545    ccc     H8  15203 0.51297200   1.008000   ; qtot 382.490147
15204         h1    545    ccc     H9  15204 0.05653400   1.008000   ; qtot 382.546681
15205         h1    545    ccc    H10  15205 0.05653400   1.008000   ; qtot 382.603215
15206         oh    545    ccc     O5  15206 -0.84113600  16.000000   ; qtot 381.762079
15207         ho    545    ccc    H11  15207 0.51201600   1.008000   ; qtot 382.274095
15208         os    545    ccc     O6  15208 -0.26013600  16.000000   ; qtot 382.013959
; residue  546 ccc rtp ccc q 0.0
15209         c3    546    ccc     C1  15209 -0.33178800  12.010000   ; qtot 381.682171
15210         c3    546    ccc     C2  15210 0.30606500  12.010000   ; qtot 381.988236
15211         h1    546    ccc     H1  15211 0.11662300   1.008000   ; qtot 382.104859
15212         h1    546    ccc     H2  15212 0.11526800   1.008000   ; qtot 382.220127
15213         c3    546    ccc     C3  15213 0.15592700  12.010000   ; qtot 382.376054
15214         c3    546    ccc     C4  15214 0.28383300  12.010000   ; qtot 382.659887
15215         c3    546    ccc     C5  15215 0.32403300  12.010000   ; qtot 382.983920
15216         h1    546    ccc     H3  15216 0.13386900   1.008000   ; qtot 383.117789
15217         h1    546    ccc     H4  15217 0.10146700   1.008000   ; qtot 383.219256
15218         h2    546    ccc     H5  15218 0.10960400   1.008000   ; qtot 383.328860
15219         os    546    ccc     O1  15219 -0.28650000  16.000000   ; qtot 383.042360
15220         oh    546    ccc     O2  15220 -0.86012500  16.000000   ; qtot 382.182235
15221         oh    546    ccc     O3  15221 -0.83772800  16.000000   ; qtot 381.344507
15222         oh    546    ccc     O4  15222 -0.77449700  16.000000   ; qtot 380.570010
15223         c3    546    ccc     C6  15223 0.37576500  12.010000   ; qtot 380.945775
15224         ho    546    ccc     H6  15224 0.53656000   1.008000   ; qtot 381.482335
15225         ho    546    ccc     H7  15225 0.49492100   1.008000   ; qtot 381.977256
15226         ho    546    ccc     H8  15226 0.51297200   1.008000   ; qtot 382.490228
15227         h1    546    ccc     H9  15227 0.05653400   1.008000   ; qtot 382.546762
15228         h1    546    ccc    H10  15228 0.05653400   1.008000   ; qtot 382.603296
15229         oh    546    ccc     O5  15229 -0.84113600  16.000000   ; qtot 381.762160
15230         ho    546    ccc    H11  15230 0.51201600   1.008000   ; qtot 382.274176
15231         os    546    ccc     O6  15231 -0.26013600  16.000000   ; qtot 382.014040
; residue  547 ccc rtp ccc q 0.0
15232         c3    547    ccc     C1  15232 -0.33178800  12.010000   ; qtot 381.682252
15233         c3    547    ccc     C2  15233 0.30606500  12.010000   ; qtot 381.988317
15234         h1    547    ccc     H1  15234 0.11662300   1.008000   ; qtot 382.104940
15235         h1    547    ccc     H2  15235 0.11526800   1.008000   ; qtot 382.220208
15236         c3    547    ccc     C3  15236 0.15592700  12.010000   ; qtot 382.376135
15237         c3    547    ccc     C4  15237 0.28383300  12.010000   ; qtot 382.659968
15238         c3    547    ccc     C5  15238 0.32403300  12.010000   ; qtot 382.984001
15239         h1    547    ccc     H3  15239 0.13386900   1.008000   ; qtot 383.117870
15240         h1    547    ccc     H4  15240 0.10146700   1.008000   ; qtot 383.219337
15241         h2    547    ccc     H5  15241 0.10960400   1.008000   ; qtot 383.328941
15242         os    547    ccc     O1  15242 -0.28650000  16.000000   ; qtot 383.042441
15243         oh    547    ccc     O2  15243 -0.86012500  16.000000   ; qtot 382.182316
15244         oh    547    ccc     O3  15244 -0.83772800  16.000000   ; qtot 381.344588
15245         oh    547    ccc     O4  15245 -0.77449700  16.000000   ; qtot 380.570091
15246         c3    547    ccc     C6  15246 0.37576500  12.010000   ; qtot 380.945856
15247         ho    547    ccc     H6  15247 0.53656000   1.008000   ; qtot 381.482416
15248         ho    547    ccc     H7  15248 0.49492100   1.008000   ; qtot 381.977337
15249         ho    547    ccc     H8  15249 0.51297200   1.008000   ; qtot 382.490309
15250         h1    547    ccc     H9  15250 0.05653400   1.008000   ; qtot 382.546843
15251         h1    547    ccc    H10  15251 0.05653400   1.008000   ; qtot 382.603377
15252         oh    547    ccc     O5  15252 -0.84113600  16.000000   ; qtot 381.762241
15253         ho    547    ccc    H11  15253 0.51201600   1.008000   ; qtot 382.274257
15254         os    547    ccc     O6  15254 -0.26013600  16.000000   ; qtot 382.014121
; residue  548 ccc rtp ccc q 0.0
15255         c3    548    ccc     C1  15255 -0.33178800  12.010000   ; qtot 381.682333
15256         c3    548    ccc     C2  15256 0.30606500  12.010000   ; qtot 381.988398
15257         h1    548    ccc     H1  15257 0.11662300   1.008000   ; qtot 382.105021
15258         h1    548    ccc     H2  15258 0.11526800   1.008000   ; qtot 382.220289
15259         c3    548    ccc     C3  15259 0.15592700  12.010000   ; qtot 382.376216
15260         c3    548    ccc     C4  15260 0.28383300  12.010000   ; qtot 382.660049
15261         c3    548    ccc     C5  15261 0.32403300  12.010000   ; qtot 382.984082
15262         h1    548    ccc     H3  15262 0.13386900   1.008000   ; qtot 383.117951
15263         h1    548    ccc     H4  15263 0.10146700   1.008000   ; qtot 383.219418
15264         h2    548    ccc     H5  15264 0.10960400   1.008000   ; qtot 383.329022
15265         os    548    ccc     O1  15265 -0.28650000  16.000000   ; qtot 383.042522
15266         oh    548    ccc     O2  15266 -0.86012500  16.000000   ; qtot 382.182397
15267         oh    548    ccc     O3  15267 -0.83772800  16.000000   ; qtot 381.344669
15268         oh    548    ccc     O4  15268 -0.77449700  16.000000   ; qtot 380.570172
15269         c3    548    ccc     C6  15269 0.37576500  12.010000   ; qtot 380.945937
15270         ho    548    ccc     H6  15270 0.53656000   1.008000   ; qtot 381.482497
15271         ho    548    ccc     H7  15271 0.49492100   1.008000   ; qtot 381.977418
15272         ho    548    ccc     H8  15272 0.51297200   1.008000   ; qtot 382.490390
15273         h1    548    ccc     H9  15273 0.05653400   1.008000   ; qtot 382.546924
15274         h1    548    ccc    H10  15274 0.05653400   1.008000   ; qtot 382.603458
15275         oh    548    ccc     O5  15275 -0.84113600  16.000000   ; qtot 381.762322
15276         ho    548    ccc    H11  15276 0.51201600   1.008000   ; qtot 382.274338
15277         os    548    ccc     O6  15277 -0.26013600  16.000000   ; qtot 382.014202
; residue  549 ccc rtp ccc q 0.0
15278         c3    549    ccc     C1  15278 -0.33178800  12.010000   ; qtot 381.682414
15279         c3    549    ccc     C2  15279 0.30606500  12.010000   ; qtot 381.988479
15280         h1    549    ccc     H1  15280 0.11662300   1.008000   ; qtot 382.105102
15281         h1    549    ccc     H2  15281 0.11526800   1.008000   ; qtot 382.220370
15282         c3    549    ccc     C3  15282 0.15592700  12.010000   ; qtot 382.376297
15283         c3    549    ccc     C4  15283 0.28383300  12.010000   ; qtot 382.660130
15284         c3    549    ccc     C5  15284 0.32403300  12.010000   ; qtot 382.984163
15285         h1    549    ccc     H3  15285 0.13386900   1.008000   ; qtot 383.118032
15286         h1    549    ccc     H4  15286 0.10146700   1.008000   ; qtot 383.219499
15287         h2    549    ccc     H5  15287 0.10960400   1.008000   ; qtot 383.329103
15288         os    549    ccc     O1  15288 -0.28650000  16.000000   ; qtot 383.042603
15289         oh    549    ccc     O2  15289 -0.86012500  16.000000   ; qtot 382.182478
15290         oh    549    ccc     O3  15290 -0.83772800  16.000000   ; qtot 381.344750
15291         oh    549    ccc     O4  15291 -0.77449700  16.000000   ; qtot 380.570253
15292         c3    549    ccc     C6  15292 0.37576500  12.010000   ; qtot 380.946018
15293         ho    549    ccc     H6  15293 0.53656000   1.008000   ; qtot 381.482578
15294         ho    549    ccc     H7  15294 0.49492100   1.008000   ; qtot 381.977499
15295         ho    549    ccc     H8  15295 0.51297200   1.008000   ; qtot 382.490471
15296         h1    549    ccc     H9  15296 0.05653400   1.008000   ; qtot 382.547005
15297         h1    549    ccc    H10  15297 0.05653400   1.008000   ; qtot 382.603539
15298         oh    549    ccc     O5  15298 -0.84113600  16.000000   ; qtot 381.762403
15299         ho    549    ccc    H11  15299 0.51201600   1.008000   ; qtot 382.274419
15300         os    549    ccc     O6  15300 -0.26013600  16.000000   ; qtot 382.014283
; residue  550 ccc rtp ccc q 0.0
15301         c3    550    ccc     C1  15301 -0.33178800  12.010000   ; qtot 381.682495
15302         c3    550    ccc     C2  15302 0.30606500  12.010000   ; qtot 381.988560
15303         h1    550    ccc     H1  15303 0.11662300   1.008000   ; qtot 382.105183
15304         h1    550    ccc     H2  15304 0.11526800   1.008000   ; qtot 382.220451
15305         c3    550    ccc     C3  15305 0.15592700  12.010000   ; qtot 382.376378
15306         c3    550    ccc     C4  15306 0.28383300  12.010000   ; qtot 382.660211
15307         c3    550    ccc     C5  15307 0.32403300  12.010000   ; qtot 382.984244
15308         h1    550    ccc     H3  15308 0.13386900   1.008000   ; qtot 383.118113
15309         h1    550    ccc     H4  15309 0.10146700   1.008000   ; qtot 383.219580
15310         h2    550    ccc     H5  15310 0.10960400   1.008000   ; qtot 383.329184
15311         os    550    ccc     O1  15311 -0.28650000  16.000000   ; qtot 383.042684
15312         oh    550    ccc     O2  15312 -0.86012500  16.000000   ; qtot 382.182559
15313         oh    550    ccc     O3  15313 -0.83772800  16.000000   ; qtot 381.344831
15314         oh    550    ccc     O4  15314 -0.77449700  16.000000   ; qtot 380.570334
15315         c3    550    ccc     C6  15315 0.37576500  12.010000   ; qtot 380.946099
15316         ho    550    ccc     H6  15316 0.53656000   1.008000   ; qtot 381.482659
15317         ho    550    ccc     H7  15317 0.49492100   1.008000   ; qtot 381.977580
15318         ho    550    ccc     H8  15318 0.51297200   1.008000   ; qtot 382.490552
15319         h1    550    ccc     H9  15319 0.05653400   1.008000   ; qtot 382.547086
15320         h1    550    ccc    H10  15320 0.05653400   1.008000   ; qtot 382.603620
15321         oh    550    ccc     O5  15321 -0.84113600  16.000000   ; qtot 381.762484
15322         ho    550    ccc    H11  15322 0.51201600   1.008000   ; qtot 382.274500
15323         os    550    ccc     O6  15323 -0.26013600  16.000000   ; qtot 382.014364
; residue  551 ccc rtp ccc q 0.0
15324         c3    551    ccc     C1  15324 -0.33178800  12.010000   ; qtot 381.682576
15325         c3    551    ccc     C2  15325 0.30606500  12.010000   ; qtot 381.988641
15326         h1    551    ccc     H1  15326 0.11662300   1.008000   ; qtot 382.105264
15327         h1    551    ccc     H2  15327 0.11526800   1.008000   ; qtot 382.220532
15328         c3    551    ccc     C3  15328 0.15592700  12.010000   ; qtot 382.376459
15329         c3    551    ccc     C4  15329 0.28383300  12.010000   ; qtot 382.660292
15330         c3    551    ccc     C5  15330 0.32403300  12.010000   ; qtot 382.984325
15331         h1    551    ccc     H3  15331 0.13386900   1.008000   ; qtot 383.118194
15332         h1    551    ccc     H4  15332 0.10146700   1.008000   ; qtot 383.219661
15333         h2    551    ccc     H5  15333 0.10960400   1.008000   ; qtot 383.329265
15334         os    551    ccc     O1  15334 -0.28650000  16.000000   ; qtot 383.042765
15335         oh    551    ccc     O2  15335 -0.86012500  16.000000   ; qtot 382.182640
15336         oh    551    ccc     O3  15336 -0.83772800  16.000000   ; qtot 381.344912
15337         oh    551    ccc     O4  15337 -0.77449700  16.000000   ; qtot 380.570415
15338         c3    551    ccc     C6  15338 0.37576500  12.010000   ; qtot 380.946180
15339         ho    551    ccc     H6  15339 0.53656000   1.008000   ; qtot 381.482740
15340         ho    551    ccc     H7  15340 0.49492100   1.008000   ; qtot 381.977661
15341         ho    551    ccc     H8  15341 0.51297200   1.008000   ; qtot 382.490633
15342         h1    551    ccc     H9  15342 0.05653400   1.008000   ; qtot 382.547167
15343         h1    551    ccc    H10  15343 0.05653400   1.008000   ; qtot 382.603701
15344         oh    551    ccc     O5  15344 -0.84113600  16.000000   ; qtot 381.762565
15345         ho    551    ccc    H11  15345 0.51201600   1.008000   ; qtot 382.274581
15346         os    551    ccc     O6  15346 -0.26013600  16.000000   ; qtot 382.014445
; residue  552 ccc rtp ccc q 0.0
15347         c3    552    ccc     C1  15347 -0.33178800  12.010000   ; qtot 381.682657
15348         c3    552    ccc     C2  15348 0.30606500  12.010000   ; qtot 381.988722
15349         h1    552    ccc     H1  15349 0.11662300   1.008000   ; qtot 382.105345
15350         h1    552    ccc     H2  15350 0.11526800   1.008000   ; qtot 382.220613
15351         c3    552    ccc     C3  15351 0.15592700  12.010000   ; qtot 382.376540
15352         c3    552    ccc     C4  15352 0.28383300  12.010000   ; qtot 382.660373
15353         c3    552    ccc     C5  15353 0.32403300  12.010000   ; qtot 382.984406
15354         h1    552    ccc     H3  15354 0.13386900   1.008000   ; qtot 383.118275
15355         h1    552    ccc     H4  15355 0.10146700   1.008000   ; qtot 383.219742
15356         h2    552    ccc     H5  15356 0.10960400   1.008000   ; qtot 383.329346
15357         os    552    ccc     O1  15357 -0.28650000  16.000000   ; qtot 383.042846
15358         oh    552    ccc     O2  15358 -0.86012500  16.000000   ; qtot 382.182721
15359         oh    552    ccc     O3  15359 -0.83772800  16.000000   ; qtot 381.344993
15360         oh    552    ccc     O4  15360 -0.77449700  16.000000   ; qtot 380.570496
15361         c3    552    ccc     C6  15361 0.37576500  12.010000   ; qtot 380.946261
15362         ho    552    ccc     H6  15362 0.53656000   1.008000   ; qtot 381.482821
15363         ho    552    ccc     H7  15363 0.49492100   1.008000   ; qtot 381.977742
15364         ho    552    ccc     H8  15364 0.51297200   1.008000   ; qtot 382.490714
15365         h1    552    ccc     H9  15365 0.05653400   1.008000   ; qtot 382.547248
15366         h1    552    ccc    H10  15366 0.05653400   1.008000   ; qtot 382.603782
15367         oh    552    ccc     O5  15367 -0.84113600  16.000000   ; qtot 381.762646
15368         ho    552    ccc    H11  15368 0.51201600   1.008000   ; qtot 382.274662
15369         os    552    ccc     O6  15369 -0.26013600  16.000000   ; qtot 382.014526
; residue  553 ccc rtp ccc q 0.0
15370         c3    553    ccc     C1  15370 -0.33178800  12.010000   ; qtot 381.682738
15371         c3    553    ccc     C2  15371 0.30606500  12.010000   ; qtot 381.988803
15372         h1    553    ccc     H1  15372 0.11662300   1.008000   ; qtot 382.105426
15373         h1    553    ccc     H2  15373 0.11526800   1.008000   ; qtot 382.220694
15374         c3    553    ccc     C3  15374 0.15592700  12.010000   ; qtot 382.376621
15375         c3    553    ccc     C4  15375 0.28383300  12.010000   ; qtot 382.660454
15376         c3    553    ccc     C5  15376 0.32403300  12.010000   ; qtot 382.984487
15377         h1    553    ccc     H3  15377 0.13386900   1.008000   ; qtot 383.118356
15378         h1    553    ccc     H4  15378 0.10146700   1.008000   ; qtot 383.219823
15379         h2    553    ccc     H5  15379 0.10960400   1.008000   ; qtot 383.329427
15380         os    553    ccc     O1  15380 -0.28650000  16.000000   ; qtot 383.042927
15381         oh    553    ccc     O2  15381 -0.86012500  16.000000   ; qtot 382.182802
15382         oh    553    ccc     O3  15382 -0.83772800  16.000000   ; qtot 381.345074
15383         oh    553    ccc     O4  15383 -0.77449700  16.000000   ; qtot 380.570577
15384         c3    553    ccc     C6  15384 0.37576500  12.010000   ; qtot 380.946342
15385         ho    553    ccc     H6  15385 0.53656000   1.008000   ; qtot 381.482902
15386         ho    553    ccc     H7  15386 0.49492100   1.008000   ; qtot 381.977823
15387         ho    553    ccc     H8  15387 0.51297200   1.008000   ; qtot 382.490795
15388         h1    553    ccc     H9  15388 0.05653400   1.008000   ; qtot 382.547329
15389         h1    553    ccc    H10  15389 0.05653400   1.008000   ; qtot 382.603863
15390         oh    553    ccc     O5  15390 -0.84113600  16.000000   ; qtot 381.762727
15391         ho    553    ccc    H11  15391 0.51201600   1.008000   ; qtot 382.274743
15392         os    553    ccc     O6  15392 -0.26013600  16.000000   ; qtot 382.014607
; residue  554 ccc rtp ccc q 0.0
15393         c3    554    ccc     C1  15393 -0.33178800  12.010000   ; qtot 381.682819
15394         c3    554    ccc     C2  15394 0.30606500  12.010000   ; qtot 381.988884
15395         h1    554    ccc     H1  15395 0.11662300   1.008000   ; qtot 382.105507
15396         h1    554    ccc     H2  15396 0.11526800   1.008000   ; qtot 382.220775
15397         c3    554    ccc     C3  15397 0.15592700  12.010000   ; qtot 382.376702
15398         c3    554    ccc     C4  15398 0.28383300  12.010000   ; qtot 382.660535
15399         c3    554    ccc     C5  15399 0.32403300  12.010000   ; qtot 382.984568
15400         h1    554    ccc     H3  15400 0.13386900   1.008000   ; qtot 383.118437
15401         h1    554    ccc     H4  15401 0.10146700   1.008000   ; qtot 383.219904
15402         h2    554    ccc     H5  15402 0.10960400   1.008000   ; qtot 383.329508
15403         os    554    ccc     O1  15403 -0.28650000  16.000000   ; qtot 383.043008
15404         oh    554    ccc     O2  15404 -0.86012500  16.000000   ; qtot 382.182883
15405         oh    554    ccc     O3  15405 -0.83772800  16.000000   ; qtot 381.345155
15406         oh    554    ccc     O4  15406 -0.77449700  16.000000   ; qtot 380.570658
15407         c3    554    ccc     C6  15407 0.37576500  12.010000   ; qtot 380.946423
15408         ho    554    ccc     H6  15408 0.53656000   1.008000   ; qtot 381.482983
15409         ho    554    ccc     H7  15409 0.49492100   1.008000   ; qtot 381.977904
15410         ho    554    ccc     H8  15410 0.51297200   1.008000   ; qtot 382.490876
15411         h1    554    ccc     H9  15411 0.05653400   1.008000   ; qtot 382.547410
15412         h1    554    ccc    H10  15412 0.05653400   1.008000   ; qtot 382.603944
15413         oh    554    ccc     O5  15413 -0.84113600  16.000000   ; qtot 381.762808
15414         ho    554    ccc    H11  15414 0.51201600   1.008000   ; qtot 382.274824
15415         os    554    ccc     O6  15415 -0.26013600  16.000000   ; qtot 382.014688
; residue  555 ccc rtp ccc q 0.0
15416         c3    555    ccc     C1  15416 -0.33178800  12.010000   ; qtot 381.682900
15417         c3    555    ccc     C2  15417 0.30606500  12.010000   ; qtot 381.988965
15418         h1    555    ccc     H1  15418 0.11662300   1.008000   ; qtot 382.105588
15419         h1    555    ccc     H2  15419 0.11526800   1.008000   ; qtot 382.220856
15420         c3    555    ccc     C3  15420 0.15592700  12.010000   ; qtot 382.376783
15421         c3    555    ccc     C4  15421 0.28383300  12.010000   ; qtot 382.660616
15422         c3    555    ccc     C5  15422 0.32403300  12.010000   ; qtot 382.984649
15423         h1    555    ccc     H3  15423 0.13386900   1.008000   ; qtot 383.118518
15424         h1    555    ccc     H4  15424 0.10146700   1.008000   ; qtot 383.219985
15425         h2    555    ccc     H5  15425 0.10960400   1.008000   ; qtot 383.329589
15426         os    555    ccc     O1  15426 -0.28650000  16.000000   ; qtot 383.043089
15427         oh    555    ccc     O2  15427 -0.86012500  16.000000   ; qtot 382.182964
15428         oh    555    ccc     O3  15428 -0.83772800  16.000000   ; qtot 381.345236
15429         oh    555    ccc     O4  15429 -0.77449700  16.000000   ; qtot 380.570739
15430         c3    555    ccc     C6  15430 0.37576500  12.010000   ; qtot 380.946504
15431         ho    555    ccc     H6  15431 0.53656000   1.008000   ; qtot 381.483064
15432         ho    555    ccc     H7  15432 0.49492100   1.008000   ; qtot 381.977985
15433         ho    555    ccc     H8  15433 0.51297200   1.008000   ; qtot 382.490957
15434         h1    555    ccc     H9  15434 0.05653400   1.008000   ; qtot 382.547491
15435         h1    555    ccc    H10  15435 0.05653400   1.008000   ; qtot 382.604025
15436         oh    555    ccc     O5  15436 -0.84113600  16.000000   ; qtot 381.762889
15437         ho    555    ccc    H11  15437 0.51201600   1.008000   ; qtot 382.274905
15438         os    555    ccc     O6  15438 -0.26013600  16.000000   ; qtot 382.014769
; residue  556 ccc rtp ccc q 0.0
15439         c3    556    ccc     C1  15439 -0.33178800  12.010000   ; qtot 381.682981
15440         c3    556    ccc     C2  15440 0.30606500  12.010000   ; qtot 381.989046
15441         h1    556    ccc     H1  15441 0.11662300   1.008000   ; qtot 382.105669
15442         h1    556    ccc     H2  15442 0.11526800   1.008000   ; qtot 382.220937
15443         c3    556    ccc     C3  15443 0.15592700  12.010000   ; qtot 382.376864
15444         c3    556    ccc     C4  15444 0.28383300  12.010000   ; qtot 382.660697
15445         c3    556    ccc     C5  15445 0.32403300  12.010000   ; qtot 382.984730
15446         h1    556    ccc     H3  15446 0.13386900   1.008000   ; qtot 383.118599
15447         h1    556    ccc     H4  15447 0.10146700   1.008000   ; qtot 383.220066
15448         h2    556    ccc     H5  15448 0.10960400   1.008000   ; qtot 383.329670
15449         os    556    ccc     O1  15449 -0.28650000  16.000000   ; qtot 383.043170
15450         oh    556    ccc     O2  15450 -0.86012500  16.000000   ; qtot 382.183045
15451         oh    556    ccc     O3  15451 -0.83772800  16.000000   ; qtot 381.345317
15452         oh    556    ccc     O4  15452 -0.77449700  16.000000   ; qtot 380.570820
15453         c3    556    ccc     C6  15453 0.37576500  12.010000   ; qtot 380.946585
15454         ho    556    ccc     H6  15454 0.53656000   1.008000   ; qtot 381.483145
15455         ho    556    ccc     H7  15455 0.49492100   1.008000   ; qtot 381.978066
15456         ho    556    ccc     H8  15456 0.51297200   1.008000   ; qtot 382.491038
15457         h1    556    ccc     H9  15457 0.05653400   1.008000   ; qtot 382.547572
15458         h1    556    ccc    H10  15458 0.05653400   1.008000   ; qtot 382.604106
15459         oh    556    ccc     O5  15459 -0.84113600  16.000000   ; qtot 381.762970
15460         ho    556    ccc    H11  15460 0.51201600   1.008000   ; qtot 382.274986
15461         os    556    ccc     O6  15461 -0.26013600  16.000000   ; qtot 382.014850
; residue  557 ccc rtp ccc q 0.0
15462         c3    557    ccc     C1  15462 -0.33178800  12.010000   ; qtot 381.683062
15463         c3    557    ccc     C2  15463 0.30606500  12.010000   ; qtot 381.989127
15464         h1    557    ccc     H1  15464 0.11662300   1.008000   ; qtot 382.105750
15465         h1    557    ccc     H2  15465 0.11526800   1.008000   ; qtot 382.221018
15466         c3    557    ccc     C3  15466 0.15592700  12.010000   ; qtot 382.376945
15467         c3    557    ccc     C4  15467 0.28383300  12.010000   ; qtot 382.660778
15468         c3    557    ccc     C5  15468 0.32403300  12.010000   ; qtot 382.984811
15469         h1    557    ccc     H3  15469 0.13386900   1.008000   ; qtot 383.118680
15470         h1    557    ccc     H4  15470 0.10146700   1.008000   ; qtot 383.220147
15471         h2    557    ccc     H5  15471 0.10960400   1.008000   ; qtot 383.329751
15472         os    557    ccc     O1  15472 -0.28650000  16.000000   ; qtot 383.043251
15473         oh    557    ccc     O2  15473 -0.86012500  16.000000   ; qtot 382.183126
15474         oh    557    ccc     O3  15474 -0.83772800  16.000000   ; qtot 381.345398
15475         oh    557    ccc     O4  15475 -0.77449700  16.000000   ; qtot 380.570901
15476         c3    557    ccc     C6  15476 0.37576500  12.010000   ; qtot 380.946666
15477         ho    557    ccc     H6  15477 0.53656000   1.008000   ; qtot 381.483226
15478         ho    557    ccc     H7  15478 0.49492100   1.008000   ; qtot 381.978147
15479         ho    557    ccc     H8  15479 0.51297200   1.008000   ; qtot 382.491119
15480         h1    557    ccc     H9  15480 0.05653400   1.008000   ; qtot 382.547653
15481         h1    557    ccc    H10  15481 0.05653400   1.008000   ; qtot 382.604187
15482         oh    557    ccc     O5  15482 -0.84113600  16.000000   ; qtot 381.763051
15483         ho    557    ccc    H11  15483 0.51201600   1.008000   ; qtot 382.275067
15484         os    557    ccc     O6  15484 -0.26013600  16.000000   ; qtot 382.014931
; residue  558 ccc rtp ccc q 0.0
15485         c3    558    ccc     C1  15485 -0.33178800  12.010000   ; qtot 381.683143
15486         c3    558    ccc     C2  15486 0.30606500  12.010000   ; qtot 381.989208
15487         h1    558    ccc     H1  15487 0.11662300   1.008000   ; qtot 382.105831
15488         h1    558    ccc     H2  15488 0.11526800   1.008000   ; qtot 382.221099
15489         c3    558    ccc     C3  15489 0.15592700  12.010000   ; qtot 382.377026
15490         c3    558    ccc     C4  15490 0.28383300  12.010000   ; qtot 382.660859
15491         c3    558    ccc     C5  15491 0.32403300  12.010000   ; qtot 382.984892
15492         h1    558    ccc     H3  15492 0.13386900   1.008000   ; qtot 383.118761
15493         h1    558    ccc     H4  15493 0.10146700   1.008000   ; qtot 383.220228
15494         h2    558    ccc     H5  15494 0.10960400   1.008000   ; qtot 383.329832
15495         os    558    ccc     O1  15495 -0.28650000  16.000000   ; qtot 383.043332
15496         oh    558    ccc     O2  15496 -0.86012500  16.000000   ; qtot 382.183207
15497         oh    558    ccc     O3  15497 -0.83772800  16.000000   ; qtot 381.345479
15498         oh    558    ccc     O4  15498 -0.77449700  16.000000   ; qtot 380.570982
15499         c3    558    ccc     C6  15499 0.37576500  12.010000   ; qtot 380.946747
15500         ho    558    ccc     H6  15500 0.53656000   1.008000   ; qtot 381.483307
15501         ho    558    ccc     H7  15501 0.49492100   1.008000   ; qtot 381.978228
15502         ho    558    ccc     H8  15502 0.51297200   1.008000   ; qtot 382.491200
15503         h1    558    ccc     H9  15503 0.05653400   1.008000   ; qtot 382.547734
15504         h1    558    ccc    H10  15504 0.05653400   1.008000   ; qtot 382.604268
15505         oh    558    ccc     O5  15505 -0.84113600  16.000000   ; qtot 381.763132
15506         ho    558    ccc    H11  15506 0.51201600   1.008000   ; qtot 382.275148
15507         os    558    ccc     O6  15507 -0.26013600  16.000000   ; qtot 382.015012
; residue  559 ccc rtp ccc q 0.0
15508         c3    559    ccc     C1  15508 -0.33178800  12.010000   ; qtot 381.683224
15509         c3    559    ccc     C2  15509 0.30606500  12.010000   ; qtot 381.989289
15510         h1    559    ccc     H1  15510 0.11662300   1.008000   ; qtot 382.105912
15511         h1    559    ccc     H2  15511 0.11526800   1.008000   ; qtot 382.221180
15512         c3    559    ccc     C3  15512 0.15592700  12.010000   ; qtot 382.377107
15513         c3    559    ccc     C4  15513 0.28383300  12.010000   ; qtot 382.660940
15514         c3    559    ccc     C5  15514 0.32403300  12.010000   ; qtot 382.984973
15515         h1    559    ccc     H3  15515 0.13386900   1.008000   ; qtot 383.118842
15516         h1    559    ccc     H4  15516 0.10146700   1.008000   ; qtot 383.220309
15517         h2    559    ccc     H5  15517 0.10960400   1.008000   ; qtot 383.329913
15518         os    559    ccc     O1  15518 -0.28650000  16.000000   ; qtot 383.043413
15519         oh    559    ccc     O2  15519 -0.86012500  16.000000   ; qtot 382.183288
15520         oh    559    ccc     O3  15520 -0.83772800  16.000000   ; qtot 381.345560
15521         oh    559    ccc     O4  15521 -0.77449700  16.000000   ; qtot 380.571063
15522         c3    559    ccc     C6  15522 0.37576500  12.010000   ; qtot 380.946828
15523         ho    559    ccc     H6  15523 0.53656000   1.008000   ; qtot 381.483388
15524         ho    559    ccc     H7  15524 0.49492100   1.008000   ; qtot 381.978309
15525         ho    559    ccc     H8  15525 0.51297200   1.008000   ; qtot 382.491281
15526         h1    559    ccc     H9  15526 0.05653400   1.008000   ; qtot 382.547815
15527         h1    559    ccc    H10  15527 0.05653400   1.008000   ; qtot 382.604349
15528         oh    559    ccc     O5  15528 -0.84113600  16.000000   ; qtot 381.763213
15529         ho    559    ccc    H11  15529 0.51201600   1.008000   ; qtot 382.275229
15530         os    559    ccc     O6  15530 -0.26013600  16.000000   ; qtot 382.015093
; residue  560 ccc rtp ccc q 0.0
15531         c3    560    ccc     C1  15531 -0.33178800  12.010000   ; qtot 381.683305
15532         c3    560    ccc     C2  15532 0.30606500  12.010000   ; qtot 381.989370
15533         h1    560    ccc     H1  15533 0.11662300   1.008000   ; qtot 382.105993
15534         h1    560    ccc     H2  15534 0.11526800   1.008000   ; qtot 382.221261
15535         c3    560    ccc     C3  15535 0.15592700  12.010000   ; qtot 382.377188
15536         c3    560    ccc     C4  15536 0.28383300  12.010000   ; qtot 382.661021
15537         c3    560    ccc     C5  15537 0.32403300  12.010000   ; qtot 382.985054
15538         h1    560    ccc     H3  15538 0.13386900   1.008000   ; qtot 383.118923
15539         h1    560    ccc     H4  15539 0.10146700   1.008000   ; qtot 383.220390
15540         h2    560    ccc     H5  15540 0.10960400   1.008000   ; qtot 383.329994
15541         os    560    ccc     O1  15541 -0.28650000  16.000000   ; qtot 383.043494
15542         oh    560    ccc     O2  15542 -0.86012500  16.000000   ; qtot 382.183369
15543         oh    560    ccc     O3  15543 -0.83772800  16.000000   ; qtot 381.345641
15544         oh    560    ccc     O4  15544 -0.77449700  16.000000   ; qtot 380.571144
15545         c3    560    ccc     C6  15545 0.37576500  12.010000   ; qtot 380.946909
15546         ho    560    ccc     H6  15546 0.53656000   1.008000   ; qtot 381.483469
15547         ho    560    ccc     H7  15547 0.49492100   1.008000   ; qtot 381.978390
15548         ho    560    ccc     H8  15548 0.51297200   1.008000   ; qtot 382.491362
15549         h1    560    ccc     H9  15549 0.05653400   1.008000   ; qtot 382.547896
15550         h1    560    ccc    H10  15550 0.05653400   1.008000   ; qtot 382.604430
15551         oh    560    ccc     O5  15551 -0.84113600  16.000000   ; qtot 381.763294
15552         ho    560    ccc    H11  15552 0.51201600   1.008000   ; qtot 382.275310
15553         os    560    ccc     O6  15553 -0.26013600  16.000000   ; qtot 382.015174
; residue  561 ccc rtp ccc q 0.0
15554         c3    561    ccc     C1  15554 -0.33178800  12.010000   ; qtot 381.683386
15555         c3    561    ccc     C2  15555 0.30606500  12.010000   ; qtot 381.989451
15556         h1    561    ccc     H1  15556 0.11662300   1.008000   ; qtot 382.106074
15557         h1    561    ccc     H2  15557 0.11526800   1.008000   ; qtot 382.221342
15558         c3    561    ccc     C3  15558 0.15592700  12.010000   ; qtot 382.377269
15559         c3    561    ccc     C4  15559 0.28383300  12.010000   ; qtot 382.661102
15560         c3    561    ccc     C5  15560 0.32403300  12.010000   ; qtot 382.985135
15561         h1    561    ccc     H3  15561 0.13386900   1.008000   ; qtot 383.119004
15562         h1    561    ccc     H4  15562 0.10146700   1.008000   ; qtot 383.220471
15563         h2    561    ccc     H5  15563 0.10960400   1.008000   ; qtot 383.330075
15564         os    561    ccc     O1  15564 -0.28650000  16.000000   ; qtot 383.043575
15565         oh    561    ccc     O2  15565 -0.86012500  16.000000   ; qtot 382.183450
15566         oh    561    ccc     O3  15566 -0.83772800  16.000000   ; qtot 381.345722
15567         oh    561    ccc     O4  15567 -0.77449700  16.000000   ; qtot 380.571225
15568         c3    561    ccc     C6  15568 0.37576500  12.010000   ; qtot 380.946990
15569         ho    561    ccc     H6  15569 0.53656000   1.008000   ; qtot 381.483550
15570         ho    561    ccc     H7  15570 0.49492100   1.008000   ; qtot 381.978471
15571         ho    561    ccc     H8  15571 0.51297200   1.008000   ; qtot 382.491443
15572         h1    561    ccc     H9  15572 0.05653400   1.008000   ; qtot 382.547977
15573         h1    561    ccc    H10  15573 0.05653400   1.008000   ; qtot 382.604511
15574         oh    561    ccc     O5  15574 -0.84113600  16.000000   ; qtot 381.763375
15575         ho    561    ccc    H11  15575 0.51201600   1.008000   ; qtot 382.275392
15576         os    561    ccc     O6  15576 -0.26013600  16.000000   ; qtot 382.015256
; residue  562 ccc rtp ccc q 0.0
15577         c3    562    ccc     C1  15577 -0.33178800  12.010000   ; qtot 381.683468
15578         c3    562    ccc     C2  15578 0.30606500  12.010000   ; qtot 381.989533
15579         h1    562    ccc     H1  15579 0.11662300   1.008000   ; qtot 382.106156
15580         h1    562    ccc     H2  15580 0.11526800   1.008000   ; qtot 382.221424
15581         c3    562    ccc     C3  15581 0.15592700  12.010000   ; qtot 382.377351
15582         c3    562    ccc     C4  15582 0.28383300  12.010000   ; qtot 382.661184
15583         c3    562    ccc     C5  15583 0.32403300  12.010000   ; qtot 382.985217
15584         h1    562    ccc     H3  15584 0.13386900   1.008000   ; qtot 383.119086
15585         h1    562    ccc     H4  15585 0.10146700   1.008000   ; qtot 383.220553
15586         h2    562    ccc     H5  15586 0.10960400   1.008000   ; qtot 383.330157
15587         os    562    ccc     O1  15587 -0.28650000  16.000000   ; qtot 383.043657
15588         oh    562    ccc     O2  15588 -0.86012500  16.000000   ; qtot 382.183531
15589         oh    562    ccc     O3  15589 -0.83772800  16.000000   ; qtot 381.345804
15590         oh    562    ccc     O4  15590 -0.77449700  16.000000   ; qtot 380.571307
15591         c3    562    ccc     C6  15591 0.37576500  12.010000   ; qtot 380.947072
15592         ho    562    ccc     H6  15592 0.53656000   1.008000   ; qtot 381.483632
15593         ho    562    ccc     H7  15593 0.49492100   1.008000   ; qtot 381.978553
15594         ho    562    ccc     H8  15594 0.51297200   1.008000   ; qtot 382.491525
15595         h1    562    ccc     H9  15595 0.05653400   1.008000   ; qtot 382.548059
15596         h1    562    ccc    H10  15596 0.05653400   1.008000   ; qtot 382.604593
15597         oh    562    ccc     O5  15597 -0.84113600  16.000000   ; qtot 381.763457
15598         ho    562    ccc    H11  15598 0.51201600   1.008000   ; qtot 382.275473
15599         os    562    ccc     O6  15599 -0.26013600  16.000000   ; qtot 382.015337
; residue  563 ccc rtp ccc q 0.0
15600         c3    563    ccc     C1  15600 -0.33178800  12.010000   ; qtot 381.683549
15601         c3    563    ccc     C2  15601 0.30606500  12.010000   ; qtot 381.989614
15602         h1    563    ccc     H1  15602 0.11662300   1.008000   ; qtot 382.106237
15603         h1    563    ccc     H2  15603 0.11526800   1.008000   ; qtot 382.221505
15604         c3    563    ccc     C3  15604 0.15592700  12.010000   ; qtot 382.377432
15605         c3    563    ccc     C4  15605 0.28383300  12.010000   ; qtot 382.661265
15606         c3    563    ccc     C5  15606 0.32403300  12.010000   ; qtot 382.985298
15607         h1    563    ccc     H3  15607 0.13386900   1.008000   ; qtot 383.119167
15608         h1    563    ccc     H4  15608 0.10146700   1.008000   ; qtot 383.220634
15609         h2    563    ccc     H5  15609 0.10960400   1.008000   ; qtot 383.330238
15610         os    563    ccc     O1  15610 -0.28650000  16.000000   ; qtot 383.043738
15611         oh    563    ccc     O2  15611 -0.86012500  16.000000   ; qtot 382.183613
15612         oh    563    ccc     O3  15612 -0.83772800  16.000000   ; qtot 381.345885
15613         oh    563    ccc     O4  15613 -0.77449700  16.000000   ; qtot 380.571388
15614         c3    563    ccc     C6  15614 0.37576500  12.010000   ; qtot 380.947153
15615         ho    563    ccc     H6  15615 0.53656000   1.008000   ; qtot 381.483713
15616         ho    563    ccc     H7  15616 0.49492100   1.008000   ; qtot 381.978634
15617         ho    563    ccc     H8  15617 0.51297200   1.008000   ; qtot 382.491606
15618         h1    563    ccc     H9  15618 0.05653400   1.008000   ; qtot 382.548140
15619         h1    563    ccc    H10  15619 0.05653400   1.008000   ; qtot 382.604674
15620         oh    563    ccc     O5  15620 -0.84113600  16.000000   ; qtot 381.763538
15621         ho    563    ccc    H11  15621 0.51201600   1.008000   ; qtot 382.275554
15622         os    563    ccc     O6  15622 -0.26013600  16.000000   ; qtot 382.015418
; residue  564 ccc rtp ccc q 0.0
15623         c3    564    ccc     C1  15623 -0.33178800  12.010000   ; qtot 381.683630
15624         c3    564    ccc     C2  15624 0.30606500  12.010000   ; qtot 381.989695
15625         h1    564    ccc     H1  15625 0.11662300   1.008000   ; qtot 382.106318
15626         h1    564    ccc     H2  15626 0.11526800   1.008000   ; qtot 382.221586
15627         c3    564    ccc     C3  15627 0.15592700  12.010000   ; qtot 382.377513
15628         c3    564    ccc     C4  15628 0.28383300  12.010000   ; qtot 382.661346
15629         c3    564    ccc     C5  15629 0.32403300  12.010000   ; qtot 382.985379
15630         h1    564    ccc     H3  15630 0.13386900   1.008000   ; qtot 383.119248
15631         h1    564    ccc     H4  15631 0.10146700   1.008000   ; qtot 383.220715
15632         h2    564    ccc     H5  15632 0.10960400   1.008000   ; qtot 383.330319
15633         os    564    ccc     O1  15633 -0.28650000  16.000000   ; qtot 383.043819
15634         oh    564    ccc     O2  15634 -0.86012500  16.000000   ; qtot 382.183694
15635         oh    564    ccc     O3  15635 -0.83772800  16.000000   ; qtot 381.345966
15636         oh    564    ccc     O4  15636 -0.77449700  16.000000   ; qtot 380.571469
15637         c3    564    ccc     C6  15637 0.37576500  12.010000   ; qtot 380.947234
15638         ho    564    ccc     H6  15638 0.53656000   1.008000   ; qtot 381.483794
15639         ho    564    ccc     H7  15639 0.49492100   1.008000   ; qtot 381.978715
15640         ho    564    ccc     H8  15640 0.51297200   1.008000   ; qtot 382.491687
15641         h1    564    ccc     H9  15641 0.05653400   1.008000   ; qtot 382.548221
15642         h1    564    ccc    H10  15642 0.05653400   1.008000   ; qtot 382.604755
15643         oh    564    ccc     O5  15643 -0.84113600  16.000000   ; qtot 381.763619
15644         ho    564    ccc    H11  15644 0.51201600   1.008000   ; qtot 382.275635
15645         os    564    ccc     O6  15645 -0.26013600  16.000000   ; qtot 382.015499
; residue  565 ccc rtp ccc q 0.0
15646         c3    565    ccc     C1  15646 -0.33178800  12.010000   ; qtot 381.683711
15647         c3    565    ccc     C2  15647 0.30606500  12.010000   ; qtot 381.989776
15648         h1    565    ccc     H1  15648 0.11662300   1.008000   ; qtot 382.106399
15649         h1    565    ccc     H2  15649 0.11526800   1.008000   ; qtot 382.221667
15650         c3    565    ccc     C3  15650 0.15592700  12.010000   ; qtot 382.377594
15651         c3    565    ccc     C4  15651 0.28383300  12.010000   ; qtot 382.661427
15652         c3    565    ccc     C5  15652 0.32403300  12.010000   ; qtot 382.985460
15653         h1    565    ccc     H3  15653 0.13386900   1.008000   ; qtot 383.119329
15654         h1    565    ccc     H4  15654 0.10146700   1.008000   ; qtot 383.220796
15655         h2    565    ccc     H5  15655 0.10960400   1.008000   ; qtot 383.330400
15656         os    565    ccc     O1  15656 -0.28650000  16.000000   ; qtot 383.043900
15657         oh    565    ccc     O2  15657 -0.86012500  16.000000   ; qtot 382.183775
15658         oh    565    ccc     O3  15658 -0.83772800  16.000000   ; qtot 381.346047
15659         oh    565    ccc     O4  15659 -0.77449700  16.000000   ; qtot 380.571550
15660         c3    565    ccc     C6  15660 0.37576500  12.010000   ; qtot 380.947315
15661         ho    565    ccc     H6  15661 0.53656000   1.008000   ; qtot 381.483875
15662         ho    565    ccc     H7  15662 0.49492100   1.008000   ; qtot 381.978796
15663         ho    565    ccc     H8  15663 0.51297200   1.008000   ; qtot 382.491768
15664         h1    565    ccc     H9  15664 0.05653400   1.008000   ; qtot 382.548302
15665         h1    565    ccc    H10  15665 0.05653400   1.008000   ; qtot 382.604836
15666         oh    565    ccc     O5  15666 -0.84113600  16.000000   ; qtot 381.763700
15667         ho    565    ccc    H11  15667 0.51201600   1.008000   ; qtot 382.275716
15668         os    565    ccc     O6  15668 -0.26013600  16.000000   ; qtot 382.015580
; residue  566 ccc rtp ccc q 0.0
15669         c3    566    ccc     C1  15669 -0.33178800  12.010000   ; qtot 381.683792
15670         c3    566    ccc     C2  15670 0.30606500  12.010000   ; qtot 381.989857
15671         h1    566    ccc     H1  15671 0.11662300   1.008000   ; qtot 382.106480
15672         h1    566    ccc     H2  15672 0.11526800   1.008000   ; qtot 382.221748
15673         c3    566    ccc     C3  15673 0.15592700  12.010000   ; qtot 382.377675
15674         c3    566    ccc     C4  15674 0.28383300  12.010000   ; qtot 382.661508
15675         c3    566    ccc     C5  15675 0.32403300  12.010000   ; qtot 382.985541
15676         h1    566    ccc     H3  15676 0.13386900   1.008000   ; qtot 383.119410
15677         h1    566    ccc     H4  15677 0.10146700   1.008000   ; qtot 383.220877
15678         h2    566    ccc     H5  15678 0.10960400   1.008000   ; qtot 383.330481
15679         os    566    ccc     O1  15679 -0.28650000  16.000000   ; qtot 383.043981
15680         oh    566    ccc     O2  15680 -0.86012500  16.000000   ; qtot 382.183856
15681         oh    566    ccc     O3  15681 -0.83772800  16.000000   ; qtot 381.346128
15682         oh    566    ccc     O4  15682 -0.77449700  16.000000   ; qtot 380.571631
15683         c3    566    ccc     C6  15683 0.37576500  12.010000   ; qtot 380.947396
15684         ho    566    ccc     H6  15684 0.53656000   1.008000   ; qtot 381.483956
15685         ho    566    ccc     H7  15685 0.49492100   1.008000   ; qtot 381.978877
15686         ho    566    ccc     H8  15686 0.51297200   1.008000   ; qtot 382.491849
15687         h1    566    ccc     H9  15687 0.05653400   1.008000   ; qtot 382.548383
15688         h1    566    ccc    H10  15688 0.05653400   1.008000   ; qtot 382.604917
15689         oh    566    ccc     O5  15689 -0.84113600  16.000000   ; qtot 381.763781
15690         ho    566    ccc    H11  15690 0.51201600   1.008000   ; qtot 382.275797
15691         os    566    ccc     O6  15691 -0.26013600  16.000000   ; qtot 382.015661
; residue  567 ccc rtp ccc q 0.0
15692         c3    567    ccc     C1  15692 -0.33178800  12.010000   ; qtot 381.683873
15693         c3    567    ccc     C2  15693 0.30606500  12.010000   ; qtot 381.989938
15694         h1    567    ccc     H1  15694 0.11662300   1.008000   ; qtot 382.106561
15695         h1    567    ccc     H2  15695 0.11526800   1.008000   ; qtot 382.221829
15696         c3    567    ccc     C3  15696 0.15592700  12.010000   ; qtot 382.377756
15697         c3    567    ccc     C4  15697 0.28383300  12.010000   ; qtot 382.661589
15698         c3    567    ccc     C5  15698 0.32403300  12.010000   ; qtot 382.985622
15699         h1    567    ccc     H3  15699 0.13386900   1.008000   ; qtot 383.119491
15700         h1    567    ccc     H4  15700 0.10146700   1.008000   ; qtot 383.220958
15701         h2    567    ccc     H5  15701 0.10960400   1.008000   ; qtot 383.330562
15702         os    567    ccc     O1  15702 -0.28650000  16.000000   ; qtot 383.044062
15703         oh    567    ccc     O2  15703 -0.86012500  16.000000   ; qtot 382.183937
15704         oh    567    ccc     O3  15704 -0.83772800  16.000000   ; qtot 381.346209
15705         oh    567    ccc     O4  15705 -0.77449700  16.000000   ; qtot 380.571712
15706         c3    567    ccc     C6  15706 0.37576500  12.010000   ; qtot 380.947477
15707         ho    567    ccc     H6  15707 0.53656000   1.008000   ; qtot 381.484037
15708         ho    567    ccc     H7  15708 0.49492100   1.008000   ; qtot 381.978958
15709         ho    567    ccc     H8  15709 0.51297200   1.008000   ; qtot 382.491930
15710         h1    567    ccc     H9  15710 0.05653400   1.008000   ; qtot 382.548464
15711         h1    567    ccc    H10  15711 0.05653400   1.008000   ; qtot 382.604998
15712         oh    567    ccc     O5  15712 -0.84113600  16.000000   ; qtot 381.763862
15713         ho    567    ccc    H11  15713 0.51201600   1.008000   ; qtot 382.275878
15714         os    567    ccc     O6  15714 -0.26013600  16.000000   ; qtot 382.015742
; residue  568 ccc rtp ccc q 0.0
15715         c3    568    ccc     C1  15715 -0.33178800  12.010000   ; qtot 381.683954
15716         c3    568    ccc     C2  15716 0.30606500  12.010000   ; qtot 381.990019
15717         h1    568    ccc     H1  15717 0.11662300   1.008000   ; qtot 382.106642
15718         h1    568    ccc     H2  15718 0.11526800   1.008000   ; qtot 382.221910
15719         c3    568    ccc     C3  15719 0.15592700  12.010000   ; qtot 382.377837
15720         c3    568    ccc     C4  15720 0.28383300  12.010000   ; qtot 382.661670
15721         c3    568    ccc     C5  15721 0.32403300  12.010000   ; qtot 382.985703
15722         h1    568    ccc     H3  15722 0.13386900   1.008000   ; qtot 383.119572
15723         h1    568    ccc     H4  15723 0.10146700   1.008000   ; qtot 383.221039
15724         h2    568    ccc     H5  15724 0.10960400   1.008000   ; qtot 383.330643
15725         os    568    ccc     O1  15725 -0.28650000  16.000000   ; qtot 383.044143
15726         oh    568    ccc     O2  15726 -0.86012500  16.000000   ; qtot 382.184018
15727         oh    568    ccc     O3  15727 -0.83772800  16.000000   ; qtot 381.346290
15728         oh    568    ccc     O4  15728 -0.77449700  16.000000   ; qtot 380.571793
15729         c3    568    ccc     C6  15729 0.37576500  12.010000   ; qtot 380.947558
15730         ho    568    ccc     H6  15730 0.53656000   1.008000   ; qtot 381.484118
15731         ho    568    ccc     H7  15731 0.49492100   1.008000   ; qtot 381.979039
15732         ho    568    ccc     H8  15732 0.51297200   1.008000   ; qtot 382.492011
15733         h1    568    ccc     H9  15733 0.05653400   1.008000   ; qtot 382.548545
15734         h1    568    ccc    H10  15734 0.05653400   1.008000   ; qtot 382.605079
15735         oh    568    ccc     O5  15735 -0.84113600  16.000000   ; qtot 381.763943
15736         ho    568    ccc    H11  15736 0.51201600   1.008000   ; qtot 382.275959
15737         os    568    ccc     O6  15737 -0.26013600  16.000000   ; qtot 382.015823
; residue  569 ccc rtp ccc q 0.0
15738         c3    569    ccc     C1  15738 -0.33178800  12.010000   ; qtot 381.684035
15739         c3    569    ccc     C2  15739 0.30606500  12.010000   ; qtot 381.990100
15740         h1    569    ccc     H1  15740 0.11662300   1.008000   ; qtot 382.106723
15741         h1    569    ccc     H2  15741 0.11526800   1.008000   ; qtot 382.221991
15742         c3    569    ccc     C3  15742 0.15592700  12.010000   ; qtot 382.377918
15743         c3    569    ccc     C4  15743 0.28383300  12.010000   ; qtot 382.661751
15744         c3    569    ccc     C5  15744 0.32403300  12.010000   ; qtot 382.985784
15745         h1    569    ccc     H3  15745 0.13386900   1.008000   ; qtot 383.119653
15746         h1    569    ccc     H4  15746 0.10146700   1.008000   ; qtot 383.221120
15747         h2    569    ccc     H5  15747 0.10960400   1.008000   ; qtot 383.330724
15748         os    569    ccc     O1  15748 -0.28650000  16.000000   ; qtot 383.044224
15749         oh    569    ccc     O2  15749 -0.86012500  16.000000   ; qtot 382.184099
15750         oh    569    ccc     O3  15750 -0.83772800  16.000000   ; qtot 381.346371
15751         oh    569    ccc     O4  15751 -0.77449700  16.000000   ; qtot 380.571874
15752         c3    569    ccc     C6  15752 0.37576500  12.010000   ; qtot 380.947639
15753         ho    569    ccc     H6  15753 0.53656000   1.008000   ; qtot 381.484199
15754         ho    569    ccc     H7  15754 0.49492100   1.008000   ; qtot 381.979120
15755         ho    569    ccc     H8  15755 0.51297200   1.008000   ; qtot 382.492092
15756         h1    569    ccc     H9  15756 0.05653400   1.008000   ; qtot 382.548626
15757         h1    569    ccc    H10  15757 0.05653400   1.008000   ; qtot 382.605160
15758         oh    569    ccc     O5  15758 -0.84113600  16.000000   ; qtot 381.764024
15759         ho    569    ccc    H11  15759 0.51201600   1.008000   ; qtot 382.276040
15760         os    569    ccc     O6  15760 -0.26013600  16.000000   ; qtot 382.015904
; residue  570 ccc rtp ccc q 0.0
15761         c3    570    ccc     C1  15761 -0.33178800  12.010000   ; qtot 381.684116
15762         c3    570    ccc     C2  15762 0.30606500  12.010000   ; qtot 381.990181
15763         h1    570    ccc     H1  15763 0.11662300   1.008000   ; qtot 382.106804
15764         h1    570    ccc     H2  15764 0.11526800   1.008000   ; qtot 382.222072
15765         c3    570    ccc     C3  15765 0.15592700  12.010000   ; qtot 382.377999
15766         c3    570    ccc     C4  15766 0.28383300  12.010000   ; qtot 382.661832
15767         c3    570    ccc     C5  15767 0.32403300  12.010000   ; qtot 382.985865
15768         h1    570    ccc     H3  15768 0.13386900   1.008000   ; qtot 383.119734
15769         h1    570    ccc     H4  15769 0.10146700   1.008000   ; qtot 383.221201
15770         h2    570    ccc     H5  15770 0.10960400   1.008000   ; qtot 383.330805
15771         os    570    ccc     O1  15771 -0.28650000  16.000000   ; qtot 383.044305
15772         oh    570    ccc     O2  15772 -0.86012500  16.000000   ; qtot 382.184180
15773         oh    570    ccc     O3  15773 -0.83772800  16.000000   ; qtot 381.346452
15774         oh    570    ccc     O4  15774 -0.77449700  16.000000   ; qtot 380.571955
15775         c3    570    ccc     C6  15775 0.37576500  12.010000   ; qtot 380.947720
15776         ho    570    ccc     H6  15776 0.53656000   1.008000   ; qtot 381.484280
15777         ho    570    ccc     H7  15777 0.49492100   1.008000   ; qtot 381.979201
15778         ho    570    ccc     H8  15778 0.51297200   1.008000   ; qtot 382.492173
15779         h1    570    ccc     H9  15779 0.05653400   1.008000   ; qtot 382.548707
15780         h1    570    ccc    H10  15780 0.05653400   1.008000   ; qtot 382.605241
15781         oh    570    ccc     O5  15781 -0.84113600  16.000000   ; qtot 381.764105
15782         ho    570    ccc    H11  15782 0.51201600   1.008000   ; qtot 382.276121
15783         os    570    ccc     O6  15783 -0.26013600  16.000000   ; qtot 382.015985
; residue  571 ccc rtp ccc q 0.0
15784         c3    571    ccc     C1  15784 -0.33178800  12.010000   ; qtot 381.684197
15785         c3    571    ccc     C2  15785 0.30606500  12.010000   ; qtot 381.990262
15786         h1    571    ccc     H1  15786 0.11662300   1.008000   ; qtot 382.106885
15787         h1    571    ccc     H2  15787 0.11526800   1.008000   ; qtot 382.222153
15788         c3    571    ccc     C3  15788 0.15592700  12.010000   ; qtot 382.378080
15789         c3    571    ccc     C4  15789 0.28383300  12.010000   ; qtot 382.661913
15790         c3    571    ccc     C5  15790 0.32403300  12.010000   ; qtot 382.985946
15791         h1    571    ccc     H3  15791 0.13386900   1.008000   ; qtot 383.119815
15792         h1    571    ccc     H4  15792 0.10146700   1.008000   ; qtot 383.221282
15793         h2    571    ccc     H5  15793 0.10960400   1.008000   ; qtot 383.330886
15794         os    571    ccc     O1  15794 -0.28650000  16.000000   ; qtot 383.044386
15795         oh    571    ccc     O2  15795 -0.86012500  16.000000   ; qtot 382.184261
15796         oh    571    ccc     O3  15796 -0.83772800  16.000000   ; qtot 381.346533
15797         oh    571    ccc     O4  15797 -0.77449700  16.000000   ; qtot 380.572036
15798         c3    571    ccc     C6  15798 0.37576500  12.010000   ; qtot 380.947801
15799         ho    571    ccc     H6  15799 0.53656000   1.008000   ; qtot 381.484361
15800         ho    571    ccc     H7  15800 0.49492100   1.008000   ; qtot 381.979282
15801         ho    571    ccc     H8  15801 0.51297200   1.008000   ; qtot 382.492254
15802         h1    571    ccc     H9  15802 0.05653400   1.008000   ; qtot 382.548788
15803         h1    571    ccc    H10  15803 0.05653400   1.008000   ; qtot 382.605322
15804         oh    571    ccc     O5  15804 -0.84113600  16.000000   ; qtot 381.764186
15805         ho    571    ccc    H11  15805 0.51201600   1.008000   ; qtot 382.276202
15806         os    571    ccc     O6  15806 -0.26013600  16.000000   ; qtot 382.016066
; residue  572 ccc rtp ccc q 0.0
15807         c3    572    ccc     C1  15807 -0.33178800  12.010000   ; qtot 381.684278
15808         c3    572    ccc     C2  15808 0.30606500  12.010000   ; qtot 381.990343
15809         h1    572    ccc     H1  15809 0.11662300   1.008000   ; qtot 382.106966
15810         h1    572    ccc     H2  15810 0.11526800   1.008000   ; qtot 382.222234
15811         c3    572    ccc     C3  15811 0.15592700  12.010000   ; qtot 382.378161
15812         c3    572    ccc     C4  15812 0.28383300  12.010000   ; qtot 382.661994
15813         c3    572    ccc     C5  15813 0.32403300  12.010000   ; qtot 382.986027
15814         h1    572    ccc     H3  15814 0.13386900   1.008000   ; qtot 383.119896
15815         h1    572    ccc     H4  15815 0.10146700   1.008000   ; qtot 383.221363
15816         h2    572    ccc     H5  15816 0.10960400   1.008000   ; qtot 383.330967
15817         os    572    ccc     O1  15817 -0.28650000  16.000000   ; qtot 383.044467
15818         oh    572    ccc     O2  15818 -0.86012500  16.000000   ; qtot 382.184342
15819         oh    572    ccc     O3  15819 -0.83772800  16.000000   ; qtot 381.346614
15820         oh    572    ccc     O4  15820 -0.77449700  16.000000   ; qtot 380.572117
15821         c3    572    ccc     C6  15821 0.37576500  12.010000   ; qtot 380.947882
15822         ho    572    ccc     H6  15822 0.53656000   1.008000   ; qtot 381.484442
15823         ho    572    ccc     H7  15823 0.49492100   1.008000   ; qtot 381.979363
15824         ho    572    ccc     H8  15824 0.51297200   1.008000   ; qtot 382.492335
15825         h1    572    ccc     H9  15825 0.05653400   1.008000   ; qtot 382.548869
15826         h1    572    ccc    H10  15826 0.05653400   1.008000   ; qtot 382.605403
15827         oh    572    ccc     O5  15827 -0.84113600  16.000000   ; qtot 381.764267
15828         ho    572    ccc    H11  15828 0.51201600   1.008000   ; qtot 382.276283
15829         os    572    ccc     O6  15829 -0.26013600  16.000000   ; qtot 382.016147
; residue  573 ccc rtp ccc q 0.0
15830         c3    573    ccc     C1  15830 -0.33178800  12.010000   ; qtot 381.684359
15831         c3    573    ccc     C2  15831 0.30606500  12.010000   ; qtot 381.990424
15832         h1    573    ccc     H1  15832 0.11662300   1.008000   ; qtot 382.107047
15833         h1    573    ccc     H2  15833 0.11526800   1.008000   ; qtot 382.222315
15834         c3    573    ccc     C3  15834 0.15592700  12.010000   ; qtot 382.378242
15835         c3    573    ccc     C4  15835 0.28383300  12.010000   ; qtot 382.662075
15836         c3    573    ccc     C5  15836 0.32403300  12.010000   ; qtot 382.986108
15837         h1    573    ccc     H3  15837 0.13386900   1.008000   ; qtot 383.119977
15838         h1    573    ccc     H4  15838 0.10146700   1.008000   ; qtot 383.221444
15839         h2    573    ccc     H5  15839 0.10960400   1.008000   ; qtot 383.331048
15840         os    573    ccc     O1  15840 -0.28650000  16.000000   ; qtot 383.044548
15841         oh    573    ccc     O2  15841 -0.86012500  16.000000   ; qtot 382.184423
15842         oh    573    ccc     O3  15842 -0.83772800  16.000000   ; qtot 381.346695
15843         oh    573    ccc     O4  15843 -0.77449700  16.000000   ; qtot 380.572198
15844         c3    573    ccc     C6  15844 0.37576500  12.010000   ; qtot 380.947963
15845         ho    573    ccc     H6  15845 0.53656000   1.008000   ; qtot 381.484523
15846         ho    573    ccc     H7  15846 0.49492100   1.008000   ; qtot 381.979444
15847         ho    573    ccc     H8  15847 0.51297200   1.008000   ; qtot 382.492416
15848         h1    573    ccc     H9  15848 0.05653400   1.008000   ; qtot 382.548950
15849         h1    573    ccc    H10  15849 0.05653400   1.008000   ; qtot 382.605484
15850         oh    573    ccc     O5  15850 -0.84113600  16.000000   ; qtot 381.764348
15851         ho    573    ccc    H11  15851 0.51201600   1.008000   ; qtot 382.276364
15852         os    573    ccc     O6  15852 -0.26013600  16.000000   ; qtot 382.016228
; residue  574 ccc rtp ccc q 0.0
15853         c3    574    ccc     C1  15853 -0.33178800  12.010000   ; qtot 381.684440
15854         c3    574    ccc     C2  15854 0.30606500  12.010000   ; qtot 381.990505
15855         h1    574    ccc     H1  15855 0.11662300   1.008000   ; qtot 382.107128
15856         h1    574    ccc     H2  15856 0.11526800   1.008000   ; qtot 382.222396
15857         c3    574    ccc     C3  15857 0.15592700  12.010000   ; qtot 382.378323
15858         c3    574    ccc     C4  15858 0.28383300  12.010000   ; qtot 382.662156
15859         c3    574    ccc     C5  15859 0.32403300  12.010000   ; qtot 382.986189
15860         h1    574    ccc     H3  15860 0.13386900   1.008000   ; qtot 383.120058
15861         h1    574    ccc     H4  15861 0.10146700   1.008000   ; qtot 383.221525
15862         h2    574    ccc     H5  15862 0.10960400   1.008000   ; qtot 383.331129
15863         os    574    ccc     O1  15863 -0.28650000  16.000000   ; qtot 383.044629
15864         oh    574    ccc     O2  15864 -0.86012500  16.000000   ; qtot 382.184504
15865         oh    574    ccc     O3  15865 -0.83772800  16.000000   ; qtot 381.346776
15866         oh    574    ccc     O4  15866 -0.77449700  16.000000   ; qtot 380.572279
15867         c3    574    ccc     C6  15867 0.37576500  12.010000   ; qtot 380.948044
15868         ho    574    ccc     H6  15868 0.53656000   1.008000   ; qtot 381.484604
15869         ho    574    ccc     H7  15869 0.49492100   1.008000   ; qtot 381.979525
15870         ho    574    ccc     H8  15870 0.51297200   1.008000   ; qtot 382.492497
15871         h1    574    ccc     H9  15871 0.05653400   1.008000   ; qtot 382.549031
15872         h1    574    ccc    H10  15872 0.05653400   1.008000   ; qtot 382.605565
15873         oh    574    ccc     O5  15873 -0.84113600  16.000000   ; qtot 381.764429
15874         ho    574    ccc    H11  15874 0.51201600   1.008000   ; qtot 382.276445
15875         os    574    ccc     O6  15875 -0.26013600  16.000000   ; qtot 382.016309
; residue  575 ccc rtp ccc q 0.0
15876         c3    575    ccc     C1  15876 -0.33178800  12.010000   ; qtot 381.684521
15877         c3    575    ccc     C2  15877 0.30606500  12.010000   ; qtot 381.990586
15878         h1    575    ccc     H1  15878 0.11662300   1.008000   ; qtot 382.107209
15879         h1    575    ccc     H2  15879 0.11526800   1.008000   ; qtot 382.222477
15880         c3    575    ccc     C3  15880 0.15592700  12.010000   ; qtot 382.378404
15881         c3    575    ccc     C4  15881 0.28383300  12.010000   ; qtot 382.662237
15882         c3    575    ccc     C5  15882 0.32403300  12.010000   ; qtot 382.986270
15883         h1    575    ccc     H3  15883 0.13386900   1.008000   ; qtot 383.120139
15884         h1    575    ccc     H4  15884 0.10146700   1.008000   ; qtot 383.221606
15885         h2    575    ccc     H5  15885 0.10960400   1.008000   ; qtot 383.331210
15886         os    575    ccc     O1  15886 -0.28650000  16.000000   ; qtot 383.044710
15887         oh    575    ccc     O2  15887 -0.86012500  16.000000   ; qtot 382.184585
15888         oh    575    ccc     O3  15888 -0.83772800  16.000000   ; qtot 381.346857
15889         oh    575    ccc     O4  15889 -0.77449700  16.000000   ; qtot 380.572360
15890         c3    575    ccc     C6  15890 0.37576500  12.010000   ; qtot 380.948125
15891         ho    575    ccc     H6  15891 0.53656000   1.008000   ; qtot 381.484685
15892         ho    575    ccc     H7  15892 0.49492100   1.008000   ; qtot 381.979606
15893         ho    575    ccc     H8  15893 0.51297200   1.008000   ; qtot 382.492578
15894         h1    575    ccc     H9  15894 0.05653400   1.008000   ; qtot 382.549112
15895         h1    575    ccc    H10  15895 0.05653400   1.008000   ; qtot 382.605646
15896         oh    575    ccc     O5  15896 -0.84113600  16.000000   ; qtot 381.764510
15897         ho    575    ccc    H11  15897 0.51201600   1.008000   ; qtot 382.276526
15898         os    575    ccc     O6  15898 -0.26013600  16.000000   ; qtot 382.016390
; residue  576 ccc rtp ccc q 0.0
15899         c3    576    ccc     C1  15899 -0.33178800  12.010000   ; qtot 381.684602
15900         c3    576    ccc     C2  15900 0.30606500  12.010000   ; qtot 381.990667
15901         h1    576    ccc     H1  15901 0.11662300   1.008000   ; qtot 382.107290
15902         h1    576    ccc     H2  15902 0.11526800   1.008000   ; qtot 382.222558
15903         c3    576    ccc     C3  15903 0.15592700  12.010000   ; qtot 382.378485
15904         c3    576    ccc     C4  15904 0.28383300  12.010000   ; qtot 382.662318
15905         c3    576    ccc     C5  15905 0.32403300  12.010000   ; qtot 382.986351
15906         h1    576    ccc     H3  15906 0.13386900   1.008000   ; qtot 383.120220
15907         h1    576    ccc     H4  15907 0.10146700   1.008000   ; qtot 383.221687
15908         h2    576    ccc     H5  15908 0.10960400   1.008000   ; qtot 383.331291
15909         os    576    ccc     O1  15909 -0.28650000  16.000000   ; qtot 383.044791
15910         oh    576    ccc     O2  15910 -0.86012500  16.000000   ; qtot 382.184666
15911         oh    576    ccc     O3  15911 -0.83772800  16.000000   ; qtot 381.346938
15912         oh    576    ccc     O4  15912 -0.77449700  16.000000   ; qtot 380.572441
15913         c3    576    ccc     C6  15913 0.37576500  12.010000   ; qtot 380.948206
15914         ho    576    ccc     H6  15914 0.53656000   1.008000   ; qtot 381.484766
15915         ho    576    ccc     H7  15915 0.49492100   1.008000   ; qtot 381.979687
15916         ho    576    ccc     H8  15916 0.51297200   1.008000   ; qtot 382.492659
15917         h1    576    ccc     H9  15917 0.05653400   1.008000   ; qtot 382.549193
15918         h1    576    ccc    H10  15918 0.05653400   1.008000   ; qtot 382.605727
15919         oh    576    ccc     O5  15919 -0.84113600  16.000000   ; qtot 381.764591
15920         ho    576    ccc    H11  15920 0.51201600   1.008000   ; qtot 382.276607
15921         os    576    ccc     O6  15921 -0.26013600  16.000000   ; qtot 382.016471
; residue  577 ccc rtp ccc q 0.0
15922         c3    577    ccc     C1  15922 -0.33178800  12.010000   ; qtot 381.684683
15923         c3    577    ccc     C2  15923 0.30606500  12.010000   ; qtot 381.990748
15924         h1    577    ccc     H1  15924 0.11662300   1.008000   ; qtot 382.107371
15925         h1    577    ccc     H2  15925 0.11526800   1.008000   ; qtot 382.222639
15926         c3    577    ccc     C3  15926 0.15592700  12.010000   ; qtot 382.378566
15927         c3    577    ccc     C4  15927 0.28383300  12.010000   ; qtot 382.662399
15928         c3    577    ccc     C5  15928 0.32403300  12.010000   ; qtot 382.986432
15929         h1    577    ccc     H3  15929 0.13386900   1.008000   ; qtot 383.120301
15930         h1    577    ccc     H4  15930 0.10146700   1.008000   ; qtot 383.221768
15931         h2    577    ccc     H5  15931 0.10960400   1.008000   ; qtot 383.331372
15932         os    577    ccc     O1  15932 -0.28650000  16.000000   ; qtot 383.044872
15933         oh    577    ccc     O2  15933 -0.86012500  16.000000   ; qtot 382.184747
15934         oh    577    ccc     O3  15934 -0.83772800  16.000000   ; qtot 381.347019
15935         oh    577    ccc     O4  15935 -0.77449700  16.000000   ; qtot 380.572522
15936         c3    577    ccc     C6  15936 0.37576500  12.010000   ; qtot 380.948287
15937         ho    577    ccc     H6  15937 0.53656000   1.008000   ; qtot 381.484847
15938         ho    577    ccc     H7  15938 0.49492100   1.008000   ; qtot 381.979768
15939         ho    577    ccc     H8  15939 0.51297200   1.008000   ; qtot 382.492740
15940         h1    577    ccc     H9  15940 0.05653400   1.008000   ; qtot 382.549274
15941         h1    577    ccc    H10  15941 0.05653400   1.008000   ; qtot 382.605808
15942         oh    577    ccc     O5  15942 -0.84113600  16.000000   ; qtot 381.764672
15943         ho    577    ccc    H11  15943 0.51201600   1.008000   ; qtot 382.276688
15944         os    577    ccc     O6  15944 -0.26013600  16.000000   ; qtot 382.016552
; residue  578 ccc rtp ccc q 0.0
15945         c3    578    ccc     C1  15945 -0.33178800  12.010000   ; qtot 381.684764
15946         c3    578    ccc     C2  15946 0.30606500  12.010000   ; qtot 381.990829
15947         h1    578    ccc     H1  15947 0.11662300   1.008000   ; qtot 382.107452
15948         h1    578    ccc     H2  15948 0.11526800   1.008000   ; qtot 382.222720
15949         c3    578    ccc     C3  15949 0.15592700  12.010000   ; qtot 382.378647
15950         c3    578    ccc     C4  15950 0.28383300  12.010000   ; qtot 382.662480
15951         c3    578    ccc     C5  15951 0.32403300  12.010000   ; qtot 382.986513
15952         h1    578    ccc     H3  15952 0.13386900   1.008000   ; qtot 383.120382
15953         h1    578    ccc     H4  15953 0.10146700   1.008000   ; qtot 383.221849
15954         h2    578    ccc     H5  15954 0.10960400   1.008000   ; qtot 383.331453
15955         os    578    ccc     O1  15955 -0.28650000  16.000000   ; qtot 383.044953
15956         oh    578    ccc     O2  15956 -0.86012500  16.000000   ; qtot 382.184828
15957         oh    578    ccc     O3  15957 -0.83772800  16.000000   ; qtot 381.347100
15958         oh    578    ccc     O4  15958 -0.77449700  16.000000   ; qtot 380.572603
15959         c3    578    ccc     C6  15959 0.37576500  12.010000   ; qtot 380.948368
15960         ho    578    ccc     H6  15960 0.53656000   1.008000   ; qtot 381.484928
15961         ho    578    ccc     H7  15961 0.49492100   1.008000   ; qtot 381.979849
15962         ho    578    ccc     H8  15962 0.51297200   1.008000   ; qtot 382.492821
15963         h1    578    ccc     H9  15963 0.05653400   1.008000   ; qtot 382.549355
15964         h1    578    ccc    H10  15964 0.05653400   1.008000   ; qtot 382.605889
15965         oh    578    ccc     O5  15965 -0.84113600  16.000000   ; qtot 381.764753
15966         ho    578    ccc    H11  15966 0.51201600   1.008000   ; qtot 382.276769
15967         os    578    ccc     O6  15967 -0.26013600  16.000000   ; qtot 382.016633
; residue  579 ccc rtp ccc q 0.0
15968         c3    579    ccc     C1  15968 -0.33178800  12.010000   ; qtot 381.684845
15969         c3    579    ccc     C2  15969 0.30606500  12.010000   ; qtot 381.990910
15970         h1    579    ccc     H1  15970 0.11662300   1.008000   ; qtot 382.107533
15971         h1    579    ccc     H2  15971 0.11526800   1.008000   ; qtot 382.222801
15972         c3    579    ccc     C3  15972 0.15592700  12.010000   ; qtot 382.378728
15973         c3    579    ccc     C4  15973 0.28383300  12.010000   ; qtot 382.662561
15974         c3    579    ccc     C5  15974 0.32403300  12.010000   ; qtot 382.986594
15975         h1    579    ccc     H3  15975 0.13386900   1.008000   ; qtot 383.120463
15976         h1    579    ccc     H4  15976 0.10146700   1.008000   ; qtot 383.221930
15977         h2    579    ccc     H5  15977 0.10960400   1.008000   ; qtot 383.331534
15978         os    579    ccc     O1  15978 -0.28650000  16.000000   ; qtot 383.045034
15979         oh    579    ccc     O2  15979 -0.86012500  16.000000   ; qtot 382.184909
15980         oh    579    ccc     O3  15980 -0.83772800  16.000000   ; qtot 381.347181
15981         oh    579    ccc     O4  15981 -0.77449700  16.000000   ; qtot 380.572684
15982         c3    579    ccc     C6  15982 0.37576500  12.010000   ; qtot 380.948449
15983         ho    579    ccc     H6  15983 0.53656000   1.008000   ; qtot 381.485009
15984         ho    579    ccc     H7  15984 0.49492100   1.008000   ; qtot 381.979930
15985         ho    579    ccc     H8  15985 0.51297200   1.008000   ; qtot 382.492902
15986         h1    579    ccc     H9  15986 0.05653400   1.008000   ; qtot 382.549436
15987         h1    579    ccc    H10  15987 0.05653400   1.008000   ; qtot 382.605970
15988         oh    579    ccc     O5  15988 -0.84113600  16.000000   ; qtot 381.764834
15989         ho    579    ccc    H11  15989 0.51201600   1.008000   ; qtot 382.276850
15990         os    579    ccc     O6  15990 -0.26013600  16.000000   ; qtot 382.016714
; residue  580 ccc rtp ccc q 0.0
15991         c3    580    ccc     C1  15991 -0.33178800  12.010000   ; qtot 381.684926
15992         c3    580    ccc     C2  15992 0.30606500  12.010000   ; qtot 381.990991
15993         h1    580    ccc     H1  15993 0.11662300   1.008000   ; qtot 382.107614
15994         h1    580    ccc     H2  15994 0.11526800   1.008000   ; qtot 382.222882
15995         c3    580    ccc     C3  15995 0.15592700  12.010000   ; qtot 382.378809
15996         c3    580    ccc     C4  15996 0.28383300  12.010000   ; qtot 382.662642
15997         c3    580    ccc     C5  15997 0.32403300  12.010000   ; qtot 382.986675
15998         h1    580    ccc     H3  15998 0.13386900   1.008000   ; qtot 383.120544
15999         h1    580    ccc     H4  15999 0.10146700   1.008000   ; qtot 383.222011
16000         h2    580    ccc     H5  16000 0.10960400   1.008000   ; qtot 383.331615
16001         os    580    ccc     O1  16001 -0.28650000  16.000000   ; qtot 383.045115
16002         oh    580    ccc     O2  16002 -0.86012500  16.000000   ; qtot 382.184990
16003         oh    580    ccc     O3  16003 -0.83772800  16.000000   ; qtot 381.347262
16004         oh    580    ccc     O4  16004 -0.77449700  16.000000   ; qtot 380.572765
16005         c3    580    ccc     C6  16005 0.37576500  12.010000   ; qtot 380.948530
16006         ho    580    ccc     H6  16006 0.53656000   1.008000   ; qtot 381.485090
16007         ho    580    ccc     H7  16007 0.49492100   1.008000   ; qtot 381.980011
16008         ho    580    ccc     H8  16008 0.51297200   1.008000   ; qtot 382.492983
16009         h1    580    ccc     H9  16009 0.05653400   1.008000   ; qtot 382.549517
16010         h1    580    ccc    H10  16010 0.05653400   1.008000   ; qtot 382.606051
16011         oh    580    ccc     O5  16011 -0.84113600  16.000000   ; qtot 381.764915
16012         ho    580    ccc    H11  16012 0.51201600   1.008000   ; qtot 382.276931
16013         os    580    ccc     O6  16013 -0.26013600  16.000000   ; qtot 382.016795
; residue  581 ccc rtp ccc q 0.0
16014         c3    581    ccc     C1  16014 -0.33178800  12.010000   ; qtot 381.685007
16015         c3    581    ccc     C2  16015 0.30606500  12.010000   ; qtot 381.991072
16016         h1    581    ccc     H1  16016 0.11662300   1.008000   ; qtot 382.107695
16017         h1    581    ccc     H2  16017 0.11526800   1.008000   ; qtot 382.222963
16018         c3    581    ccc     C3  16018 0.15592700  12.010000   ; qtot 382.378890
16019         c3    581    ccc     C4  16019 0.28383300  12.010000   ; qtot 382.662723
16020         c3    581    ccc     C5  16020 0.32403300  12.010000   ; qtot 382.986756
16021         h1    581    ccc     H3  16021 0.13386900   1.008000   ; qtot 383.120625
16022         h1    581    ccc     H4  16022 0.10146700   1.008000   ; qtot 383.222092
16023         h2    581    ccc     H5  16023 0.10960400   1.008000   ; qtot 383.331696
16024         os    581    ccc     O1  16024 -0.28650000  16.000000   ; qtot 383.045196
16025         oh    581    ccc     O2  16025 -0.86012500  16.000000   ; qtot 382.185071
16026         oh    581    ccc     O3  16026 -0.83772800  16.000000   ; qtot 381.347343
16027         oh    581    ccc     O4  16027 -0.77449700  16.000000   ; qtot 380.572846
16028         c3    581    ccc     C6  16028 0.37576500  12.010000   ; qtot 380.948611
16029         ho    581    ccc     H6  16029 0.53656000   1.008000   ; qtot 381.485171
16030         ho    581    ccc     H7  16030 0.49492100   1.008000   ; qtot 381.980092
16031         ho    581    ccc     H8  16031 0.51297200   1.008000   ; qtot 382.493064
16032         h1    581    ccc     H9  16032 0.05653400   1.008000   ; qtot 382.549598
16033         h1    581    ccc    H10  16033 0.05653400   1.008000   ; qtot 382.606132
16034         oh    581    ccc     O5  16034 -0.84113600  16.000000   ; qtot 381.764996
16035         ho    581    ccc    H11  16035 0.51201600   1.008000   ; qtot 382.277012
16036         os    581    ccc     O6  16036 -0.26013600  16.000000   ; qtot 382.016876
; residue  582 ccc rtp ccc q 0.0
16037         c3    582    ccc     C1  16037 -0.33178800  12.010000   ; qtot 381.685088
16038         c3    582    ccc     C2  16038 0.30606500  12.010000   ; qtot 381.991153
16039         h1    582    ccc     H1  16039 0.11662300   1.008000   ; qtot 382.107776
16040         h1    582    ccc     H2  16040 0.11526800   1.008000   ; qtot 382.223044
16041         c3    582    ccc     C3  16041 0.15592700  12.010000   ; qtot 382.378971
16042         c3    582    ccc     C4  16042 0.28383300  12.010000   ; qtot 382.662804
16043         c3    582    ccc     C5  16043 0.32403300  12.010000   ; qtot 382.986837
16044         h1    582    ccc     H3  16044 0.13386900   1.008000   ; qtot 383.120706
16045         h1    582    ccc     H4  16045 0.10146700   1.008000   ; qtot 383.222173
16046         h2    582    ccc     H5  16046 0.10960400   1.008000   ; qtot 383.331777
16047         os    582    ccc     O1  16047 -0.28650000  16.000000   ; qtot 383.045277
16048         oh    582    ccc     O2  16048 -0.86012500  16.000000   ; qtot 382.185152
16049         oh    582    ccc     O3  16049 -0.83772800  16.000000   ; qtot 381.347424
16050         oh    582    ccc     O4  16050 -0.77449700  16.000000   ; qtot 380.572927
16051         c3    582    ccc     C6  16051 0.37576500  12.010000   ; qtot 380.948692
16052         ho    582    ccc     H6  16052 0.53656000   1.008000   ; qtot 381.485252
16053         ho    582    ccc     H7  16053 0.49492100   1.008000   ; qtot 381.980173
16054         ho    582    ccc     H8  16054 0.51297200   1.008000   ; qtot 382.493145
16055         h1    582    ccc     H9  16055 0.05653400   1.008000   ; qtot 382.549679
16056         h1    582    ccc    H10  16056 0.05653400   1.008000   ; qtot 382.606213
16057         oh    582    ccc     O5  16057 -0.84113600  16.000000   ; qtot 381.765077
16058         ho    582    ccc    H11  16058 0.51201600   1.008000   ; qtot 382.277093
16059         os    582    ccc     O6  16059 -0.26013600  16.000000   ; qtot 382.016957
; residue  583 ccc rtp ccc q 0.0
16060         c3    583    ccc     C1  16060 -0.33178800  12.010000   ; qtot 381.685169
16061         c3    583    ccc     C2  16061 0.30606500  12.010000   ; qtot 381.991234
16062         h1    583    ccc     H1  16062 0.11662300   1.008000   ; qtot 382.107857
16063         h1    583    ccc     H2  16063 0.11526800   1.008000   ; qtot 382.223125
16064         c3    583    ccc     C3  16064 0.15592700  12.010000   ; qtot 382.379052
16065         c3    583    ccc     C4  16065 0.28383300  12.010000   ; qtot 382.662885
16066         c3    583    ccc     C5  16066 0.32403300  12.010000   ; qtot 382.986918
16067         h1    583    ccc     H3  16067 0.13386900   1.008000   ; qtot 383.120787
16068         h1    583    ccc     H4  16068 0.10146700   1.008000   ; qtot 383.222254
16069         h2    583    ccc     H5  16069 0.10960400   1.008000   ; qtot 383.331858
16070         os    583    ccc     O1  16070 -0.28650000  16.000000   ; qtot 383.045358
16071         oh    583    ccc     O2  16071 -0.86012500  16.000000   ; qtot 382.185233
16072         oh    583    ccc     O3  16072 -0.83772800  16.000000   ; qtot 381.347505
16073         oh    583    ccc     O4  16073 -0.77449700  16.000000   ; qtot 380.573008
16074         c3    583    ccc     C6  16074 0.37576500  12.010000   ; qtot 380.948773
16075         ho    583    ccc     H6  16075 0.53656000   1.008000   ; qtot 381.485333
16076         ho    583    ccc     H7  16076 0.49492100   1.008000   ; qtot 381.980254
16077         ho    583    ccc     H8  16077 0.51297200   1.008000   ; qtot 382.493226
16078         h1    583    ccc     H9  16078 0.05653400   1.008000   ; qtot 382.549760
16079         h1    583    ccc    H10  16079 0.05653400   1.008000   ; qtot 382.606294
16080         oh    583    ccc     O5  16080 -0.84113600  16.000000   ; qtot 381.765158
16081         ho    583    ccc    H11  16081 0.51201600   1.008000   ; qtot 382.277174
16082         os    583    ccc     O6  16082 -0.26013600  16.000000   ; qtot 382.017038
; residue  584 ccc rtp ccc q 0.0
16083         c3    584    ccc     C1  16083 -0.33178800  12.010000   ; qtot 381.685250
16084         c3    584    ccc     C2  16084 0.30606500  12.010000   ; qtot 381.991315
16085         h1    584    ccc     H1  16085 0.11662300   1.008000   ; qtot 382.107938
16086         h1    584    ccc     H2  16086 0.11526800   1.008000   ; qtot 382.223206
16087         c3    584    ccc     C3  16087 0.15592700  12.010000   ; qtot 382.379133
16088         c3    584    ccc     C4  16088 0.28383300  12.010000   ; qtot 382.662966
16089         c3    584    ccc     C5  16089 0.32403300  12.010000   ; qtot 382.986999
16090         h1    584    ccc     H3  16090 0.13386900   1.008000   ; qtot 383.120868
16091         h1    584    ccc     H4  16091 0.10146700   1.008000   ; qtot 383.222335
16092         h2    584    ccc     H5  16092 0.10960400   1.008000   ; qtot 383.331939
16093         os    584    ccc     O1  16093 -0.28650000  16.000000   ; qtot 383.045439
16094         oh    584    ccc     O2  16094 -0.86012500  16.000000   ; qtot 382.185314
16095         oh    584    ccc     O3  16095 -0.83772800  16.000000   ; qtot 381.347586
16096         oh    584    ccc     O4  16096 -0.77449700  16.000000   ; qtot 380.573089
16097         c3    584    ccc     C6  16097 0.37576500  12.010000   ; qtot 380.948854
16098         ho    584    ccc     H6  16098 0.53656000   1.008000   ; qtot 381.485414
16099         ho    584    ccc     H7  16099 0.49492100   1.008000   ; qtot 381.980335
16100         ho    584    ccc     H8  16100 0.51297200   1.008000   ; qtot 382.493307
16101         h1    584    ccc     H9  16101 0.05653400   1.008000   ; qtot 382.549841
16102         h1    584    ccc    H10  16102 0.05653400   1.008000   ; qtot 382.606375
16103         oh    584    ccc     O5  16103 -0.84113600  16.000000   ; qtot 381.765239
16104         ho    584    ccc    H11  16104 0.51201600   1.008000   ; qtot 382.277255
16105         os    584    ccc     O6  16105 -0.26013600  16.000000   ; qtot 382.017119
; residue  585 ccc rtp ccc q 0.0
16106         c3    585    ccc     C1  16106 -0.33178800  12.010000   ; qtot 381.685331
16107         c3    585    ccc     C2  16107 0.30606500  12.010000   ; qtot 381.991396
16108         h1    585    ccc     H1  16108 0.11662300   1.008000   ; qtot 382.108019
16109         h1    585    ccc     H2  16109 0.11526800   1.008000   ; qtot 382.223287
16110         c3    585    ccc     C3  16110 0.15592700  12.010000   ; qtot 382.379214
16111         c3    585    ccc     C4  16111 0.28383300  12.010000   ; qtot 382.663047
16112         c3    585    ccc     C5  16112 0.32403300  12.010000   ; qtot 382.987080
16113         h1    585    ccc     H3  16113 0.13386900   1.008000   ; qtot 383.120949
16114         h1    585    ccc     H4  16114 0.10146700   1.008000   ; qtot 383.222416
16115         h2    585    ccc     H5  16115 0.10960400   1.008000   ; qtot 383.332020
16116         os    585    ccc     O1  16116 -0.28650000  16.000000   ; qtot 383.045520
16117         oh    585    ccc     O2  16117 -0.86012500  16.000000   ; qtot 382.185395
16118         oh    585    ccc     O3  16118 -0.83772800  16.000000   ; qtot 381.347667
16119         oh    585    ccc     O4  16119 -0.77449700  16.000000   ; qtot 380.573170
16120         c3    585    ccc     C6  16120 0.37576500  12.010000   ; qtot 380.948935
16121         ho    585    ccc     H6  16121 0.53656000   1.008000   ; qtot 381.485495
16122         ho    585    ccc     H7  16122 0.49492100   1.008000   ; qtot 381.980416
16123         ho    585    ccc     H8  16123 0.51297200   1.008000   ; qtot 382.493388
16124         h1    585    ccc     H9  16124 0.05653400   1.008000   ; qtot 382.549922
16125         h1    585    ccc    H10  16125 0.05653400   1.008000   ; qtot 382.606456
16126         oh    585    ccc     O5  16126 -0.84113600  16.000000   ; qtot 381.765320
16127         ho    585    ccc    H11  16127 0.51201600   1.008000   ; qtot 382.277336
16128         os    585    ccc     O6  16128 -0.26013600  16.000000   ; qtot 382.017200
; residue  586 ccc rtp ccc q 0.0
16129         c3    586    ccc     C1  16129 -0.33178800  12.010000   ; qtot 381.685412
16130         c3    586    ccc     C2  16130 0.30606500  12.010000   ; qtot 381.991477
16131         h1    586    ccc     H1  16131 0.11662300   1.008000   ; qtot 382.108100
16132         h1    586    ccc     H2  16132 0.11526800   1.008000   ; qtot 382.223368
16133         c3    586    ccc     C3  16133 0.15592700  12.010000   ; qtot 382.379295
16134         c3    586    ccc     C4  16134 0.28383300  12.010000   ; qtot 382.663128
16135         c3    586    ccc     C5  16135 0.32403300  12.010000   ; qtot 382.987161
16136         h1    586    ccc     H3  16136 0.13386900   1.008000   ; qtot 383.121030
16137         h1    586    ccc     H4  16137 0.10146700   1.008000   ; qtot 383.222497
16138         h2    586    ccc     H5  16138 0.10960400   1.008000   ; qtot 383.332101
16139         os    586    ccc     O1  16139 -0.28650000  16.000000   ; qtot 383.045601
16140         oh    586    ccc     O2  16140 -0.86012500  16.000000   ; qtot 382.185476
16141         oh    586    ccc     O3  16141 -0.83772800  16.000000   ; qtot 381.347748
16142         oh    586    ccc     O4  16142 -0.77449700  16.000000   ; qtot 380.573251
16143         c3    586    ccc     C6  16143 0.37576500  12.010000   ; qtot 380.949016
16144         ho    586    ccc     H6  16144 0.53656000   1.008000   ; qtot 381.485576
16145         ho    586    ccc     H7  16145 0.49492100   1.008000   ; qtot 381.980497
16146         ho    586    ccc     H8  16146 0.51297200   1.008000   ; qtot 382.493469
16147         h1    586    ccc     H9  16147 0.05653400   1.008000   ; qtot 382.550003
16148         h1    586    ccc    H10  16148 0.05653400   1.008000   ; qtot 382.606537
16149         oh    586    ccc     O5  16149 -0.84113600  16.000000   ; qtot 381.765401
16150         ho    586    ccc    H11  16150 0.51201600   1.008000   ; qtot 382.277417
16151         os    586    ccc     O6  16151 -0.26013600  16.000000   ; qtot 382.017281
; residue  587 ccc rtp ccc q 0.0
16152         c3    587    ccc     C1  16152 -0.33178800  12.010000   ; qtot 381.685493
16153         c3    587    ccc     C2  16153 0.30606500  12.010000   ; qtot 381.991558
16154         h1    587    ccc     H1  16154 0.11662300   1.008000   ; qtot 382.108181
16155         h1    587    ccc     H2  16155 0.11526800   1.008000   ; qtot 382.223449
16156         c3    587    ccc     C3  16156 0.15592700  12.010000   ; qtot 382.379376
16157         c3    587    ccc     C4  16157 0.28383300  12.010000   ; qtot 382.663209
16158         c3    587    ccc     C5  16158 0.32403300  12.010000   ; qtot 382.987242
16159         h1    587    ccc     H3  16159 0.13386900   1.008000   ; qtot 383.121111
16160         h1    587    ccc     H4  16160 0.10146700   1.008000   ; qtot 383.222578
16161         h2    587    ccc     H5  16161 0.10960400   1.008000   ; qtot 383.332182
16162         os    587    ccc     O1  16162 -0.28650000  16.000000   ; qtot 383.045682
16163         oh    587    ccc     O2  16163 -0.86012500  16.000000   ; qtot 382.185557
16164         oh    587    ccc     O3  16164 -0.83772800  16.000000   ; qtot 381.347829
16165         oh    587    ccc     O4  16165 -0.77449700  16.000000   ; qtot 380.573332
16166         c3    587    ccc     C6  16166 0.37576500  12.010000   ; qtot 380.949097
16167         ho    587    ccc     H6  16167 0.53656000   1.008000   ; qtot 381.485657
16168         ho    587    ccc     H7  16168 0.49492100   1.008000   ; qtot 381.980578
16169         ho    587    ccc     H8  16169 0.51297200   1.008000   ; qtot 382.493550
16170         h1    587    ccc     H9  16170 0.05653400   1.008000   ; qtot 382.550084
16171         h1    587    ccc    H10  16171 0.05653400   1.008000   ; qtot 382.606618
16172         oh    587    ccc     O5  16172 -0.84113600  16.000000   ; qtot 381.765482
16173         ho    587    ccc    H11  16173 0.51201600   1.008000   ; qtot 382.277498
16174         os    587    ccc     O6  16174 -0.26013600  16.000000   ; qtot 382.017362
; residue  588 ccc rtp ccc q 0.0
16175         c3    588    ccc     C1  16175 -0.33178800  12.010000   ; qtot 381.685574
16176         c3    588    ccc     C2  16176 0.30606500  12.010000   ; qtot 381.991639
16177         h1    588    ccc     H1  16177 0.11662300   1.008000   ; qtot 382.108262
16178         h1    588    ccc     H2  16178 0.11526800   1.008000   ; qtot 382.223530
16179         c3    588    ccc     C3  16179 0.15592700  12.010000   ; qtot 382.379457
16180         c3    588    ccc     C4  16180 0.28383300  12.010000   ; qtot 382.663290
16181         c3    588    ccc     C5  16181 0.32403300  12.010000   ; qtot 382.987323
16182         h1    588    ccc     H3  16182 0.13386900   1.008000   ; qtot 383.121192
16183         h1    588    ccc     H4  16183 0.10146700   1.008000   ; qtot 383.222659
16184         h2    588    ccc     H5  16184 0.10960400   1.008000   ; qtot 383.332263
16185         os    588    ccc     O1  16185 -0.28650000  16.000000   ; qtot 383.045763
16186         oh    588    ccc     O2  16186 -0.86012500  16.000000   ; qtot 382.185638
16187         oh    588    ccc     O3  16187 -0.83772800  16.000000   ; qtot 381.347910
16188         oh    588    ccc     O4  16188 -0.77449700  16.000000   ; qtot 380.573413
16189         c3    588    ccc     C6  16189 0.37576500  12.010000   ; qtot 380.949178
16190         ho    588    ccc     H6  16190 0.53656000   1.008000   ; qtot 381.485738
16191         ho    588    ccc     H7  16191 0.49492100   1.008000   ; qtot 381.980659
16192         ho    588    ccc     H8  16192 0.51297200   1.008000   ; qtot 382.493631
16193         h1    588    ccc     H9  16193 0.05653400   1.008000   ; qtot 382.550165
16194         h1    588    ccc    H10  16194 0.05653400   1.008000   ; qtot 382.606699
16195         oh    588    ccc     O5  16195 -0.84113600  16.000000   ; qtot 381.765563
16196         ho    588    ccc    H11  16196 0.51201600   1.008000   ; qtot 382.277579
16197         os    588    ccc     O6  16197 -0.26013600  16.000000   ; qtot 382.017443
; residue  589 ccc rtp ccc q 0.0
16198         c3    589    ccc     C1  16198 -0.33178800  12.010000   ; qtot 381.685655
16199         c3    589    ccc     C2  16199 0.30606500  12.010000   ; qtot 381.991720
16200         h1    589    ccc     H1  16200 0.11662300   1.008000   ; qtot 382.108343
16201         h1    589    ccc     H2  16201 0.11526800   1.008000   ; qtot 382.223611
16202         c3    589    ccc     C3  16202 0.15592700  12.010000   ; qtot 382.379538
16203         c3    589    ccc     C4  16203 0.28383300  12.010000   ; qtot 382.663371
16204         c3    589    ccc     C5  16204 0.32403300  12.010000   ; qtot 382.987404
16205         h1    589    ccc     H3  16205 0.13386900   1.008000   ; qtot 383.121273
16206         h1    589    ccc     H4  16206 0.10146700   1.008000   ; qtot 383.222740
16207         h2    589    ccc     H5  16207 0.10960400   1.008000   ; qtot 383.332344
16208         os    589    ccc     O1  16208 -0.28650000  16.000000   ; qtot 383.045844
16209         oh    589    ccc     O2  16209 -0.86012500  16.000000   ; qtot 382.185719
16210         oh    589    ccc     O3  16210 -0.83772800  16.000000   ; qtot 381.347991
16211         oh    589    ccc     O4  16211 -0.77449700  16.000000   ; qtot 380.573494
16212         c3    589    ccc     C6  16212 0.37576500  12.010000   ; qtot 380.949259
16213         ho    589    ccc     H6  16213 0.53656000   1.008000   ; qtot 381.485819
16214         ho    589    ccc     H7  16214 0.49492100   1.008000   ; qtot 381.980740
16215         ho    589    ccc     H8  16215 0.51297200   1.008000   ; qtot 382.493712
16216         h1    589    ccc     H9  16216 0.05653400   1.008000   ; qtot 382.550246
16217         h1    589    ccc    H10  16217 0.05653400   1.008000   ; qtot 382.606780
16218         oh    589    ccc     O5  16218 -0.84113600  16.000000   ; qtot 381.765644
16219         ho    589    ccc    H11  16219 0.51201600   1.008000   ; qtot 382.277660
16220         os    589    ccc     O6  16220 -0.26013600  16.000000   ; qtot 382.017524
; residue  590 ccc rtp ccc q 0.0
16221         c3    590    ccc     C1  16221 -0.33178800  12.010000   ; qtot 381.685736
16222         c3    590    ccc     C2  16222 0.30606500  12.010000   ; qtot 381.991801
16223         h1    590    ccc     H1  16223 0.11662300   1.008000   ; qtot 382.108424
16224         h1    590    ccc     H2  16224 0.11526800   1.008000   ; qtot 382.223692
16225         c3    590    ccc     C3  16225 0.15592700  12.010000   ; qtot 382.379619
16226         c3    590    ccc     C4  16226 0.28383300  12.010000   ; qtot 382.663452
16227         c3    590    ccc     C5  16227 0.32403300  12.010000   ; qtot 382.987485
16228         h1    590    ccc     H3  16228 0.13386900   1.008000   ; qtot 383.121354
16229         h1    590    ccc     H4  16229 0.10146700   1.008000   ; qtot 383.222821
16230         h2    590    ccc     H5  16230 0.10960400   1.008000   ; qtot 383.332425
16231         os    590    ccc     O1  16231 -0.28650000  16.000000   ; qtot 383.045925
16232         oh    590    ccc     O2  16232 -0.86012500  16.000000   ; qtot 382.185800
16233         oh    590    ccc     O3  16233 -0.83772800  16.000000   ; qtot 381.348072
16234         oh    590    ccc     O4  16234 -0.77449700  16.000000   ; qtot 380.573575
16235         c3    590    ccc     C6  16235 0.37576500  12.010000   ; qtot 380.949340
16236         ho    590    ccc     H6  16236 0.53656000   1.008000   ; qtot 381.485900
16237         ho    590    ccc     H7  16237 0.49492100   1.008000   ; qtot 381.980821
16238         ho    590    ccc     H8  16238 0.51297200   1.008000   ; qtot 382.493793
16239         h1    590    ccc     H9  16239 0.05653400   1.008000   ; qtot 382.550327
16240         h1    590    ccc    H10  16240 0.05653400   1.008000   ; qtot 382.606861
16241         oh    590    ccc     O5  16241 -0.84113600  16.000000   ; qtot 381.765725
16242         ho    590    ccc    H11  16242 0.51201600   1.008000   ; qtot 382.277741
16243         os    590    ccc     O6  16243 -0.26013600  16.000000   ; qtot 382.017605
; residue  591 ccc rtp ccc q 0.0
16244         c3    591    ccc     C1  16244 -0.33178800  12.010000   ; qtot 381.685817
16245         c3    591    ccc     C2  16245 0.30606500  12.010000   ; qtot 381.991882
16246         h1    591    ccc     H1  16246 0.11662300   1.008000   ; qtot 382.108505
16247         h1    591    ccc     H2  16247 0.11526800   1.008000   ; qtot 382.223773
16248         c3    591    ccc     C3  16248 0.15592700  12.010000   ; qtot 382.379700
16249         c3    591    ccc     C4  16249 0.28383300  12.010000   ; qtot 382.663533
16250         c3    591    ccc     C5  16250 0.32403300  12.010000   ; qtot 382.987566
16251         h1    591    ccc     H3  16251 0.13386900   1.008000   ; qtot 383.121435
16252         h1    591    ccc     H4  16252 0.10146700   1.008000   ; qtot 383.222902
16253         h2    591    ccc     H5  16253 0.10960400   1.008000   ; qtot 383.332506
16254         os    591    ccc     O1  16254 -0.28650000  16.000000   ; qtot 383.046006
16255         oh    591    ccc     O2  16255 -0.86012500  16.000000   ; qtot 382.185881
16256         oh    591    ccc     O3  16256 -0.83772800  16.000000   ; qtot 381.348153
16257         oh    591    ccc     O4  16257 -0.77449700  16.000000   ; qtot 380.573656
16258         c3    591    ccc     C6  16258 0.37576500  12.010000   ; qtot 380.949421
16259         ho    591    ccc     H6  16259 0.53656000   1.008000   ; qtot 381.485981
16260         ho    591    ccc     H7  16260 0.49492100   1.008000   ; qtot 381.980902
16261         ho    591    ccc     H8  16261 0.51297200   1.008000   ; qtot 382.493874
16262         h1    591    ccc     H9  16262 0.05653400   1.008000   ; qtot 382.550408
16263         h1    591    ccc    H10  16263 0.05653400   1.008000   ; qtot 382.606942
16264         oh    591    ccc     O5  16264 -0.84113600  16.000000   ; qtot 381.765806
16265         ho    591    ccc    H11  16265 0.51201600   1.008000   ; qtot 382.277822
16266         os    591    ccc     O6  16266 -0.26013600  16.000000   ; qtot 382.017686
; residue  592 ccc rtp ccc q 0.0
16267         c3    592    ccc     C1  16267 -0.33178800  12.010000   ; qtot 381.685898
16268         c3    592    ccc     C2  16268 0.30606500  12.010000   ; qtot 381.991963
16269         h1    592    ccc     H1  16269 0.11662300   1.008000   ; qtot 382.108586
16270         h1    592    ccc     H2  16270 0.11526800   1.008000   ; qtot 382.223854
16271         c3    592    ccc     C3  16271 0.15592700  12.010000   ; qtot 382.379781
16272         c3    592    ccc     C4  16272 0.28383300  12.010000   ; qtot 382.663614
16273         c3    592    ccc     C5  16273 0.32403300  12.010000   ; qtot 382.987647
16274         h1    592    ccc     H3  16274 0.13386900   1.008000   ; qtot 383.121516
16275         h1    592    ccc     H4  16275 0.10146700   1.008000   ; qtot 383.222983
16276         h2    592    ccc     H5  16276 0.10960400   1.008000   ; qtot 383.332587
16277         os    592    ccc     O1  16277 -0.28650000  16.000000   ; qtot 383.046087
16278         oh    592    ccc     O2  16278 -0.86012500  16.000000   ; qtot 382.185962
16279         oh    592    ccc     O3  16279 -0.83772800  16.000000   ; qtot 381.348234
16280         oh    592    ccc     O4  16280 -0.77449700  16.000000   ; qtot 380.573737
16281         c3    592    ccc     C6  16281 0.37576500  12.010000   ; qtot 380.949502
16282         ho    592    ccc     H6  16282 0.53656000   1.008000   ; qtot 381.486062
16283         ho    592    ccc     H7  16283 0.49492100   1.008000   ; qtot 381.980983
16284         ho    592    ccc     H8  16284 0.51297200   1.008000   ; qtot 382.493955
16285         h1    592    ccc     H9  16285 0.05653400   1.008000   ; qtot 382.550489
16286         h1    592    ccc    H10  16286 0.05653400   1.008000   ; qtot 382.607023
16287         oh    592    ccc     O5  16287 -0.84113600  16.000000   ; qtot 381.765887
16288         ho    592    ccc    H11  16288 0.51201600   1.008000   ; qtot 382.277903
16289         os    592    ccc     O6  16289 -0.26013600  16.000000   ; qtot 382.017767
; residue  593 ccc rtp ccc q 0.0
16290         c3    593    ccc     C1  16290 -0.33178800  12.010000   ; qtot 381.685979
16291         c3    593    ccc     C2  16291 0.30606500  12.010000   ; qtot 381.992044
16292         h1    593    ccc     H1  16292 0.11662300   1.008000   ; qtot 382.108667
16293         h1    593    ccc     H2  16293 0.11526800   1.008000   ; qtot 382.223935
16294         c3    593    ccc     C3  16294 0.15592700  12.010000   ; qtot 382.379862
16295         c3    593    ccc     C4  16295 0.28383300  12.010000   ; qtot 382.663695
16296         c3    593    ccc     C5  16296 0.32403300  12.010000   ; qtot 382.987728
16297         h1    593    ccc     H3  16297 0.13386900   1.008000   ; qtot 383.121597
16298         h1    593    ccc     H4  16298 0.10146700   1.008000   ; qtot 383.223064
16299         h2    593    ccc     H5  16299 0.10960400   1.008000   ; qtot 383.332668
16300         os    593    ccc     O1  16300 -0.28650000  16.000000   ; qtot 383.046168
16301         oh    593    ccc     O2  16301 -0.86012500  16.000000   ; qtot 382.186043
16302         oh    593    ccc     O3  16302 -0.83772800  16.000000   ; qtot 381.348315
16303         oh    593    ccc     O4  16303 -0.77449700  16.000000   ; qtot 380.573818
16304         c3    593    ccc     C6  16304 0.37576500  12.010000   ; qtot 380.949583
16305         ho    593    ccc     H6  16305 0.53656000   1.008000   ; qtot 381.486143
16306         ho    593    ccc     H7  16306 0.49492100   1.008000   ; qtot 381.981064
16307         ho    593    ccc     H8  16307 0.51297200   1.008000   ; qtot 382.494036
16308         h1    593    ccc     H9  16308 0.05653400   1.008000   ; qtot 382.550570
16309         h1    593    ccc    H10  16309 0.05653400   1.008000   ; qtot 382.607104
16310         oh    593    ccc     O5  16310 -0.84113600  16.000000   ; qtot 381.765968
16311         ho    593    ccc    H11  16311 0.51201600   1.008000   ; qtot 382.277984
16312         os    593    ccc     O6  16312 -0.26013600  16.000000   ; qtot 382.017848
; residue  594 ccc rtp ccc q 0.0
16313         c3    594    ccc     C1  16313 -0.33178800  12.010000   ; qtot 381.686060
16314         c3    594    ccc     C2  16314 0.30606500  12.010000   ; qtot 381.992125
16315         h1    594    ccc     H1  16315 0.11662300   1.008000   ; qtot 382.108748
16316         h1    594    ccc     H2  16316 0.11526800   1.008000   ; qtot 382.224016
16317         c3    594    ccc     C3  16317 0.15592700  12.010000   ; qtot 382.379943
16318         c3    594    ccc     C4  16318 0.28383300  12.010000   ; qtot 382.663776
16319         c3    594    ccc     C5  16319 0.32403300  12.010000   ; qtot 382.987809
16320         h1    594    ccc     H3  16320 0.13386900   1.008000   ; qtot 383.121678
16321         h1    594    ccc     H4  16321 0.10146700   1.008000   ; qtot 383.223145
16322         h2    594    ccc     H5  16322 0.10960400   1.008000   ; qtot 383.332749
16323         os    594    ccc     O1  16323 -0.28650000  16.000000   ; qtot 383.046249
16324         oh    594    ccc     O2  16324 -0.86012500  16.000000   ; qtot 382.186124
16325         oh    594    ccc     O3  16325 -0.83772800  16.000000   ; qtot 381.348396
16326         oh    594    ccc     O4  16326 -0.77449700  16.000000   ; qtot 380.573899
16327         c3    594    ccc     C6  16327 0.37576500  12.010000   ; qtot 380.949664
16328         ho    594    ccc     H6  16328 0.53656000   1.008000   ; qtot 381.486224
16329         ho    594    ccc     H7  16329 0.49492100   1.008000   ; qtot 381.981145
16330         ho    594    ccc     H8  16330 0.51297200   1.008000   ; qtot 382.494117
16331         h1    594    ccc     H9  16331 0.05653400   1.008000   ; qtot 382.550651
16332         h1    594    ccc    H10  16332 0.05653400   1.008000   ; qtot 382.607185
16333         oh    594    ccc     O5  16333 -0.84113600  16.000000   ; qtot 381.766049
16334         ho    594    ccc    H11  16334 0.51201600   1.008000   ; qtot 382.278065
16335         os    594    ccc     O6  16335 -0.26013600  16.000000   ; qtot 382.017929
; residue  595 ccc rtp ccc q 0.0
16336         c3    595    ccc     C1  16336 -0.33178800  12.010000   ; qtot 381.686141
16337         c3    595    ccc     C2  16337 0.30606500  12.010000   ; qtot 381.992206
16338         h1    595    ccc     H1  16338 0.11662300   1.008000   ; qtot 382.108829
16339         h1    595    ccc     H2  16339 0.11526800   1.008000   ; qtot 382.224097
16340         c3    595    ccc     C3  16340 0.15592700  12.010000   ; qtot 382.380024
16341         c3    595    ccc     C4  16341 0.28383300  12.010000   ; qtot 382.663857
16342         c3    595    ccc     C5  16342 0.32403300  12.010000   ; qtot 382.987890
16343         h1    595    ccc     H3  16343 0.13386900   1.008000   ; qtot 383.121759
16344         h1    595    ccc     H4  16344 0.10146700   1.008000   ; qtot 383.223226
16345         h2    595    ccc     H5  16345 0.10960400   1.008000   ; qtot 383.332830
16346         os    595    ccc     O1  16346 -0.28650000  16.000000   ; qtot 383.046330
16347         oh    595    ccc     O2  16347 -0.86012500  16.000000   ; qtot 382.186205
16348         oh    595    ccc     O3  16348 -0.83772800  16.000000   ; qtot 381.348477
16349         oh    595    ccc     O4  16349 -0.77449700  16.000000   ; qtot 380.573980
16350         c3    595    ccc     C6  16350 0.37576500  12.010000   ; qtot 380.949745
16351         ho    595    ccc     H6  16351 0.53656000   1.008000   ; qtot 381.486305
16352         ho    595    ccc     H7  16352 0.49492100   1.008000   ; qtot 381.981226
16353         ho    595    ccc     H8  16353 0.51297200   1.008000   ; qtot 382.494198
16354         h1    595    ccc     H9  16354 0.05653400   1.008000   ; qtot 382.550732
16355         h1    595    ccc    H10  16355 0.05653400   1.008000   ; qtot 382.607266
16356         oh    595    ccc     O5  16356 -0.84113600  16.000000   ; qtot 381.766130
16357         ho    595    ccc    H11  16357 0.51201600   1.008000   ; qtot 382.278146
16358         os    595    ccc     O6  16358 -0.26013600  16.000000   ; qtot 382.018010
; residue  596 ccc rtp ccc q 0.0
16359         c3    596    ccc     C1  16359 -0.33178800  12.010000   ; qtot 381.686222
16360         c3    596    ccc     C2  16360 0.30606500  12.010000   ; qtot 381.992287
16361         h1    596    ccc     H1  16361 0.11662300   1.008000   ; qtot 382.108910
16362         h1    596    ccc     H2  16362 0.11526800   1.008000   ; qtot 382.224178
16363         c3    596    ccc     C3  16363 0.15592700  12.010000   ; qtot 382.380105
16364         c3    596    ccc     C4  16364 0.28383300  12.010000   ; qtot 382.663938
16365         c3    596    ccc     C5  16365 0.32403300  12.010000   ; qtot 382.987971
16366         h1    596    ccc     H3  16366 0.13386900   1.008000   ; qtot 383.121840
16367         h1    596    ccc     H4  16367 0.10146700   1.008000   ; qtot 383.223307
16368         h2    596    ccc     H5  16368 0.10960400   1.008000   ; qtot 383.332911
16369         os    596    ccc     O1  16369 -0.28650000  16.000000   ; qtot 383.046411
16370         oh    596    ccc     O2  16370 -0.86012500  16.000000   ; qtot 382.186286
16371         oh    596    ccc     O3  16371 -0.83772800  16.000000   ; qtot 381.348558
16372         oh    596    ccc     O4  16372 -0.77449700  16.000000   ; qtot 380.574061
16373         c3    596    ccc     C6  16373 0.37576500  12.010000   ; qtot 380.949826
16374         ho    596    ccc     H6  16374 0.53656000   1.008000   ; qtot 381.486386
16375         ho    596    ccc     H7  16375 0.49492100   1.008000   ; qtot 381.981307
16376         ho    596    ccc     H8  16376 0.51297200   1.008000   ; qtot 382.494279
16377         h1    596    ccc     H9  16377 0.05653400   1.008000   ; qtot 382.550813
16378         h1    596    ccc    H10  16378 0.05653400   1.008000   ; qtot 382.607347
16379         oh    596    ccc     O5  16379 -0.84113600  16.000000   ; qtot 381.766211
16380         ho    596    ccc    H11  16380 0.51201600   1.008000   ; qtot 382.278227
16381         os    596    ccc     O6  16381 -0.26013600  16.000000   ; qtot 382.018091
; residue  597 ccc rtp ccc q 0.0
16382         c3    597    ccc     C1  16382 -0.33178800  12.010000   ; qtot 381.686303
16383         c3    597    ccc     C2  16383 0.30606500  12.010000   ; qtot 381.992368
16384         h1    597    ccc     H1  16384 0.11662300   1.008000   ; qtot 382.108991
16385         h1    597    ccc     H2  16385 0.11526800   1.008000   ; qtot 382.224259
16386         c3    597    ccc     C3  16386 0.15592700  12.010000   ; qtot 382.380186
16387         c3    597    ccc     C4  16387 0.28383300  12.010000   ; qtot 382.664019
16388         c3    597    ccc     C5  16388 0.32403300  12.010000   ; qtot 382.988052
16389         h1    597    ccc     H3  16389 0.13386900   1.008000   ; qtot 383.121921
16390         h1    597    ccc     H4  16390 0.10146700   1.008000   ; qtot 383.223388
16391         h2    597    ccc     H5  16391 0.10960400   1.008000   ; qtot 383.332992
16392         os    597    ccc     O1  16392 -0.28650000  16.000000   ; qtot 383.046492
16393         oh    597    ccc     O2  16393 -0.86012500  16.000000   ; qtot 382.186367
16394         oh    597    ccc     O3  16394 -0.83772800  16.000000   ; qtot 381.348639
16395         oh    597    ccc     O4  16395 -0.77449700  16.000000   ; qtot 380.574142
16396         c3    597    ccc     C6  16396 0.37576500  12.010000   ; qtot 380.949907
16397         ho    597    ccc     H6  16397 0.53656000   1.008000   ; qtot 381.486467
16398         ho    597    ccc     H7  16398 0.49492100   1.008000   ; qtot 381.981388
16399         ho    597    ccc     H8  16399 0.51297200   1.008000   ; qtot 382.494360
16400         h1    597    ccc     H9  16400 0.05653400   1.008000   ; qtot 382.550894
16401         h1    597    ccc    H10  16401 0.05653400   1.008000   ; qtot 382.607428
16402         oh    597    ccc     O5  16402 -0.84113600  16.000000   ; qtot 381.766292
16403         ho    597    ccc    H11  16403 0.51201600   1.008000   ; qtot 382.278308
16404         os    597    ccc     O6  16404 -0.26013600  16.000000   ; qtot 382.018172
; residue  598 ccc rtp ccc q 0.0
16405         c3    598    ccc     C1  16405 -0.33178800  12.010000   ; qtot 381.686384
16406         c3    598    ccc     C2  16406 0.30606500  12.010000   ; qtot 381.992449
16407         h1    598    ccc     H1  16407 0.11662300   1.008000   ; qtot 382.109072
16408         h1    598    ccc     H2  16408 0.11526800   1.008000   ; qtot 382.224340
16409         c3    598    ccc     C3  16409 0.15592700  12.010000   ; qtot 382.380267
16410         c3    598    ccc     C4  16410 0.28383300  12.010000   ; qtot 382.664100
16411         c3    598    ccc     C5  16411 0.32403300  12.010000   ; qtot 382.988133
16412         h1    598    ccc     H3  16412 0.13386900   1.008000   ; qtot 383.122002
16413         h1    598    ccc     H4  16413 0.10146700   1.008000   ; qtot 383.223469
16414         h2    598    ccc     H5  16414 0.10960400   1.008000   ; qtot 383.333073
16415         os    598    ccc     O1  16415 -0.28650000  16.000000   ; qtot 383.046573
16416         oh    598    ccc     O2  16416 -0.86012500  16.000000   ; qtot 382.186448
16417         oh    598    ccc     O3  16417 -0.83772800  16.000000   ; qtot 381.348720
16418         oh    598    ccc     O4  16418 -0.77449700  16.000000   ; qtot 380.574223
16419         c3    598    ccc     C6  16419 0.37576500  12.010000   ; qtot 380.949988
16420         ho    598    ccc     H6  16420 0.53656000   1.008000   ; qtot 381.486548
16421         ho    598    ccc     H7  16421 0.49492100   1.008000   ; qtot 381.981469
16422         ho    598    ccc     H8  16422 0.51297200   1.008000   ; qtot 382.494441
16423         h1    598    ccc     H9  16423 0.05653400   1.008000   ; qtot 382.550975
16424         h1    598    ccc    H10  16424 0.05653400   1.008000   ; qtot 382.607509
16425         oh    598    ccc     O5  16425 -0.84113600  16.000000   ; qtot 381.766373
16426         ho    598    ccc    H11  16426 0.51201600   1.008000   ; qtot 382.278389
16427         os    598    ccc     O6  16427 -0.26013600  16.000000   ; qtot 382.018253
; residue  599 ccc rtp ccc q 0.0
16428         c3    599    ccc     C1  16428 -0.33178800  12.010000   ; qtot 381.686465
16429         c3    599    ccc     C2  16429 0.30606500  12.010000   ; qtot 381.992530
16430         h1    599    ccc     H1  16430 0.11662300   1.008000   ; qtot 382.109153
16431         h1    599    ccc     H2  16431 0.11526800   1.008000   ; qtot 382.224421
16432         c3    599    ccc     C3  16432 0.15592700  12.010000   ; qtot 382.380348
16433         c3    599    ccc     C4  16433 0.28383300  12.010000   ; qtot 382.664181
16434         c3    599    ccc     C5  16434 0.32403300  12.010000   ; qtot 382.988214
16435         h1    599    ccc     H3  16435 0.13386900   1.008000   ; qtot 383.122083
16436         h1    599    ccc     H4  16436 0.10146700   1.008000   ; qtot 383.223550
16437         h2    599    ccc     H5  16437 0.10960400   1.008000   ; qtot 383.333154
16438         os    599    ccc     O1  16438 -0.28650000  16.000000   ; qtot 383.046654
16439         oh    599    ccc     O2  16439 -0.86012500  16.000000   ; qtot 382.186529
16440         oh    599    ccc     O3  16440 -0.83772800  16.000000   ; qtot 381.348801
16441         oh    599    ccc     O4  16441 -0.77449700  16.000000   ; qtot 380.574304
16442         c3    599    ccc     C6  16442 0.37576500  12.010000   ; qtot 380.950069
16443         ho    599    ccc     H6  16443 0.53656000   1.008000   ; qtot 381.486629
16444         ho    599    ccc     H7  16444 0.49492100   1.008000   ; qtot 381.981550
16445         ho    599    ccc     H8  16445 0.51297200   1.008000   ; qtot 382.494522
16446         h1    599    ccc     H9  16446 0.05653400   1.008000   ; qtot 382.551056
16447         h1    599    ccc    H10  16447 0.05653400   1.008000   ; qtot 382.607590
16448         oh    599    ccc     O5  16448 -0.84113600  16.000000   ; qtot 381.766454
16449         ho    599    ccc    H11  16449 0.51201600   1.008000   ; qtot 382.278470
16450         os    599    ccc     O6  16450 -0.26013600  16.000000   ; qtot 382.018334
; residue  600 ccc rtp ccc q 0.0
16451         c3    600    ccc     C1  16451 -0.33178800  12.010000   ; qtot 381.686546
16452         c3    600    ccc     C2  16452 0.30606500  12.010000   ; qtot 381.992611
16453         h1    600    ccc     H1  16453 0.11662300   1.008000   ; qtot 382.109234
16454         h1    600    ccc     H2  16454 0.11526800   1.008000   ; qtot 382.224502
16455         c3    600    ccc     C3  16455 0.15592700  12.010000   ; qtot 382.380429
16456         c3    600    ccc     C4  16456 0.28383300  12.010000   ; qtot 382.664262
16457         c3    600    ccc     C5  16457 0.32403300  12.010000   ; qtot 382.988295
16458         h1    600    ccc     H3  16458 0.13386900   1.008000   ; qtot 383.122164
16459         h1    600    ccc     H4  16459 0.10146700   1.008000   ; qtot 383.223631
16460         h2    600    ccc     H5  16460 0.10960400   1.008000   ; qtot 383.333235
16461         os    600    ccc     O1  16461 -0.28650000  16.000000   ; qtot 383.046735
16462         oh    600    ccc     O2  16462 -0.86012500  16.000000   ; qtot 382.186610
16463         oh    600    ccc     O3  16463 -0.83772800  16.000000   ; qtot 381.348882
16464         oh    600    ccc     O4  16464 -0.77449700  16.000000   ; qtot 380.574385
16465         c3    600    ccc     C6  16465 0.37576500  12.010000   ; qtot 380.950150
16466         ho    600    ccc     H6  16466 0.53656000   1.008000   ; qtot 381.486710
16467         ho    600    ccc     H7  16467 0.49492100   1.008000   ; qtot 381.981631
16468         ho    600    ccc     H8  16468 0.51297200   1.008000   ; qtot 382.494603
16469         h1    600    ccc     H9  16469 0.05653400   1.008000   ; qtot 382.551137
16470         h1    600    ccc    H10  16470 0.05653400   1.008000   ; qtot 382.607671
16471         oh    600    ccc     O5  16471 -0.84113600  16.000000   ; qtot 381.766535
16472         ho    600    ccc    H11  16472 0.51201600   1.008000   ; qtot 382.278551
16473         os    600    ccc     O6  16473 -0.26013600  16.000000   ; qtot 382.018415
; residue  601 ccc rtp ccc q 0.0
16474         c3    601    ccc     C1  16474 -0.33178800  12.010000   ; qtot 381.686627
16475         c3    601    ccc     C2  16475 0.30606500  12.010000   ; qtot 381.992692
16476         h1    601    ccc     H1  16476 0.11662300   1.008000   ; qtot 382.109315
16477         h1    601    ccc     H2  16477 0.11526800   1.008000   ; qtot 382.224583
16478         c3    601    ccc     C3  16478 0.15592700  12.010000   ; qtot 382.380510
16479         c3    601    ccc     C4  16479 0.28383300  12.010000   ; qtot 382.664343
16480         c3    601    ccc     C5  16480 0.32403300  12.010000   ; qtot 382.988376
16481         h1    601    ccc     H3  16481 0.13386900   1.008000   ; qtot 383.122245
16482         h1    601    ccc     H4  16482 0.10146700   1.008000   ; qtot 383.223712
16483         h2    601    ccc     H5  16483 0.10960400   1.008000   ; qtot 383.333316
16484         os    601    ccc     O1  16484 -0.28650000  16.000000   ; qtot 383.046816
16485         oh    601    ccc     O2  16485 -0.86012500  16.000000   ; qtot 382.186691
16486         oh    601    ccc     O3  16486 -0.83772800  16.000000   ; qtot 381.348963
16487         oh    601    ccc     O4  16487 -0.77449700  16.000000   ; qtot 380.574466
16488         c3    601    ccc     C6  16488 0.37576500  12.010000   ; qtot 380.950231
16489         ho    601    ccc     H6  16489 0.53656000   1.008000   ; qtot 381.486791
16490         ho    601    ccc     H7  16490 0.49492100   1.008000   ; qtot 381.981712
16491         ho    601    ccc     H8  16491 0.51297200   1.008000   ; qtot 382.494684
16492         h1    601    ccc     H9  16492 0.05653400   1.008000   ; qtot 382.551218
16493         h1    601    ccc    H10  16493 0.05653400   1.008000   ; qtot 382.607752
16494         oh    601    ccc     O5  16494 -0.84113600  16.000000   ; qtot 381.766616
16495         ho    601    ccc    H11  16495 0.51201600   1.008000   ; qtot 382.278632
16496         os    601    ccc     O6  16496 -0.26013600  16.000000   ; qtot 382.018496
; residue  602 ccc rtp ccc q 0.0
16497         c3    602    ccc     C1  16497 -0.33178800  12.010000   ; qtot 381.686708
16498         c3    602    ccc     C2  16498 0.30606500  12.010000   ; qtot 381.992773
16499         h1    602    ccc     H1  16499 0.11662300   1.008000   ; qtot 382.109396
16500         h1    602    ccc     H2  16500 0.11526800   1.008000   ; qtot 382.224664
16501         c3    602    ccc     C3  16501 0.15592700  12.010000   ; qtot 382.380591
16502         c3    602    ccc     C4  16502 0.28383300  12.010000   ; qtot 382.664424
16503         c3    602    ccc     C5  16503 0.32403300  12.010000   ; qtot 382.988457
16504         h1    602    ccc     H3  16504 0.13386900   1.008000   ; qtot 383.122326
16505         h1    602    ccc     H4  16505 0.10146700   1.008000   ; qtot 383.223793
16506         h2    602    ccc     H5  16506 0.10960400   1.008000   ; qtot 383.333397
16507         os    602    ccc     O1  16507 -0.28650000  16.000000   ; qtot 383.046897
16508         oh    602    ccc     O2  16508 -0.86012500  16.000000   ; qtot 382.186772
16509         oh    602    ccc     O3  16509 -0.83772800  16.000000   ; qtot 381.349044
16510         oh    602    ccc     O4  16510 -0.77449700  16.000000   ; qtot 380.574547
16511         c3    602    ccc     C6  16511 0.37576500  12.010000   ; qtot 380.950312
16512         ho    602    ccc     H6  16512 0.53656000   1.008000   ; qtot 381.486872
16513         ho    602    ccc     H7  16513 0.49492100   1.008000   ; qtot 381.981793
16514         ho    602    ccc     H8  16514 0.51297200   1.008000   ; qtot 382.494765
16515         h1    602    ccc     H9  16515 0.05653400   1.008000   ; qtot 382.551299
16516         h1    602    ccc    H10  16516 0.05653400   1.008000   ; qtot 382.607833
16517         oh    602    ccc     O5  16517 -0.84113600  16.000000   ; qtot 381.766697
16518         ho    602    ccc    H11  16518 0.51201600   1.008000   ; qtot 382.278713
16519         os    602    ccc     O6  16519 -0.26013600  16.000000   ; qtot 382.018577
; residue  603 ccc rtp ccc q 0.0
16520         c3    603    ccc     C1  16520 -0.33178800  12.010000   ; qtot 381.686789
16521         c3    603    ccc     C2  16521 0.30606500  12.010000   ; qtot 381.992854
16522         h1    603    ccc     H1  16522 0.11662300   1.008000   ; qtot 382.109477
16523         h1    603    ccc     H2  16523 0.11526800   1.008000   ; qtot 382.224745
16524         c3    603    ccc     C3  16524 0.15592700  12.010000   ; qtot 382.380672
16525         c3    603    ccc     C4  16525 0.28383300  12.010000   ; qtot 382.664505
16526         c3    603    ccc     C5  16526 0.32403300  12.010000   ; qtot 382.988538
16527         h1    603    ccc     H3  16527 0.13386900   1.008000   ; qtot 383.122407
16528         h1    603    ccc     H4  16528 0.10146700   1.008000   ; qtot 383.223874
16529         h2    603    ccc     H5  16529 0.10960400   1.008000   ; qtot 383.333478
16530         os    603    ccc     O1  16530 -0.28650000  16.000000   ; qtot 383.046978
16531         oh    603    ccc     O2  16531 -0.86012500  16.000000   ; qtot 382.186853
16532         oh    603    ccc     O3  16532 -0.83772800  16.000000   ; qtot 381.349125
16533         oh    603    ccc     O4  16533 -0.77449700  16.000000   ; qtot 380.574628
16534         c3    603    ccc     C6  16534 0.37576500  12.010000   ; qtot 380.950393
16535         ho    603    ccc     H6  16535 0.53656000   1.008000   ; qtot 381.486953
16536         ho    603    ccc     H7  16536 0.49492100   1.008000   ; qtot 381.981874
16537         ho    603    ccc     H8  16537 0.51297200   1.008000   ; qtot 382.494846
16538         h1    603    ccc     H9  16538 0.05653400   1.008000   ; qtot 382.551380
16539         h1    603    ccc    H10  16539 0.05653400   1.008000   ; qtot 382.607914
16540         oh    603    ccc     O5  16540 -0.84113600  16.000000   ; qtot 381.766778
16541         ho    603    ccc    H11  16541 0.51201600   1.008000   ; qtot 382.278794
16542         os    603    ccc     O6  16542 -0.26013600  16.000000   ; qtot 382.018658
; residue  604 ccc rtp ccc q 0.0
16543         c3    604    ccc     C1  16543 -0.33178800  12.010000   ; qtot 381.686870
16544         c3    604    ccc     C2  16544 0.30606500  12.010000   ; qtot 381.992935
16545         h1    604    ccc     H1  16545 0.11662300   1.008000   ; qtot 382.109558
16546         h1    604    ccc     H2  16546 0.11526800   1.008000   ; qtot 382.224826
16547         c3    604    ccc     C3  16547 0.15592700  12.010000   ; qtot 382.380753
16548         c3    604    ccc     C4  16548 0.28383300  12.010000   ; qtot 382.664586
16549         c3    604    ccc     C5  16549 0.32403300  12.010000   ; qtot 382.988619
16550         h1    604    ccc     H3  16550 0.13386900   1.008000   ; qtot 383.122488
16551         h1    604    ccc     H4  16551 0.10146700   1.008000   ; qtot 383.223955
16552         h2    604    ccc     H5  16552 0.10960400   1.008000   ; qtot 383.333559
16553         os    604    ccc     O1  16553 -0.28650000  16.000000   ; qtot 383.047059
16554         oh    604    ccc     O2  16554 -0.86012500  16.000000   ; qtot 382.186934
16555         oh    604    ccc     O3  16555 -0.83772800  16.000000   ; qtot 381.349206
16556         oh    604    ccc     O4  16556 -0.77449700  16.000000   ; qtot 380.574709
16557         c3    604    ccc     C6  16557 0.37576500  12.010000   ; qtot 380.950474
16558         ho    604    ccc     H6  16558 0.53656000   1.008000   ; qtot 381.487034
16559         ho    604    ccc     H7  16559 0.49492100   1.008000   ; qtot 381.981955
16560         ho    604    ccc     H8  16560 0.51297200   1.008000   ; qtot 382.494927
16561         h1    604    ccc     H9  16561 0.05653400   1.008000   ; qtot 382.551461
16562         h1    604    ccc    H10  16562 0.05653400   1.008000   ; qtot 382.607995
16563         oh    604    ccc     O5  16563 -0.84113600  16.000000   ; qtot 381.766859
16564         ho    604    ccc    H11  16564 0.51201600   1.008000   ; qtot 382.278875
16565         os    604    ccc     O6  16565 -0.26013600  16.000000   ; qtot 382.018739
; residue  605 ccc rtp ccc q 0.0
16566         c3    605    ccc     C1  16566 -0.33178800  12.010000   ; qtot 381.686951
16567         c3    605    ccc     C2  16567 0.30606500  12.010000   ; qtot 381.993016
16568         h1    605    ccc     H1  16568 0.11662300   1.008000   ; qtot 382.109639
16569         h1    605    ccc     H2  16569 0.11526800   1.008000   ; qtot 382.224907
16570         c3    605    ccc     C3  16570 0.15592700  12.010000   ; qtot 382.380834
16571         c3    605    ccc     C4  16571 0.28383300  12.010000   ; qtot 382.664667
16572         c3    605    ccc     C5  16572 0.32403300  12.010000   ; qtot 382.988700
16573         h1    605    ccc     H3  16573 0.13386900   1.008000   ; qtot 383.122569
16574         h1    605    ccc     H4  16574 0.10146700   1.008000   ; qtot 383.224036
16575         h2    605    ccc     H5  16575 0.10960400   1.008000   ; qtot 383.333640
16576         os    605    ccc     O1  16576 -0.28650000  16.000000   ; qtot 383.047140
16577         oh    605    ccc     O2  16577 -0.86012500  16.000000   ; qtot 382.187015
16578         oh    605    ccc     O3  16578 -0.83772800  16.000000   ; qtot 381.349287
16579         oh    605    ccc     O4  16579 -0.77449700  16.000000   ; qtot 380.574790
16580         c3    605    ccc     C6  16580 0.37576500  12.010000   ; qtot 380.950555
16581         ho    605    ccc     H6  16581 0.53656000   1.008000   ; qtot 381.487115
16582         ho    605    ccc     H7  16582 0.49492100   1.008000   ; qtot 381.982036
16583         ho    605    ccc     H8  16583 0.51297200   1.008000   ; qtot 382.495008
16584         h1    605    ccc     H9  16584 0.05653400   1.008000   ; qtot 382.551542
16585         h1    605    ccc    H10  16585 0.05653400   1.008000   ; qtot 382.608076
16586         oh    605    ccc     O5  16586 -0.84113600  16.000000   ; qtot 381.766940
16587         ho    605    ccc    H11  16587 0.51201600   1.008000   ; qtot 382.278956
16588         os    605    ccc     O6  16588 -0.26013600  16.000000   ; qtot 382.018820
; residue  606 ccc rtp ccc q 0.0
16589         c3    606    ccc     C1  16589 -0.33178800  12.010000   ; qtot 381.687032
16590         c3    606    ccc     C2  16590 0.30606500  12.010000   ; qtot 381.993097
16591         h1    606    ccc     H1  16591 0.11662300   1.008000   ; qtot 382.109720
16592         h1    606    ccc     H2  16592 0.11526800   1.008000   ; qtot 382.224988
16593         c3    606    ccc     C3  16593 0.15592700  12.010000   ; qtot 382.380915
16594         c3    606    ccc     C4  16594 0.28383300  12.010000   ; qtot 382.664748
16595         c3    606    ccc     C5  16595 0.32403300  12.010000   ; qtot 382.988781
16596         h1    606    ccc     H3  16596 0.13386900   1.008000   ; qtot 383.122650
16597         h1    606    ccc     H4  16597 0.10146700   1.008000   ; qtot 383.224117
16598         h2    606    ccc     H5  16598 0.10960400   1.008000   ; qtot 383.333721
16599         os    606    ccc     O1  16599 -0.28650000  16.000000   ; qtot 383.047221
16600         oh    606    ccc     O2  16600 -0.86012500  16.000000   ; qtot 382.187096
16601         oh    606    ccc     O3  16601 -0.83772800  16.000000   ; qtot 381.349368
16602         oh    606    ccc     O4  16602 -0.77449700  16.000000   ; qtot 380.574871
16603         c3    606    ccc     C6  16603 0.37576500  12.010000   ; qtot 380.950636
16604         ho    606    ccc     H6  16604 0.53656000   1.008000   ; qtot 381.487196
16605         ho    606    ccc     H7  16605 0.49492100   1.008000   ; qtot 381.982117
16606         ho    606    ccc     H8  16606 0.51297200   1.008000   ; qtot 382.495089
16607         h1    606    ccc     H9  16607 0.05653400   1.008000   ; qtot 382.551623
16608         h1    606    ccc    H10  16608 0.05653400   1.008000   ; qtot 382.608157
16609         oh    606    ccc     O5  16609 -0.84113600  16.000000   ; qtot 381.767021
16610         ho    606    ccc    H11  16610 0.51201600   1.008000   ; qtot 382.279037
16611         os    606    ccc     O6  16611 -0.26013600  16.000000   ; qtot 382.018901
; residue  607 ccc rtp ccc q 0.0
16612         c3    607    ccc     C1  16612 -0.33178800  12.010000   ; qtot 381.687113
16613         c3    607    ccc     C2  16613 0.30606500  12.010000   ; qtot 381.993178
16614         h1    607    ccc     H1  16614 0.11662300   1.008000   ; qtot 382.109801
16615         h1    607    ccc     H2  16615 0.11526800   1.008000   ; qtot 382.225069
16616         c3    607    ccc     C3  16616 0.15592700  12.010000   ; qtot 382.380996
16617         c3    607    ccc     C4  16617 0.28383300  12.010000   ; qtot 382.664829
16618         c3    607    ccc     C5  16618 0.32403300  12.010000   ; qtot 382.988862
16619         h1    607    ccc     H3  16619 0.13386900   1.008000   ; qtot 383.122731
16620         h1    607    ccc     H4  16620 0.10146700   1.008000   ; qtot 383.224198
16621         h2    607    ccc     H5  16621 0.10960400   1.008000   ; qtot 383.333802
16622         os    607    ccc     O1  16622 -0.28650000  16.000000   ; qtot 383.047302
16623         oh    607    ccc     O2  16623 -0.86012500  16.000000   ; qtot 382.187177
16624         oh    607    ccc     O3  16624 -0.83772800  16.000000   ; qtot 381.349449
16625         oh    607    ccc     O4  16625 -0.77449700  16.000000   ; qtot 380.574952
16626         c3    607    ccc     C6  16626 0.37576500  12.010000   ; qtot 380.950717
16627         ho    607    ccc     H6  16627 0.53656000   1.008000   ; qtot 381.487277
16628         ho    607    ccc     H7  16628 0.49492100   1.008000   ; qtot 381.982198
16629         ho    607    ccc     H8  16629 0.51297200   1.008000   ; qtot 382.495170
16630         h1    607    ccc     H9  16630 0.05653400   1.008000   ; qtot 382.551704
16631         h1    607    ccc    H10  16631 0.05653400   1.008000   ; qtot 382.608238
16632         oh    607    ccc     O5  16632 -0.84113600  16.000000   ; qtot 381.767102
16633         ho    607    ccc    H11  16633 0.51201600   1.008000   ; qtot 382.279118
16634         os    607    ccc     O6  16634 -0.26013600  16.000000   ; qtot 382.018982
; residue  608 ccc rtp ccc q 0.0
16635         c3    608    ccc     C1  16635 -0.33178800  12.010000   ; qtot 381.687194
16636         c3    608    ccc     C2  16636 0.30606500  12.010000   ; qtot 381.993259
16637         h1    608    ccc     H1  16637 0.11662300   1.008000   ; qtot 382.109882
16638         h1    608    ccc     H2  16638 0.11526800   1.008000   ; qtot 382.225150
16639         c3    608    ccc     C3  16639 0.15592700  12.010000   ; qtot 382.381077
16640         c3    608    ccc     C4  16640 0.28383300  12.010000   ; qtot 382.664910
16641         c3    608    ccc     C5  16641 0.32403300  12.010000   ; qtot 382.988943
16642         h1    608    ccc     H3  16642 0.13386900   1.008000   ; qtot 383.122812
16643         h1    608    ccc     H4  16643 0.10146700   1.008000   ; qtot 383.224279
16644         h2    608    ccc     H5  16644 0.10960400   1.008000   ; qtot 383.333883
16645         os    608    ccc     O1  16645 -0.28650000  16.000000   ; qtot 383.047383
16646         oh    608    ccc     O2  16646 -0.86012500  16.000000   ; qtot 382.187258
16647         oh    608    ccc     O3  16647 -0.83772800  16.000000   ; qtot 381.349530
16648         oh    608    ccc     O4  16648 -0.77449700  16.000000   ; qtot 380.575033
16649         c3    608    ccc     C6  16649 0.37576500  12.010000   ; qtot 380.950798
16650         ho    608    ccc     H6  16650 0.53656000   1.008000   ; qtot 381.487358
16651         ho    608    ccc     H7  16651 0.49492100   1.008000   ; qtot 381.982279
16652         ho    608    ccc     H8  16652 0.51297200   1.008000   ; qtot 382.495251
16653         h1    608    ccc     H9  16653 0.05653400   1.008000   ; qtot 382.551785
16654         h1    608    ccc    H10  16654 0.05653400   1.008000   ; qtot 382.608319
16655         oh    608    ccc     O5  16655 -0.84113600  16.000000   ; qtot 381.767183
16656         ho    608    ccc    H11  16656 0.51201600   1.008000   ; qtot 382.279199
16657         os    608    ccc     O6  16657 -0.26013600  16.000000   ; qtot 382.019063
; residue  609 ccc rtp ccc q 0.0
16658         c3    609    ccc     C1  16658 -0.33178800  12.010000   ; qtot 381.687275
16659         c3    609    ccc     C2  16659 0.30606500  12.010000   ; qtot 381.993340
16660         h1    609    ccc     H1  16660 0.11662300   1.008000   ; qtot 382.109963
16661         h1    609    ccc     H2  16661 0.11526800   1.008000   ; qtot 382.225231
16662         c3    609    ccc     C3  16662 0.15592700  12.010000   ; qtot 382.381158
16663         c3    609    ccc     C4  16663 0.28383300  12.010000   ; qtot 382.664991
16664         c3    609    ccc     C5  16664 0.32403300  12.010000   ; qtot 382.989024
16665         h1    609    ccc     H3  16665 0.13386900   1.008000   ; qtot 383.122893
16666         h1    609    ccc     H4  16666 0.10146700   1.008000   ; qtot 383.224360
16667         h2    609    ccc     H5  16667 0.10960400   1.008000   ; qtot 383.333964
16668         os    609    ccc     O1  16668 -0.28650000  16.000000   ; qtot 383.047464
16669         oh    609    ccc     O2  16669 -0.86012500  16.000000   ; qtot 382.187339
16670         oh    609    ccc     O3  16670 -0.83772800  16.000000   ; qtot 381.349611
16671         oh    609    ccc     O4  16671 -0.77449700  16.000000   ; qtot 380.575114
16672         c3    609    ccc     C6  16672 0.37576500  12.010000   ; qtot 380.950879
16673         ho    609    ccc     H6  16673 0.53656000   1.008000   ; qtot 381.487439
16674         ho    609    ccc     H7  16674 0.49492100   1.008000   ; qtot 381.982360
16675         ho    609    ccc     H8  16675 0.51297200   1.008000   ; qtot 382.495332
16676         h1    609    ccc     H9  16676 0.05653400   1.008000   ; qtot 382.551866
16677         h1    609    ccc    H10  16677 0.05653400   1.008000   ; qtot 382.608400
16678         oh    609    ccc     O5  16678 -0.84113600  16.000000   ; qtot 381.767264
16679         ho    609    ccc    H11  16679 0.51201600   1.008000   ; qtot 382.279280
16680         os    609    ccc     O6  16680 -0.26013600  16.000000   ; qtot 382.019144
; residue  610 ccc rtp ccc q 0.0
16681         c3    610    ccc     C1  16681 -0.33178800  12.010000   ; qtot 381.687356
16682         c3    610    ccc     C2  16682 0.30606500  12.010000   ; qtot 381.993421
16683         h1    610    ccc     H1  16683 0.11662300   1.008000   ; qtot 382.110044
16684         h1    610    ccc     H2  16684 0.11526800   1.008000   ; qtot 382.225312
16685         c3    610    ccc     C3  16685 0.15592700  12.010000   ; qtot 382.381239
16686         c3    610    ccc     C4  16686 0.28383300  12.010000   ; qtot 382.665072
16687         c3    610    ccc     C5  16687 0.32403300  12.010000   ; qtot 382.989105
16688         h1    610    ccc     H3  16688 0.13386900   1.008000   ; qtot 383.122974
16689         h1    610    ccc     H4  16689 0.10146700   1.008000   ; qtot 383.224441
16690         h2    610    ccc     H5  16690 0.10960400   1.008000   ; qtot 383.334045
16691         os    610    ccc     O1  16691 -0.28650000  16.000000   ; qtot 383.047545
16692         oh    610    ccc     O2  16692 -0.86012500  16.000000   ; qtot 382.187420
16693         oh    610    ccc     O3  16693 -0.83772800  16.000000   ; qtot 381.349692
16694         oh    610    ccc     O4  16694 -0.77449700  16.000000   ; qtot 380.575195
16695         c3    610    ccc     C6  16695 0.37576500  12.010000   ; qtot 380.950960
16696         ho    610    ccc     H6  16696 0.53656000   1.008000   ; qtot 381.487520
16697         ho    610    ccc     H7  16697 0.49492100   1.008000   ; qtot 381.982441
16698         ho    610    ccc     H8  16698 0.51297200   1.008000   ; qtot 382.495413
16699         h1    610    ccc     H9  16699 0.05653400   1.008000   ; qtot 382.551947
16700         h1    610    ccc    H10  16700 0.05653400   1.008000   ; qtot 382.608481
16701         oh    610    ccc     O5  16701 -0.84113600  16.000000   ; qtot 381.767345
16702         ho    610    ccc    H11  16702 0.51201600   1.008000   ; qtot 382.279361
16703         os    610    ccc     O6  16703 -0.26013600  16.000000   ; qtot 382.019225
; residue  611 ccc rtp ccc q 0.0
16704         c3    611    ccc     C1  16704 -0.33178800  12.010000   ; qtot 381.687437
16705         c3    611    ccc     C2  16705 0.30606500  12.010000   ; qtot 381.993502
16706         h1    611    ccc     H1  16706 0.11662300   1.008000   ; qtot 382.110125
16707         h1    611    ccc     H2  16707 0.11526800   1.008000   ; qtot 382.225393
16708         c3    611    ccc     C3  16708 0.15592700  12.010000   ; qtot 382.381320
16709         c3    611    ccc     C4  16709 0.28383300  12.010000   ; qtot 382.665153
16710         c3    611    ccc     C5  16710 0.32403300  12.010000   ; qtot 382.989186
16711         h1    611    ccc     H3  16711 0.13386900   1.008000   ; qtot 383.123055
16712         h1    611    ccc     H4  16712 0.10146700   1.008000   ; qtot 383.224522
16713         h2    611    ccc     H5  16713 0.10960400   1.008000   ; qtot 383.334126
16714         os    611    ccc     O1  16714 -0.28650000  16.000000   ; qtot 383.047626
16715         oh    611    ccc     O2  16715 -0.86012500  16.000000   ; qtot 382.187501
16716         oh    611    ccc     O3  16716 -0.83772800  16.000000   ; qtot 381.349773
16717         oh    611    ccc     O4  16717 -0.77449700  16.000000   ; qtot 380.575276
16718         c3    611    ccc     C6  16718 0.37576500  12.010000   ; qtot 380.951041
16719         ho    611    ccc     H6  16719 0.53656000   1.008000   ; qtot 381.487601
16720         ho    611    ccc     H7  16720 0.49492100   1.008000   ; qtot 381.982522
16721         ho    611    ccc     H8  16721 0.51297200   1.008000   ; qtot 382.495494
16722         h1    611    ccc     H9  16722 0.05653400   1.008000   ; qtot 382.552028
16723         h1    611    ccc    H10  16723 0.05653400   1.008000   ; qtot 382.608562
16724         oh    611    ccc     O5  16724 -0.84113600  16.000000   ; qtot 381.767426
16725         ho    611    ccc    H11  16725 0.51201600   1.008000   ; qtot 382.279442
16726         os    611    ccc     O6  16726 -0.26013600  16.000000   ; qtot 382.019306
; residue  612 ccc rtp ccc q 0.0
16727         c3    612    ccc     C1  16727 -0.33178800  12.010000   ; qtot 381.687518
16728         c3    612    ccc     C2  16728 0.30606500  12.010000   ; qtot 381.993583
16729         h1    612    ccc     H1  16729 0.11662300   1.008000   ; qtot 382.110206
16730         h1    612    ccc     H2  16730 0.11526800   1.008000   ; qtot 382.225474
16731         c3    612    ccc     C3  16731 0.15592700  12.010000   ; qtot 382.381401
16732         c3    612    ccc     C4  16732 0.28383300  12.010000   ; qtot 382.665234
16733         c3    612    ccc     C5  16733 0.32403300  12.010000   ; qtot 382.989267
16734         h1    612    ccc     H3  16734 0.13386900   1.008000   ; qtot 383.123136
16735         h1    612    ccc     H4  16735 0.10146700   1.008000   ; qtot 383.224603
16736         h2    612    ccc     H5  16736 0.10960400   1.008000   ; qtot 383.334207
16737         os    612    ccc     O1  16737 -0.28650000  16.000000   ; qtot 383.047707
16738         oh    612    ccc     O2  16738 -0.86012500  16.000000   ; qtot 382.187582
16739         oh    612    ccc     O3  16739 -0.83772800  16.000000   ; qtot 381.349854
16740         oh    612    ccc     O4  16740 -0.77449700  16.000000   ; qtot 380.575357
16741         c3    612    ccc     C6  16741 0.37576500  12.010000   ; qtot 380.951122
16742         ho    612    ccc     H6  16742 0.53656000   1.008000   ; qtot 381.487682
16743         ho    612    ccc     H7  16743 0.49492100   1.008000   ; qtot 381.982603
16744         ho    612    ccc     H8  16744 0.51297200   1.008000   ; qtot 382.495575
16745         h1    612    ccc     H9  16745 0.05653400   1.008000   ; qtot 382.552109
16746         h1    612    ccc    H10  16746 0.05653400   1.008000   ; qtot 382.608643
16747         oh    612    ccc     O5  16747 -0.84113600  16.000000   ; qtot 381.767507
16748         ho    612    ccc    H11  16748 0.51201600   1.008000   ; qtot 382.279523
16749         os    612    ccc     O6  16749 -0.26013600  16.000000   ; qtot 382.019387
; residue  613 ccc rtp ccc q 0.0
16750         c3    613    ccc     C1  16750 -0.33178800  12.010000   ; qtot 381.687599
16751         c3    613    ccc     C2  16751 0.30606500  12.010000   ; qtot 381.993664
16752         h1    613    ccc     H1  16752 0.11662300   1.008000   ; qtot 382.110287
16753         h1    613    ccc     H2  16753 0.11526800   1.008000   ; qtot 382.225555
16754         c3    613    ccc     C3  16754 0.15592700  12.010000   ; qtot 382.381482
16755         c3    613    ccc     C4  16755 0.28383300  12.010000   ; qtot 382.665315
16756         c3    613    ccc     C5  16756 0.32403300  12.010000   ; qtot 382.989348
16757         h1    613    ccc     H3  16757 0.13386900   1.008000   ; qtot 383.123217
16758         h1    613    ccc     H4  16758 0.10146700   1.008000   ; qtot 383.224684
16759         h2    613    ccc     H5  16759 0.10960400   1.008000   ; qtot 383.334288
16760         os    613    ccc     O1  16760 -0.28650000  16.000000   ; qtot 383.047788
16761         oh    613    ccc     O2  16761 -0.86012500  16.000000   ; qtot 382.187663
16762         oh    613    ccc     O3  16762 -0.83772800  16.000000   ; qtot 381.349935
16763         oh    613    ccc     O4  16763 -0.77449700  16.000000   ; qtot 380.575438
16764         c3    613    ccc     C6  16764 0.37576500  12.010000   ; qtot 380.951203
16765         ho    613    ccc     H6  16765 0.53656000   1.008000   ; qtot 381.487763
16766         ho    613    ccc     H7  16766 0.49492100   1.008000   ; qtot 381.982684
16767         ho    613    ccc     H8  16767 0.51297200   1.008000   ; qtot 382.495656
16768         h1    613    ccc     H9  16768 0.05653400   1.008000   ; qtot 382.552190
16769         h1    613    ccc    H10  16769 0.05653400   1.008000   ; qtot 382.608724
16770         oh    613    ccc     O5  16770 -0.84113600  16.000000   ; qtot 381.767588
16771         ho    613    ccc    H11  16771 0.51201600   1.008000   ; qtot 382.279604
16772         os    613    ccc     O6  16772 -0.26013600  16.000000   ; qtot 382.019468
; residue  614 ccc rtp ccc q 0.0
16773         c3    614    ccc     C1  16773 -0.33178800  12.010000   ; qtot 381.687680
16774         c3    614    ccc     C2  16774 0.30606500  12.010000   ; qtot 381.993745
16775         h1    614    ccc     H1  16775 0.11662300   1.008000   ; qtot 382.110368
16776         h1    614    ccc     H2  16776 0.11526800   1.008000   ; qtot 382.225636
16777         c3    614    ccc     C3  16777 0.15592700  12.010000   ; qtot 382.381563
16778         c3    614    ccc     C4  16778 0.28383300  12.010000   ; qtot 382.665396
16779         c3    614    ccc     C5  16779 0.32403300  12.010000   ; qtot 382.989429
16780         h1    614    ccc     H3  16780 0.13386900   1.008000   ; qtot 383.123298
16781         h1    614    ccc     H4  16781 0.10146700   1.008000   ; qtot 383.224765
16782         h2    614    ccc     H5  16782 0.10960400   1.008000   ; qtot 383.334369
16783         os    614    ccc     O1  16783 -0.28650000  16.000000   ; qtot 383.047869
16784         oh    614    ccc     O2  16784 -0.86012500  16.000000   ; qtot 382.187744
16785         oh    614    ccc     O3  16785 -0.83772800  16.000000   ; qtot 381.350016
16786         oh    614    ccc     O4  16786 -0.77449700  16.000000   ; qtot 380.575519
16787         c3    614    ccc     C6  16787 0.37576500  12.010000   ; qtot 380.951284
16788         ho    614    ccc     H6  16788 0.53656000   1.008000   ; qtot 381.487844
16789         ho    614    ccc     H7  16789 0.49492100   1.008000   ; qtot 381.982765
16790         ho    614    ccc     H8  16790 0.51297200   1.008000   ; qtot 382.495737
16791         h1    614    ccc     H9  16791 0.05653400   1.008000   ; qtot 382.552271
16792         h1    614    ccc    H10  16792 0.05653400   1.008000   ; qtot 382.608805
16793         oh    614    ccc     O5  16793 -0.84113600  16.000000   ; qtot 381.767669
16794         ho    614    ccc    H11  16794 0.51201600   1.008000   ; qtot 382.279685
16795         os    614    ccc     O6  16795 -0.26013600  16.000000   ; qtot 382.019549
; residue  615 ccc rtp ccc q 0.0
16796         c3    615    ccc     C1  16796 -0.33178800  12.010000   ; qtot 381.687761
16797         c3    615    ccc     C2  16797 0.30606500  12.010000   ; qtot 381.993826
16798         h1    615    ccc     H1  16798 0.11662300   1.008000   ; qtot 382.110449
16799         h1    615    ccc     H2  16799 0.11526800   1.008000   ; qtot 382.225717
16800         c3    615    ccc     C3  16800 0.15592700  12.010000   ; qtot 382.381644
16801         c3    615    ccc     C4  16801 0.28383300  12.010000   ; qtot 382.665477
16802         c3    615    ccc     C5  16802 0.32403300  12.010000   ; qtot 382.989510
16803         h1    615    ccc     H3  16803 0.13386900   1.008000   ; qtot 383.123379
16804         h1    615    ccc     H4  16804 0.10146700   1.008000   ; qtot 383.224846
16805         h2    615    ccc     H5  16805 0.10960400   1.008000   ; qtot 383.334450
16806         os    615    ccc     O1  16806 -0.28650000  16.000000   ; qtot 383.047950
16807         oh    615    ccc     O2  16807 -0.86012500  16.000000   ; qtot 382.187825
16808         oh    615    ccc     O3  16808 -0.83772800  16.000000   ; qtot 381.350097
16809         oh    615    ccc     O4  16809 -0.77449700  16.000000   ; qtot 380.575600
16810         c3    615    ccc     C6  16810 0.37576500  12.010000   ; qtot 380.951365
16811         ho    615    ccc     H6  16811 0.53656000   1.008000   ; qtot 381.487925
16812         ho    615    ccc     H7  16812 0.49492100   1.008000   ; qtot 381.982846
16813         ho    615    ccc     H8  16813 0.51297200   1.008000   ; qtot 382.495818
16814         h1    615    ccc     H9  16814 0.05653400   1.008000   ; qtot 382.552352
16815         h1    615    ccc    H10  16815 0.05653400   1.008000   ; qtot 382.608886
16816         oh    615    ccc     O5  16816 -0.84113600  16.000000   ; qtot 381.767750
16817         ho    615    ccc    H11  16817 0.51201600   1.008000   ; qtot 382.279766
16818         os    615    ccc     O6  16818 -0.26013600  16.000000   ; qtot 382.019630
; residue  616 ccc rtp ccc q 0.0
16819         c3    616    ccc     C1  16819 -0.33178800  12.010000   ; qtot 381.687842
16820         c3    616    ccc     C2  16820 0.30606500  12.010000   ; qtot 381.993907
16821         h1    616    ccc     H1  16821 0.11662300   1.008000   ; qtot 382.110530
16822         h1    616    ccc     H2  16822 0.11526800   1.008000   ; qtot 382.225798
16823         c3    616    ccc     C3  16823 0.15592700  12.010000   ; qtot 382.381725
16824         c3    616    ccc     C4  16824 0.28383300  12.010000   ; qtot 382.665558
16825         c3    616    ccc     C5  16825 0.32403300  12.010000   ; qtot 382.989591
16826         h1    616    ccc     H3  16826 0.13386900   1.008000   ; qtot 383.123460
16827         h1    616    ccc     H4  16827 0.10146700   1.008000   ; qtot 383.224927
16828         h2    616    ccc     H5  16828 0.10960400   1.008000   ; qtot 383.334531
16829         os    616    ccc     O1  16829 -0.28650000  16.000000   ; qtot 383.048031
16830         oh    616    ccc     O2  16830 -0.86012500  16.000000   ; qtot 382.187906
16831         oh    616    ccc     O3  16831 -0.83772800  16.000000   ; qtot 381.350178
16832         oh    616    ccc     O4  16832 -0.77449700  16.000000   ; qtot 380.575681
16833         c3    616    ccc     C6  16833 0.37576500  12.010000   ; qtot 380.951446
16834         ho    616    ccc     H6  16834 0.53656000   1.008000   ; qtot 381.488006
16835         ho    616    ccc     H7  16835 0.49492100   1.008000   ; qtot 381.982927
16836         ho    616    ccc     H8  16836 0.51297200   1.008000   ; qtot 382.495899
16837         h1    616    ccc     H9  16837 0.05653400   1.008000   ; qtot 382.552433
16838         h1    616    ccc    H10  16838 0.05653400   1.008000   ; qtot 382.608967
16839         oh    616    ccc     O5  16839 -0.84113600  16.000000   ; qtot 381.767831
16840         ho    616    ccc    H11  16840 0.51201600   1.008000   ; qtot 382.279847
16841         os    616    ccc     O6  16841 -0.26013600  16.000000   ; qtot 382.019711
; residue  617 ccc rtp ccc q 0.0
16842         c3    617    ccc     C1  16842 -0.33178800  12.010000   ; qtot 381.687923
16843         c3    617    ccc     C2  16843 0.30606500  12.010000   ; qtot 381.993988
16844         h1    617    ccc     H1  16844 0.11662300   1.008000   ; qtot 382.110611
16845         h1    617    ccc     H2  16845 0.11526800   1.008000   ; qtot 382.225879
16846         c3    617    ccc     C3  16846 0.15592700  12.010000   ; qtot 382.381806
16847         c3    617    ccc     C4  16847 0.28383300  12.010000   ; qtot 382.665639
16848         c3    617    ccc     C5  16848 0.32403300  12.010000   ; qtot 382.989672
16849         h1    617    ccc     H3  16849 0.13386900   1.008000   ; qtot 383.123541
16850         h1    617    ccc     H4  16850 0.10146700   1.008000   ; qtot 383.225008
16851         h2    617    ccc     H5  16851 0.10960400   1.008000   ; qtot 383.334612
16852         os    617    ccc     O1  16852 -0.28650000  16.000000   ; qtot 383.048112
16853         oh    617    ccc     O2  16853 -0.86012500  16.000000   ; qtot 382.187987
16854         oh    617    ccc     O3  16854 -0.83772800  16.000000   ; qtot 381.350259
16855         oh    617    ccc     O4  16855 -0.77449700  16.000000   ; qtot 380.575762
16856         c3    617    ccc     C6  16856 0.37576500  12.010000   ; qtot 380.951527
16857         ho    617    ccc     H6  16857 0.53656000   1.008000   ; qtot 381.488087
16858         ho    617    ccc     H7  16858 0.49492100   1.008000   ; qtot 381.983008
16859         ho    617    ccc     H8  16859 0.51297200   1.008000   ; qtot 382.495980
16860         h1    617    ccc     H9  16860 0.05653400   1.008000   ; qtot 382.552514
16861         h1    617    ccc    H10  16861 0.05653400   1.008000   ; qtot 382.609048
16862         oh    617    ccc     O5  16862 -0.84113600  16.000000   ; qtot 381.767912
16863         ho    617    ccc    H11  16863 0.51201600   1.008000   ; qtot 382.279928
16864         os    617    ccc     O6  16864 -0.26013600  16.000000   ; qtot 382.019792
; residue  618 ccc rtp ccc q 0.0
16865         c3    618    ccc     C1  16865 -0.33178800  12.010000   ; qtot 381.688004
16866         c3    618    ccc     C2  16866 0.30606500  12.010000   ; qtot 381.994069
16867         h1    618    ccc     H1  16867 0.11662300   1.008000   ; qtot 382.110692
16868         h1    618    ccc     H2  16868 0.11526800   1.008000   ; qtot 382.225960
16869         c3    618    ccc     C3  16869 0.15592700  12.010000   ; qtot 382.381887
16870         c3    618    ccc     C4  16870 0.28383300  12.010000   ; qtot 382.665720
16871         c3    618    ccc     C5  16871 0.32403300  12.010000   ; qtot 382.989753
16872         h1    618    ccc     H3  16872 0.13386900   1.008000   ; qtot 383.123622
16873         h1    618    ccc     H4  16873 0.10146700   1.008000   ; qtot 383.225089
16874         h2    618    ccc     H5  16874 0.10960400   1.008000   ; qtot 383.334693
16875         os    618    ccc     O1  16875 -0.28650000  16.000000   ; qtot 383.048193
16876         oh    618    ccc     O2  16876 -0.86012500  16.000000   ; qtot 382.188068
16877         oh    618    ccc     O3  16877 -0.83772800  16.000000   ; qtot 381.350340
16878         oh    618    ccc     O4  16878 -0.77449700  16.000000   ; qtot 380.575843
16879         c3    618    ccc     C6  16879 0.37576500  12.010000   ; qtot 380.951608
16880         ho    618    ccc     H6  16880 0.53656000   1.008000   ; qtot 381.488168
16881         ho    618    ccc     H7  16881 0.49492100   1.008000   ; qtot 381.983089
16882         ho    618    ccc     H8  16882 0.51297200   1.008000   ; qtot 382.496061
16883         h1    618    ccc     H9  16883 0.05653400   1.008000   ; qtot 382.552595
16884         h1    618    ccc    H10  16884 0.05653400   1.008000   ; qtot 382.609129
16885         oh    618    ccc     O5  16885 -0.84113600  16.000000   ; qtot 381.767993
16886         ho    618    ccc    H11  16886 0.51201600   1.008000   ; qtot 382.280009
16887         os    618    ccc     O6  16887 -0.26013600  16.000000   ; qtot 382.019873
; residue  619 ccc rtp ccc q 0.0
16888         c3    619    ccc     C1  16888 -0.33178800  12.010000   ; qtot 381.688085
16889         c3    619    ccc     C2  16889 0.30606500  12.010000   ; qtot 381.994150
16890         h1    619    ccc     H1  16890 0.11662300   1.008000   ; qtot 382.110773
16891         h1    619    ccc     H2  16891 0.11526800   1.008000   ; qtot 382.226041
16892         c3    619    ccc     C3  16892 0.15592700  12.010000   ; qtot 382.381968
16893         c3    619    ccc     C4  16893 0.28383300  12.010000   ; qtot 382.665801
16894         c3    619    ccc     C5  16894 0.32403300  12.010000   ; qtot 382.989834
16895         h1    619    ccc     H3  16895 0.13386900   1.008000   ; qtot 383.123703
16896         h1    619    ccc     H4  16896 0.10146700   1.008000   ; qtot 383.225170
16897         h2    619    ccc     H5  16897 0.10960400   1.008000   ; qtot 383.334774
16898         os    619    ccc     O1  16898 -0.28650000  16.000000   ; qtot 383.048274
16899         oh    619    ccc     O2  16899 -0.86012500  16.000000   ; qtot 382.188149
16900         oh    619    ccc     O3  16900 -0.83772800  16.000000   ; qtot 381.350421
16901         oh    619    ccc     O4  16901 -0.77449700  16.000000   ; qtot 380.575924
16902         c3    619    ccc     C6  16902 0.37576500  12.010000   ; qtot 380.951689
16903         ho    619    ccc     H6  16903 0.53656000   1.008000   ; qtot 381.488249
16904         ho    619    ccc     H7  16904 0.49492100   1.008000   ; qtot 381.983170
16905         ho    619    ccc     H8  16905 0.51297200   1.008000   ; qtot 382.496142
16906         h1    619    ccc     H9  16906 0.05653400   1.008000   ; qtot 382.552676
16907         h1    619    ccc    H10  16907 0.05653400   1.008000   ; qtot 382.609210
16908         oh    619    ccc     O5  16908 -0.84113600  16.000000   ; qtot 381.768074
16909         ho    619    ccc    H11  16909 0.51201600   1.008000   ; qtot 382.280090
16910         os    619    ccc     O6  16910 -0.26013600  16.000000   ; qtot 382.019954
; residue  620 ccc rtp ccc q 0.0
16911         c3    620    ccc     C1  16911 -0.33178800  12.010000   ; qtot 381.688166
16912         c3    620    ccc     C2  16912 0.30606500  12.010000   ; qtot 381.994231
16913         h1    620    ccc     H1  16913 0.11662300   1.008000   ; qtot 382.110854
16914         h1    620    ccc     H2  16914 0.11526800   1.008000   ; qtot 382.226122
16915         c3    620    ccc     C3  16915 0.15592700  12.010000   ; qtot 382.382049
16916         c3    620    ccc     C4  16916 0.28383300  12.010000   ; qtot 382.665882
16917         c3    620    ccc     C5  16917 0.32403300  12.010000   ; qtot 382.989915
16918         h1    620    ccc     H3  16918 0.13386900   1.008000   ; qtot 383.123784
16919         h1    620    ccc     H4  16919 0.10146700   1.008000   ; qtot 383.225251
16920         h2    620    ccc     H5  16920 0.10960400   1.008000   ; qtot 383.334855
16921         os    620    ccc     O1  16921 -0.28650000  16.000000   ; qtot 383.048355
16922         oh    620    ccc     O2  16922 -0.86012500  16.000000   ; qtot 382.188230
16923         oh    620    ccc     O3  16923 -0.83772800  16.000000   ; qtot 381.350502
16924         oh    620    ccc     O4  16924 -0.77449700  16.000000   ; qtot 380.576005
16925         c3    620    ccc     C6  16925 0.37576500  12.010000   ; qtot 380.951770
16926         ho    620    ccc     H6  16926 0.53656000   1.008000   ; qtot 381.488330
16927         ho    620    ccc     H7  16927 0.49492100   1.008000   ; qtot 381.983251
16928         ho    620    ccc     H8  16928 0.51297200   1.008000   ; qtot 382.496223
16929         h1    620    ccc     H9  16929 0.05653400   1.008000   ; qtot 382.552757
16930         h1    620    ccc    H10  16930 0.05653400   1.008000   ; qtot 382.609291
16931         oh    620    ccc     O5  16931 -0.84113600  16.000000   ; qtot 381.768155
16932         ho    620    ccc    H11  16932 0.51201600   1.008000   ; qtot 382.280171
16933         os    620    ccc     O6  16933 -0.26013600  16.000000   ; qtot 382.020035
; residue  621 ccc rtp ccc q 0.0
16934         c3    621    ccc     C1  16934 -0.33178800  12.010000   ; qtot 381.688247
16935         c3    621    ccc     C2  16935 0.30606500  12.010000   ; qtot 381.994312
16936         h1    621    ccc     H1  16936 0.11662300   1.008000   ; qtot 382.110935
16937         h1    621    ccc     H2  16937 0.11526800   1.008000   ; qtot 382.226203
16938         c3    621    ccc     C3  16938 0.15592700  12.010000   ; qtot 382.382130
16939         c3    621    ccc     C4  16939 0.28383300  12.010000   ; qtot 382.665963
16940         c3    621    ccc     C5  16940 0.32403300  12.010000   ; qtot 382.989996
16941         h1    621    ccc     H3  16941 0.13386900   1.008000   ; qtot 383.123865
16942         h1    621    ccc     H4  16942 0.10146700   1.008000   ; qtot 383.225332
16943         h2    621    ccc     H5  16943 0.10960400   1.008000   ; qtot 383.334936
16944         os    621    ccc     O1  16944 -0.28650000  16.000000   ; qtot 383.048436
16945         oh    621    ccc     O2  16945 -0.86012500  16.000000   ; qtot 382.188311
16946         oh    621    ccc     O3  16946 -0.83772800  16.000000   ; qtot 381.350583
16947         oh    621    ccc     O4  16947 -0.77449700  16.000000   ; qtot 380.576086
16948         c3    621    ccc     C6  16948 0.37576500  12.010000   ; qtot 380.951851
16949         ho    621    ccc     H6  16949 0.53656000   1.008000   ; qtot 381.488411
16950         ho    621    ccc     H7  16950 0.49492100   1.008000   ; qtot 381.983332
16951         ho    621    ccc     H8  16951 0.51297200   1.008000   ; qtot 382.496304
16952         h1    621    ccc     H9  16952 0.05653400   1.008000   ; qtot 382.552838
16953         h1    621    ccc    H10  16953 0.05653400   1.008000   ; qtot 382.609372
16954         oh    621    ccc     O5  16954 -0.84113600  16.000000   ; qtot 381.768236
16955         ho    621    ccc    H11  16955 0.51201600   1.008000   ; qtot 382.280252
16956         os    621    ccc     O6  16956 -0.26013600  16.000000   ; qtot 382.020116
; residue  622 ccc rtp ccc q 0.0
16957         c3    622    ccc     C1  16957 -0.33178800  12.010000   ; qtot 381.688328
16958         c3    622    ccc     C2  16958 0.30606500  12.010000   ; qtot 381.994393
16959         h1    622    ccc     H1  16959 0.11662300   1.008000   ; qtot 382.111016
16960         h1    622    ccc     H2  16960 0.11526800   1.008000   ; qtot 382.226284
16961         c3    622    ccc     C3  16961 0.15592700  12.010000   ; qtot 382.382211
16962         c3    622    ccc     C4  16962 0.28383300  12.010000   ; qtot 382.666044
16963         c3    622    ccc     C5  16963 0.32403300  12.010000   ; qtot 382.990077
16964         h1    622    ccc     H3  16964 0.13386900   1.008000   ; qtot 383.123946
16965         h1    622    ccc     H4  16965 0.10146700   1.008000   ; qtot 383.225413
16966         h2    622    ccc     H5  16966 0.10960400   1.008000   ; qtot 383.335017
16967         os    622    ccc     O1  16967 -0.28650000  16.000000   ; qtot 383.048517
16968         oh    622    ccc     O2  16968 -0.86012500  16.000000   ; qtot 382.188392
16969         oh    622    ccc     O3  16969 -0.83772800  16.000000   ; qtot 381.350664
16970         oh    622    ccc     O4  16970 -0.77449700  16.000000   ; qtot 380.576167
16971         c3    622    ccc     C6  16971 0.37576500  12.010000   ; qtot 380.951932
16972         ho    622    ccc     H6  16972 0.53656000   1.008000   ; qtot 381.488492
16973         ho    622    ccc     H7  16973 0.49492100   1.008000   ; qtot 381.983413
16974         ho    622    ccc     H8  16974 0.51297200   1.008000   ; qtot 382.496385
16975         h1    622    ccc     H9  16975 0.05653400   1.008000   ; qtot 382.552919
16976         h1    622    ccc    H10  16976 0.05653400   1.008000   ; qtot 382.609453
16977         oh    622    ccc     O5  16977 -0.84113600  16.000000   ; qtot 381.768317
16978         ho    622    ccc    H11  16978 0.51201600   1.008000   ; qtot 382.280333
16979         os    622    ccc     O6  16979 -0.26013600  16.000000   ; qtot 382.020197
; residue  623 ccc rtp ccc q 0.0
16980         c3    623    ccc     C1  16980 -0.33178800  12.010000   ; qtot 381.688409
16981         c3    623    ccc     C2  16981 0.30606500  12.010000   ; qtot 381.994474
16982         h1    623    ccc     H1  16982 0.11662300   1.008000   ; qtot 382.111097
16983         h1    623    ccc     H2  16983 0.11526800   1.008000   ; qtot 382.226365
16984         c3    623    ccc     C3  16984 0.15592700  12.010000   ; qtot 382.382292
16985         c3    623    ccc     C4  16985 0.28383300  12.010000   ; qtot 382.666125
16986         c3    623    ccc     C5  16986 0.32403300  12.010000   ; qtot 382.990158
16987         h1    623    ccc     H3  16987 0.13386900   1.008000   ; qtot 383.124027
16988         h1    623    ccc     H4  16988 0.10146700   1.008000   ; qtot 383.225494
16989         h2    623    ccc     H5  16989 0.10960400   1.008000   ; qtot 383.335098
16990         os    623    ccc     O1  16990 -0.28650000  16.000000   ; qtot 383.048598
16991         oh    623    ccc     O2  16991 -0.86012500  16.000000   ; qtot 382.188473
16992         oh    623    ccc     O3  16992 -0.83772800  16.000000   ; qtot 381.350745
16993         oh    623    ccc     O4  16993 -0.77449700  16.000000   ; qtot 380.576248
16994         c3    623    ccc     C6  16994 0.37576500  12.010000   ; qtot 380.952013
16995         ho    623    ccc     H6  16995 0.53656000   1.008000   ; qtot 381.488573
16996         ho    623    ccc     H7  16996 0.49492100   1.008000   ; qtot 381.983494
16997         ho    623    ccc     H8  16997 0.51297200   1.008000   ; qtot 382.496466
16998         h1    623    ccc     H9  16998 0.05653400   1.008000   ; qtot 382.553000
16999         h1    623    ccc    H10  16999 0.05653400   1.008000   ; qtot 382.609534
17000         oh    623    ccc     O5  17000 -0.84113600  16.000000   ; qtot 381.768398
17001         ho    623    ccc    H11  17001 0.51201600   1.008000   ; qtot 382.280414
17002         os    623    ccc     O6  17002 -0.26013600  16.000000   ; qtot 382.020278
; residue  624 ccc rtp ccc q 0.0
17003         c3    624    ccc     C1  17003 -0.33178800  12.010000   ; qtot 381.688490
17004         c3    624    ccc     C2  17004 0.30606500  12.010000   ; qtot 381.994555
17005         h1    624    ccc     H1  17005 0.11662300   1.008000   ; qtot 382.111178
17006         h1    624    ccc     H2  17006 0.11526800   1.008000   ; qtot 382.226446
17007         c3    624    ccc     C3  17007 0.15592700  12.010000   ; qtot 382.382373
17008         c3    624    ccc     C4  17008 0.28383300  12.010000   ; qtot 382.666206
17009         c3    624    ccc     C5  17009 0.32403300  12.010000   ; qtot 382.990239
17010         h1    624    ccc     H3  17010 0.13386900   1.008000   ; qtot 383.124108
17011         h1    624    ccc     H4  17011 0.10146700   1.008000   ; qtot 383.225575
17012         h2    624    ccc     H5  17012 0.10960400   1.008000   ; qtot 383.335179
17013         os    624    ccc     O1  17013 -0.28650000  16.000000   ; qtot 383.048679
17014         oh    624    ccc     O2  17014 -0.86012500  16.000000   ; qtot 382.188554
17015         oh    624    ccc     O3  17015 -0.83772800  16.000000   ; qtot 381.350826
17016         oh    624    ccc     O4  17016 -0.77449700  16.000000   ; qtot 380.576329
17017         c3    624    ccc     C6  17017 0.37576500  12.010000   ; qtot 380.952094
17018         ho    624    ccc     H6  17018 0.53656000   1.008000   ; qtot 381.488654
17019         ho    624    ccc     H7  17019 0.49492100   1.008000   ; qtot 381.983575
17020         ho    624    ccc     H8  17020 0.51297200   1.008000   ; qtot 382.496547
17021         h1    624    ccc     H9  17021 0.05653400   1.008000   ; qtot 382.553081
17022         h1    624    ccc    H10  17022 0.05653400   1.008000   ; qtot 382.609615
17023         oh    624    ccc     O5  17023 -0.84113600  16.000000   ; qtot 381.768479
17024         ho    624    ccc    H11  17024 0.51201600   1.008000   ; qtot 382.280495
17025         os    624    ccc     O6  17025 -0.26013600  16.000000   ; qtot 382.020359
; residue  625 ccc rtp ccc q 0.0
17026         c3    625    ccc     C1  17026 -0.33178800  12.010000   ; qtot 381.688571
17027         c3    625    ccc     C2  17027 0.30606500  12.010000   ; qtot 381.994636
17028         h1    625    ccc     H1  17028 0.11662300   1.008000   ; qtot 382.111259
17029         h1    625    ccc     H2  17029 0.11526800   1.008000   ; qtot 382.226527
17030         c3    625    ccc     C3  17030 0.15592700  12.010000   ; qtot 382.382454
17031         c3    625    ccc     C4  17031 0.28383300  12.010000   ; qtot 382.666287
17032         c3    625    ccc     C5  17032 0.32403300  12.010000   ; qtot 382.990320
17033         h1    625    ccc     H3  17033 0.13386900   1.008000   ; qtot 383.124189
17034         h1    625    ccc     H4  17034 0.10146700   1.008000   ; qtot 383.225656
17035         h2    625    ccc     H5  17035 0.10960400   1.008000   ; qtot 383.335260
17036         os    625    ccc     O1  17036 -0.28650000  16.000000   ; qtot 383.048760
17037         oh    625    ccc     O2  17037 -0.86012500  16.000000   ; qtot 382.188635
17038         oh    625    ccc     O3  17038 -0.83772800  16.000000   ; qtot 381.350907
17039         oh    625    ccc     O4  17039 -0.77449700  16.000000   ; qtot 380.576410
17040         c3    625    ccc     C6  17040 0.37576500  12.010000   ; qtot 380.952175
17041         ho    625    ccc     H6  17041 0.53656000   1.008000   ; qtot 381.488735
17042         ho    625    ccc     H7  17042 0.49492100   1.008000   ; qtot 381.983656
17043         ho    625    ccc     H8  17043 0.51297200   1.008000   ; qtot 382.496628
17044         h1    625    ccc     H9  17044 0.05653400   1.008000   ; qtot 382.553162
17045         h1    625    ccc    H10  17045 0.05653400   1.008000   ; qtot 382.609696
17046         oh    625    ccc     O5  17046 -0.84113600  16.000000   ; qtot 381.768560
17047         ho    625    ccc    H11  17047 0.51201600   1.008000   ; qtot 382.280576
17048         os    625    ccc     O6  17048 -0.26013600  16.000000   ; qtot 382.020440
; residue  626 ccc rtp ccc q 0.0
17049         c3    626    ccc     C1  17049 -0.33178800  12.010000   ; qtot 381.688652
17050         c3    626    ccc     C2  17050 0.30606500  12.010000   ; qtot 381.994717
17051         h1    626    ccc     H1  17051 0.11662300   1.008000   ; qtot 382.111340
17052         h1    626    ccc     H2  17052 0.11526800   1.008000   ; qtot 382.226608
17053         c3    626    ccc     C3  17053 0.15592700  12.010000   ; qtot 382.382535
17054         c3    626    ccc     C4  17054 0.28383300  12.010000   ; qtot 382.666368
17055         c3    626    ccc     C5  17055 0.32403300  12.010000   ; qtot 382.990401
17056         h1    626    ccc     H3  17056 0.13386900   1.008000   ; qtot 383.124270
17057         h1    626    ccc     H4  17057 0.10146700   1.008000   ; qtot 383.225737
17058         h2    626    ccc     H5  17058 0.10960400   1.008000   ; qtot 383.335341
17059         os    626    ccc     O1  17059 -0.28650000  16.000000   ; qtot 383.048841
17060         oh    626    ccc     O2  17060 -0.86012500  16.000000   ; qtot 382.188716
17061         oh    626    ccc     O3  17061 -0.83772800  16.000000   ; qtot 381.350988
17062         oh    626    ccc     O4  17062 -0.77449700  16.000000   ; qtot 380.576491
17063         c3    626    ccc     C6  17063 0.37576500  12.010000   ; qtot 380.952256
17064         ho    626    ccc     H6  17064 0.53656000   1.008000   ; qtot 381.488816
17065         ho    626    ccc     H7  17065 0.49492100   1.008000   ; qtot 381.983737
17066         ho    626    ccc     H8  17066 0.51297200   1.008000   ; qtot 382.496709
17067         h1    626    ccc     H9  17067 0.05653400   1.008000   ; qtot 382.553243
17068         h1    626    ccc    H10  17068 0.05653400   1.008000   ; qtot 382.609777
17069         oh    626    ccc     O5  17069 -0.84113600  16.000000   ; qtot 381.768641
17070         ho    626    ccc    H11  17070 0.51201600   1.008000   ; qtot 382.280657
17071         os    626    ccc     O6  17071 -0.26013600  16.000000   ; qtot 382.020521
; residue  627 ccc rtp ccc q 0.0
17072         c3    627    ccc     C1  17072 -0.33178800  12.010000   ; qtot 381.688733
17073         c3    627    ccc     C2  17073 0.30606500  12.010000   ; qtot 381.994798
17074         h1    627    ccc     H1  17074 0.11662300   1.008000   ; qtot 382.111421
17075         h1    627    ccc     H2  17075 0.11526800   1.008000   ; qtot 382.226689
17076         c3    627    ccc     C3  17076 0.15592700  12.010000   ; qtot 382.382616
17077         c3    627    ccc     C4  17077 0.28383300  12.010000   ; qtot 382.666449
17078         c3    627    ccc     C5  17078 0.32403300  12.010000   ; qtot 382.990482
17079         h1    627    ccc     H3  17079 0.13386900   1.008000   ; qtot 383.124351
17080         h1    627    ccc     H4  17080 0.10146700   1.008000   ; qtot 383.225818
17081         h2    627    ccc     H5  17081 0.10960400   1.008000   ; qtot 383.335422
17082         os    627    ccc     O1  17082 -0.28650000  16.000000   ; qtot 383.048922
17083         oh    627    ccc     O2  17083 -0.86012500  16.000000   ; qtot 382.188797
17084         oh    627    ccc     O3  17084 -0.83772800  16.000000   ; qtot 381.351069
17085         oh    627    ccc     O4  17085 -0.77449700  16.000000   ; qtot 380.576572
17086         c3    627    ccc     C6  17086 0.37576500  12.010000   ; qtot 380.952337
17087         ho    627    ccc     H6  17087 0.53656000   1.008000   ; qtot 381.488897
17088         ho    627    ccc     H7  17088 0.49492100   1.008000   ; qtot 381.983818
17089         ho    627    ccc     H8  17089 0.51297200   1.008000   ; qtot 382.496790
17090         h1    627    ccc     H9  17090 0.05653400   1.008000   ; qtot 382.553324
17091         h1    627    ccc    H10  17091 0.05653400   1.008000   ; qtot 382.609858
17092         oh    627    ccc     O5  17092 -0.84113600  16.000000   ; qtot 381.768722
17093         ho    627    ccc    H11  17093 0.51201600   1.008000   ; qtot 382.280738
17094         os    627    ccc     O6  17094 -0.26013600  16.000000   ; qtot 382.020602
; residue  628 ccc rtp ccc q 0.0
17095         c3    628    ccc     C1  17095 -0.33178800  12.010000   ; qtot 381.688814
17096         c3    628    ccc     C2  17096 0.30606500  12.010000   ; qtot 381.994879
17097         h1    628    ccc     H1  17097 0.11662300   1.008000   ; qtot 382.111502
17098         h1    628    ccc     H2  17098 0.11526800   1.008000   ; qtot 382.226770
17099         c3    628    ccc     C3  17099 0.15592700  12.010000   ; qtot 382.382697
17100         c3    628    ccc     C4  17100 0.28383300  12.010000   ; qtot 382.666530
17101         c3    628    ccc     C5  17101 0.32403300  12.010000   ; qtot 382.990563
17102         h1    628    ccc     H3  17102 0.13386900   1.008000   ; qtot 383.124432
17103         h1    628    ccc     H4  17103 0.10146700   1.008000   ; qtot 383.225899
17104         h2    628    ccc     H5  17104 0.10960400   1.008000   ; qtot 383.335503
17105         os    628    ccc     O1  17105 -0.28650000  16.000000   ; qtot 383.049003
17106         oh    628    ccc     O2  17106 -0.86012500  16.000000   ; qtot 382.188878
17107         oh    628    ccc     O3  17107 -0.83772800  16.000000   ; qtot 381.351150
17108         oh    628    ccc     O4  17108 -0.77449700  16.000000   ; qtot 380.576653
17109         c3    628    ccc     C6  17109 0.37576500  12.010000   ; qtot 380.952418
17110         ho    628    ccc     H6  17110 0.53656000   1.008000   ; qtot 381.488978
17111         ho    628    ccc     H7  17111 0.49492100   1.008000   ; qtot 381.983899
17112         ho    628    ccc     H8  17112 0.51297200   1.008000   ; qtot 382.496871
17113         h1    628    ccc     H9  17113 0.05653400   1.008000   ; qtot 382.553405
17114         h1    628    ccc    H10  17114 0.05653400   1.008000   ; qtot 382.609939
17115         oh    628    ccc     O5  17115 -0.84113600  16.000000   ; qtot 381.768803
17116         ho    628    ccc    H11  17116 0.51201600   1.008000   ; qtot 382.280819
17117         os    628    ccc     O6  17117 -0.26013600  16.000000   ; qtot 382.020683
; residue  629 ccc rtp ccc q 0.0
17118         c3    629    ccc     C1  17118 -0.33178800  12.010000   ; qtot 381.688895
17119         c3    629    ccc     C2  17119 0.30606500  12.010000   ; qtot 381.994960
17120         h1    629    ccc     H1  17120 0.11662300   1.008000   ; qtot 382.111583
17121         h1    629    ccc     H2  17121 0.11526800   1.008000   ; qtot 382.226851
17122         c3    629    ccc     C3  17122 0.15592700  12.010000   ; qtot 382.382778
17123         c3    629    ccc     C4  17123 0.28383300  12.010000   ; qtot 382.666611
17124         c3    629    ccc     C5  17124 0.32403300  12.010000   ; qtot 382.990644
17125         h1    629    ccc     H3  17125 0.13386900   1.008000   ; qtot 383.124513
17126         h1    629    ccc     H4  17126 0.10146700   1.008000   ; qtot 383.225980
17127         h2    629    ccc     H5  17127 0.10960400   1.008000   ; qtot 383.335584
17128         os    629    ccc     O1  17128 -0.28650000  16.000000   ; qtot 383.049084
17129         oh    629    ccc     O2  17129 -0.86012500  16.000000   ; qtot 382.188959
17130         oh    629    ccc     O3  17130 -0.83772800  16.000000   ; qtot 381.351231
17131         oh    629    ccc     O4  17131 -0.77449700  16.000000   ; qtot 380.576734
17132         c3    629    ccc     C6  17132 0.37576500  12.010000   ; qtot 380.952499
17133         ho    629    ccc     H6  17133 0.53656000   1.008000   ; qtot 381.489059
17134         ho    629    ccc     H7  17134 0.49492100   1.008000   ; qtot 381.983980
17135         ho    629    ccc     H8  17135 0.51297200   1.008000   ; qtot 382.496952
17136         h1    629    ccc     H9  17136 0.05653400   1.008000   ; qtot 382.553486
17137         h1    629    ccc    H10  17137 0.05653400   1.008000   ; qtot 382.610020
17138         oh    629    ccc     O5  17138 -0.84113600  16.000000   ; qtot 381.768884
17139         ho    629    ccc    H11  17139 0.51201600   1.008000   ; qtot 382.280900
17140         os    629    ccc     O6  17140 -0.26013600  16.000000   ; qtot 382.020764
; residue  630 ccc rtp ccc q 0.0
17141         c3    630    ccc     C1  17141 -0.33178800  12.010000   ; qtot 381.688976
17142         c3    630    ccc     C2  17142 0.30606500  12.010000   ; qtot 381.995041
17143         h1    630    ccc     H1  17143 0.11662300   1.008000   ; qtot 382.111664
17144         h1    630    ccc     H2  17144 0.11526800   1.008000   ; qtot 382.226932
17145         c3    630    ccc     C3  17145 0.15592700  12.010000   ; qtot 382.382859
17146         c3    630    ccc     C4  17146 0.28383300  12.010000   ; qtot 382.666692
17147         c3    630    ccc     C5  17147 0.32403300  12.010000   ; qtot 382.990725
17148         h1    630    ccc     H3  17148 0.13386900   1.008000   ; qtot 383.124594
17149         h1    630    ccc     H4  17149 0.10146700   1.008000   ; qtot 383.226061
17150         h2    630    ccc     H5  17150 0.10960400   1.008000   ; qtot 383.335665
17151         os    630    ccc     O1  17151 -0.28650000  16.000000   ; qtot 383.049165
17152         oh    630    ccc     O2  17152 -0.86012500  16.000000   ; qtot 382.189040
17153         oh    630    ccc     O3  17153 -0.83772800  16.000000   ; qtot 381.351312
17154         oh    630    ccc     O4  17154 -0.77449700  16.000000   ; qtot 380.576815
17155         c3    630    ccc     C6  17155 0.37576500  12.010000   ; qtot 380.952580
17156         ho    630    ccc     H6  17156 0.53656000   1.008000   ; qtot 381.489140
17157         ho    630    ccc     H7  17157 0.49492100   1.008000   ; qtot 381.984061
17158         ho    630    ccc     H8  17158 0.51297200   1.008000   ; qtot 382.497033
17159         h1    630    ccc     H9  17159 0.05653400   1.008000   ; qtot 382.553567
17160         h1    630    ccc    H10  17160 0.05653400   1.008000   ; qtot 382.610101
17161         oh    630    ccc     O5  17161 -0.84113600  16.000000   ; qtot 381.768965
17162         ho    630    ccc    H11  17162 0.51201600   1.008000   ; qtot 382.280981
17163         os    630    ccc     O6  17163 -0.26013600  16.000000   ; qtot 382.020845
; residue  631 ccc rtp ccc q 0.0
17164         c3    631    ccc     C1  17164 -0.33178800  12.010000   ; qtot 381.689057
17165         c3    631    ccc     C2  17165 0.30606500  12.010000   ; qtot 381.995122
17166         h1    631    ccc     H1  17166 0.11662300   1.008000   ; qtot 382.111745
17167         h1    631    ccc     H2  17167 0.11526800   1.008000   ; qtot 382.227013
17168         c3    631    ccc     C3  17168 0.15592700  12.010000   ; qtot 382.382940
17169         c3    631    ccc     C4  17169 0.28383300  12.010000   ; qtot 382.666773
17170         c3    631    ccc     C5  17170 0.32403300  12.010000   ; qtot 382.990806
17171         h1    631    ccc     H3  17171 0.13386900   1.008000   ; qtot 383.124675
17172         h1    631    ccc     H4  17172 0.10146700   1.008000   ; qtot 383.226142
17173         h2    631    ccc     H5  17173 0.10960400   1.008000   ; qtot 383.335746
17174         os    631    ccc     O1  17174 -0.28650000  16.000000   ; qtot 383.049246
17175         oh    631    ccc     O2  17175 -0.86012500  16.000000   ; qtot 382.189121
17176         oh    631    ccc     O3  17176 -0.83772800  16.000000   ; qtot 381.351393
17177         oh    631    ccc     O4  17177 -0.77449700  16.000000   ; qtot 380.576896
17178         c3    631    ccc     C6  17178 0.37576500  12.010000   ; qtot 380.952661
17179         ho    631    ccc     H6  17179 0.53656000   1.008000   ; qtot 381.489221
17180         ho    631    ccc     H7  17180 0.49492100   1.008000   ; qtot 381.984142
17181         ho    631    ccc     H8  17181 0.51297200   1.008000   ; qtot 382.497114
17182         h1    631    ccc     H9  17182 0.05653400   1.008000   ; qtot 382.553648
17183         h1    631    ccc    H10  17183 0.05653400   1.008000   ; qtot 382.610182
17184         oh    631    ccc     O5  17184 -0.84113600  16.000000   ; qtot 381.769046
17185         ho    631    ccc    H11  17185 0.51201600   1.008000   ; qtot 382.281062
17186         os    631    ccc     O6  17186 -0.26013600  16.000000   ; qtot 382.020926
; residue  632 ccc rtp ccc q 0.0
17187         c3    632    ccc     C1  17187 -0.33178800  12.010000   ; qtot 381.689138
17188         c3    632    ccc     C2  17188 0.30606500  12.010000   ; qtot 381.995203
17189         h1    632    ccc     H1  17189 0.11662300   1.008000   ; qtot 382.111826
17190         h1    632    ccc     H2  17190 0.11526800   1.008000   ; qtot 382.227094
17191         c3    632    ccc     C3  17191 0.15592700  12.010000   ; qtot 382.383021
17192         c3    632    ccc     C4  17192 0.28383300  12.010000   ; qtot 382.666854
17193         c3    632    ccc     C5  17193 0.32403300  12.010000   ; qtot 382.990887
17194         h1    632    ccc     H3  17194 0.13386900   1.008000   ; qtot 383.124756
17195         h1    632    ccc     H4  17195 0.10146700   1.008000   ; qtot 383.226223
17196         h2    632    ccc     H5  17196 0.10960400   1.008000   ; qtot 383.335827
17197         os    632    ccc     O1  17197 -0.28650000  16.000000   ; qtot 383.049327
17198         oh    632    ccc     O2  17198 -0.86012500  16.000000   ; qtot 382.189202
17199         oh    632    ccc     O3  17199 -0.83772800  16.000000   ; qtot 381.351474
17200         oh    632    ccc     O4  17200 -0.77449700  16.000000   ; qtot 380.576977
17201         c3    632    ccc     C6  17201 0.37576500  12.010000   ; qtot 380.952742
17202         ho    632    ccc     H6  17202 0.53656000   1.008000   ; qtot 381.489302
17203         ho    632    ccc     H7  17203 0.49492100   1.008000   ; qtot 381.984223
17204         ho    632    ccc     H8  17204 0.51297200   1.008000   ; qtot 382.497195
17205         h1    632    ccc     H9  17205 0.05653400   1.008000   ; qtot 382.553729
17206         h1    632    ccc    H10  17206 0.05653400   1.008000   ; qtot 382.610263
17207         oh    632    ccc     O5  17207 -0.84113600  16.000000   ; qtot 381.769127
17208         ho    632    ccc    H11  17208 0.51201600   1.008000   ; qtot 382.281143
17209         os    632    ccc     O6  17209 -0.26013600  16.000000   ; qtot 382.021007
; residue  633 ccc rtp ccc q 0.0
17210         c3    633    ccc     C1  17210 -0.33178800  12.010000   ; qtot 381.689219
17211         c3    633    ccc     C2  17211 0.30606500  12.010000   ; qtot 381.995284
17212         h1    633    ccc     H1  17212 0.11662300   1.008000   ; qtot 382.111907
17213         h1    633    ccc     H2  17213 0.11526800   1.008000   ; qtot 382.227175
17214         c3    633    ccc     C3  17214 0.15592700  12.010000   ; qtot 382.383102
17215         c3    633    ccc     C4  17215 0.28383300  12.010000   ; qtot 382.666935
17216         c3    633    ccc     C5  17216 0.32403300  12.010000   ; qtot 382.990968
17217         h1    633    ccc     H3  17217 0.13386900   1.008000   ; qtot 383.124837
17218         h1    633    ccc     H4  17218 0.10146700   1.008000   ; qtot 383.226304
17219         h2    633    ccc     H5  17219 0.10960400   1.008000   ; qtot 383.335908
17220         os    633    ccc     O1  17220 -0.28650000  16.000000   ; qtot 383.049408
17221         oh    633    ccc     O2  17221 -0.86012500  16.000000   ; qtot 382.189283
17222         oh    633    ccc     O3  17222 -0.83772800  16.000000   ; qtot 381.351555
17223         oh    633    ccc     O4  17223 -0.77449700  16.000000   ; qtot 380.577058
17224         c3    633    ccc     C6  17224 0.37576500  12.010000   ; qtot 380.952823
17225         ho    633    ccc     H6  17225 0.53656000   1.008000   ; qtot 381.489383
17226         ho    633    ccc     H7  17226 0.49492100   1.008000   ; qtot 381.984304
17227         ho    633    ccc     H8  17227 0.51297200   1.008000   ; qtot 382.497276
17228         h1    633    ccc     H9  17228 0.05653400   1.008000   ; qtot 382.553810
17229         h1    633    ccc    H10  17229 0.05653400   1.008000   ; qtot 382.610344
17230         oh    633    ccc     O5  17230 -0.84113600  16.000000   ; qtot 381.769208
17231         ho    633    ccc    H11  17231 0.51201600   1.008000   ; qtot 382.281224
17232         os    633    ccc     O6  17232 -0.26013600  16.000000   ; qtot 382.021088
; residue  634 ccc rtp ccc q 0.0
17233         c3    634    ccc     C1  17233 -0.33178800  12.010000   ; qtot 381.689300
17234         c3    634    ccc     C2  17234 0.30606500  12.010000   ; qtot 381.995365
17235         h1    634    ccc     H1  17235 0.11662300   1.008000   ; qtot 382.111988
17236         h1    634    ccc     H2  17236 0.11526800   1.008000   ; qtot 382.227256
17237         c3    634    ccc     C3  17237 0.15592700  12.010000   ; qtot 382.383183
17238         c3    634    ccc     C4  17238 0.28383300  12.010000   ; qtot 382.667016
17239         c3    634    ccc     C5  17239 0.32403300  12.010000   ; qtot 382.991049
17240         h1    634    ccc     H3  17240 0.13386900   1.008000   ; qtot 383.124918
17241         h1    634    ccc     H4  17241 0.10146700   1.008000   ; qtot 383.226385
17242         h2    634    ccc     H5  17242 0.10960400   1.008000   ; qtot 383.335989
17243         os    634    ccc     O1  17243 -0.28650000  16.000000   ; qtot 383.049489
17244         oh    634    ccc     O2  17244 -0.86012500  16.000000   ; qtot 382.189364
17245         oh    634    ccc     O3  17245 -0.83772800  16.000000   ; qtot 381.351636
17246         oh    634    ccc     O4  17246 -0.77449700  16.000000   ; qtot 380.577139
17247         c3    634    ccc     C6  17247 0.37576500  12.010000   ; qtot 380.952904
17248         ho    634    ccc     H6  17248 0.53656000   1.008000   ; qtot 381.489464
17249         ho    634    ccc     H7  17249 0.49492100   1.008000   ; qtot 381.984385
17250         ho    634    ccc     H8  17250 0.51297200   1.008000   ; qtot 382.497357
17251         h1    634    ccc     H9  17251 0.05653400   1.008000   ; qtot 382.553891
17252         h1    634    ccc    H10  17252 0.05653400   1.008000   ; qtot 382.610425
17253         oh    634    ccc     O5  17253 -0.84113600  16.000000   ; qtot 381.769289
17254         ho    634    ccc    H11  17254 0.51201600   1.008000   ; qtot 382.281305
17255         os    634    ccc     O6  17255 -0.26013600  16.000000   ; qtot 382.021169
; residue  635 ccc rtp ccc q 0.0
17256         c3    635    ccc     C1  17256 -0.33178800  12.010000   ; qtot 381.689381
17257         c3    635    ccc     C2  17257 0.30606500  12.010000   ; qtot 381.995446
17258         h1    635    ccc     H1  17258 0.11662300   1.008000   ; qtot 382.112069
17259         h1    635    ccc     H2  17259 0.11526800   1.008000   ; qtot 382.227337
17260         c3    635    ccc     C3  17260 0.15592700  12.010000   ; qtot 382.383264
17261         c3    635    ccc     C4  17261 0.28383300  12.010000   ; qtot 382.667097
17262         c3    635    ccc     C5  17262 0.32403300  12.010000   ; qtot 382.991130
17263         h1    635    ccc     H3  17263 0.13386900   1.008000   ; qtot 383.124999
17264         h1    635    ccc     H4  17264 0.10146700   1.008000   ; qtot 383.226466
17265         h2    635    ccc     H5  17265 0.10960400   1.008000   ; qtot 383.336070
17266         os    635    ccc     O1  17266 -0.28650000  16.000000   ; qtot 383.049570
17267         oh    635    ccc     O2  17267 -0.86012500  16.000000   ; qtot 382.189445
17268         oh    635    ccc     O3  17268 -0.83772800  16.000000   ; qtot 381.351717
17269         oh    635    ccc     O4  17269 -0.77449700  16.000000   ; qtot 380.577220
17270         c3    635    ccc     C6  17270 0.37576500  12.010000   ; qtot 380.952985
17271         ho    635    ccc     H6  17271 0.53656000   1.008000   ; qtot 381.489545
17272         ho    635    ccc     H7  17272 0.49492100   1.008000   ; qtot 381.984466
17273         ho    635    ccc     H8  17273 0.51297200   1.008000   ; qtot 382.497438
17274         h1    635    ccc     H9  17274 0.05653400   1.008000   ; qtot 382.553972
17275         h1    635    ccc    H10  17275 0.05653400   1.008000   ; qtot 382.610506
17276         oh    635    ccc     O5  17276 -0.84113600  16.000000   ; qtot 381.769370
17277         ho    635    ccc    H11  17277 0.51201600   1.008000   ; qtot 382.281386
17278         os    635    ccc     O6  17278 -0.26013600  16.000000   ; qtot 382.021250
; residue  636 ccc rtp ccc q 0.0
17279         c3    636    ccc     C1  17279 -0.33178800  12.010000   ; qtot 381.689462
17280         c3    636    ccc     C2  17280 0.30606500  12.010000   ; qtot 381.995527
17281         h1    636    ccc     H1  17281 0.11662300   1.008000   ; qtot 382.112150
17282         h1    636    ccc     H2  17282 0.11526800   1.008000   ; qtot 382.227418
17283         c3    636    ccc     C3  17283 0.15592700  12.010000   ; qtot 382.383345
17284         c3    636    ccc     C4  17284 0.28383300  12.010000   ; qtot 382.667178
17285         c3    636    ccc     C5  17285 0.32403300  12.010000   ; qtot 382.991211
17286         h1    636    ccc     H3  17286 0.13386900   1.008000   ; qtot 383.125080
17287         h1    636    ccc     H4  17287 0.10146700   1.008000   ; qtot 383.226547
17288         h2    636    ccc     H5  17288 0.10960400   1.008000   ; qtot 383.336151
17289         os    636    ccc     O1  17289 -0.28650000  16.000000   ; qtot 383.049651
17290         oh    636    ccc     O2  17290 -0.86012500  16.000000   ; qtot 382.189526
17291         oh    636    ccc     O3  17291 -0.83772800  16.000000   ; qtot 381.351798
17292         oh    636    ccc     O4  17292 -0.77449700  16.000000   ; qtot 380.577301
17293         c3    636    ccc     C6  17293 0.37576500  12.010000   ; qtot 380.953066
17294         ho    636    ccc     H6  17294 0.53656000   1.008000   ; qtot 381.489626
17295         ho    636    ccc     H7  17295 0.49492100   1.008000   ; qtot 381.984547
17296         ho    636    ccc     H8  17296 0.51297200   1.008000   ; qtot 382.497519
17297         h1    636    ccc     H9  17297 0.05653400   1.008000   ; qtot 382.554053
17298         h1    636    ccc    H10  17298 0.05653400   1.008000   ; qtot 382.610587
17299         oh    636    ccc     O5  17299 -0.84113600  16.000000   ; qtot 381.769451
17300         ho    636    ccc    H11  17300 0.51201600   1.008000   ; qtot 382.281467
17301         os    636    ccc     O6  17301 -0.26013600  16.000000   ; qtot 382.021331
; residue  637 ccc rtp ccc q 0.0
17302         c3    637    ccc     C1  17302 -0.33178800  12.010000   ; qtot 381.689543
17303         c3    637    ccc     C2  17303 0.30606500  12.010000   ; qtot 381.995608
17304         h1    637    ccc     H1  17304 0.11662300   1.008000   ; qtot 382.112231
17305         h1    637    ccc     H2  17305 0.11526800   1.008000   ; qtot 382.227499
17306         c3    637    ccc     C3  17306 0.15592700  12.010000   ; qtot 382.383426
17307         c3    637    ccc     C4  17307 0.28383300  12.010000   ; qtot 382.667259
17308         c3    637    ccc     C5  17308 0.32403300  12.010000   ; qtot 382.991292
17309         h1    637    ccc     H3  17309 0.13386900   1.008000   ; qtot 383.125161
17310         h1    637    ccc     H4  17310 0.10146700   1.008000   ; qtot 383.226628
17311         h2    637    ccc     H5  17311 0.10960400   1.008000   ; qtot 383.336232
17312         os    637    ccc     O1  17312 -0.28650000  16.000000   ; qtot 383.049732
17313         oh    637    ccc     O2  17313 -0.86012500  16.000000   ; qtot 382.189607
17314         oh    637    ccc     O3  17314 -0.83772800  16.000000   ; qtot 381.351879
17315         oh    637    ccc     O4  17315 -0.77449700  16.000000   ; qtot 380.577382
17316         c3    637    ccc     C6  17316 0.37576500  12.010000   ; qtot 380.953147
17317         ho    637    ccc     H6  17317 0.53656000   1.008000   ; qtot 381.489707
17318         ho    637    ccc     H7  17318 0.49492100   1.008000   ; qtot 381.984628
17319         ho    637    ccc     H8  17319 0.51297200   1.008000   ; qtot 382.497600
17320         h1    637    ccc     H9  17320 0.05653400   1.008000   ; qtot 382.554134
17321         h1    637    ccc    H10  17321 0.05653400   1.008000   ; qtot 382.610668
17322         oh    637    ccc     O5  17322 -0.84113600  16.000000   ; qtot 381.769532
17323         ho    637    ccc    H11  17323 0.51201600   1.008000   ; qtot 382.281548
17324         os    637    ccc     O6  17324 -0.26013600  16.000000   ; qtot 382.021412
; residue  638 ccc rtp ccc q 0.0
17325         c3    638    ccc     C1  17325 -0.33178800  12.010000   ; qtot 381.689624
17326         c3    638    ccc     C2  17326 0.30606500  12.010000   ; qtot 381.995689
17327         h1    638    ccc     H1  17327 0.11662300   1.008000   ; qtot 382.112312
17328         h1    638    ccc     H2  17328 0.11526800   1.008000   ; qtot 382.227580
17329         c3    638    ccc     C3  17329 0.15592700  12.010000   ; qtot 382.383507
17330         c3    638    ccc     C4  17330 0.28383300  12.010000   ; qtot 382.667340
17331         c3    638    ccc     C5  17331 0.32403300  12.010000   ; qtot 382.991373
17332         h1    638    ccc     H3  17332 0.13386900   1.008000   ; qtot 383.125242
17333         h1    638    ccc     H4  17333 0.10146700   1.008000   ; qtot 383.226709
17334         h2    638    ccc     H5  17334 0.10960400   1.008000   ; qtot 383.336313
17335         os    638    ccc     O1  17335 -0.28650000  16.000000   ; qtot 383.049813
17336         oh    638    ccc     O2  17336 -0.86012500  16.000000   ; qtot 382.189688
17337         oh    638    ccc     O3  17337 -0.83772800  16.000000   ; qtot 381.351960
17338         oh    638    ccc     O4  17338 -0.77449700  16.000000   ; qtot 380.577463
17339         c3    638    ccc     C6  17339 0.37576500  12.010000   ; qtot 380.953228
17340         ho    638    ccc     H6  17340 0.53656000   1.008000   ; qtot 381.489788
17341         ho    638    ccc     H7  17341 0.49492100   1.008000   ; qtot 381.984709
17342         ho    638    ccc     H8  17342 0.51297200   1.008000   ; qtot 382.497681
17343         h1    638    ccc     H9  17343 0.05653400   1.008000   ; qtot 382.554215
17344         h1    638    ccc    H10  17344 0.05653400   1.008000   ; qtot 382.610749
17345         oh    638    ccc     O5  17345 -0.84113600  16.000000   ; qtot 381.769613
17346         ho    638    ccc    H11  17346 0.51201600   1.008000   ; qtot 382.281629
17347         os    638    ccc     O6  17347 -0.26013600  16.000000   ; qtot 382.021493
; residue  639 ccc rtp ccc q 0.0
17348         c3    639    ccc     C1  17348 -0.33178800  12.010000   ; qtot 381.689705
17349         c3    639    ccc     C2  17349 0.30606500  12.010000   ; qtot 381.995770
17350         h1    639    ccc     H1  17350 0.11662300   1.008000   ; qtot 382.112393
17351         h1    639    ccc     H2  17351 0.11526800   1.008000   ; qtot 382.227661
17352         c3    639    ccc     C3  17352 0.15592700  12.010000   ; qtot 382.383588
17353         c3    639    ccc     C4  17353 0.28383300  12.010000   ; qtot 382.667421
17354         c3    639    ccc     C5  17354 0.32403300  12.010000   ; qtot 382.991454
17355         h1    639    ccc     H3  17355 0.13386900   1.008000   ; qtot 383.125323
17356         h1    639    ccc     H4  17356 0.10146700   1.008000   ; qtot 383.226790
17357         h2    639    ccc     H5  17357 0.10960400   1.008000   ; qtot 383.336394
17358         os    639    ccc     O1  17358 -0.28650000  16.000000   ; qtot 383.049894
17359         oh    639    ccc     O2  17359 -0.86012500  16.000000   ; qtot 382.189769
17360         oh    639    ccc     O3  17360 -0.83772800  16.000000   ; qtot 381.352041
17361         oh    639    ccc     O4  17361 -0.77449700  16.000000   ; qtot 380.577544
17362         c3    639    ccc     C6  17362 0.37576500  12.010000   ; qtot 380.953309
17363         ho    639    ccc     H6  17363 0.53656000   1.008000   ; qtot 381.489869
17364         ho    639    ccc     H7  17364 0.49492100   1.008000   ; qtot 381.984790
17365         ho    639    ccc     H8  17365 0.51297200   1.008000   ; qtot 382.497762
17366         h1    639    ccc     H9  17366 0.05653400   1.008000   ; qtot 382.554296
17367         h1    639    ccc    H10  17367 0.05653400   1.008000   ; qtot 382.610830
17368         oh    639    ccc     O5  17368 -0.84113600  16.000000   ; qtot 381.769694
17369         ho    639    ccc    H11  17369 0.51201600   1.008000   ; qtot 382.281710
17370         os    639    ccc     O6  17370 -0.26013600  16.000000   ; qtot 382.021574
; residue  640 ccc rtp ccc q 0.0
17371         c3    640    ccc     C1  17371 -0.33178800  12.010000   ; qtot 381.689786
17372         c3    640    ccc     C2  17372 0.30606500  12.010000   ; qtot 381.995851
17373         h1    640    ccc     H1  17373 0.11662300   1.008000   ; qtot 382.112474
17374         h1    640    ccc     H2  17374 0.11526800   1.008000   ; qtot 382.227742
17375         c3    640    ccc     C3  17375 0.15592700  12.010000   ; qtot 382.383669
17376         c3    640    ccc     C4  17376 0.28383300  12.010000   ; qtot 382.667502
17377         c3    640    ccc     C5  17377 0.32403300  12.010000   ; qtot 382.991535
17378         h1    640    ccc     H3  17378 0.13386900   1.008000   ; qtot 383.125404
17379         h1    640    ccc     H4  17379 0.10146700   1.008000   ; qtot 383.226871
17380         h2    640    ccc     H5  17380 0.10960400   1.008000   ; qtot 383.336475
17381         os    640    ccc     O1  17381 -0.28650000  16.000000   ; qtot 383.049975
17382         oh    640    ccc     O2  17382 -0.86012500  16.000000   ; qtot 382.189850
17383         oh    640    ccc     O3  17383 -0.83772800  16.000000   ; qtot 381.352122
17384         oh    640    ccc     O4  17384 -0.77449700  16.000000   ; qtot 380.577625
17385         c3    640    ccc     C6  17385 0.37576500  12.010000   ; qtot 380.953390
17386         ho    640    ccc     H6  17386 0.53656000   1.008000   ; qtot 381.489950
17387         ho    640    ccc     H7  17387 0.49492100   1.008000   ; qtot 381.984871
17388         ho    640    ccc     H8  17388 0.51297200   1.008000   ; qtot 382.497843
17389         h1    640    ccc     H9  17389 0.05653400   1.008000   ; qtot 382.554377
17390         h1    640    ccc    H10  17390 0.05653400   1.008000   ; qtot 382.610911
17391         oh    640    ccc     O5  17391 -0.84113600  16.000000   ; qtot 381.769775
17392         ho    640    ccc    H11  17392 0.51201600   1.008000   ; qtot 382.281791
17393         os    640    ccc     O6  17393 -0.26013600  16.000000   ; qtot 382.021655
; residue  641 ccc rtp ccc q 0.0
17394         c3    641    ccc     C1  17394 -0.33178800  12.010000   ; qtot 381.689867
17395         c3    641    ccc     C2  17395 0.30606500  12.010000   ; qtot 381.995932
17396         h1    641    ccc     H1  17396 0.11662300   1.008000   ; qtot 382.112555
17397         h1    641    ccc     H2  17397 0.11526800   1.008000   ; qtot 382.227823
17398         c3    641    ccc     C3  17398 0.15592700  12.010000   ; qtot 382.383750
17399         c3    641    ccc     C4  17399 0.28383300  12.010000   ; qtot 382.667583
17400         c3    641    ccc     C5  17400 0.32403300  12.010000   ; qtot 382.991616
17401         h1    641    ccc     H3  17401 0.13386900   1.008000   ; qtot 383.125485
17402         h1    641    ccc     H4  17402 0.10146700   1.008000   ; qtot 383.226952
17403         h2    641    ccc     H5  17403 0.10960400   1.008000   ; qtot 383.336556
17404         os    641    ccc     O1  17404 -0.28650000  16.000000   ; qtot 383.050056
17405         oh    641    ccc     O2  17405 -0.86012500  16.000000   ; qtot 382.189931
17406         oh    641    ccc     O3  17406 -0.83772800  16.000000   ; qtot 381.352203
17407         oh    641    ccc     O4  17407 -0.77449700  16.000000   ; qtot 380.577706
17408         c3    641    ccc     C6  17408 0.37576500  12.010000   ; qtot 380.953471
17409         ho    641    ccc     H6  17409 0.53656000   1.008000   ; qtot 381.490031
17410         ho    641    ccc     H7  17410 0.49492100   1.008000   ; qtot 381.984952
17411         ho    641    ccc     H8  17411 0.51297200   1.008000   ; qtot 382.497924
17412         h1    641    ccc     H9  17412 0.05653400   1.008000   ; qtot 382.554458
17413         h1    641    ccc    H10  17413 0.05653400   1.008000   ; qtot 382.610992
17414         oh    641    ccc     O5  17414 -0.84113600  16.000000   ; qtot 381.769856
17415         ho    641    ccc    H11  17415 0.51201600   1.008000   ; qtot 382.281872
17416         os    641    ccc     O6  17416 -0.26013600  16.000000   ; qtot 382.021736
; residue  642 ccc rtp ccc q 0.0
17417         c3    642    ccc     C1  17417 -0.33178800  12.010000   ; qtot 381.689948
17418         c3    642    ccc     C2  17418 0.30606500  12.010000   ; qtot 381.996013
17419         h1    642    ccc     H1  17419 0.11662300   1.008000   ; qtot 382.112636
17420         h1    642    ccc     H2  17420 0.11526800   1.008000   ; qtot 382.227904
17421         c3    642    ccc     C3  17421 0.15592700  12.010000   ; qtot 382.383831
17422         c3    642    ccc     C4  17422 0.28383300  12.010000   ; qtot 382.667664
17423         c3    642    ccc     C5  17423 0.32403300  12.010000   ; qtot 382.991697
17424         h1    642    ccc     H3  17424 0.13386900   1.008000   ; qtot 383.125566
17425         h1    642    ccc     H4  17425 0.10146700   1.008000   ; qtot 383.227033
17426         h2    642    ccc     H5  17426 0.10960400   1.008000   ; qtot 383.336637
17427         os    642    ccc     O1  17427 -0.28650000  16.000000   ; qtot 383.050137
17428         oh    642    ccc     O2  17428 -0.86012500  16.000000   ; qtot 382.190012
17429         oh    642    ccc     O3  17429 -0.83772800  16.000000   ; qtot 381.352284
17430         oh    642    ccc     O4  17430 -0.77449700  16.000000   ; qtot 380.577787
17431         c3    642    ccc     C6  17431 0.37576500  12.010000   ; qtot 380.953552
17432         ho    642    ccc     H6  17432 0.53656000   1.008000   ; qtot 381.490112
17433         ho    642    ccc     H7  17433 0.49492100   1.008000   ; qtot 381.985033
17434         ho    642    ccc     H8  17434 0.51297200   1.008000   ; qtot 382.498005
17435         h1    642    ccc     H9  17435 0.05653400   1.008000   ; qtot 382.554539
17436         h1    642    ccc    H10  17436 0.05653400   1.008000   ; qtot 382.611073
17437         oh    642    ccc     O5  17437 -0.84113600  16.000000   ; qtot 381.769937
17438         ho    642    ccc    H11  17438 0.51201600   1.008000   ; qtot 382.281953
17439         os    642    ccc     O6  17439 -0.26013600  16.000000   ; qtot 382.021817
; residue  643 ccc rtp ccc q 0.0
17440         c3    643    ccc     C1  17440 -0.33178800  12.010000   ; qtot 381.690029
17441         c3    643    ccc     C2  17441 0.30606500  12.010000   ; qtot 381.996094
17442         h1    643    ccc     H1  17442 0.11662300   1.008000   ; qtot 382.112717
17443         h1    643    ccc     H2  17443 0.11526800   1.008000   ; qtot 382.227985
17444         c3    643    ccc     C3  17444 0.15592700  12.010000   ; qtot 382.383912
17445         c3    643    ccc     C4  17445 0.28383300  12.010000   ; qtot 382.667745
17446         c3    643    ccc     C5  17446 0.32403300  12.010000   ; qtot 382.991778
17447         h1    643    ccc     H3  17447 0.13386900   1.008000   ; qtot 383.125647
17448         h1    643    ccc     H4  17448 0.10146700   1.008000   ; qtot 383.227114
17449         h2    643    ccc     H5  17449 0.10960400   1.008000   ; qtot 383.336718
17450         os    643    ccc     O1  17450 -0.28650000  16.000000   ; qtot 383.050218
17451         oh    643    ccc     O2  17451 -0.86012500  16.000000   ; qtot 382.190093
17452         oh    643    ccc     O3  17452 -0.83772800  16.000000   ; qtot 381.352365
17453         oh    643    ccc     O4  17453 -0.77449700  16.000000   ; qtot 380.577868
17454         c3    643    ccc     C6  17454 0.37576500  12.010000   ; qtot 380.953633
17455         ho    643    ccc     H6  17455 0.53656000   1.008000   ; qtot 381.490193
17456         ho    643    ccc     H7  17456 0.49492100   1.008000   ; qtot 381.985114
17457         ho    643    ccc     H8  17457 0.51297200   1.008000   ; qtot 382.498086
17458         h1    643    ccc     H9  17458 0.05653400   1.008000   ; qtot 382.554620
17459         h1    643    ccc    H10  17459 0.05653400   1.008000   ; qtot 382.611154
17460         oh    643    ccc     O5  17460 -0.84113600  16.000000   ; qtot 381.770018
17461         ho    643    ccc    H11  17461 0.51201600   1.008000   ; qtot 382.282034
17462         os    643    ccc     O6  17462 -0.26013600  16.000000   ; qtot 382.021898
; residue  644 ccc rtp ccc q 0.0
17463         c3    644    ccc     C1  17463 -0.33178800  12.010000   ; qtot 381.690110
17464         c3    644    ccc     C2  17464 0.30606500  12.010000   ; qtot 381.996175
17465         h1    644    ccc     H1  17465 0.11662300   1.008000   ; qtot 382.112798
17466         h1    644    ccc     H2  17466 0.11526800   1.008000   ; qtot 382.228066
17467         c3    644    ccc     C3  17467 0.15592700  12.010000   ; qtot 382.383993
17468         c3    644    ccc     C4  17468 0.28383300  12.010000   ; qtot 382.667826
17469         c3    644    ccc     C5  17469 0.32403300  12.010000   ; qtot 382.991859
17470         h1    644    ccc     H3  17470 0.13386900   1.008000   ; qtot 383.125728
17471         h1    644    ccc     H4  17471 0.10146700   1.008000   ; qtot 383.227195
17472         h2    644    ccc     H5  17472 0.10960400   1.008000   ; qtot 383.336799
17473         os    644    ccc     O1  17473 -0.28650000  16.000000   ; qtot 383.050299
17474         oh    644    ccc     O2  17474 -0.86012500  16.000000   ; qtot 382.190174
17475         oh    644    ccc     O3  17475 -0.83772800  16.000000   ; qtot 381.352446
17476         oh    644    ccc     O4  17476 -0.77449700  16.000000   ; qtot 380.577949
17477         c3    644    ccc     C6  17477 0.37576500  12.010000   ; qtot 380.953714
17478         ho    644    ccc     H6  17478 0.53656000   1.008000   ; qtot 381.490274
17479         ho    644    ccc     H7  17479 0.49492100   1.008000   ; qtot 381.985195
17480         ho    644    ccc     H8  17480 0.51297200   1.008000   ; qtot 382.498167
17481         h1    644    ccc     H9  17481 0.05653400   1.008000   ; qtot 382.554701
17482         h1    644    ccc    H10  17482 0.05653400   1.008000   ; qtot 382.611235
17483         oh    644    ccc     O5  17483 -0.84113600  16.000000   ; qtot 381.770099
17484         ho    644    ccc    H11  17484 0.51201600   1.008000   ; qtot 382.282115
17485         os    644    ccc     O6  17485 -0.26013600  16.000000   ; qtot 382.021979
; residue  645 ccc rtp ccc q 0.0
17486         c3    645    ccc     C1  17486 -0.33178800  12.010000   ; qtot 381.690191
17487         c3    645    ccc     C2  17487 0.30606500  12.010000   ; qtot 381.996256
17488         h1    645    ccc     H1  17488 0.11662300   1.008000   ; qtot 382.112879
17489         h1    645    ccc     H2  17489 0.11526800   1.008000   ; qtot 382.228147
17490         c3    645    ccc     C3  17490 0.15592700  12.010000   ; qtot 382.384074
17491         c3    645    ccc     C4  17491 0.28383300  12.010000   ; qtot 382.667907
17492         c3    645    ccc     C5  17492 0.32403300  12.010000   ; qtot 382.991940
17493         h1    645    ccc     H3  17493 0.13386900   1.008000   ; qtot 383.125809
17494         h1    645    ccc     H4  17494 0.10146700   1.008000   ; qtot 383.227276
17495         h2    645    ccc     H5  17495 0.10960400   1.008000   ; qtot 383.336880
17496         os    645    ccc     O1  17496 -0.28650000  16.000000   ; qtot 383.050380
17497         oh    645    ccc     O2  17497 -0.86012500  16.000000   ; qtot 382.190255
17498         oh    645    ccc     O3  17498 -0.83772800  16.000000   ; qtot 381.352527
17499         oh    645    ccc     O4  17499 -0.77449700  16.000000   ; qtot 380.578030
17500         c3    645    ccc     C6  17500 0.37576500  12.010000   ; qtot 380.953795
17501         ho    645    ccc     H6  17501 0.53656000   1.008000   ; qtot 381.490355
17502         ho    645    ccc     H7  17502 0.49492100   1.008000   ; qtot 381.985276
17503         ho    645    ccc     H8  17503 0.51297200   1.008000   ; qtot 382.498248
17504         h1    645    ccc     H9  17504 0.05653400   1.008000   ; qtot 382.554782
17505         h1    645    ccc    H10  17505 0.05653400   1.008000   ; qtot 382.611316
17506         oh    645    ccc     O5  17506 -0.84113600  16.000000   ; qtot 381.770180
17507         ho    645    ccc    H11  17507 0.51201600   1.008000   ; qtot 382.282196
17508         os    645    ccc     O6  17508 -0.26013600  16.000000   ; qtot 382.022060
; residue  646 ccc rtp ccc q 0.0
17509         c3    646    ccc     C1  17509 -0.33178800  12.010000   ; qtot 381.690272
17510         c3    646    ccc     C2  17510 0.30606500  12.010000   ; qtot 381.996337
17511         h1    646    ccc     H1  17511 0.11662300   1.008000   ; qtot 382.112960
17512         h1    646    ccc     H2  17512 0.11526800   1.008000   ; qtot 382.228228
17513         c3    646    ccc     C3  17513 0.15592700  12.010000   ; qtot 382.384155
17514         c3    646    ccc     C4  17514 0.28383300  12.010000   ; qtot 382.667988
17515         c3    646    ccc     C5  17515 0.32403300  12.010000   ; qtot 382.992021
17516         h1    646    ccc     H3  17516 0.13386900   1.008000   ; qtot 383.125890
17517         h1    646    ccc     H4  17517 0.10146700   1.008000   ; qtot 383.227357
17518         h2    646    ccc     H5  17518 0.10960400   1.008000   ; qtot 383.336961
17519         os    646    ccc     O1  17519 -0.28650000  16.000000   ; qtot 383.050461
17520         oh    646    ccc     O2  17520 -0.86012500  16.000000   ; qtot 382.190336
17521         oh    646    ccc     O3  17521 -0.83772800  16.000000   ; qtot 381.352608
17522         oh    646    ccc     O4  17522 -0.77449700  16.000000   ; qtot 380.578111
17523         c3    646    ccc     C6  17523 0.37576500  12.010000   ; qtot 380.953876
17524         ho    646    ccc     H6  17524 0.53656000   1.008000   ; qtot 381.490436
17525         ho    646    ccc     H7  17525 0.49492100   1.008000   ; qtot 381.985357
17526         ho    646    ccc     H8  17526 0.51297200   1.008000   ; qtot 382.498329
17527         h1    646    ccc     H9  17527 0.05653400   1.008000   ; qtot 382.554863
17528         h1    646    ccc    H10  17528 0.05653400   1.008000   ; qtot 382.611397
17529         oh    646    ccc     O5  17529 -0.84113600  16.000000   ; qtot 381.770261
17530         ho    646    ccc    H11  17530 0.51201600   1.008000   ; qtot 382.282277
17531         os    646    ccc     O6  17531 -0.26013600  16.000000   ; qtot 382.022141
; residue  647 ccc rtp ccc q 0.0
17532         c3    647    ccc     C1  17532 -0.33178800  12.010000   ; qtot 381.690353
17533         c3    647    ccc     C2  17533 0.30606500  12.010000   ; qtot 381.996418
17534         h1    647    ccc     H1  17534 0.11662300   1.008000   ; qtot 382.113041
17535         h1    647    ccc     H2  17535 0.11526800   1.008000   ; qtot 382.228309
17536         c3    647    ccc     C3  17536 0.15592700  12.010000   ; qtot 382.384236
17537         c3    647    ccc     C4  17537 0.28383300  12.010000   ; qtot 382.668069
17538         c3    647    ccc     C5  17538 0.32403300  12.010000   ; qtot 382.992102
17539         h1    647    ccc     H3  17539 0.13386900   1.008000   ; qtot 383.125971
17540         h1    647    ccc     H4  17540 0.10146700   1.008000   ; qtot 383.227438
17541         h2    647    ccc     H5  17541 0.10960400   1.008000   ; qtot 383.337042
17542         os    647    ccc     O1  17542 -0.28650000  16.000000   ; qtot 383.050542
17543         oh    647    ccc     O2  17543 -0.86012500  16.000000   ; qtot 382.190417
17544         oh    647    ccc     O3  17544 -0.83772800  16.000000   ; qtot 381.352689
17545         oh    647    ccc     O4  17545 -0.77449700  16.000000   ; qtot 380.578192
17546         c3    647    ccc     C6  17546 0.37576500  12.010000   ; qtot 380.953957
17547         ho    647    ccc     H6  17547 0.53656000   1.008000   ; qtot 381.490517
17548         ho    647    ccc     H7  17548 0.49492100   1.008000   ; qtot 381.985438
17549         ho    647    ccc     H8  17549 0.51297200   1.008000   ; qtot 382.498410
17550         h1    647    ccc     H9  17550 0.05653400   1.008000   ; qtot 382.554944
17551         h1    647    ccc    H10  17551 0.05653400   1.008000   ; qtot 382.611478
17552         oh    647    ccc     O5  17552 -0.84113600  16.000000   ; qtot 381.770342
17553         ho    647    ccc    H11  17553 0.51201600   1.008000   ; qtot 382.282358
17554         os    647    ccc     O6  17554 -0.26013600  16.000000   ; qtot 382.022222
; residue  648 ccc rtp ccc q 0.0
17555         c3    648    ccc     C1  17555 -0.33178800  12.010000   ; qtot 381.690434
17556         c3    648    ccc     C2  17556 0.30606500  12.010000   ; qtot 381.996499
17557         h1    648    ccc     H1  17557 0.11662300   1.008000   ; qtot 382.113122
17558         h1    648    ccc     H2  17558 0.11526800   1.008000   ; qtot 382.228390
17559         c3    648    ccc     C3  17559 0.15592700  12.010000   ; qtot 382.384317
17560         c3    648    ccc     C4  17560 0.28383300  12.010000   ; qtot 382.668150
17561         c3    648    ccc     C5  17561 0.32403300  12.010000   ; qtot 382.992183
17562         h1    648    ccc     H3  17562 0.13386900   1.008000   ; qtot 383.126052
17563         h1    648    ccc     H4  17563 0.10146700   1.008000   ; qtot 383.227519
17564         h2    648    ccc     H5  17564 0.10960400   1.008000   ; qtot 383.337123
17565         os    648    ccc     O1  17565 -0.28650000  16.000000   ; qtot 383.050623
17566         oh    648    ccc     O2  17566 -0.86012500  16.000000   ; qtot 382.190498
17567         oh    648    ccc     O3  17567 -0.83772800  16.000000   ; qtot 381.352770
17568         oh    648    ccc     O4  17568 -0.77449700  16.000000   ; qtot 380.578273
17569         c3    648    ccc     C6  17569 0.37576500  12.010000   ; qtot 380.954038
17570         ho    648    ccc     H6  17570 0.53656000   1.008000   ; qtot 381.490598
17571         ho    648    ccc     H7  17571 0.49492100   1.008000   ; qtot 381.985519
17572         ho    648    ccc     H8  17572 0.51297200   1.008000   ; qtot 382.498491
17573         h1    648    ccc     H9  17573 0.05653400   1.008000   ; qtot 382.555025
17574         h1    648    ccc    H10  17574 0.05653400   1.008000   ; qtot 382.611559
17575         oh    648    ccc     O5  17575 -0.84113600  16.000000   ; qtot 381.770423
17576         ho    648    ccc    H11  17576 0.51201600   1.008000   ; qtot 382.282439
17577         os    648    ccc     O6  17577 -0.26013600  16.000000   ; qtot 382.022303
; residue  649 ccc rtp ccc q 0.0
17578         c3    649    ccc     C1  17578 -0.33178800  12.010000   ; qtot 381.690515
17579         c3    649    ccc     C2  17579 0.30606500  12.010000   ; qtot 381.996580
17580         h1    649    ccc     H1  17580 0.11662300   1.008000   ; qtot 382.113203
17581         h1    649    ccc     H2  17581 0.11526800   1.008000   ; qtot 382.228471
17582         c3    649    ccc     C3  17582 0.15592700  12.010000   ; qtot 382.384398
17583         c3    649    ccc     C4  17583 0.28383300  12.010000   ; qtot 382.668231
17584         c3    649    ccc     C5  17584 0.32403300  12.010000   ; qtot 382.992264
17585         h1    649    ccc     H3  17585 0.13386900   1.008000   ; qtot 383.126133
17586         h1    649    ccc     H4  17586 0.10146700   1.008000   ; qtot 383.227600
17587         h2    649    ccc     H5  17587 0.10960400   1.008000   ; qtot 383.337204
17588         os    649    ccc     O1  17588 -0.28650000  16.000000   ; qtot 383.050704
17589         oh    649    ccc     O2  17589 -0.86012500  16.000000   ; qtot 382.190579
17590         oh    649    ccc     O3  17590 -0.83772800  16.000000   ; qtot 381.352851
17591         oh    649    ccc     O4  17591 -0.77449700  16.000000   ; qtot 380.578354
17592         c3    649    ccc     C6  17592 0.37576500  12.010000   ; qtot 380.954119
17593         ho    649    ccc     H6  17593 0.53656000   1.008000   ; qtot 381.490679
17594         ho    649    ccc     H7  17594 0.49492100   1.008000   ; qtot 381.985600
17595         ho    649    ccc     H8  17595 0.51297200   1.008000   ; qtot 382.498572
17596         h1    649    ccc     H9  17596 0.05653400   1.008000   ; qtot 382.555106
17597         h1    649    ccc    H10  17597 0.05653400   1.008000   ; qtot 382.611640
17598         oh    649    ccc     O5  17598 -0.84113600  16.000000   ; qtot 381.770504
17599         ho    649    ccc    H11  17599 0.51201600   1.008000   ; qtot 382.282520
17600         os    649    ccc     O6  17600 -0.26013600  16.000000   ; qtot 382.022384
; residue  650 ccc rtp ccc q 0.0
17601         c3    650    ccc     C1  17601 -0.33178800  12.010000   ; qtot 381.690596
17602         c3    650    ccc     C2  17602 0.30606500  12.010000   ; qtot 381.996661
17603         h1    650    ccc     H1  17603 0.11662300   1.008000   ; qtot 382.113284
17604         h1    650    ccc     H2  17604 0.11526800   1.008000   ; qtot 382.228552
17605         c3    650    ccc     C3  17605 0.15592700  12.010000   ; qtot 382.384479
17606         c3    650    ccc     C4  17606 0.28383300  12.010000   ; qtot 382.668312
17607         c3    650    ccc     C5  17607 0.32403300  12.010000   ; qtot 382.992345
17608         h1    650    ccc     H3  17608 0.13386900   1.008000   ; qtot 383.126214
17609         h1    650    ccc     H4  17609 0.10146700   1.008000   ; qtot 383.227681
17610         h2    650    ccc     H5  17610 0.10960400   1.008000   ; qtot 383.337285
17611         os    650    ccc     O1  17611 -0.28650000  16.000000   ; qtot 383.050785
17612         oh    650    ccc     O2  17612 -0.86012500  16.000000   ; qtot 382.190660
17613         oh    650    ccc     O3  17613 -0.83772800  16.000000   ; qtot 381.352932
17614         oh    650    ccc     O4  17614 -0.77449700  16.000000   ; qtot 380.578435
17615         c3    650    ccc     C6  17615 0.37576500  12.010000   ; qtot 380.954200
17616         ho    650    ccc     H6  17616 0.53656000   1.008000   ; qtot 381.490760
17617         ho    650    ccc     H7  17617 0.49492100   1.008000   ; qtot 381.985681
17618         ho    650    ccc     H8  17618 0.51297200   1.008000   ; qtot 382.498653
17619         h1    650    ccc     H9  17619 0.05653400   1.008000   ; qtot 382.555187
17620         h1    650    ccc    H10  17620 0.05653400   1.008000   ; qtot 382.611721
17621         oh    650    ccc     O5  17621 -0.84113600  16.000000   ; qtot 381.770585
17622         ho    650    ccc    H11  17622 0.51201600   1.008000   ; qtot 382.282601
17623         os    650    ccc     O6  17623 -0.26013600  16.000000   ; qtot 382.022465
; residue  651 ccc rtp ccc q 0.0
17624         c3    651    ccc     C1  17624 -0.33178800  12.010000   ; qtot 381.690677
17625         c3    651    ccc     C2  17625 0.30606500  12.010000   ; qtot 381.996742
17626         h1    651    ccc     H1  17626 0.11662300   1.008000   ; qtot 382.113365
17627         h1    651    ccc     H2  17627 0.11526800   1.008000   ; qtot 382.228633
17628         c3    651    ccc     C3  17628 0.15592700  12.010000   ; qtot 382.384560
17629         c3    651    ccc     C4  17629 0.28383300  12.010000   ; qtot 382.668393
17630         c3    651    ccc     C5  17630 0.32403300  12.010000   ; qtot 382.992426
17631         h1    651    ccc     H3  17631 0.13386900   1.008000   ; qtot 383.126295
17632         h1    651    ccc     H4  17632 0.10146700   1.008000   ; qtot 383.227762
17633         h2    651    ccc     H5  17633 0.10960400   1.008000   ; qtot 383.337366
17634         os    651    ccc     O1  17634 -0.28650000  16.000000   ; qtot 383.050866
17635         oh    651    ccc     O2  17635 -0.86012500  16.000000   ; qtot 382.190741
17636         oh    651    ccc     O3  17636 -0.83772800  16.000000   ; qtot 381.353013
17637         oh    651    ccc     O4  17637 -0.77449700  16.000000   ; qtot 380.578516
17638         c3    651    ccc     C6  17638 0.37576500  12.010000   ; qtot 380.954281
17639         ho    651    ccc     H6  17639 0.53656000   1.008000   ; qtot 381.490841
17640         ho    651    ccc     H7  17640 0.49492100   1.008000   ; qtot 381.985762
17641         ho    651    ccc     H8  17641 0.51297200   1.008000   ; qtot 382.498734
17642         h1    651    ccc     H9  17642 0.05653400   1.008000   ; qtot 382.555268
17643         h1    651    ccc    H10  17643 0.05653400   1.008000   ; qtot 382.611802
17644         oh    651    ccc     O5  17644 -0.84113600  16.000000   ; qtot 381.770666
17645         ho    651    ccc    H11  17645 0.51201600   1.008000   ; qtot 382.282682
17646         os    651    ccc     O6  17646 -0.26013600  16.000000   ; qtot 382.022546
; residue  652 ccc rtp ccc q 0.0
17647         c3    652    ccc     C1  17647 -0.33178800  12.010000   ; qtot 381.690758
17648         c3    652    ccc     C2  17648 0.30606500  12.010000   ; qtot 381.996823
17649         h1    652    ccc     H1  17649 0.11662300   1.008000   ; qtot 382.113446
17650         h1    652    ccc     H2  17650 0.11526800   1.008000   ; qtot 382.228714
17651         c3    652    ccc     C3  17651 0.15592700  12.010000   ; qtot 382.384641
17652         c3    652    ccc     C4  17652 0.28383300  12.010000   ; qtot 382.668474
17653         c3    652    ccc     C5  17653 0.32403300  12.010000   ; qtot 382.992507
17654         h1    652    ccc     H3  17654 0.13386900   1.008000   ; qtot 383.126376
17655         h1    652    ccc     H4  17655 0.10146700   1.008000   ; qtot 383.227843
17656         h2    652    ccc     H5  17656 0.10960400   1.008000   ; qtot 383.337447
17657         os    652    ccc     O1  17657 -0.28650000  16.000000   ; qtot 383.050947
17658         oh    652    ccc     O2  17658 -0.86012500  16.000000   ; qtot 382.190822
17659         oh    652    ccc     O3  17659 -0.83772800  16.000000   ; qtot 381.353094
17660         oh    652    ccc     O4  17660 -0.77449700  16.000000   ; qtot 380.578597
17661         c3    652    ccc     C6  17661 0.37576500  12.010000   ; qtot 380.954362
17662         ho    652    ccc     H6  17662 0.53656000   1.008000   ; qtot 381.490922
17663         ho    652    ccc     H7  17663 0.49492100   1.008000   ; qtot 381.985843
17664         ho    652    ccc     H8  17664 0.51297200   1.008000   ; qtot 382.498815
17665         h1    652    ccc     H9  17665 0.05653400   1.008000   ; qtot 382.555349
17666         h1    652    ccc    H10  17666 0.05653400   1.008000   ; qtot 382.611883
17667         oh    652    ccc     O5  17667 -0.84113600  16.000000   ; qtot 381.770747
17668         ho    652    ccc    H11  17668 0.51201600   1.008000   ; qtot 382.282763
17669         os    652    ccc     O6  17669 -0.26013600  16.000000   ; qtot 382.022627
; residue  653 ccc rtp ccc q 0.0
17670         c3    653    ccc     C1  17670 -0.33178800  12.010000   ; qtot 381.690839
17671         c3    653    ccc     C2  17671 0.30606500  12.010000   ; qtot 381.996904
17672         h1    653    ccc     H1  17672 0.11662300   1.008000   ; qtot 382.113527
17673         h1    653    ccc     H2  17673 0.11526800   1.008000   ; qtot 382.228795
17674         c3    653    ccc     C3  17674 0.15592700  12.010000   ; qtot 382.384722
17675         c3    653    ccc     C4  17675 0.28383300  12.010000   ; qtot 382.668555
17676         c3    653    ccc     C5  17676 0.32403300  12.010000   ; qtot 382.992588
17677         h1    653    ccc     H3  17677 0.13386900   1.008000   ; qtot 383.126457
17678         h1    653    ccc     H4  17678 0.10146700   1.008000   ; qtot 383.227924
17679         h2    653    ccc     H5  17679 0.10960400   1.008000   ; qtot 383.337528
17680         os    653    ccc     O1  17680 -0.28650000  16.000000   ; qtot 383.051028
17681         oh    653    ccc     O2  17681 -0.86012500  16.000000   ; qtot 382.190903
17682         oh    653    ccc     O3  17682 -0.83772800  16.000000   ; qtot 381.353175
17683         oh    653    ccc     O4  17683 -0.77449700  16.000000   ; qtot 380.578678
17684         c3    653    ccc     C6  17684 0.37576500  12.010000   ; qtot 380.954443
17685         ho    653    ccc     H6  17685 0.53656000   1.008000   ; qtot 381.491003
17686         ho    653    ccc     H7  17686 0.49492100   1.008000   ; qtot 381.985924
17687         ho    653    ccc     H8  17687 0.51297200   1.008000   ; qtot 382.498896
17688         h1    653    ccc     H9  17688 0.05653400   1.008000   ; qtot 382.555430
17689         h1    653    ccc    H10  17689 0.05653400   1.008000   ; qtot 382.611964
17690         oh    653    ccc     O5  17690 -0.84113600  16.000000   ; qtot 381.770828
17691         ho    653    ccc    H11  17691 0.51201600   1.008000   ; qtot 382.282844
17692         os    653    ccc     O6  17692 -0.26013600  16.000000   ; qtot 382.022708
; residue  654 ccc rtp ccc q 0.0
17693         c3    654    ccc     C1  17693 -0.33178800  12.010000   ; qtot 381.690920
17694         c3    654    ccc     C2  17694 0.30606500  12.010000   ; qtot 381.996985
17695         h1    654    ccc     H1  17695 0.11662300   1.008000   ; qtot 382.113608
17696         h1    654    ccc     H2  17696 0.11526800   1.008000   ; qtot 382.228876
17697         c3    654    ccc     C3  17697 0.15592700  12.010000   ; qtot 382.384803
17698         c3    654    ccc     C4  17698 0.28383300  12.010000   ; qtot 382.668636
17699         c3    654    ccc     C5  17699 0.32403300  12.010000   ; qtot 382.992669
17700         h1    654    ccc     H3  17700 0.13386900   1.008000   ; qtot 383.126538
17701         h1    654    ccc     H4  17701 0.10146700   1.008000   ; qtot 383.228005
17702         h2    654    ccc     H5  17702 0.10960400   1.008000   ; qtot 383.337609
17703         os    654    ccc     O1  17703 -0.28650000  16.000000   ; qtot 383.051109
17704         oh    654    ccc     O2  17704 -0.86012500  16.000000   ; qtot 382.190984
17705         oh    654    ccc     O3  17705 -0.83772800  16.000000   ; qtot 381.353256
17706         oh    654    ccc     O4  17706 -0.77449700  16.000000   ; qtot 380.578759
17707         c3    654    ccc     C6  17707 0.37576500  12.010000   ; qtot 380.954524
17708         ho    654    ccc     H6  17708 0.53656000   1.008000   ; qtot 381.491084
17709         ho    654    ccc     H7  17709 0.49492100   1.008000   ; qtot 381.986005
17710         ho    654    ccc     H8  17710 0.51297200   1.008000   ; qtot 382.498977
17711         h1    654    ccc     H9  17711 0.05653400   1.008000   ; qtot 382.555511
17712         h1    654    ccc    H10  17712 0.05653400   1.008000   ; qtot 382.612045
17713         oh    654    ccc     O5  17713 -0.84113600  16.000000   ; qtot 381.770909
17714         ho    654    ccc    H11  17714 0.51201600   1.008000   ; qtot 382.282925
17715         os    654    ccc     O6  17715 -0.26013600  16.000000   ; qtot 382.022789
; residue  655 ccc rtp ccc q 0.0
17716         c3    655    ccc     C1  17716 -0.33178800  12.010000   ; qtot 381.691001
17717         c3    655    ccc     C2  17717 0.30606500  12.010000   ; qtot 381.997066
17718         h1    655    ccc     H1  17718 0.11662300   1.008000   ; qtot 382.113689
17719         h1    655    ccc     H2  17719 0.11526800   1.008000   ; qtot 382.228957
17720         c3    655    ccc     C3  17720 0.15592700  12.010000   ; qtot 382.384884
17721         c3    655    ccc     C4  17721 0.28383300  12.010000   ; qtot 382.668717
17722         c3    655    ccc     C5  17722 0.32403300  12.010000   ; qtot 382.992750
17723         h1    655    ccc     H3  17723 0.13386900   1.008000   ; qtot 383.126619
17724         h1    655    ccc     H4  17724 0.10146700   1.008000   ; qtot 383.228086
17725         h2    655    ccc     H5  17725 0.10960400   1.008000   ; qtot 383.337690
17726         os    655    ccc     O1  17726 -0.28650000  16.000000   ; qtot 383.051190
17727         oh    655    ccc     O2  17727 -0.86012500  16.000000   ; qtot 382.191065
17728         oh    655    ccc     O3  17728 -0.83772800  16.000000   ; qtot 381.353337
17729         oh    655    ccc     O4  17729 -0.77449700  16.000000   ; qtot 380.578840
17730         c3    655    ccc     C6  17730 0.37576500  12.010000   ; qtot 380.954605
17731         ho    655    ccc     H6  17731 0.53656000   1.008000   ; qtot 381.491165
17732         ho    655    ccc     H7  17732 0.49492100   1.008000   ; qtot 381.986086
17733         ho    655    ccc     H8  17733 0.51297200   1.008000   ; qtot 382.499058
17734         h1    655    ccc     H9  17734 0.05653400   1.008000   ; qtot 382.555592
17735         h1    655    ccc    H10  17735 0.05653400   1.008000   ; qtot 382.612126
17736         oh    655    ccc     O5  17736 -0.84113600  16.000000   ; qtot 381.770990
17737         ho    655    ccc    H11  17737 0.51201600   1.008000   ; qtot 382.283006
17738         os    655    ccc     O6  17738 -0.26013600  16.000000   ; qtot 382.022870
; residue  656 ccc rtp ccc q 0.0
17739         c3    656    ccc     C1  17739 -0.33178800  12.010000   ; qtot 381.691082
17740         c3    656    ccc     C2  17740 0.30606500  12.010000   ; qtot 381.997147
17741         h1    656    ccc     H1  17741 0.11662300   1.008000   ; qtot 382.113770
17742         h1    656    ccc     H2  17742 0.11526800   1.008000   ; qtot 382.229038
17743         c3    656    ccc     C3  17743 0.15592700  12.010000   ; qtot 382.384965
17744         c3    656    ccc     C4  17744 0.28383300  12.010000   ; qtot 382.668798
17745         c3    656    ccc     C5  17745 0.32403300  12.010000   ; qtot 382.992831
17746         h1    656    ccc     H3  17746 0.13386900   1.008000   ; qtot 383.126700
17747         h1    656    ccc     H4  17747 0.10146700   1.008000   ; qtot 383.228167
17748         h2    656    ccc     H5  17748 0.10960400   1.008000   ; qtot 383.337771
17749         os    656    ccc     O1  17749 -0.28650000  16.000000   ; qtot 383.051271
17750         oh    656    ccc     O2  17750 -0.86012500  16.000000   ; qtot 382.191146
17751         oh    656    ccc     O3  17751 -0.83772800  16.000000   ; qtot 381.353418
17752         oh    656    ccc     O4  17752 -0.77449700  16.000000   ; qtot 380.578921
17753         c3    656    ccc     C6  17753 0.37576500  12.010000   ; qtot 380.954686
17754         ho    656    ccc     H6  17754 0.53656000   1.008000   ; qtot 381.491246
17755         ho    656    ccc     H7  17755 0.49492100   1.008000   ; qtot 381.986167
17756         ho    656    ccc     H8  17756 0.51297200   1.008000   ; qtot 382.499139
17757         h1    656    ccc     H9  17757 0.05653400   1.008000   ; qtot 382.555673
17758         h1    656    ccc    H10  17758 0.05653400   1.008000   ; qtot 382.612207
17759         oh    656    ccc     O5  17759 -0.84113600  16.000000   ; qtot 381.771071
17760         ho    656    ccc    H11  17760 0.51201600   1.008000   ; qtot 382.283087
17761         os    656    ccc     O6  17761 -0.26013600  16.000000   ; qtot 382.022951
; residue  657 ccc rtp ccc q 0.0
17762         c3    657    ccc     C1  17762 -0.33178800  12.010000   ; qtot 381.691163
17763         c3    657    ccc     C2  17763 0.30606500  12.010000   ; qtot 381.997228
17764         h1    657    ccc     H1  17764 0.11662300   1.008000   ; qtot 382.113851
17765         h1    657    ccc     H2  17765 0.11526800   1.008000   ; qtot 382.229119
17766         c3    657    ccc     C3  17766 0.15592700  12.010000   ; qtot 382.385046
17767         c3    657    ccc     C4  17767 0.28383300  12.010000   ; qtot 382.668879
17768         c3    657    ccc     C5  17768 0.32403300  12.010000   ; qtot 382.992912
17769         h1    657    ccc     H3  17769 0.13386900   1.008000   ; qtot 383.126781
17770         h1    657    ccc     H4  17770 0.10146700   1.008000   ; qtot 383.228248
17771         h2    657    ccc     H5  17771 0.10960400   1.008000   ; qtot 383.337852
17772         os    657    ccc     O1  17772 -0.28650000  16.000000   ; qtot 383.051352
17773         oh    657    ccc     O2  17773 -0.86012500  16.000000   ; qtot 382.191227
17774         oh    657    ccc     O3  17774 -0.83772800  16.000000   ; qtot 381.353499
17775         oh    657    ccc     O4  17775 -0.77449700  16.000000   ; qtot 380.579002
17776         c3    657    ccc     C6  17776 0.37576500  12.010000   ; qtot 380.954767
17777         ho    657    ccc     H6  17777 0.53656000   1.008000   ; qtot 381.491327
17778         ho    657    ccc     H7  17778 0.49492100   1.008000   ; qtot 381.986248
17779         ho    657    ccc     H8  17779 0.51297200   1.008000   ; qtot 382.499220
17780         h1    657    ccc     H9  17780 0.05653400   1.008000   ; qtot 382.555754
17781         h1    657    ccc    H10  17781 0.05653400   1.008000   ; qtot 382.612288
17782         oh    657    ccc     O5  17782 -0.84113600  16.000000   ; qtot 381.771152
17783         ho    657    ccc    H11  17783 0.51201600   1.008000   ; qtot 382.283168
17784         os    657    ccc     O6  17784 -0.26013600  16.000000   ; qtot 382.023032
; residue  658 ccc rtp ccc q 0.0
17785         c3    658    ccc     C1  17785 -0.33178800  12.010000   ; qtot 381.691244
17786         c3    658    ccc     C2  17786 0.30606500  12.010000   ; qtot 381.997309
17787         h1    658    ccc     H1  17787 0.11662300   1.008000   ; qtot 382.113932
17788         h1    658    ccc     H2  17788 0.11526800   1.008000   ; qtot 382.229200
17789         c3    658    ccc     C3  17789 0.15592700  12.010000   ; qtot 382.385127
17790         c3    658    ccc     C4  17790 0.28383300  12.010000   ; qtot 382.668960
17791         c3    658    ccc     C5  17791 0.32403300  12.010000   ; qtot 382.992993
17792         h1    658    ccc     H3  17792 0.13386900   1.008000   ; qtot 383.126862
17793         h1    658    ccc     H4  17793 0.10146700   1.008000   ; qtot 383.228329
17794         h2    658    ccc     H5  17794 0.10960400   1.008000   ; qtot 383.337933
17795         os    658    ccc     O1  17795 -0.28650000  16.000000   ; qtot 383.051433
17796         oh    658    ccc     O2  17796 -0.86012500  16.000000   ; qtot 382.191308
17797         oh    658    ccc     O3  17797 -0.83772800  16.000000   ; qtot 381.353580
17798         oh    658    ccc     O4  17798 -0.77449700  16.000000   ; qtot 380.579083
17799         c3    658    ccc     C6  17799 0.37576500  12.010000   ; qtot 380.954848
17800         ho    658    ccc     H6  17800 0.53656000   1.008000   ; qtot 381.491408
17801         ho    658    ccc     H7  17801 0.49492100   1.008000   ; qtot 381.986329
17802         ho    658    ccc     H8  17802 0.51297200   1.008000   ; qtot 382.499301
17803         h1    658    ccc     H9  17803 0.05653400   1.008000   ; qtot 382.555835
17804         h1    658    ccc    H10  17804 0.05653400   1.008000   ; qtot 382.612369
17805         oh    658    ccc     O5  17805 -0.84113600  16.000000   ; qtot 381.771233
17806         ho    658    ccc    H11  17806 0.51201600   1.008000   ; qtot 382.283249
17807         os    658    ccc     O6  17807 -0.26013600  16.000000   ; qtot 382.023113
; residue  659 ccc rtp ccc q 0.0
17808         c3    659    ccc     C1  17808 -0.33178800  12.010000   ; qtot 381.691325
17809         c3    659    ccc     C2  17809 0.30606500  12.010000   ; qtot 381.997390
17810         h1    659    ccc     H1  17810 0.11662300   1.008000   ; qtot 382.114013
17811         h1    659    ccc     H2  17811 0.11526800   1.008000   ; qtot 382.229281
17812         c3    659    ccc     C3  17812 0.15592700  12.010000   ; qtot 382.385208
17813         c3    659    ccc     C4  17813 0.28383300  12.010000   ; qtot 382.669041
17814         c3    659    ccc     C5  17814 0.32403300  12.010000   ; qtot 382.993074
17815         h1    659    ccc     H3  17815 0.13386900   1.008000   ; qtot 383.126943
17816         h1    659    ccc     H4  17816 0.10146700   1.008000   ; qtot 383.228410
17817         h2    659    ccc     H5  17817 0.10960400   1.008000   ; qtot 383.338014
17818         os    659    ccc     O1  17818 -0.28650000  16.000000   ; qtot 383.051514
17819         oh    659    ccc     O2  17819 -0.86012500  16.000000   ; qtot 382.191389
17820         oh    659    ccc     O3  17820 -0.83772800  16.000000   ; qtot 381.353661
17821         oh    659    ccc     O4  17821 -0.77449700  16.000000   ; qtot 380.579164
17822         c3    659    ccc     C6  17822 0.37576500  12.010000   ; qtot 380.954929
17823         ho    659    ccc     H6  17823 0.53656000   1.008000   ; qtot 381.491489
17824         ho    659    ccc     H7  17824 0.49492100   1.008000   ; qtot 381.986410
17825         ho    659    ccc     H8  17825 0.51297200   1.008000   ; qtot 382.499382
17826         h1    659    ccc     H9  17826 0.05653400   1.008000   ; qtot 382.555916
17827         h1    659    ccc    H10  17827 0.05653400   1.008000   ; qtot 382.612450
17828         oh    659    ccc     O5  17828 -0.84113600  16.000000   ; qtot 381.771314
17829         ho    659    ccc    H11  17829 0.51201600   1.008000   ; qtot 382.283330
17830         os    659    ccc     O6  17830 -0.26013600  16.000000   ; qtot 382.023194
; residue  660 ccc rtp ccc q 0.0
17831         c3    660    ccc     C1  17831 -0.33178800  12.010000   ; qtot 381.691406
17832         c3    660    ccc     C2  17832 0.30606500  12.010000   ; qtot 381.997471
17833         h1    660    ccc     H1  17833 0.11662300   1.008000   ; qtot 382.114094
17834         h1    660    ccc     H2  17834 0.11526800   1.008000   ; qtot 382.229362
17835         c3    660    ccc     C3  17835 0.15592700  12.010000   ; qtot 382.385289
17836         c3    660    ccc     C4  17836 0.28383300  12.010000   ; qtot 382.669122
17837         c3    660    ccc     C5  17837 0.32403300  12.010000   ; qtot 382.993155
17838         h1    660    ccc     H3  17838 0.13386900   1.008000   ; qtot 383.127024
17839         h1    660    ccc     H4  17839 0.10146700   1.008000   ; qtot 383.228491
17840         h2    660    ccc     H5  17840 0.10960400   1.008000   ; qtot 383.338095
17841         os    660    ccc     O1  17841 -0.28650000  16.000000   ; qtot 383.051595
17842         oh    660    ccc     O2  17842 -0.86012500  16.000000   ; qtot 382.191470
17843         oh    660    ccc     O3  17843 -0.83772800  16.000000   ; qtot 381.353742
17844         oh    660    ccc     O4  17844 -0.77449700  16.000000   ; qtot 380.579245
17845         c3    660    ccc     C6  17845 0.37576500  12.010000   ; qtot 380.955010
17846         ho    660    ccc     H6  17846 0.53656000   1.008000   ; qtot 381.491570
17847         ho    660    ccc     H7  17847 0.49492100   1.008000   ; qtot 381.986491
17848         ho    660    ccc     H8  17848 0.51297200   1.008000   ; qtot 382.499463
17849         h1    660    ccc     H9  17849 0.05653400   1.008000   ; qtot 382.555997
17850         h1    660    ccc    H10  17850 0.05653400   1.008000   ; qtot 382.612531
17851         oh    660    ccc     O5  17851 -0.84113600  16.000000   ; qtot 381.771395
17852         ho    660    ccc    H11  17852 0.51201600   1.008000   ; qtot 382.283411
17853         os    660    ccc     O6  17853 -0.26013600  16.000000   ; qtot 382.023275
; residue  661 ccc rtp ccc q 0.0
17854         c3    661    ccc     C1  17854 -0.33178800  12.010000   ; qtot 381.691487
17855         c3    661    ccc     C2  17855 0.30606500  12.010000   ; qtot 381.997552
17856         h1    661    ccc     H1  17856 0.11662300   1.008000   ; qtot 382.114175
17857         h1    661    ccc     H2  17857 0.11526800   1.008000   ; qtot 382.229443
17858         c3    661    ccc     C3  17858 0.15592700  12.010000   ; qtot 382.385370
17859         c3    661    ccc     C4  17859 0.28383300  12.010000   ; qtot 382.669203
17860         c3    661    ccc     C5  17860 0.32403300  12.010000   ; qtot 382.993236
17861         h1    661    ccc     H3  17861 0.13386900   1.008000   ; qtot 383.127105
17862         h1    661    ccc     H4  17862 0.10146700   1.008000   ; qtot 383.228572
17863         h2    661    ccc     H5  17863 0.10960400   1.008000   ; qtot 383.338176
17864         os    661    ccc     O1  17864 -0.28650000  16.000000   ; qtot 383.051676
17865         oh    661    ccc     O2  17865 -0.86012500  16.000000   ; qtot 382.191551
17866         oh    661    ccc     O3  17866 -0.83772800  16.000000   ; qtot 381.353823
17867         oh    661    ccc     O4  17867 -0.77449700  16.000000   ; qtot 380.579326
17868         c3    661    ccc     C6  17868 0.37576500  12.010000   ; qtot 380.955091
17869         ho    661    ccc     H6  17869 0.53656000   1.008000   ; qtot 381.491651
17870         ho    661    ccc     H7  17870 0.49492100   1.008000   ; qtot 381.986572
17871         ho    661    ccc     H8  17871 0.51297200   1.008000   ; qtot 382.499544
17872         h1    661    ccc     H9  17872 0.05653400   1.008000   ; qtot 382.556078
17873         h1    661    ccc    H10  17873 0.05653400   1.008000   ; qtot 382.612612
17874         oh    661    ccc     O5  17874 -0.84113600  16.000000   ; qtot 381.771476
17875         ho    661    ccc    H11  17875 0.51201600   1.008000   ; qtot 382.283492
17876         os    661    ccc     O6  17876 -0.26013600  16.000000   ; qtot 382.023356
; residue  662 ccc rtp ccc q 0.0
17877         c3    662    ccc     C1  17877 -0.33178800  12.010000   ; qtot 381.691568
17878         c3    662    ccc     C2  17878 0.30606500  12.010000   ; qtot 381.997633
17879         h1    662    ccc     H1  17879 0.11662300   1.008000   ; qtot 382.114256
17880         h1    662    ccc     H2  17880 0.11526800   1.008000   ; qtot 382.229524
17881         c3    662    ccc     C3  17881 0.15592700  12.010000   ; qtot 382.385451
17882         c3    662    ccc     C4  17882 0.28383300  12.010000   ; qtot 382.669284
17883         c3    662    ccc     C5  17883 0.32403300  12.010000   ; qtot 382.993317
17884         h1    662    ccc     H3  17884 0.13386900   1.008000   ; qtot 383.127186
17885         h1    662    ccc     H4  17885 0.10146700   1.008000   ; qtot 383.228653
17886         h2    662    ccc     H5  17886 0.10960400   1.008000   ; qtot 383.338257
17887         os    662    ccc     O1  17887 -0.28650000  16.000000   ; qtot 383.051757
17888         oh    662    ccc     O2  17888 -0.86012500  16.000000   ; qtot 382.191632
17889         oh    662    ccc     O3  17889 -0.83772800  16.000000   ; qtot 381.353904
17890         oh    662    ccc     O4  17890 -0.77449700  16.000000   ; qtot 380.579407
17891         c3    662    ccc     C6  17891 0.37576500  12.010000   ; qtot 380.955172
17892         ho    662    ccc     H6  17892 0.53656000   1.008000   ; qtot 381.491732
17893         ho    662    ccc     H7  17893 0.49492100   1.008000   ; qtot 381.986653
17894         ho    662    ccc     H8  17894 0.51297200   1.008000   ; qtot 382.499625
17895         h1    662    ccc     H9  17895 0.05653400   1.008000   ; qtot 382.556159
17896         h1    662    ccc    H10  17896 0.05653400   1.008000   ; qtot 382.612693
17897         oh    662    ccc     O5  17897 -0.84113600  16.000000   ; qtot 381.771557
17898         ho    662    ccc    H11  17898 0.51201600   1.008000   ; qtot 382.283573
17899         os    662    ccc     O6  17899 -0.26013600  16.000000   ; qtot 382.023437
; residue  663 ccc rtp ccc q 0.0
17900         c3    663    ccc     C1  17900 -0.33178800  12.010000   ; qtot 381.691649
17901         c3    663    ccc     C2  17901 0.30606500  12.010000   ; qtot 381.997714
17902         h1    663    ccc     H1  17902 0.11662300   1.008000   ; qtot 382.114337
17903         h1    663    ccc     H2  17903 0.11526800   1.008000   ; qtot 382.229605
17904         c3    663    ccc     C3  17904 0.15592700  12.010000   ; qtot 382.385532
17905         c3    663    ccc     C4  17905 0.28383300  12.010000   ; qtot 382.669365
17906         c3    663    ccc     C5  17906 0.32403300  12.010000   ; qtot 382.993398
17907         h1    663    ccc     H3  17907 0.13386900   1.008000   ; qtot 383.127267
17908         h1    663    ccc     H4  17908 0.10146700   1.008000   ; qtot 383.228734
17909         h2    663    ccc     H5  17909 0.10960400   1.008000   ; qtot 383.338338
17910         os    663    ccc     O1  17910 -0.28650000  16.000000   ; qtot 383.051838
17911         oh    663    ccc     O2  17911 -0.86012500  16.000000   ; qtot 382.191713
17912         oh    663    ccc     O3  17912 -0.83772800  16.000000   ; qtot 381.353985
17913         oh    663    ccc     O4  17913 -0.77449700  16.000000   ; qtot 380.579488
17914         c3    663    ccc     C6  17914 0.37576500  12.010000   ; qtot 380.955253
17915         ho    663    ccc     H6  17915 0.53656000   1.008000   ; qtot 381.491813
17916         ho    663    ccc     H7  17916 0.49492100   1.008000   ; qtot 381.986734
17917         ho    663    ccc     H8  17917 0.51297200   1.008000   ; qtot 382.499706
17918         h1    663    ccc     H9  17918 0.05653400   1.008000   ; qtot 382.556240
17919         h1    663    ccc    H10  17919 0.05653400   1.008000   ; qtot 382.612774
17920         oh    663    ccc     O5  17920 -0.84113600  16.000000   ; qtot 381.771638
17921         ho    663    ccc    H11  17921 0.51201600   1.008000   ; qtot 382.283654
17922         os    663    ccc     O6  17922 -0.26013600  16.000000   ; qtot 382.023518
; residue  664 ccc rtp ccc q 0.0
17923         c3    664    ccc     C1  17923 -0.33178800  12.010000   ; qtot 381.691730
17924         c3    664    ccc     C2  17924 0.30606500  12.010000   ; qtot 381.997795
17925         h1    664    ccc     H1  17925 0.11662300   1.008000   ; qtot 382.114418
17926         h1    664    ccc     H2  17926 0.11526800   1.008000   ; qtot 382.229686
17927         c3    664    ccc     C3  17927 0.15592700  12.010000   ; qtot 382.385613
17928         c3    664    ccc     C4  17928 0.28383300  12.010000   ; qtot 382.669446
17929         c3    664    ccc     C5  17929 0.32403300  12.010000   ; qtot 382.993479
17930         h1    664    ccc     H3  17930 0.13386900   1.008000   ; qtot 383.127348
17931         h1    664    ccc     H4  17931 0.10146700   1.008000   ; qtot 383.228815
17932         h2    664    ccc     H5  17932 0.10960400   1.008000   ; qtot 383.338419
17933         os    664    ccc     O1  17933 -0.28650000  16.000000   ; qtot 383.051919
17934         oh    664    ccc     O2  17934 -0.86012500  16.000000   ; qtot 382.191794
17935         oh    664    ccc     O3  17935 -0.83772800  16.000000   ; qtot 381.354066
17936         oh    664    ccc     O4  17936 -0.77449700  16.000000   ; qtot 380.579569
17937         c3    664    ccc     C6  17937 0.37576500  12.010000   ; qtot 380.955334
17938         ho    664    ccc     H6  17938 0.53656000   1.008000   ; qtot 381.491894
17939         ho    664    ccc     H7  17939 0.49492100   1.008000   ; qtot 381.986815
17940         ho    664    ccc     H8  17940 0.51297200   1.008000   ; qtot 382.499787
17941         h1    664    ccc     H9  17941 0.05653400   1.008000   ; qtot 382.556321
17942         h1    664    ccc    H10  17942 0.05653400   1.008000   ; qtot 382.612855
17943         oh    664    ccc     O5  17943 -0.84113600  16.000000   ; qtot 381.771719
17944         ho    664    ccc    H11  17944 0.51201600   1.008000   ; qtot 382.283735
17945         os    664    ccc     O6  17945 -0.26013600  16.000000   ; qtot 382.023599
; residue  665 ccc rtp ccc q 0.0
17946         c3    665    ccc     C1  17946 -0.33178800  12.010000   ; qtot 381.691811
17947         c3    665    ccc     C2  17947 0.30606500  12.010000   ; qtot 381.997876
17948         h1    665    ccc     H1  17948 0.11662300   1.008000   ; qtot 382.114499
17949         h1    665    ccc     H2  17949 0.11526800   1.008000   ; qtot 382.229767
17950         c3    665    ccc     C3  17950 0.15592700  12.010000   ; qtot 382.385694
17951         c3    665    ccc     C4  17951 0.28383300  12.010000   ; qtot 382.669527
17952         c3    665    ccc     C5  17952 0.32403300  12.010000   ; qtot 382.993560
17953         h1    665    ccc     H3  17953 0.13386900   1.008000   ; qtot 383.127429
17954         h1    665    ccc     H4  17954 0.10146700   1.008000   ; qtot 383.228896
17955         h2    665    ccc     H5  17955 0.10960400   1.008000   ; qtot 383.338500
17956         os    665    ccc     O1  17956 -0.28650000  16.000000   ; qtot 383.052000
17957         oh    665    ccc     O2  17957 -0.86012500  16.000000   ; qtot 382.191875
17958         oh    665    ccc     O3  17958 -0.83772800  16.000000   ; qtot 381.354147
17959         oh    665    ccc     O4  17959 -0.77449700  16.000000   ; qtot 380.579650
17960         c3    665    ccc     C6  17960 0.37576500  12.010000   ; qtot 380.955415
17961         ho    665    ccc     H6  17961 0.53656000   1.008000   ; qtot 381.491975
17962         ho    665    ccc     H7  17962 0.49492100   1.008000   ; qtot 381.986896
17963         ho    665    ccc     H8  17963 0.51297200   1.008000   ; qtot 382.499868
17964         h1    665    ccc     H9  17964 0.05653400   1.008000   ; qtot 382.556402
17965         h1    665    ccc    H10  17965 0.05653400   1.008000   ; qtot 382.612936
17966         oh    665    ccc     O5  17966 -0.84113600  16.000000   ; qtot 381.771800
17967         ho    665    ccc    H11  17967 0.51201600   1.008000   ; qtot 382.283816
17968         os    665    ccc     O6  17968 -0.26013600  16.000000   ; qtot 382.023680
; residue  666 ccc rtp ccc q 0.0
17969         c3    666    ccc     C1  17969 -0.33178800  12.010000   ; qtot 381.691892
17970         c3    666    ccc     C2  17970 0.30606500  12.010000   ; qtot 381.997957
17971         h1    666    ccc     H1  17971 0.11662300   1.008000   ; qtot 382.114580
17972         h1    666    ccc     H2  17972 0.11526800   1.008000   ; qtot 382.229848
17973         c3    666    ccc     C3  17973 0.15592700  12.010000   ; qtot 382.385775
17974         c3    666    ccc     C4  17974 0.28383300  12.010000   ; qtot 382.669608
17975         c3    666    ccc     C5  17975 0.32403300  12.010000   ; qtot 382.993641
17976         h1    666    ccc     H3  17976 0.13386900   1.008000   ; qtot 383.127510
17977         h1    666    ccc     H4  17977 0.10146700   1.008000   ; qtot 383.228977
17978         h2    666    ccc     H5  17978 0.10960400   1.008000   ; qtot 383.338581
17979         os    666    ccc     O1  17979 -0.28650000  16.000000   ; qtot 383.052081
17980         oh    666    ccc     O2  17980 -0.86012500  16.000000   ; qtot 382.191956
17981         oh    666    ccc     O3  17981 -0.83772800  16.000000   ; qtot 381.354228
17982         oh    666    ccc     O4  17982 -0.77449700  16.000000   ; qtot 380.579731
17983         c3    666    ccc     C6  17983 0.37576500  12.010000   ; qtot 380.955496
17984         ho    666    ccc     H6  17984 0.53656000   1.008000   ; qtot 381.492056
17985         ho    666    ccc     H7  17985 0.49492100   1.008000   ; qtot 381.986977
17986         ho    666    ccc     H8  17986 0.51297200   1.008000   ; qtot 382.499949
17987         h1    666    ccc     H9  17987 0.05653400   1.008000   ; qtot 382.556483
17988         h1    666    ccc    H10  17988 0.05653400   1.008000   ; qtot 382.613017
17989         oh    666    ccc     O5  17989 -0.84113600  16.000000   ; qtot 381.771881
17990         ho    666    ccc    H11  17990 0.51201600   1.008000   ; qtot 382.283897
17991         os    666    ccc     O6  17991 -0.26013600  16.000000   ; qtot 382.023761
; residue  667 ccc rtp ccc q 0.0
17992         c3    667    ccc     C1  17992 -0.33178800  12.010000   ; qtot 381.691973
17993         c3    667    ccc     C2  17993 0.30606500  12.010000   ; qtot 381.998038
17994         h1    667    ccc     H1  17994 0.11662300   1.008000   ; qtot 382.114661
17995         h1    667    ccc     H2  17995 0.11526800   1.008000   ; qtot 382.229929
17996         c3    667    ccc     C3  17996 0.15592700  12.010000   ; qtot 382.385856
17997         c3    667    ccc     C4  17997 0.28383300  12.010000   ; qtot 382.669689
17998         c3    667    ccc     C5  17998 0.32403300  12.010000   ; qtot 382.993722
17999         h1    667    ccc     H3  17999 0.13386900   1.008000   ; qtot 383.127591
18000         h1    667    ccc     H4  18000 0.10146700   1.008000   ; qtot 383.229058
18001         h2    667    ccc     H5  18001 0.10960400   1.008000   ; qtot 383.338662
18002         os    667    ccc     O1  18002 -0.28650000  16.000000   ; qtot 383.052162
18003         oh    667    ccc     O2  18003 -0.86012500  16.000000   ; qtot 382.192037
18004         oh    667    ccc     O3  18004 -0.83772800  16.000000   ; qtot 381.354309
18005         oh    667    ccc     O4  18005 -0.77449700  16.000000   ; qtot 380.579812
18006         c3    667    ccc     C6  18006 0.37576500  12.010000   ; qtot 380.955577
18007         ho    667    ccc     H6  18007 0.53656000   1.008000   ; qtot 381.492137
18008         ho    667    ccc     H7  18008 0.49492100   1.008000   ; qtot 381.987058
18009         ho    667    ccc     H8  18009 0.51297200   1.008000   ; qtot 382.500030
18010         h1    667    ccc     H9  18010 0.05653400   1.008000   ; qtot 382.556564
18011         h1    667    ccc    H10  18011 0.05653400   1.008000   ; qtot 382.613098
18012         oh    667    ccc     O5  18012 -0.84113600  16.000000   ; qtot 381.771962
18013         ho    667    ccc    H11  18013 0.51201600   1.008000   ; qtot 382.283978
18014         os    667    ccc     O6  18014 -0.26013600  16.000000   ; qtot 382.023842
; residue  668 ccc rtp ccc q 0.0
18015         c3    668    ccc     C1  18015 -0.33178800  12.010000   ; qtot 381.692054
18016         c3    668    ccc     C2  18016 0.30606500  12.010000   ; qtot 381.998119
18017         h1    668    ccc     H1  18017 0.11662300   1.008000   ; qtot 382.114742
18018         h1    668    ccc     H2  18018 0.11526800   1.008000   ; qtot 382.230010
18019         c3    668    ccc     C3  18019 0.15592700  12.010000   ; qtot 382.385937
18020         c3    668    ccc     C4  18020 0.28383300  12.010000   ; qtot 382.669770
18021         c3    668    ccc     C5  18021 0.32403300  12.010000   ; qtot 382.993803
18022         h1    668    ccc     H3  18022 0.13386900   1.008000   ; qtot 383.127672
18023         h1    668    ccc     H4  18023 0.10146700   1.008000   ; qtot 383.229139
18024         h2    668    ccc     H5  18024 0.10960400   1.008000   ; qtot 383.338743
18025         os    668    ccc     O1  18025 -0.28650000  16.000000   ; qtot 383.052243
18026         oh    668    ccc     O2  18026 -0.86012500  16.000000   ; qtot 382.192118
18027         oh    668    ccc     O3  18027 -0.83772800  16.000000   ; qtot 381.354390
18028         oh    668    ccc     O4  18028 -0.77449700  16.000000   ; qtot 380.579893
18029         c3    668    ccc     C6  18029 0.37576500  12.010000   ; qtot 380.955658
18030         ho    668    ccc     H6  18030 0.53656000   1.008000   ; qtot 381.492218
18031         ho    668    ccc     H7  18031 0.49492100   1.008000   ; qtot 381.987139
18032         ho    668    ccc     H8  18032 0.51297200   1.008000   ; qtot 382.500111
18033         h1    668    ccc     H9  18033 0.05653400   1.008000   ; qtot 382.556645
18034         h1    668    ccc    H10  18034 0.05653400   1.008000   ; qtot 382.613179
18035         oh    668    ccc     O5  18035 -0.84113600  16.000000   ; qtot 381.772043
18036         ho    668    ccc    H11  18036 0.51201600   1.008000   ; qtot 382.284059
18037         os    668    ccc     O6  18037 -0.26013600  16.000000   ; qtot 382.023923
; residue  669 ccc rtp ccc q 0.0
18038         c3    669    ccc     C1  18038 -0.33178800  12.010000   ; qtot 381.692135
18039         c3    669    ccc     C2  18039 0.30606500  12.010000   ; qtot 381.998200
18040         h1    669    ccc     H1  18040 0.11662300   1.008000   ; qtot 382.114823
18041         h1    669    ccc     H2  18041 0.11526800   1.008000   ; qtot 382.230091
18042         c3    669    ccc     C3  18042 0.15592700  12.010000   ; qtot 382.386018
18043         c3    669    ccc     C4  18043 0.28383300  12.010000   ; qtot 382.669851
18044         c3    669    ccc     C5  18044 0.32403300  12.010000   ; qtot 382.993884
18045         h1    669    ccc     H3  18045 0.13386900   1.008000   ; qtot 383.127753
18046         h1    669    ccc     H4  18046 0.10146700   1.008000   ; qtot 383.229220
18047         h2    669    ccc     H5  18047 0.10960400   1.008000   ; qtot 383.338824
18048         os    669    ccc     O1  18048 -0.28650000  16.000000   ; qtot 383.052324
18049         oh    669    ccc     O2  18049 -0.86012500  16.000000   ; qtot 382.192199
18050         oh    669    ccc     O3  18050 -0.83772800  16.000000   ; qtot 381.354471
18051         oh    669    ccc     O4  18051 -0.77449700  16.000000   ; qtot 380.579974
18052         c3    669    ccc     C6  18052 0.37576500  12.010000   ; qtot 380.955739
18053         ho    669    ccc     H6  18053 0.53656000   1.008000   ; qtot 381.492299
18054         ho    669    ccc     H7  18054 0.49492100   1.008000   ; qtot 381.987220
18055         ho    669    ccc     H8  18055 0.51297200   1.008000   ; qtot 382.500192
18056         h1    669    ccc     H9  18056 0.05653400   1.008000   ; qtot 382.556726
18057         h1    669    ccc    H10  18057 0.05653400   1.008000   ; qtot 382.613260
18058         oh    669    ccc     O5  18058 -0.84113600  16.000000   ; qtot 381.772124
18059         ho    669    ccc    H11  18059 0.51201600   1.008000   ; qtot 382.284140
18060         os    669    ccc     O6  18060 -0.26013600  16.000000   ; qtot 382.024004
; residue  670 ccc rtp ccc q 0.0
18061         c3    670    ccc     C1  18061 -0.33178800  12.010000   ; qtot 381.692216
18062         c3    670    ccc     C2  18062 0.30606500  12.010000   ; qtot 381.998281
18063         h1    670    ccc     H1  18063 0.11662300   1.008000   ; qtot 382.114904
18064         h1    670    ccc     H2  18064 0.11526800   1.008000   ; qtot 382.230172
18065         c3    670    ccc     C3  18065 0.15592700  12.010000   ; qtot 382.386099
18066         c3    670    ccc     C4  18066 0.28383300  12.010000   ; qtot 382.669932
18067         c3    670    ccc     C5  18067 0.32403300  12.010000   ; qtot 382.993965
18068         h1    670    ccc     H3  18068 0.13386900   1.008000   ; qtot 383.127834
18069         h1    670    ccc     H4  18069 0.10146700   1.008000   ; qtot 383.229301
18070         h2    670    ccc     H5  18070 0.10960400   1.008000   ; qtot 383.338905
18071         os    670    ccc     O1  18071 -0.28650000  16.000000   ; qtot 383.052405
18072         oh    670    ccc     O2  18072 -0.86012500  16.000000   ; qtot 382.192280
18073         oh    670    ccc     O3  18073 -0.83772800  16.000000   ; qtot 381.354552
18074         oh    670    ccc     O4  18074 -0.77449700  16.000000   ; qtot 380.580055
18075         c3    670    ccc     C6  18075 0.37576500  12.010000   ; qtot 380.955820
18076         ho    670    ccc     H6  18076 0.53656000   1.008000   ; qtot 381.492380
18077         ho    670    ccc     H7  18077 0.49492100   1.008000   ; qtot 381.987301
18078         ho    670    ccc     H8  18078 0.51297200   1.008000   ; qtot 382.500273
18079         h1    670    ccc     H9  18079 0.05653400   1.008000   ; qtot 382.556807
18080         h1    670    ccc    H10  18080 0.05653400   1.008000   ; qtot 382.613341
18081         oh    670    ccc     O5  18081 -0.84113600  16.000000   ; qtot 381.772205
18082         ho    670    ccc    H11  18082 0.51201600   1.008000   ; qtot 382.284221
18083         os    670    ccc     O6  18083 -0.26013600  16.000000   ; qtot 382.024085
; residue  671 ccc rtp ccc q 0.0
18084         c3    671    ccc     C1  18084 -0.33178800  12.010000   ; qtot 381.692297
18085         c3    671    ccc     C2  18085 0.30606500  12.010000   ; qtot 381.998362
18086         h1    671    ccc     H1  18086 0.11662300   1.008000   ; qtot 382.114985
18087         h1    671    ccc     H2  18087 0.11526800   1.008000   ; qtot 382.230253
18088         c3    671    ccc     C3  18088 0.15592700  12.010000   ; qtot 382.386180
18089         c3    671    ccc     C4  18089 0.28383300  12.010000   ; qtot 382.670013
18090         c3    671    ccc     C5  18090 0.32403300  12.010000   ; qtot 382.994046
18091         h1    671    ccc     H3  18091 0.13386900   1.008000   ; qtot 383.127915
18092         h1    671    ccc     H4  18092 0.10146700   1.008000   ; qtot 383.229382
18093         h2    671    ccc     H5  18093 0.10960400   1.008000   ; qtot 383.338986
18094         os    671    ccc     O1  18094 -0.28650000  16.000000   ; qtot 383.052486
18095         oh    671    ccc     O2  18095 -0.86012500  16.000000   ; qtot 382.192361
18096         oh    671    ccc     O3  18096 -0.83772800  16.000000   ; qtot 381.354633
18097         oh    671    ccc     O4  18097 -0.77449700  16.000000   ; qtot 380.580136
18098         c3    671    ccc     C6  18098 0.37576500  12.010000   ; qtot 380.955901
18099         ho    671    ccc     H6  18099 0.53656000   1.008000   ; qtot 381.492461
18100         ho    671    ccc     H7  18100 0.49492100   1.008000   ; qtot 381.987382
18101         ho    671    ccc     H8  18101 0.51297200   1.008000   ; qtot 382.500354
18102         h1    671    ccc     H9  18102 0.05653400   1.008000   ; qtot 382.556888
18103         h1    671    ccc    H10  18103 0.05653400   1.008000   ; qtot 382.613422
18104         oh    671    ccc     O5  18104 -0.84113600  16.000000   ; qtot 381.772286
18105         ho    671    ccc    H11  18105 0.51201600   1.008000   ; qtot 382.284302
18106         os    671    ccc     O6  18106 -0.26013600  16.000000   ; qtot 382.024166
; residue  672 ccc rtp ccc q 0.0
18107         c3    672    ccc     C1  18107 -0.33178800  12.010000   ; qtot 381.692378
18108         c3    672    ccc     C2  18108 0.30606500  12.010000   ; qtot 381.998443
18109         h1    672    ccc     H1  18109 0.11662300   1.008000   ; qtot 382.115066
18110         h1    672    ccc     H2  18110 0.11526800   1.008000   ; qtot 382.230334
18111         c3    672    ccc     C3  18111 0.15592700  12.010000   ; qtot 382.386261
18112         c3    672    ccc     C4  18112 0.28383300  12.010000   ; qtot 382.670094
18113         c3    672    ccc     C5  18113 0.32403300  12.010000   ; qtot 382.994127
18114         h1    672    ccc     H3  18114 0.13386900   1.008000   ; qtot 383.127996
18115         h1    672    ccc     H4  18115 0.10146700   1.008000   ; qtot 383.229463
18116         h2    672    ccc     H5  18116 0.10960400   1.008000   ; qtot 383.339067
18117         os    672    ccc     O1  18117 -0.28650000  16.000000   ; qtot 383.052567
18118         oh    672    ccc     O2  18118 -0.86012500  16.000000   ; qtot 382.192442
18119         oh    672    ccc     O3  18119 -0.83772800  16.000000   ; qtot 381.354714
18120         oh    672    ccc     O4  18120 -0.77449700  16.000000   ; qtot 380.580217
18121         c3    672    ccc     C6  18121 0.37576500  12.010000   ; qtot 380.955982
18122         ho    672    ccc     H6  18122 0.53656000   1.008000   ; qtot 381.492542
18123         ho    672    ccc     H7  18123 0.49492100   1.008000   ; qtot 381.987463
18124         ho    672    ccc     H8  18124 0.51297200   1.008000   ; qtot 382.500435
18125         h1    672    ccc     H9  18125 0.05653400   1.008000   ; qtot 382.556969
18126         h1    672    ccc    H10  18126 0.05653400   1.008000   ; qtot 382.613503
18127         oh    672    ccc     O5  18127 -0.84113600  16.000000   ; qtot 381.772367
18128         ho    672    ccc    H11  18128 0.51201600   1.008000   ; qtot 382.284383
18129         os    672    ccc     O6  18129 -0.26013600  16.000000   ; qtot 382.024247
; residue  673 ccc rtp ccc q 0.0
18130         c3    673    ccc     C1  18130 -0.33178800  12.010000   ; qtot 381.692459
18131         c3    673    ccc     C2  18131 0.30606500  12.010000   ; qtot 381.998524
18132         h1    673    ccc     H1  18132 0.11662300   1.008000   ; qtot 382.115147
18133         h1    673    ccc     H2  18133 0.11526800   1.008000   ; qtot 382.230415
18134         c3    673    ccc     C3  18134 0.15592700  12.010000   ; qtot 382.386342
18135         c3    673    ccc     C4  18135 0.28383300  12.010000   ; qtot 382.670175
18136         c3    673    ccc     C5  18136 0.32403300  12.010000   ; qtot 382.994208
18137         h1    673    ccc     H3  18137 0.13386900   1.008000   ; qtot 383.128077
18138         h1    673    ccc     H4  18138 0.10146700   1.008000   ; qtot 383.229544
18139         h2    673    ccc     H5  18139 0.10960400   1.008000   ; qtot 383.339148
18140         os    673    ccc     O1  18140 -0.28650000  16.000000   ; qtot 383.052648
18141         oh    673    ccc     O2  18141 -0.86012500  16.000000   ; qtot 382.192523
18142         oh    673    ccc     O3  18142 -0.83772800  16.000000   ; qtot 381.354795
18143         oh    673    ccc     O4  18143 -0.77449700  16.000000   ; qtot 380.580298
18144         c3    673    ccc     C6  18144 0.37576500  12.010000   ; qtot 380.956063
18145         ho    673    ccc     H6  18145 0.53656000   1.008000   ; qtot 381.492623
18146         ho    673    ccc     H7  18146 0.49492100   1.008000   ; qtot 381.987544
18147         ho    673    ccc     H8  18147 0.51297200   1.008000   ; qtot 382.500516
18148         h1    673    ccc     H9  18148 0.05653400   1.008000   ; qtot 382.557050
18149         h1    673    ccc    H10  18149 0.05653400   1.008000   ; qtot 382.613584
18150         oh    673    ccc     O5  18150 -0.84113600  16.000000   ; qtot 381.772448
18151         ho    673    ccc    H11  18151 0.51201600   1.008000   ; qtot 382.284464
18152         os    673    ccc     O6  18152 -0.26013600  16.000000   ; qtot 382.024328
; residue  674 ccc rtp ccc q 0.0
18153         c3    674    ccc     C1  18153 -0.33178800  12.010000   ; qtot 381.692540
18154         c3    674    ccc     C2  18154 0.30606500  12.010000   ; qtot 381.998605
18155         h1    674    ccc     H1  18155 0.11662300   1.008000   ; qtot 382.115228
18156         h1    674    ccc     H2  18156 0.11526800   1.008000   ; qtot 382.230496
18157         c3    674    ccc     C3  18157 0.15592700  12.010000   ; qtot 382.386423
18158         c3    674    ccc     C4  18158 0.28383300  12.010000   ; qtot 382.670256
18159         c3    674    ccc     C5  18159 0.32403300  12.010000   ; qtot 382.994289
18160         h1    674    ccc     H3  18160 0.13386900   1.008000   ; qtot 383.128158
18161         h1    674    ccc     H4  18161 0.10146700   1.008000   ; qtot 383.229625
18162         h2    674    ccc     H5  18162 0.10960400   1.008000   ; qtot 383.339229
18163         os    674    ccc     O1  18163 -0.28650000  16.000000   ; qtot 383.052729
18164         oh    674    ccc     O2  18164 -0.86012500  16.000000   ; qtot 382.192604
18165         oh    674    ccc     O3  18165 -0.83772800  16.000000   ; qtot 381.354876
18166         oh    674    ccc     O4  18166 -0.77449700  16.000000   ; qtot 380.580379
18167         c3    674    ccc     C6  18167 0.37576500  12.010000   ; qtot 380.956144
18168         ho    674    ccc     H6  18168 0.53656000   1.008000   ; qtot 381.492704
18169         ho    674    ccc     H7  18169 0.49492100   1.008000   ; qtot 381.987625
18170         ho    674    ccc     H8  18170 0.51297200   1.008000   ; qtot 382.500597
18171         h1    674    ccc     H9  18171 0.05653400   1.008000   ; qtot 382.557131
18172         h1    674    ccc    H10  18172 0.05653400   1.008000   ; qtot 382.613665
18173         oh    674    ccc     O5  18173 -0.84113600  16.000000   ; qtot 381.772529
18174         ho    674    ccc    H11  18174 0.51201600   1.008000   ; qtot 382.284545
18175         os    674    ccc     O6  18175 -0.26013600  16.000000   ; qtot 382.024409
; residue  675 ccc rtp ccc q 0.0
18176         c3    675    ccc     C1  18176 -0.33178800  12.010000   ; qtot 381.692621
18177         c3    675    ccc     C2  18177 0.30606500  12.010000   ; qtot 381.998686
18178         h1    675    ccc     H1  18178 0.11662300   1.008000   ; qtot 382.115309
18179         h1    675    ccc     H2  18179 0.11526800   1.008000   ; qtot 382.230577
18180         c3    675    ccc     C3  18180 0.15592700  12.010000   ; qtot 382.386504
18181         c3    675    ccc     C4  18181 0.28383300  12.010000   ; qtot 382.670337
18182         c3    675    ccc     C5  18182 0.32403300  12.010000   ; qtot 382.994370
18183         h1    675    ccc     H3  18183 0.13386900   1.008000   ; qtot 383.128239
18184         h1    675    ccc     H4  18184 0.10146700   1.008000   ; qtot 383.229706
18185         h2    675    ccc     H5  18185 0.10960400   1.008000   ; qtot 383.339310
18186         os    675    ccc     O1  18186 -0.28650000  16.000000   ; qtot 383.052810
18187         oh    675    ccc     O2  18187 -0.86012500  16.000000   ; qtot 382.192685
18188         oh    675    ccc     O3  18188 -0.83772800  16.000000   ; qtot 381.354957
18189         oh    675    ccc     O4  18189 -0.77449700  16.000000   ; qtot 380.580460
18190         c3    675    ccc     C6  18190 0.37576500  12.010000   ; qtot 380.956225
18191         ho    675    ccc     H6  18191 0.53656000   1.008000   ; qtot 381.492785
18192         ho    675    ccc     H7  18192 0.49492100   1.008000   ; qtot 381.987706
18193         ho    675    ccc     H8  18193 0.51297200   1.008000   ; qtot 382.500678
18194         h1    675    ccc     H9  18194 0.05653400   1.008000   ; qtot 382.557212
18195         h1    675    ccc    H10  18195 0.05653400   1.008000   ; qtot 382.613746
18196         oh    675    ccc     O5  18196 -0.84113600  16.000000   ; qtot 381.772610
18197         ho    675    ccc    H11  18197 0.51201600   1.008000   ; qtot 382.284626
18198         os    675    ccc     O6  18198 -0.26013600  16.000000   ; qtot 382.024490
; residue  676 ccc rtp ccc q 0.0
18199         c3    676    ccc     C1  18199 -0.33178800  12.010000   ; qtot 381.692702
18200         c3    676    ccc     C2  18200 0.30606500  12.010000   ; qtot 381.998767
18201         h1    676    ccc     H1  18201 0.11662300   1.008000   ; qtot 382.115390
18202         h1    676    ccc     H2  18202 0.11526800   1.008000   ; qtot 382.230658
18203         c3    676    ccc     C3  18203 0.15592700  12.010000   ; qtot 382.386585
18204         c3    676    ccc     C4  18204 0.28383300  12.010000   ; qtot 382.670418
18205         c3    676    ccc     C5  18205 0.32403300  12.010000   ; qtot 382.994451
18206         h1    676    ccc     H3  18206 0.13386900   1.008000   ; qtot 383.128320
18207         h1    676    ccc     H4  18207 0.10146700   1.008000   ; qtot 383.229787
18208         h2    676    ccc     H5  18208 0.10960400   1.008000   ; qtot 383.339391
18209         os    676    ccc     O1  18209 -0.28650000  16.000000   ; qtot 383.052891
18210         oh    676    ccc     O2  18210 -0.86012500  16.000000   ; qtot 382.192766
18211         oh    676    ccc     O3  18211 -0.83772800  16.000000   ; qtot 381.355038
18212         oh    676    ccc     O4  18212 -0.77449700  16.000000   ; qtot 380.580541
18213         c3    676    ccc     C6  18213 0.37576500  12.010000   ; qtot 380.956306
18214         ho    676    ccc     H6  18214 0.53656000   1.008000   ; qtot 381.492866
18215         ho    676    ccc     H7  18215 0.49492100   1.008000   ; qtot 381.987787
18216         ho    676    ccc     H8  18216 0.51297200   1.008000   ; qtot 382.500759
18217         h1    676    ccc     H9  18217 0.05653400   1.008000   ; qtot 382.557293
18218         h1    676    ccc    H10  18218 0.05653400   1.008000   ; qtot 382.613827
18219         oh    676    ccc     O5  18219 -0.84113600  16.000000   ; qtot 381.772691
18220         ho    676    ccc    H11  18220 0.51201600   1.008000   ; qtot 382.284707
18221         os    676    ccc     O6  18221 -0.26013600  16.000000   ; qtot 382.024571
; residue  677 ccc rtp ccc q 0.0
18222         c3    677    ccc     C1  18222 -0.33178800  12.010000   ; qtot 381.692783
18223         c3    677    ccc     C2  18223 0.30606500  12.010000   ; qtot 381.998848
18224         h1    677    ccc     H1  18224 0.11662300   1.008000   ; qtot 382.115471
18225         h1    677    ccc     H2  18225 0.11526800   1.008000   ; qtot 382.230739
18226         c3    677    ccc     C3  18226 0.15592700  12.010000   ; qtot 382.386666
18227         c3    677    ccc     C4  18227 0.28383300  12.010000   ; qtot 382.670499
18228         c3    677    ccc     C5  18228 0.32403300  12.010000   ; qtot 382.994532
18229         h1    677    ccc     H3  18229 0.13386900   1.008000   ; qtot 383.128401
18230         h1    677    ccc     H4  18230 0.10146700   1.008000   ; qtot 383.229868
18231         h2    677    ccc     H5  18231 0.10960400   1.008000   ; qtot 383.339472
18232         os    677    ccc     O1  18232 -0.28650000  16.000000   ; qtot 383.052972
18233         oh    677    ccc     O2  18233 -0.86012500  16.000000   ; qtot 382.192847
18234         oh    677    ccc     O3  18234 -0.83772800  16.000000   ; qtot 381.355119
18235         oh    677    ccc     O4  18235 -0.77449700  16.000000   ; qtot 380.580622
18236         c3    677    ccc     C6  18236 0.37576500  12.010000   ; qtot 380.956387
18237         ho    677    ccc     H6  18237 0.53656000   1.008000   ; qtot 381.492947
18238         ho    677    ccc     H7  18238 0.49492100   1.008000   ; qtot 381.987868
18239         ho    677    ccc     H8  18239 0.51297200   1.008000   ; qtot 382.500840
18240         h1    677    ccc     H9  18240 0.05653400   1.008000   ; qtot 382.557374
18241         h1    677    ccc    H10  18241 0.05653400   1.008000   ; qtot 382.613908
18242         oh    677    ccc     O5  18242 -0.84113600  16.000000   ; qtot 381.772772
18243         ho    677    ccc    H11  18243 0.51201600   1.008000   ; qtot 382.284788
18244         os    677    ccc     O6  18244 -0.26013600  16.000000   ; qtot 382.024652
; residue  678 ccc rtp ccc q 0.0
18245         c3    678    ccc     C1  18245 -0.33178800  12.010000   ; qtot 381.692864
18246         c3    678    ccc     C2  18246 0.30606500  12.010000   ; qtot 381.998929
18247         h1    678    ccc     H1  18247 0.11662300   1.008000   ; qtot 382.115552
18248         h1    678    ccc     H2  18248 0.11526800   1.008000   ; qtot 382.230820
18249         c3    678    ccc     C3  18249 0.15592700  12.010000   ; qtot 382.386747
18250         c3    678    ccc     C4  18250 0.28383300  12.010000   ; qtot 382.670580
18251         c3    678    ccc     C5  18251 0.32403300  12.010000   ; qtot 382.994613
18252         h1    678    ccc     H3  18252 0.13386900   1.008000   ; qtot 383.128482
18253         h1    678    ccc     H4  18253 0.10146700   1.008000   ; qtot 383.229949
18254         h2    678    ccc     H5  18254 0.10960400   1.008000   ; qtot 383.339553
18255         os    678    ccc     O1  18255 -0.28650000  16.000000   ; qtot 383.053053
18256         oh    678    ccc     O2  18256 -0.86012500  16.000000   ; qtot 382.192928
18257         oh    678    ccc     O3  18257 -0.83772800  16.000000   ; qtot 381.355200
18258         oh    678    ccc     O4  18258 -0.77449700  16.000000   ; qtot 380.580703
18259         c3    678    ccc     C6  18259 0.37576500  12.010000   ; qtot 380.956468
18260         ho    678    ccc     H6  18260 0.53656000   1.008000   ; qtot 381.493028
18261         ho    678    ccc     H7  18261 0.49492100   1.008000   ; qtot 381.987949
18262         ho    678    ccc     H8  18262 0.51297200   1.008000   ; qtot 382.500921
18263         h1    678    ccc     H9  18263 0.05653400   1.008000   ; qtot 382.557455
18264         h1    678    ccc    H10  18264 0.05653400   1.008000   ; qtot 382.613989
18265         oh    678    ccc     O5  18265 -0.84113600  16.000000   ; qtot 381.772853
18266         ho    678    ccc    H11  18266 0.51201600   1.008000   ; qtot 382.284869
18267         os    678    ccc     O6  18267 -0.26013600  16.000000   ; qtot 382.024733
; residue  679 ccc rtp ccc q 0.0
18268         c3    679    ccc     C1  18268 -0.33178800  12.010000   ; qtot 381.692945
18269         c3    679    ccc     C2  18269 0.30606500  12.010000   ; qtot 381.999010
18270         h1    679    ccc     H1  18270 0.11662300   1.008000   ; qtot 382.115633
18271         h1    679    ccc     H2  18271 0.11526800   1.008000   ; qtot 382.230901
18272         c3    679    ccc     C3  18272 0.15592700  12.010000   ; qtot 382.386828
18273         c3    679    ccc     C4  18273 0.28383300  12.010000   ; qtot 382.670661
18274         c3    679    ccc     C5  18274 0.32403300  12.010000   ; qtot 382.994694
18275         h1    679    ccc     H3  18275 0.13386900   1.008000   ; qtot 383.128563
18276         h1    679    ccc     H4  18276 0.10146700   1.008000   ; qtot 383.230030
18277         h2    679    ccc     H5  18277 0.10960400   1.008000   ; qtot 383.339634
18278         os    679    ccc     O1  18278 -0.28650000  16.000000   ; qtot 383.053134
18279         oh    679    ccc     O2  18279 -0.86012500  16.000000   ; qtot 382.193009
18280         oh    679    ccc     O3  18280 -0.83772800  16.000000   ; qtot 381.355281
18281         oh    679    ccc     O4  18281 -0.77449700  16.000000   ; qtot 380.580784
18282         c3    679    ccc     C6  18282 0.37576500  12.010000   ; qtot 380.956549
18283         ho    679    ccc     H6  18283 0.53656000   1.008000   ; qtot 381.493109
18284         ho    679    ccc     H7  18284 0.49492100   1.008000   ; qtot 381.988030
18285         ho    679    ccc     H8  18285 0.51297200   1.008000   ; qtot 382.501002
18286         h1    679    ccc     H9  18286 0.05653400   1.008000   ; qtot 382.557536
18287         h1    679    ccc    H10  18287 0.05653400   1.008000   ; qtot 382.614070
18288         oh    679    ccc     O5  18288 -0.84113600  16.000000   ; qtot 381.772934
18289         ho    679    ccc    H11  18289 0.51201600   1.008000   ; qtot 382.284950
18290         os    679    ccc     O6  18290 -0.26013600  16.000000   ; qtot 382.024814
; residue  680 ccc rtp ccc q 0.0
18291         c3    680    ccc     C1  18291 -0.33178800  12.010000   ; qtot 381.693026
18292         c3    680    ccc     C2  18292 0.30606500  12.010000   ; qtot 381.999091
18293         h1    680    ccc     H1  18293 0.11662300   1.008000   ; qtot 382.115714
18294         h1    680    ccc     H2  18294 0.11526800   1.008000   ; qtot 382.230982
18295         c3    680    ccc     C3  18295 0.15592700  12.010000   ; qtot 382.386909
18296         c3    680    ccc     C4  18296 0.28383300  12.010000   ; qtot 382.670742
18297         c3    680    ccc     C5  18297 0.32403300  12.010000   ; qtot 382.994775
18298         h1    680    ccc     H3  18298 0.13386900   1.008000   ; qtot 383.128644
18299         h1    680    ccc     H4  18299 0.10146700   1.008000   ; qtot 383.230111
18300         h2    680    ccc     H5  18300 0.10960400   1.008000   ; qtot 383.339715
18301         os    680    ccc     O1  18301 -0.28650000  16.000000   ; qtot 383.053215
18302         oh    680    ccc     O2  18302 -0.86012500  16.000000   ; qtot 382.193090
18303         oh    680    ccc     O3  18303 -0.83772800  16.000000   ; qtot 381.355362
18304         oh    680    ccc     O4  18304 -0.77449700  16.000000   ; qtot 380.580865
18305         c3    680    ccc     C6  18305 0.37576500  12.010000   ; qtot 380.956630
18306         ho    680    ccc     H6  18306 0.53656000   1.008000   ; qtot 381.493190
18307         ho    680    ccc     H7  18307 0.49492100   1.008000   ; qtot 381.988111
18308         ho    680    ccc     H8  18308 0.51297200   1.008000   ; qtot 382.501083
18309         h1    680    ccc     H9  18309 0.05653400   1.008000   ; qtot 382.557617
18310         h1    680    ccc    H10  18310 0.05653400   1.008000   ; qtot 382.614151
18311         oh    680    ccc     O5  18311 -0.84113600  16.000000   ; qtot 381.773015
18312         ho    680    ccc    H11  18312 0.51201600   1.008000   ; qtot 382.285031
18313         os    680    ccc     O6  18313 -0.26013600  16.000000   ; qtot 382.024895
; residue  681 ccc rtp ccc q 0.0
18314         c3    681    ccc     C1  18314 -0.33178800  12.010000   ; qtot 381.693107
18315         c3    681    ccc     C2  18315 0.30606500  12.010000   ; qtot 381.999172
18316         h1    681    ccc     H1  18316 0.11662300   1.008000   ; qtot 382.115795
18317         h1    681    ccc     H2  18317 0.11526800   1.008000   ; qtot 382.231063
18318         c3    681    ccc     C3  18318 0.15592700  12.010000   ; qtot 382.386990
18319         c3    681    ccc     C4  18319 0.28383300  12.010000   ; qtot 382.670823
18320         c3    681    ccc     C5  18320 0.32403300  12.010000   ; qtot 382.994856
18321         h1    681    ccc     H3  18321 0.13386900   1.008000   ; qtot 383.128725
18322         h1    681    ccc     H4  18322 0.10146700   1.008000   ; qtot 383.230192
18323         h2    681    ccc     H5  18323 0.10960400   1.008000   ; qtot 383.339796
18324         os    681    ccc     O1  18324 -0.28650000  16.000000   ; qtot 383.053296
18325         oh    681    ccc     O2  18325 -0.86012500  16.000000   ; qtot 382.193171
18326         oh    681    ccc     O3  18326 -0.83772800  16.000000   ; qtot 381.355443
18327         oh    681    ccc     O4  18327 -0.77449700  16.000000   ; qtot 380.580946
18328         c3    681    ccc     C6  18328 0.37576500  12.010000   ; qtot 380.956711
18329         ho    681    ccc     H6  18329 0.53656000   1.008000   ; qtot 381.493271
18330         ho    681    ccc     H7  18330 0.49492100   1.008000   ; qtot 381.988192
18331         ho    681    ccc     H8  18331 0.51297200   1.008000   ; qtot 382.501164
18332         h1    681    ccc     H9  18332 0.05653400   1.008000   ; qtot 382.557698
18333         h1    681    ccc    H10  18333 0.05653400   1.008000   ; qtot 382.614232
18334         oh    681    ccc     O5  18334 -0.84113600  16.000000   ; qtot 381.773096
18335         ho    681    ccc    H11  18335 0.51201600   1.008000   ; qtot 382.285112
18336         os    681    ccc     O6  18336 -0.26013600  16.000000   ; qtot 382.024976
; residue  682 ccc rtp ccc q 0.0
18337         c3    682    ccc     C1  18337 -0.33178800  12.010000   ; qtot 381.693188
18338         c3    682    ccc     C2  18338 0.30606500  12.010000   ; qtot 381.999253
18339         h1    682    ccc     H1  18339 0.11662300   1.008000   ; qtot 382.115876
18340         h1    682    ccc     H2  18340 0.11526800   1.008000   ; qtot 382.231144
18341         c3    682    ccc     C3  18341 0.15592700  12.010000   ; qtot 382.387071
18342         c3    682    ccc     C4  18342 0.28383300  12.010000   ; qtot 382.670904
18343         c3    682    ccc     C5  18343 0.32403300  12.010000   ; qtot 382.994937
18344         h1    682    ccc     H3  18344 0.13386900   1.008000   ; qtot 383.128806
18345         h1    682    ccc     H4  18345 0.10146700   1.008000   ; qtot 383.230273
18346         h2    682    ccc     H5  18346 0.10960400   1.008000   ; qtot 383.339877
18347         os    682    ccc     O1  18347 -0.28650000  16.000000   ; qtot 383.053377
18348         oh    682    ccc     O2  18348 -0.86012500  16.000000   ; qtot 382.193252
18349         oh    682    ccc     O3  18349 -0.83772800  16.000000   ; qtot 381.355524
18350         oh    682    ccc     O4  18350 -0.77449700  16.000000   ; qtot 380.581027
18351         c3    682    ccc     C6  18351 0.37576500  12.010000   ; qtot 380.956792
18352         ho    682    ccc     H6  18352 0.53656000   1.008000   ; qtot 381.493352
18353         ho    682    ccc     H7  18353 0.49492100   1.008000   ; qtot 381.988273
18354         ho    682    ccc     H8  18354 0.51297200   1.008000   ; qtot 382.501245
18355         h1    682    ccc     H9  18355 0.05653400   1.008000   ; qtot 382.557779
18356         h1    682    ccc    H10  18356 0.05653400   1.008000   ; qtot 382.614313
18357         oh    682    ccc     O5  18357 -0.84113600  16.000000   ; qtot 381.773177
18358         ho    682    ccc    H11  18358 0.51201600   1.008000   ; qtot 382.285193
18359         os    682    ccc     O6  18359 -0.26013600  16.000000   ; qtot 382.025057
; residue  683 ccc rtp ccc q 0.0
18360         c3    683    ccc     C1  18360 -0.33178800  12.010000   ; qtot 381.693269
18361         c3    683    ccc     C2  18361 0.30606500  12.010000   ; qtot 381.999334
18362         h1    683    ccc     H1  18362 0.11662300   1.008000   ; qtot 382.115957
18363         h1    683    ccc     H2  18363 0.11526800   1.008000   ; qtot 382.231225
18364         c3    683    ccc     C3  18364 0.15592700  12.010000   ; qtot 382.387152
18365         c3    683    ccc     C4  18365 0.28383300  12.010000   ; qtot 382.670985
18366         c3    683    ccc     C5  18366 0.32403300  12.010000   ; qtot 382.995018
18367         h1    683    ccc     H3  18367 0.13386900   1.008000   ; qtot 383.128887
18368         h1    683    ccc     H4  18368 0.10146700   1.008000   ; qtot 383.230354
18369         h2    683    ccc     H5  18369 0.10960400   1.008000   ; qtot 383.339958
18370         os    683    ccc     O1  18370 -0.28650000  16.000000   ; qtot 383.053458
18371         oh    683    ccc     O2  18371 -0.86012500  16.000000   ; qtot 382.193333
18372         oh    683    ccc     O3  18372 -0.83772800  16.000000   ; qtot 381.355605
18373         oh    683    ccc     O4  18373 -0.77449700  16.000000   ; qtot 380.581108
18374         c3    683    ccc     C6  18374 0.37576500  12.010000   ; qtot 380.956873
18375         ho    683    ccc     H6  18375 0.53656000   1.008000   ; qtot 381.493433
18376         ho    683    ccc     H7  18376 0.49492100   1.008000   ; qtot 381.988354
18377         ho    683    ccc     H8  18377 0.51297200   1.008000   ; qtot 382.501326
18378         h1    683    ccc     H9  18378 0.05653400   1.008000   ; qtot 382.557860
18379         h1    683    ccc    H10  18379 0.05653400   1.008000   ; qtot 382.614394
18380         oh    683    ccc     O5  18380 -0.84113600  16.000000   ; qtot 381.773258
18381         ho    683    ccc    H11  18381 0.51201600   1.008000   ; qtot 382.285274
18382         os    683    ccc     O6  18382 -0.26013600  16.000000   ; qtot 382.025138
; residue  684 ccc rtp ccc q 0.0
18383         c3    684    ccc     C1  18383 -0.33178800  12.010000   ; qtot 381.693350
18384         c3    684    ccc     C2  18384 0.30606500  12.010000   ; qtot 381.999415
18385         h1    684    ccc     H1  18385 0.11662300   1.008000   ; qtot 382.116038
18386         h1    684    ccc     H2  18386 0.11526800   1.008000   ; qtot 382.231306
18387         c3    684    ccc     C3  18387 0.15592700  12.010000   ; qtot 382.387233
18388         c3    684    ccc     C4  18388 0.28383300  12.010000   ; qtot 382.671066
18389         c3    684    ccc     C5  18389 0.32403300  12.010000   ; qtot 382.995099
18390         h1    684    ccc     H3  18390 0.13386900   1.008000   ; qtot 383.128968
18391         h1    684    ccc     H4  18391 0.10146700   1.008000   ; qtot 383.230435
18392         h2    684    ccc     H5  18392 0.10960400   1.008000   ; qtot 383.340039
18393         os    684    ccc     O1  18393 -0.28650000  16.000000   ; qtot 383.053539
18394         oh    684    ccc     O2  18394 -0.86012500  16.000000   ; qtot 382.193414
18395         oh    684    ccc     O3  18395 -0.83772800  16.000000   ; qtot 381.355686
18396         oh    684    ccc     O4  18396 -0.77449700  16.000000   ; qtot 380.581189
18397         c3    684    ccc     C6  18397 0.37576500  12.010000   ; qtot 380.956954
18398         ho    684    ccc     H6  18398 0.53656000   1.008000   ; qtot 381.493514
18399         ho    684    ccc     H7  18399 0.49492100   1.008000   ; qtot 381.988435
18400         ho    684    ccc     H8  18400 0.51297200   1.008000   ; qtot 382.501407
18401         h1    684    ccc     H9  18401 0.05653400   1.008000   ; qtot 382.557941
18402         h1    684    ccc    H10  18402 0.05653400   1.008000   ; qtot 382.614475
18403         oh    684    ccc     O5  18403 -0.84113600  16.000000   ; qtot 381.773339
18404         ho    684    ccc    H11  18404 0.51201600   1.008000   ; qtot 382.285355
18405         os    684    ccc     O6  18405 -0.26013600  16.000000   ; qtot 382.025219
; residue  685 ccc rtp ccc q 0.0
18406         c3    685    ccc     C1  18406 -0.33178800  12.010000   ; qtot 381.693431
18407         c3    685    ccc     C2  18407 0.30606500  12.010000   ; qtot 381.999496
18408         h1    685    ccc     H1  18408 0.11662300   1.008000   ; qtot 382.116119
18409         h1    685    ccc     H2  18409 0.11526800   1.008000   ; qtot 382.231387
18410         c3    685    ccc     C3  18410 0.15592700  12.010000   ; qtot 382.387314
18411         c3    685    ccc     C4  18411 0.28383300  12.010000   ; qtot 382.671147
18412         c3    685    ccc     C5  18412 0.32403300  12.010000   ; qtot 382.995180
18413         h1    685    ccc     H3  18413 0.13386900   1.008000   ; qtot 383.129049
18414         h1    685    ccc     H4  18414 0.10146700   1.008000   ; qtot 383.230516
18415         h2    685    ccc     H5  18415 0.10960400   1.008000   ; qtot 383.340120
18416         os    685    ccc     O1  18416 -0.28650000  16.000000   ; qtot 383.053620
18417         oh    685    ccc     O2  18417 -0.86012500  16.000000   ; qtot 382.193495
18418         oh    685    ccc     O3  18418 -0.83772800  16.000000   ; qtot 381.355767
18419         oh    685    ccc     O4  18419 -0.77449700  16.000000   ; qtot 380.581270
18420         c3    685    ccc     C6  18420 0.37576500  12.010000   ; qtot 380.957035
18421         ho    685    ccc     H6  18421 0.53656000   1.008000   ; qtot 381.493595
18422         ho    685    ccc     H7  18422 0.49492100   1.008000   ; qtot 381.988516
18423         ho    685    ccc     H8  18423 0.51297200   1.008000   ; qtot 382.501488
18424         h1    685    ccc     H9  18424 0.05653400   1.008000   ; qtot 382.558022
18425         h1    685    ccc    H10  18425 0.05653400   1.008000   ; qtot 382.614556
18426         oh    685    ccc     O5  18426 -0.84113600  16.000000   ; qtot 381.773420
18427         ho    685    ccc    H11  18427 0.51201600   1.008000   ; qtot 382.285436
18428         os    685    ccc     O6  18428 -0.26013600  16.000000   ; qtot 382.025300
; residue  686 ccc rtp ccc q 0.0
18429         c3    686    ccc     C1  18429 -0.33178800  12.010000   ; qtot 381.693512
18430         c3    686    ccc     C2  18430 0.30606500  12.010000   ; qtot 381.999577
18431         h1    686    ccc     H1  18431 0.11662300   1.008000   ; qtot 382.116200
18432         h1    686    ccc     H2  18432 0.11526800   1.008000   ; qtot 382.231468
18433         c3    686    ccc     C3  18433 0.15592700  12.010000   ; qtot 382.387395
18434         c3    686    ccc     C4  18434 0.28383300  12.010000   ; qtot 382.671228
18435         c3    686    ccc     C5  18435 0.32403300  12.010000   ; qtot 382.995261
18436         h1    686    ccc     H3  18436 0.13386900   1.008000   ; qtot 383.129130
18437         h1    686    ccc     H4  18437 0.10146700   1.008000   ; qtot 383.230597
18438         h2    686    ccc     H5  18438 0.10960400   1.008000   ; qtot 383.340201
18439         os    686    ccc     O1  18439 -0.28650000  16.000000   ; qtot 383.053701
18440         oh    686    ccc     O2  18440 -0.86012500  16.000000   ; qtot 382.193576
18441         oh    686    ccc     O3  18441 -0.83772800  16.000000   ; qtot 381.355848
18442         oh    686    ccc     O4  18442 -0.77449700  16.000000   ; qtot 380.581351
18443         c3    686    ccc     C6  18443 0.37576500  12.010000   ; qtot 380.957116
18444         ho    686    ccc     H6  18444 0.53656000   1.008000   ; qtot 381.493676
18445         ho    686    ccc     H7  18445 0.49492100   1.008000   ; qtot 381.988597
18446         ho    686    ccc     H8  18446 0.51297200   1.008000   ; qtot 382.501569
18447         h1    686    ccc     H9  18447 0.05653400   1.008000   ; qtot 382.558103
18448         h1    686    ccc    H10  18448 0.05653400   1.008000   ; qtot 382.614637
18449         oh    686    ccc     O5  18449 -0.84113600  16.000000   ; qtot 381.773501
18450         ho    686    ccc    H11  18450 0.51201600   1.008000   ; qtot 382.285517
18451         os    686    ccc     O6  18451 -0.26013600  16.000000   ; qtot 382.025381
; residue  687 ccc rtp ccc q 0.0
18452         c3    687    ccc     C1  18452 -0.33178800  12.010000   ; qtot 381.693593
18453         c3    687    ccc     C2  18453 0.30606500  12.010000   ; qtot 381.999658
18454         h1    687    ccc     H1  18454 0.11662300   1.008000   ; qtot 382.116281
18455         h1    687    ccc     H2  18455 0.11526800   1.008000   ; qtot 382.231549
18456         c3    687    ccc     C3  18456 0.15592700  12.010000   ; qtot 382.387476
18457         c3    687    ccc     C4  18457 0.28383300  12.010000   ; qtot 382.671309
18458         c3    687    ccc     C5  18458 0.32403300  12.010000   ; qtot 382.995342
18459         h1    687    ccc     H3  18459 0.13386900   1.008000   ; qtot 383.129211
18460         h1    687    ccc     H4  18460 0.10146700   1.008000   ; qtot 383.230678
18461         h2    687    ccc     H5  18461 0.10960400   1.008000   ; qtot 383.340282
18462         os    687    ccc     O1  18462 -0.28650000  16.000000   ; qtot 383.053782
18463         oh    687    ccc     O2  18463 -0.86012500  16.000000   ; qtot 382.193657
18464         oh    687    ccc     O3  18464 -0.83772800  16.000000   ; qtot 381.355929
18465         oh    687    ccc     O4  18465 -0.77449700  16.000000   ; qtot 380.581432
18466         c3    687    ccc     C6  18466 0.37576500  12.010000   ; qtot 380.957197
18467         ho    687    ccc     H6  18467 0.53656000   1.008000   ; qtot 381.493757
18468         ho    687    ccc     H7  18468 0.49492100   1.008000   ; qtot 381.988678
18469         ho    687    ccc     H8  18469 0.51297200   1.008000   ; qtot 382.501650
18470         h1    687    ccc     H9  18470 0.05653400   1.008000   ; qtot 382.558184
18471         h1    687    ccc    H10  18471 0.05653400   1.008000   ; qtot 382.614718
18472         oh    687    ccc     O5  18472 -0.84113600  16.000000   ; qtot 381.773582
18473         ho    687    ccc    H11  18473 0.51201600   1.008000   ; qtot 382.285598
18474         os    687    ccc     O6  18474 -0.26013600  16.000000   ; qtot 382.025462
; residue  688 ccc rtp ccc q 0.0
18475         c3    688    ccc     C1  18475 -0.33178800  12.010000   ; qtot 381.693674
18476         c3    688    ccc     C2  18476 0.30606500  12.010000   ; qtot 381.999739
18477         h1    688    ccc     H1  18477 0.11662300   1.008000   ; qtot 382.116362
18478         h1    688    ccc     H2  18478 0.11526800   1.008000   ; qtot 382.231630
18479         c3    688    ccc     C3  18479 0.15592700  12.010000   ; qtot 382.387557
18480         c3    688    ccc     C4  18480 0.28383300  12.010000   ; qtot 382.671390
18481         c3    688    ccc     C5  18481 0.32403300  12.010000   ; qtot 382.995423
18482         h1    688    ccc     H3  18482 0.13386900   1.008000   ; qtot 383.129292
18483         h1    688    ccc     H4  18483 0.10146700   1.008000   ; qtot 383.230759
18484         h2    688    ccc     H5  18484 0.10960400   1.008000   ; qtot 383.340363
18485         os    688    ccc     O1  18485 -0.28650000  16.000000   ; qtot 383.053863
18486         oh    688    ccc     O2  18486 -0.86012500  16.000000   ; qtot 382.193738
18487         oh    688    ccc     O3  18487 -0.83772800  16.000000   ; qtot 381.356010
18488         oh    688    ccc     O4  18488 -0.77449700  16.000000   ; qtot 380.581513
18489         c3    688    ccc     C6  18489 0.37576500  12.010000   ; qtot 380.957278
18490         ho    688    ccc     H6  18490 0.53656000   1.008000   ; qtot 381.493838
18491         ho    688    ccc     H7  18491 0.49492100   1.008000   ; qtot 381.988759
18492         ho    688    ccc     H8  18492 0.51297200   1.008000   ; qtot 382.501731
18493         h1    688    ccc     H9  18493 0.05653400   1.008000   ; qtot 382.558265
18494         h1    688    ccc    H10  18494 0.05653400   1.008000   ; qtot 382.614799
18495         oh    688    ccc     O5  18495 -0.84113600  16.000000   ; qtot 381.773663
18496         ho    688    ccc    H11  18496 0.51201600   1.008000   ; qtot 382.285679
18497         os    688    ccc     O6  18497 -0.26013600  16.000000   ; qtot 382.025543
; residue  689 ccc rtp ccc q 0.0
18498         c3    689    ccc     C1  18498 -0.33178800  12.010000   ; qtot 381.693755
18499         c3    689    ccc     C2  18499 0.30606500  12.010000   ; qtot 381.999820
18500         h1    689    ccc     H1  18500 0.11662300   1.008000   ; qtot 382.116443
18501         h1    689    ccc     H2  18501 0.11526800   1.008000   ; qtot 382.231711
18502         c3    689    ccc     C3  18502 0.15592700  12.010000   ; qtot 382.387638
18503         c3    689    ccc     C4  18503 0.28383300  12.010000   ; qtot 382.671471
18504         c3    689    ccc     C5  18504 0.32403300  12.010000   ; qtot 382.995504
18505         h1    689    ccc     H3  18505 0.13386900   1.008000   ; qtot 383.129373
18506         h1    689    ccc     H4  18506 0.10146700   1.008000   ; qtot 383.230840
18507         h2    689    ccc     H5  18507 0.10960400   1.008000   ; qtot 383.340444
18508         os    689    ccc     O1  18508 -0.28650000  16.000000   ; qtot 383.053944
18509         oh    689    ccc     O2  18509 -0.86012500  16.000000   ; qtot 382.193819
18510         oh    689    ccc     O3  18510 -0.83772800  16.000000   ; qtot 381.356091
18511         oh    689    ccc     O4  18511 -0.77449700  16.000000   ; qtot 380.581594
18512         c3    689    ccc     C6  18512 0.37576500  12.010000   ; qtot 380.957359
18513         ho    689    ccc     H6  18513 0.53656000   1.008000   ; qtot 381.493919
18514         ho    689    ccc     H7  18514 0.49492100   1.008000   ; qtot 381.988840
18515         ho    689    ccc     H8  18515 0.51297200   1.008000   ; qtot 382.501812
18516         h1    689    ccc     H9  18516 0.05653400   1.008000   ; qtot 382.558346
18517         h1    689    ccc    H10  18517 0.05653400   1.008000   ; qtot 382.614880
18518         oh    689    ccc     O5  18518 -0.84113600  16.000000   ; qtot 381.773744
18519         ho    689    ccc    H11  18519 0.51201600   1.008000   ; qtot 382.285760
18520         os    689    ccc     O6  18520 -0.26013600  16.000000   ; qtot 382.025624
; residue  690 ccc rtp ccc q 0.0
18521         c3    690    ccc     C1  18521 -0.33178800  12.010000   ; qtot 381.693836
18522         c3    690    ccc     C2  18522 0.30606500  12.010000   ; qtot 381.999901
18523         h1    690    ccc     H1  18523 0.11662300   1.008000   ; qtot 382.116524
18524         h1    690    ccc     H2  18524 0.11526800   1.008000   ; qtot 382.231792
18525         c3    690    ccc     C3  18525 0.15592700  12.010000   ; qtot 382.387719
18526         c3    690    ccc     C4  18526 0.28383300  12.010000   ; qtot 382.671552
18527         c3    690    ccc     C5  18527 0.32403300  12.010000   ; qtot 382.995585
18528         h1    690    ccc     H3  18528 0.13386900   1.008000   ; qtot 383.129454
18529         h1    690    ccc     H4  18529 0.10146700   1.008000   ; qtot 383.230921
18530         h2    690    ccc     H5  18530 0.10960400   1.008000   ; qtot 383.340525
18531         os    690    ccc     O1  18531 -0.28650000  16.000000   ; qtot 383.054025
18532         oh    690    ccc     O2  18532 -0.86012500  16.000000   ; qtot 382.193900
18533         oh    690    ccc     O3  18533 -0.83772800  16.000000   ; qtot 381.356172
18534         oh    690    ccc     O4  18534 -0.77449700  16.000000   ; qtot 380.581675
18535         c3    690    ccc     C6  18535 0.37576500  12.010000   ; qtot 380.957440
18536         ho    690    ccc     H6  18536 0.53656000   1.008000   ; qtot 381.494000
18537         ho    690    ccc     H7  18537 0.49492100   1.008000   ; qtot 381.988921
18538         ho    690    ccc     H8  18538 0.51297200   1.008000   ; qtot 382.501893
18539         h1    690    ccc     H9  18539 0.05653400   1.008000   ; qtot 382.558427
18540         h1    690    ccc    H10  18540 0.05653400   1.008000   ; qtot 382.614961
18541         oh    690    ccc     O5  18541 -0.84113600  16.000000   ; qtot 381.773825
18542         ho    690    ccc    H11  18542 0.51201600   1.008000   ; qtot 382.285841
18543         os    690    ccc     O6  18543 -0.26013600  16.000000   ; qtot 382.025705
; residue  691 ccc rtp ccc q 0.0
18544         c3    691    ccc     C1  18544 -0.33178800  12.010000   ; qtot 381.693917
18545         c3    691    ccc     C2  18545 0.30606500  12.010000   ; qtot 381.999982
18546         h1    691    ccc     H1  18546 0.11662300   1.008000   ; qtot 382.116605
18547         h1    691    ccc     H2  18547 0.11526800   1.008000   ; qtot 382.231873
18548         c3    691    ccc     C3  18548 0.15592700  12.010000   ; qtot 382.387800
18549         c3    691    ccc     C4  18549 0.28383300  12.010000   ; qtot 382.671633
18550         c3    691    ccc     C5  18550 0.32403300  12.010000   ; qtot 382.995666
18551         h1    691    ccc     H3  18551 0.13386900   1.008000   ; qtot 383.129535
18552         h1    691    ccc     H4  18552 0.10146700   1.008000   ; qtot 383.231002
18553         h2    691    ccc     H5  18553 0.10960400   1.008000   ; qtot 383.340606
18554         os    691    ccc     O1  18554 -0.28650000  16.000000   ; qtot 383.054106
18555         oh    691    ccc     O2  18555 -0.86012500  16.000000   ; qtot 382.193981
18556         oh    691    ccc     O3  18556 -0.83772800  16.000000   ; qtot 381.356253
18557         oh    691    ccc     O4  18557 -0.77449700  16.000000   ; qtot 380.581756
18558         c3    691    ccc     C6  18558 0.37576500  12.010000   ; qtot 380.957521
18559         ho    691    ccc     H6  18559 0.53656000   1.008000   ; qtot 381.494081
18560         ho    691    ccc     H7  18560 0.49492100   1.008000   ; qtot 381.989002
18561         ho    691    ccc     H8  18561 0.51297200   1.008000   ; qtot 382.501974
18562         h1    691    ccc     H9  18562 0.05653400   1.008000   ; qtot 382.558508
18563         h1    691    ccc    H10  18563 0.05653400   1.008000   ; qtot 382.615042
18564         oh    691    ccc     O5  18564 -0.84113600  16.000000   ; qtot 381.773906
18565         ho    691    ccc    H11  18565 0.51201600   1.008000   ; qtot 382.285922
18566         os    691    ccc     O6  18566 -0.26013600  16.000000   ; qtot 382.025786
; residue  692 ccc rtp ccc q 0.0
18567         c3    692    ccc     C1  18567 -0.33178800  12.010000   ; qtot 381.693998
18568         c3    692    ccc     C2  18568 0.30606500  12.010000   ; qtot 382.000063
18569         h1    692    ccc     H1  18569 0.11662300   1.008000   ; qtot 382.116686
18570         h1    692    ccc     H2  18570 0.11526800   1.008000   ; qtot 382.231954
18571         c3    692    ccc     C3  18571 0.15592700  12.010000   ; qtot 382.387881
18572         c3    692    ccc     C4  18572 0.28383300  12.010000   ; qtot 382.671714
18573         c3    692    ccc     C5  18573 0.32403300  12.010000   ; qtot 382.995747
18574         h1    692    ccc     H3  18574 0.13386900   1.008000   ; qtot 383.129616
18575         h1    692    ccc     H4  18575 0.10146700   1.008000   ; qtot 383.231083
18576         h2    692    ccc     H5  18576 0.10960400   1.008000   ; qtot 383.340687
18577         os    692    ccc     O1  18577 -0.28650000  16.000000   ; qtot 383.054187
18578         oh    692    ccc     O2  18578 -0.86012500  16.000000   ; qtot 382.194062
18579         oh    692    ccc     O3  18579 -0.83772800  16.000000   ; qtot 381.356334
18580         oh    692    ccc     O4  18580 -0.77449700  16.000000   ; qtot 380.581837
18581         c3    692    ccc     C6  18581 0.37576500  12.010000   ; qtot 380.957602
18582         ho    692    ccc     H6  18582 0.53656000   1.008000   ; qtot 381.494162
18583         ho    692    ccc     H7  18583 0.49492100   1.008000   ; qtot 381.989083
18584         ho    692    ccc     H8  18584 0.51297200   1.008000   ; qtot 382.502055
18585         h1    692    ccc     H9  18585 0.05653400   1.008000   ; qtot 382.558589
18586         h1    692    ccc    H10  18586 0.05653400   1.008000   ; qtot 382.615123
18587         oh    692    ccc     O5  18587 -0.84113600  16.000000   ; qtot 381.773987
18588         ho    692    ccc    H11  18588 0.51201600   1.008000   ; qtot 382.286003
18589         os    692    ccc     O6  18589 -0.26013600  16.000000   ; qtot 382.025867
; residue  693 ccc rtp ccc q 0.0
18590         c3    693    ccc     C1  18590 -0.33178800  12.010000   ; qtot 381.694079
18591         c3    693    ccc     C2  18591 0.30606500  12.010000   ; qtot 382.000144
18592         h1    693    ccc     H1  18592 0.11662300   1.008000   ; qtot 382.116767
18593         h1    693    ccc     H2  18593 0.11526800   1.008000   ; qtot 382.232035
18594         c3    693    ccc     C3  18594 0.15592700  12.010000   ; qtot 382.387962
18595         c3    693    ccc     C4  18595 0.28383300  12.010000   ; qtot 382.671795
18596         c3    693    ccc     C5  18596 0.32403300  12.010000   ; qtot 382.995828
18597         h1    693    ccc     H3  18597 0.13386900   1.008000   ; qtot 383.129697
18598         h1    693    ccc     H4  18598 0.10146700   1.008000   ; qtot 383.231164
18599         h2    693    ccc     H5  18599 0.10960400   1.008000   ; qtot 383.340768
18600         os    693    ccc     O1  18600 -0.28650000  16.000000   ; qtot 383.054268
18601         oh    693    ccc     O2  18601 -0.86012500  16.000000   ; qtot 382.194143
18602         oh    693    ccc     O3  18602 -0.83772800  16.000000   ; qtot 381.356415
18603         oh    693    ccc     O4  18603 -0.77449700  16.000000   ; qtot 380.581918
18604         c3    693    ccc     C6  18604 0.37576500  12.010000   ; qtot 380.957683
18605         ho    693    ccc     H6  18605 0.53656000   1.008000   ; qtot 381.494243
18606         ho    693    ccc     H7  18606 0.49492100   1.008000   ; qtot 381.989164
18607         ho    693    ccc     H8  18607 0.51297200   1.008000   ; qtot 382.502136
18608         h1    693    ccc     H9  18608 0.05653400   1.008000   ; qtot 382.558670
18609         h1    693    ccc    H10  18609 0.05653400   1.008000   ; qtot 382.615204
18610         oh    693    ccc     O5  18610 -0.84113600  16.000000   ; qtot 381.774068
18611         ho    693    ccc    H11  18611 0.51201600   1.008000   ; qtot 382.286084
18612         os    693    ccc     O6  18612 -0.26013600  16.000000   ; qtot 382.025948
; residue  694 ccc rtp ccc q 0.0
18613         c3    694    ccc     C1  18613 -0.33178800  12.010000   ; qtot 381.694160
18614         c3    694    ccc     C2  18614 0.30606500  12.010000   ; qtot 382.000225
18615         h1    694    ccc     H1  18615 0.11662300   1.008000   ; qtot 382.116848
18616         h1    694    ccc     H2  18616 0.11526800   1.008000   ; qtot 382.232116
18617         c3    694    ccc     C3  18617 0.15592700  12.010000   ; qtot 382.388043
18618         c3    694    ccc     C4  18618 0.28383300  12.010000   ; qtot 382.671876
18619         c3    694    ccc     C5  18619 0.32403300  12.010000   ; qtot 382.995909
18620         h1    694    ccc     H3  18620 0.13386900   1.008000   ; qtot 383.129778
18621         h1    694    ccc     H4  18621 0.10146700   1.008000   ; qtot 383.231245
18622         h2    694    ccc     H5  18622 0.10960400   1.008000   ; qtot 383.340849
18623         os    694    ccc     O1  18623 -0.28650000  16.000000   ; qtot 383.054349
18624         oh    694    ccc     O2  18624 -0.86012500  16.000000   ; qtot 382.194224
18625         oh    694    ccc     O3  18625 -0.83772800  16.000000   ; qtot 381.356496
18626         oh    694    ccc     O4  18626 -0.77449700  16.000000   ; qtot 380.581999
18627         c3    694    ccc     C6  18627 0.37576500  12.010000   ; qtot 380.957764
18628         ho    694    ccc     H6  18628 0.53656000   1.008000   ; qtot 381.494324
18629         ho    694    ccc     H7  18629 0.49492100   1.008000   ; qtot 381.989245
18630         ho    694    ccc     H8  18630 0.51297200   1.008000   ; qtot 382.502217
18631         h1    694    ccc     H9  18631 0.05653400   1.008000   ; qtot 382.558751
18632         h1    694    ccc    H10  18632 0.05653400   1.008000   ; qtot 382.615285
18633         oh    694    ccc     O5  18633 -0.84113600  16.000000   ; qtot 381.774149
18634         ho    694    ccc    H11  18634 0.51201600   1.008000   ; qtot 382.286165
18635         os    694    ccc     O6  18635 -0.26013600  16.000000   ; qtot 382.026029
; residue  695 ccc rtp ccc q 0.0
18636         c3    695    ccc     C1  18636 -0.33178800  12.010000   ; qtot 381.694241
18637         c3    695    ccc     C2  18637 0.30606500  12.010000   ; qtot 382.000306
18638         h1    695    ccc     H1  18638 0.11662300   1.008000   ; qtot 382.116929
18639         h1    695    ccc     H2  18639 0.11526800   1.008000   ; qtot 382.232197
18640         c3    695    ccc     C3  18640 0.15592700  12.010000   ; qtot 382.388124
18641         c3    695    ccc     C4  18641 0.28383300  12.010000   ; qtot 382.671957
18642         c3    695    ccc     C5  18642 0.32403300  12.010000   ; qtot 382.995990
18643         h1    695    ccc     H3  18643 0.13386900   1.008000   ; qtot 383.129859
18644         h1    695    ccc     H4  18644 0.10146700   1.008000   ; qtot 383.231326
18645         h2    695    ccc     H5  18645 0.10960400   1.008000   ; qtot 383.340930
18646         os    695    ccc     O1  18646 -0.28650000  16.000000   ; qtot 383.054430
18647         oh    695    ccc     O2  18647 -0.86012500  16.000000   ; qtot 382.194305
18648         oh    695    ccc     O3  18648 -0.83772800  16.000000   ; qtot 381.356577
18649         oh    695    ccc     O4  18649 -0.77449700  16.000000   ; qtot 380.582080
18650         c3    695    ccc     C6  18650 0.37576500  12.010000   ; qtot 380.957845
18651         ho    695    ccc     H6  18651 0.53656000   1.008000   ; qtot 381.494405
18652         ho    695    ccc     H7  18652 0.49492100   1.008000   ; qtot 381.989326
18653         ho    695    ccc     H8  18653 0.51297200   1.008000   ; qtot 382.502298
18654         h1    695    ccc     H9  18654 0.05653400   1.008000   ; qtot 382.558832
18655         h1    695    ccc    H10  18655 0.05653400   1.008000   ; qtot 382.615366
18656         oh    695    ccc     O5  18656 -0.84113600  16.000000   ; qtot 381.774230
18657         ho    695    ccc    H11  18657 0.51201600   1.008000   ; qtot 382.286246
18658         os    695    ccc     O6  18658 -0.26013600  16.000000   ; qtot 382.026110
; residue  696 ccc rtp ccc q 0.0
18659         c3    696    ccc     C1  18659 -0.33178800  12.010000   ; qtot 381.694322
18660         c3    696    ccc     C2  18660 0.30606500  12.010000   ; qtot 382.000387
18661         h1    696    ccc     H1  18661 0.11662300   1.008000   ; qtot 382.117010
18662         h1    696    ccc     H2  18662 0.11526800   1.008000   ; qtot 382.232278
18663         c3    696    ccc     C3  18663 0.15592700  12.010000   ; qtot 382.388205
18664         c3    696    ccc     C4  18664 0.28383300  12.010000   ; qtot 382.672038
18665         c3    696    ccc     C5  18665 0.32403300  12.010000   ; qtot 382.996071
18666         h1    696    ccc     H3  18666 0.13386900   1.008000   ; qtot 383.129940
18667         h1    696    ccc     H4  18667 0.10146700   1.008000   ; qtot 383.231407
18668         h2    696    ccc     H5  18668 0.10960400   1.008000   ; qtot 383.341011
18669         os    696    ccc     O1  18669 -0.28650000  16.000000   ; qtot 383.054511
18670         oh    696    ccc     O2  18670 -0.86012500  16.000000   ; qtot 382.194386
18671         oh    696    ccc     O3  18671 -0.83772800  16.000000   ; qtot 381.356658
18672         oh    696    ccc     O4  18672 -0.77449700  16.000000   ; qtot 380.582161
18673         c3    696    ccc     C6  18673 0.37576500  12.010000   ; qtot 380.957926
18674         ho    696    ccc     H6  18674 0.53656000   1.008000   ; qtot 381.494486
18675         ho    696    ccc     H7  18675 0.49492100   1.008000   ; qtot 381.989407
18676         ho    696    ccc     H8  18676 0.51297200   1.008000   ; qtot 382.502379
18677         h1    696    ccc     H9  18677 0.05653400   1.008000   ; qtot 382.558913
18678         h1    696    ccc    H10  18678 0.05653400   1.008000   ; qtot 382.615447
18679         oh    696    ccc     O5  18679 -0.84113600  16.000000   ; qtot 381.774311
18680         ho    696    ccc    H11  18680 0.51201600   1.008000   ; qtot 382.286327
18681         os    696    ccc     O6  18681 -0.26013600  16.000000   ; qtot 382.026191
; residue  697 ccc rtp ccc q 0.0
18682         c3    697    ccc     C1  18682 -0.33178800  12.010000   ; qtot 381.694403
18683         c3    697    ccc     C2  18683 0.30606500  12.010000   ; qtot 382.000468
18684         h1    697    ccc     H1  18684 0.11662300   1.008000   ; qtot 382.117091
18685         h1    697    ccc     H2  18685 0.11526800   1.008000   ; qtot 382.232359
18686         c3    697    ccc     C3  18686 0.15592700  12.010000   ; qtot 382.388286
18687         c3    697    ccc     C4  18687 0.28383300  12.010000   ; qtot 382.672119
18688         c3    697    ccc     C5  18688 0.32403300  12.010000   ; qtot 382.996152
18689         h1    697    ccc     H3  18689 0.13386900   1.008000   ; qtot 383.130021
18690         h1    697    ccc     H4  18690 0.10146700   1.008000   ; qtot 383.231488
18691         h2    697    ccc     H5  18691 0.10960400   1.008000   ; qtot 383.341092
18692         os    697    ccc     O1  18692 -0.28650000  16.000000   ; qtot 383.054592
18693         oh    697    ccc     O2  18693 -0.86012500  16.000000   ; qtot 382.194467
18694         oh    697    ccc     O3  18694 -0.83772800  16.000000   ; qtot 381.356739
18695         oh    697    ccc     O4  18695 -0.77449700  16.000000   ; qtot 380.582242
18696         c3    697    ccc     C6  18696 0.37576500  12.010000   ; qtot 380.958007
18697         ho    697    ccc     H6  18697 0.53656000   1.008000   ; qtot 381.494567
18698         ho    697    ccc     H7  18698 0.49492100   1.008000   ; qtot 381.989488
18699         ho    697    ccc     H8  18699 0.51297200   1.008000   ; qtot 382.502460
18700         h1    697    ccc     H9  18700 0.05653400   1.008000   ; qtot 382.558994
18701         h1    697    ccc    H10  18701 0.05653400   1.008000   ; qtot 382.615528
18702         oh    697    ccc     O5  18702 -0.84113600  16.000000   ; qtot 381.774392
18703         ho    697    ccc    H11  18703 0.51201600   1.008000   ; qtot 382.286408
18704         os    697    ccc     O6  18704 -0.26013600  16.000000   ; qtot 382.026272
; residue  698 ccc rtp ccc q 0.0
18705         c3    698    ccc     C1  18705 -0.33178800  12.010000   ; qtot 381.694484
18706         c3    698    ccc     C2  18706 0.30606500  12.010000   ; qtot 382.000549
18707         h1    698    ccc     H1  18707 0.11662300   1.008000   ; qtot 382.117172
18708         h1    698    ccc     H2  18708 0.11526800   1.008000   ; qtot 382.232440
18709         c3    698    ccc     C3  18709 0.15592700  12.010000   ; qtot 382.388367
18710         c3    698    ccc     C4  18710 0.28383300  12.010000   ; qtot 382.672200
18711         c3    698    ccc     C5  18711 0.32403300  12.010000   ; qtot 382.996233
18712         h1    698    ccc     H3  18712 0.13386900   1.008000   ; qtot 383.130102
18713         h1    698    ccc     H4  18713 0.10146700   1.008000   ; qtot 383.231569
18714         h2    698    ccc     H5  18714 0.10960400   1.008000   ; qtot 383.341173
18715         os    698    ccc     O1  18715 -0.28650000  16.000000   ; qtot 383.054673
18716         oh    698    ccc     O2  18716 -0.86012500  16.000000   ; qtot 382.194548
18717         oh    698    ccc     O3  18717 -0.83772800  16.000000   ; qtot 381.356820
18718         oh    698    ccc     O4  18718 -0.77449700  16.000000   ; qtot 380.582323
18719         c3    698    ccc     C6  18719 0.37576500  12.010000   ; qtot 380.958088
18720         ho    698    ccc     H6  18720 0.53656000   1.008000   ; qtot 381.494648
18721         ho    698    ccc     H7  18721 0.49492100   1.008000   ; qtot 381.989569
18722         ho    698    ccc     H8  18722 0.51297200   1.008000   ; qtot 382.502541
18723         h1    698    ccc     H9  18723 0.05653400   1.008000   ; qtot 382.559075
18724         h1    698    ccc    H10  18724 0.05653400   1.008000   ; qtot 382.615609
18725         oh    698    ccc     O5  18725 -0.84113600  16.000000   ; qtot 381.774473
18726         ho    698    ccc    H11  18726 0.51201600   1.008000   ; qtot 382.286489
18727         os    698    ccc     O6  18727 -0.26013600  16.000000   ; qtot 382.026353
; residue  699 ccc rtp ccc q 0.0
18728         c3    699    ccc     C1  18728 -0.33178800  12.010000   ; qtot 381.694565
18729         c3    699    ccc     C2  18729 0.30606500  12.010000   ; qtot 382.000630
18730         h1    699    ccc     H1  18730 0.11662300   1.008000   ; qtot 382.117253
18731         h1    699    ccc     H2  18731 0.11526800   1.008000   ; qtot 382.232521
18732         c3    699    ccc     C3  18732 0.15592700  12.010000   ; qtot 382.388448
18733         c3    699    ccc     C4  18733 0.28383300  12.010000   ; qtot 382.672281
18734         c3    699    ccc     C5  18734 0.32403300  12.010000   ; qtot 382.996314
18735         h1    699    ccc     H3  18735 0.13386900   1.008000   ; qtot 383.130183
18736         h1    699    ccc     H4  18736 0.10146700   1.008000   ; qtot 383.231650
18737         h2    699    ccc     H5  18737 0.10960400   1.008000   ; qtot 383.341254
18738         os    699    ccc     O1  18738 -0.28650000  16.000000   ; qtot 383.054754
18739         oh    699    ccc     O2  18739 -0.86012500  16.000000   ; qtot 382.194629
18740         oh    699    ccc     O3  18740 -0.83772800  16.000000   ; qtot 381.356901
18741         oh    699    ccc     O4  18741 -0.77449700  16.000000   ; qtot 380.582404
18742         c3    699    ccc     C6  18742 0.37576500  12.010000   ; qtot 380.958169
18743         ho    699    ccc     H6  18743 0.53656000   1.008000   ; qtot 381.494729
18744         ho    699    ccc     H7  18744 0.49492100   1.008000   ; qtot 381.989650
18745         ho    699    ccc     H8  18745 0.51297200   1.008000   ; qtot 382.502622
18746         h1    699    ccc     H9  18746 0.05653400   1.008000   ; qtot 382.559156
18747         h1    699    ccc    H10  18747 0.05653400   1.008000   ; qtot 382.615690
18748         oh    699    ccc     O5  18748 -0.84113600  16.000000   ; qtot 381.774554
18749         ho    699    ccc    H11  18749 0.51201600   1.008000   ; qtot 382.286570
18750         os    699    ccc     O6  18750 -0.26013600  16.000000   ; qtot 382.026434
; residue  700 ccc rtp ccc q 0.0
18751         c3    700    ccc     C1  18751 -0.33178800  12.010000   ; qtot 381.694646
18752         c3    700    ccc     C2  18752 0.30606500  12.010000   ; qtot 382.000711
18753         h1    700    ccc     H1  18753 0.11662300   1.008000   ; qtot 382.117334
18754         h1    700    ccc     H2  18754 0.11526800   1.008000   ; qtot 382.232602
18755         c3    700    ccc     C3  18755 0.15592700  12.010000   ; qtot 382.388529
18756         c3    700    ccc     C4  18756 0.28383300  12.010000   ; qtot 382.672362
18757         c3    700    ccc     C5  18757 0.32403300  12.010000   ; qtot 382.996395
18758         h1    700    ccc     H3  18758 0.13386900   1.008000   ; qtot 383.130264
18759         h1    700    ccc     H4  18759 0.10146700   1.008000   ; qtot 383.231731
18760         h2    700    ccc     H5  18760 0.10960400   1.008000   ; qtot 383.341335
18761         os    700    ccc     O1  18761 -0.28650000  16.000000   ; qtot 383.054835
18762         oh    700    ccc     O2  18762 -0.86012500  16.000000   ; qtot 382.194710
18763         oh    700    ccc     O3  18763 -0.83772800  16.000000   ; qtot 381.356982
18764         oh    700    ccc     O4  18764 -0.77449700  16.000000   ; qtot 380.582485
18765         c3    700    ccc     C6  18765 0.37576500  12.010000   ; qtot 380.958250
18766         ho    700    ccc     H6  18766 0.53656000   1.008000   ; qtot 381.494810
18767         ho    700    ccc     H7  18767 0.49492100   1.008000   ; qtot 381.989731
18768         ho    700    ccc     H8  18768 0.51297200   1.008000   ; qtot 382.502703
18769         h1    700    ccc     H9  18769 0.05653400   1.008000   ; qtot 382.559237
18770         h1    700    ccc    H10  18770 0.05653400   1.008000   ; qtot 382.615771
18771         oh    700    ccc     O5  18771 -0.84113600  16.000000   ; qtot 381.774635
18772         ho    700    ccc    H11  18772 0.51201600   1.008000   ; qtot 382.286651
18773         os    700    ccc     O6  18773 -0.26013600  16.000000   ; qtot 382.026515
; residue  701 ccc rtp ccc q 0.0
18774         c3    701    ccc     C1  18774 -0.33178800  12.010000   ; qtot 381.694727
18775         c3    701    ccc     C2  18775 0.30606500  12.010000   ; qtot 382.000792
18776         h1    701    ccc     H1  18776 0.11662300   1.008000   ; qtot 382.117415
18777         h1    701    ccc     H2  18777 0.11526800   1.008000   ; qtot 382.232683
18778         c3    701    ccc     C3  18778 0.15592700  12.010000   ; qtot 382.388610
18779         c3    701    ccc     C4  18779 0.28383300  12.010000   ; qtot 382.672443
18780         c3    701    ccc     C5  18780 0.32403300  12.010000   ; qtot 382.996476
18781         h1    701    ccc     H3  18781 0.13386900   1.008000   ; qtot 383.130345
18782         h1    701    ccc     H4  18782 0.10146700   1.008000   ; qtot 383.231812
18783         h2    701    ccc     H5  18783 0.10960400   1.008000   ; qtot 383.341416
18784         os    701    ccc     O1  18784 -0.28650000  16.000000   ; qtot 383.054916
18785         oh    701    ccc     O2  18785 -0.86012500  16.000000   ; qtot 382.194791
18786         oh    701    ccc     O3  18786 -0.83772800  16.000000   ; qtot 381.357063
18787         oh    701    ccc     O4  18787 -0.77449700  16.000000   ; qtot 380.582566
18788         c3    701    ccc     C6  18788 0.37576500  12.010000   ; qtot 380.958331
18789         ho    701    ccc     H6  18789 0.53656000   1.008000   ; qtot 381.494891
18790         ho    701    ccc     H7  18790 0.49492100   1.008000   ; qtot 381.989812
18791         ho    701    ccc     H8  18791 0.51297200   1.008000   ; qtot 382.502784
18792         h1    701    ccc     H9  18792 0.05653400   1.008000   ; qtot 382.559318
18793         h1    701    ccc    H10  18793 0.05653400   1.008000   ; qtot 382.615852
18794         oh    701    ccc     O5  18794 -0.84113600  16.000000   ; qtot 381.774716
18795         ho    701    ccc    H11  18795 0.51201600   1.008000   ; qtot 382.286732
18796         os    701    ccc     O6  18796 -0.26013600  16.000000   ; qtot 382.026596
; residue  702 ccc rtp ccc q 0.0
18797         c3    702    ccc     C1  18797 -0.33178800  12.010000   ; qtot 381.694808
18798         c3    702    ccc     C2  18798 0.30606500  12.010000   ; qtot 382.000873
18799         h1    702    ccc     H1  18799 0.11662300   1.008000   ; qtot 382.117496
18800         h1    702    ccc     H2  18800 0.11526800   1.008000   ; qtot 382.232764
18801         c3    702    ccc     C3  18801 0.15592700  12.010000   ; qtot 382.388691
18802         c3    702    ccc     C4  18802 0.28383300  12.010000   ; qtot 382.672524
18803         c3    702    ccc     C5  18803 0.32403300  12.010000   ; qtot 382.996557
18804         h1    702    ccc     H3  18804 0.13386900   1.008000   ; qtot 383.130426
18805         h1    702    ccc     H4  18805 0.10146700   1.008000   ; qtot 383.231893
18806         h2    702    ccc     H5  18806 0.10960400   1.008000   ; qtot 383.341497
18807         os    702    ccc     O1  18807 -0.28650000  16.000000   ; qtot 383.054997
18808         oh    702    ccc     O2  18808 -0.86012500  16.000000   ; qtot 382.194872
18809         oh    702    ccc     O3  18809 -0.83772800  16.000000   ; qtot 381.357144
18810         oh    702    ccc     O4  18810 -0.77449700  16.000000   ; qtot 380.582647
18811         c3    702    ccc     C6  18811 0.37576500  12.010000   ; qtot 380.958412
18812         ho    702    ccc     H6  18812 0.53656000   1.008000   ; qtot 381.494972
18813         ho    702    ccc     H7  18813 0.49492100   1.008000   ; qtot 381.989893
18814         ho    702    ccc     H8  18814 0.51297200   1.008000   ; qtot 382.502865
18815         h1    702    ccc     H9  18815 0.05653400   1.008000   ; qtot 382.559399
18816         h1    702    ccc    H10  18816 0.05653400   1.008000   ; qtot 382.615933
18817         oh    702    ccc     O5  18817 -0.84113600  16.000000   ; qtot 381.774797
18818         ho    702    ccc    H11  18818 0.51201600   1.008000   ; qtot 382.286813
18819         os    702    ccc     O6  18819 -0.26013600  16.000000   ; qtot 382.026677
; residue  703 ccc rtp ccc q 0.0
18820         c3    703    ccc     C1  18820 -0.33178800  12.010000   ; qtot 381.694889
18821         c3    703    ccc     C2  18821 0.30606500  12.010000   ; qtot 382.000954
18822         h1    703    ccc     H1  18822 0.11662300   1.008000   ; qtot 382.117577
18823         h1    703    ccc     H2  18823 0.11526800   1.008000   ; qtot 382.232845
18824         c3    703    ccc     C3  18824 0.15592700  12.010000   ; qtot 382.388772
18825         c3    703    ccc     C4  18825 0.28383300  12.010000   ; qtot 382.672605
18826         c3    703    ccc     C5  18826 0.32403300  12.010000   ; qtot 382.996638
18827         h1    703    ccc     H3  18827 0.13386900   1.008000   ; qtot 383.130507
18828         h1    703    ccc     H4  18828 0.10146700   1.008000   ; qtot 383.231974
18829         h2    703    ccc     H5  18829 0.10960400   1.008000   ; qtot 383.341578
18830         os    703    ccc     O1  18830 -0.28650000  16.000000   ; qtot 383.055078
18831         oh    703    ccc     O2  18831 -0.86012500  16.000000   ; qtot 382.194953
18832         oh    703    ccc     O3  18832 -0.83772800  16.000000   ; qtot 381.357225
18833         oh    703    ccc     O4  18833 -0.77449700  16.000000   ; qtot 380.582728
18834         c3    703    ccc     C6  18834 0.37576500  12.010000   ; qtot 380.958493
18835         ho    703    ccc     H6  18835 0.53656000   1.008000   ; qtot 381.495053
18836         ho    703    ccc     H7  18836 0.49492100   1.008000   ; qtot 381.989974
18837         ho    703    ccc     H8  18837 0.51297200   1.008000   ; qtot 382.502946
18838         h1    703    ccc     H9  18838 0.05653400   1.008000   ; qtot 382.559480
18839         h1    703    ccc    H10  18839 0.05653400   1.008000   ; qtot 382.616014
18840         oh    703    ccc     O5  18840 -0.84113600  16.000000   ; qtot 381.774878
18841         ho    703    ccc    H11  18841 0.51201600   1.008000   ; qtot 382.286894
18842         os    703    ccc     O6  18842 -0.26013600  16.000000   ; qtot 382.026758
; residue  704 ccc rtp ccc q 0.0
18843         c3    704    ccc     C1  18843 -0.33178800  12.010000   ; qtot 381.694970
18844         c3    704    ccc     C2  18844 0.30606500  12.010000   ; qtot 382.001035
18845         h1    704    ccc     H1  18845 0.11662300   1.008000   ; qtot 382.117658
18846         h1    704    ccc     H2  18846 0.11526800   1.008000   ; qtot 382.232926
18847         c3    704    ccc     C3  18847 0.15592700  12.010000   ; qtot 382.388853
18848         c3    704    ccc     C4  18848 0.28383300  12.010000   ; qtot 382.672686
18849         c3    704    ccc     C5  18849 0.32403300  12.010000   ; qtot 382.996719
18850         h1    704    ccc     H3  18850 0.13386900   1.008000   ; qtot 383.130588
18851         h1    704    ccc     H4  18851 0.10146700   1.008000   ; qtot 383.232055
18852         h2    704    ccc     H5  18852 0.10960400   1.008000   ; qtot 383.341659
18853         os    704    ccc     O1  18853 -0.28650000  16.000000   ; qtot 383.055159
18854         oh    704    ccc     O2  18854 -0.86012500  16.000000   ; qtot 382.195034
18855         oh    704    ccc     O3  18855 -0.83772800  16.000000   ; qtot 381.357306
18856         oh    704    ccc     O4  18856 -0.77449700  16.000000   ; qtot 380.582809
18857         c3    704    ccc     C6  18857 0.37576500  12.010000   ; qtot 380.958574
18858         ho    704    ccc     H6  18858 0.53656000   1.008000   ; qtot 381.495134
18859         ho    704    ccc     H7  18859 0.49492100   1.008000   ; qtot 381.990055
18860         ho    704    ccc     H8  18860 0.51297200   1.008000   ; qtot 382.503027
18861         h1    704    ccc     H9  18861 0.05653400   1.008000   ; qtot 382.559561
18862         h1    704    ccc    H10  18862 0.05653400   1.008000   ; qtot 382.616095
18863         oh    704    ccc     O5  18863 -0.84113600  16.000000   ; qtot 381.774959
18864         ho    704    ccc    H11  18864 0.51201600   1.008000   ; qtot 382.286975
18865         os    704    ccc     O6  18865 -0.26013600  16.000000   ; qtot 382.026839
; residue  705 ccc rtp ccc q 0.0
18866         c3    705    ccc     C1  18866 -0.33178800  12.010000   ; qtot 381.695051
18867         c3    705    ccc     C2  18867 0.30606500  12.010000   ; qtot 382.001116
18868         h1    705    ccc     H1  18868 0.11662300   1.008000   ; qtot 382.117739
18869         h1    705    ccc     H2  18869 0.11526800   1.008000   ; qtot 382.233007
18870         c3    705    ccc     C3  18870 0.15592700  12.010000   ; qtot 382.388934
18871         c3    705    ccc     C4  18871 0.28383300  12.010000   ; qtot 382.672767
18872         c3    705    ccc     C5  18872 0.32403300  12.010000   ; qtot 382.996800
18873         h1    705    ccc     H3  18873 0.13386900   1.008000   ; qtot 383.130669
18874         h1    705    ccc     H4  18874 0.10146700   1.008000   ; qtot 383.232136
18875         h2    705    ccc     H5  18875 0.10960400   1.008000   ; qtot 383.341740
18876         os    705    ccc     O1  18876 -0.28650000  16.000000   ; qtot 383.055240
18877         oh    705    ccc     O2  18877 -0.86012500  16.000000   ; qtot 382.195115
18878         oh    705    ccc     O3  18878 -0.83772800  16.000000   ; qtot 381.357387
18879         oh    705    ccc     O4  18879 -0.77449700  16.000000   ; qtot 380.582890
18880         c3    705    ccc     C6  18880 0.37576500  12.010000   ; qtot 380.958655
18881         ho    705    ccc     H6  18881 0.53656000   1.008000   ; qtot 381.495215
18882         ho    705    ccc     H7  18882 0.49492100   1.008000   ; qtot 381.990136
18883         ho    705    ccc     H8  18883 0.51297200   1.008000   ; qtot 382.503108
18884         h1    705    ccc     H9  18884 0.05653400   1.008000   ; qtot 382.559642
18885         h1    705    ccc    H10  18885 0.05653400   1.008000   ; qtot 382.616176
18886         oh    705    ccc     O5  18886 -0.84113600  16.000000   ; qtot 381.775040
18887         ho    705    ccc    H11  18887 0.51201600   1.008000   ; qtot 382.287056
18888         os    705    ccc     O6  18888 -0.26013600  16.000000   ; qtot 382.026920
; residue  706 ccc rtp ccc q 0.0
18889         c3    706    ccc     C1  18889 -0.33178800  12.010000   ; qtot 381.695132
18890         c3    706    ccc     C2  18890 0.30606500  12.010000   ; qtot 382.001197
18891         h1    706    ccc     H1  18891 0.11662300   1.008000   ; qtot 382.117820
18892         h1    706    ccc     H2  18892 0.11526800   1.008000   ; qtot 382.233088
18893         c3    706    ccc     C3  18893 0.15592700  12.010000   ; qtot 382.389015
18894         c3    706    ccc     C4  18894 0.28383300  12.010000   ; qtot 382.672848
18895         c3    706    ccc     C5  18895 0.32403300  12.010000   ; qtot 382.996881
18896         h1    706    ccc     H3  18896 0.13386900   1.008000   ; qtot 383.130750
18897         h1    706    ccc     H4  18897 0.10146700   1.008000   ; qtot 383.232217
18898         h2    706    ccc     H5  18898 0.10960400   1.008000   ; qtot 383.341821
18899         os    706    ccc     O1  18899 -0.28650000  16.000000   ; qtot 383.055321
18900         oh    706    ccc     O2  18900 -0.86012500  16.000000   ; qtot 382.195196
18901         oh    706    ccc     O3  18901 -0.83772800  16.000000   ; qtot 381.357468
18902         oh    706    ccc     O4  18902 -0.77449700  16.000000   ; qtot 380.582971
18903         c3    706    ccc     C6  18903 0.37576500  12.010000   ; qtot 380.958736
18904         ho    706    ccc     H6  18904 0.53656000   1.008000   ; qtot 381.495296
18905         ho    706    ccc     H7  18905 0.49492100   1.008000   ; qtot 381.990217
18906         ho    706    ccc     H8  18906 0.51297200   1.008000   ; qtot 382.503189
18907         h1    706    ccc     H9  18907 0.05653400   1.008000   ; qtot 382.559723
18908         h1    706    ccc    H10  18908 0.05653400   1.008000   ; qtot 382.616257
18909         oh    706    ccc     O5  18909 -0.84113600  16.000000   ; qtot 381.775121
18910         ho    706    ccc    H11  18910 0.51201600   1.008000   ; qtot 382.287137
18911         os    706    ccc     O6  18911 -0.26013600  16.000000   ; qtot 382.027001
; residue  707 ccc rtp ccc q 0.0
18912         c3    707    ccc     C1  18912 -0.33178800  12.010000   ; qtot 381.695213
18913         c3    707    ccc     C2  18913 0.30606500  12.010000   ; qtot 382.001278
18914         h1    707    ccc     H1  18914 0.11662300   1.008000   ; qtot 382.117901
18915         h1    707    ccc     H2  18915 0.11526800   1.008000   ; qtot 382.233169
18916         c3    707    ccc     C3  18916 0.15592700  12.010000   ; qtot 382.389096
18917         c3    707    ccc     C4  18917 0.28383300  12.010000   ; qtot 382.672929
18918         c3    707    ccc     C5  18918 0.32403300  12.010000   ; qtot 382.996962
18919         h1    707    ccc     H3  18919 0.13386900   1.008000   ; qtot 383.130831
18920         h1    707    ccc     H4  18920 0.10146700   1.008000   ; qtot 383.232298
18921         h2    707    ccc     H5  18921 0.10960400   1.008000   ; qtot 383.341902
18922         os    707    ccc     O1  18922 -0.28650000  16.000000   ; qtot 383.055402
18923         oh    707    ccc     O2  18923 -0.86012500  16.000000   ; qtot 382.195277
18924         oh    707    ccc     O3  18924 -0.83772800  16.000000   ; qtot 381.357549
18925         oh    707    ccc     O4  18925 -0.77449700  16.000000   ; qtot 380.583052
18926         c3    707    ccc     C6  18926 0.37576500  12.010000   ; qtot 380.958817
18927         ho    707    ccc     H6  18927 0.53656000   1.008000   ; qtot 381.495377
18928         ho    707    ccc     H7  18928 0.49492100   1.008000   ; qtot 381.990298
18929         ho    707    ccc     H8  18929 0.51297200   1.008000   ; qtot 382.503270
18930         h1    707    ccc     H9  18930 0.05653400   1.008000   ; qtot 382.559804
18931         h1    707    ccc    H10  18931 0.05653400   1.008000   ; qtot 382.616338
18932         oh    707    ccc     O5  18932 -0.84113600  16.000000   ; qtot 381.775202
18933         ho    707    ccc    H11  18933 0.51201600   1.008000   ; qtot 382.287218
18934         os    707    ccc     O6  18934 -0.26013600  16.000000   ; qtot 382.027082
; residue  708 ccc rtp ccc q 0.0
18935         c3    708    ccc     C1  18935 -0.33178800  12.010000   ; qtot 381.695294
18936         c3    708    ccc     C2  18936 0.30606500  12.010000   ; qtot 382.001359
18937         h1    708    ccc     H1  18937 0.11662300   1.008000   ; qtot 382.117982
18938         h1    708    ccc     H2  18938 0.11526800   1.008000   ; qtot 382.233250
18939         c3    708    ccc     C3  18939 0.15592700  12.010000   ; qtot 382.389177
18940         c3    708    ccc     C4  18940 0.28383300  12.010000   ; qtot 382.673010
18941         c3    708    ccc     C5  18941 0.32403300  12.010000   ; qtot 382.997043
18942         h1    708    ccc     H3  18942 0.13386900   1.008000   ; qtot 383.130912
18943         h1    708    ccc     H4  18943 0.10146700   1.008000   ; qtot 383.232379
18944         h2    708    ccc     H5  18944 0.10960400   1.008000   ; qtot 383.341983
18945         os    708    ccc     O1  18945 -0.28650000  16.000000   ; qtot 383.055483
18946         oh    708    ccc     O2  18946 -0.86012500  16.000000   ; qtot 382.195358
18947         oh    708    ccc     O3  18947 -0.83772800  16.000000   ; qtot 381.357630
18948         oh    708    ccc     O4  18948 -0.77449700  16.000000   ; qtot 380.583133
18949         c3    708    ccc     C6  18949 0.37576500  12.010000   ; qtot 380.958898
18950         ho    708    ccc     H6  18950 0.53656000   1.008000   ; qtot 381.495458
18951         ho    708    ccc     H7  18951 0.49492100   1.008000   ; qtot 381.990379
18952         ho    708    ccc     H8  18952 0.51297200   1.008000   ; qtot 382.503351
18953         h1    708    ccc     H9  18953 0.05653400   1.008000   ; qtot 382.559885
18954         h1    708    ccc    H10  18954 0.05653400   1.008000   ; qtot 382.616419
18955         oh    708    ccc     O5  18955 -0.84113600  16.000000   ; qtot 381.775283
18956         ho    708    ccc    H11  18956 0.51201600   1.008000   ; qtot 382.287299
18957         os    708    ccc     O6  18957 -0.26013600  16.000000   ; qtot 382.027163
; residue  709 ccc rtp ccc q 0.0
18958         c3    709    ccc     C1  18958 -0.33178800  12.010000   ; qtot 381.695375
18959         c3    709    ccc     C2  18959 0.30606500  12.010000   ; qtot 382.001440
18960         h1    709    ccc     H1  18960 0.11662300   1.008000   ; qtot 382.118063
18961         h1    709    ccc     H2  18961 0.11526800   1.008000   ; qtot 382.233331
18962         c3    709    ccc     C3  18962 0.15592700  12.010000   ; qtot 382.389258
18963         c3    709    ccc     C4  18963 0.28383300  12.010000   ; qtot 382.673091
18964         c3    709    ccc     C5  18964 0.32403300  12.010000   ; qtot 382.997124
18965         h1    709    ccc     H3  18965 0.13386900   1.008000   ; qtot 383.130993
18966         h1    709    ccc     H4  18966 0.10146700   1.008000   ; qtot 383.232460
18967         h2    709    ccc     H5  18967 0.10960400   1.008000   ; qtot 383.342064
18968         os    709    ccc     O1  18968 -0.28650000  16.000000   ; qtot 383.055564
18969         oh    709    ccc     O2  18969 -0.86012500  16.000000   ; qtot 382.195439
18970         oh    709    ccc     O3  18970 -0.83772800  16.000000   ; qtot 381.357711
18971         oh    709    ccc     O4  18971 -0.77449700  16.000000   ; qtot 380.583214
18972         c3    709    ccc     C6  18972 0.37576500  12.010000   ; qtot 380.958979
18973         ho    709    ccc     H6  18973 0.53656000   1.008000   ; qtot 381.495539
18974         ho    709    ccc     H7  18974 0.49492100   1.008000   ; qtot 381.990460
18975         ho    709    ccc     H8  18975 0.51297200   1.008000   ; qtot 382.503432
18976         h1    709    ccc     H9  18976 0.05653400   1.008000   ; qtot 382.559966
18977         h1    709    ccc    H10  18977 0.05653400   1.008000   ; qtot 382.616500
18978         oh    709    ccc     O5  18978 -0.84113600  16.000000   ; qtot 381.775364
18979         ho    709    ccc    H11  18979 0.51201600   1.008000   ; qtot 382.287380
18980         os    709    ccc     O6  18980 -0.26013600  16.000000   ; qtot 382.027244
; residue  710 ccc rtp ccc q 0.0
18981         c3    710    ccc     C1  18981 -0.33178800  12.010000   ; qtot 381.695456
18982         c3    710    ccc     C2  18982 0.30606500  12.010000   ; qtot 382.001521
18983         h1    710    ccc     H1  18983 0.11662300   1.008000   ; qtot 382.118144
18984         h1    710    ccc     H2  18984 0.11526800   1.008000   ; qtot 382.233412
18985         c3    710    ccc     C3  18985 0.15592700  12.010000   ; qtot 382.389339
18986         c3    710    ccc     C4  18986 0.28383300  12.010000   ; qtot 382.673172
18987         c3    710    ccc     C5  18987 0.32403300  12.010000   ; qtot 382.997205
18988         h1    710    ccc     H3  18988 0.13386900   1.008000   ; qtot 383.131074
18989         h1    710    ccc     H4  18989 0.10146700   1.008000   ; qtot 383.232541
18990         h2    710    ccc     H5  18990 0.10960400   1.008000   ; qtot 383.342145
18991         os    710    ccc     O1  18991 -0.28650000  16.000000   ; qtot 383.055645
18992         oh    710    ccc     O2  18992 -0.86012500  16.000000   ; qtot 382.195520
18993         oh    710    ccc     O3  18993 -0.83772800  16.000000   ; qtot 381.357792
18994         oh    710    ccc     O4  18994 -0.77449700  16.000000   ; qtot 380.583295
18995         c3    710    ccc     C6  18995 0.37576500  12.010000   ; qtot 380.959060
18996         ho    710    ccc     H6  18996 0.53656000   1.008000   ; qtot 381.495620
18997         ho    710    ccc     H7  18997 0.49492100   1.008000   ; qtot 381.990541
18998         ho    710    ccc     H8  18998 0.51297200   1.008000   ; qtot 382.503513
18999         h1    710    ccc     H9  18999 0.05653400   1.008000   ; qtot 382.560047
19000         h1    710    ccc    H10  19000 0.05653400   1.008000   ; qtot 382.616581
19001         oh    710    ccc     O5  19001 -0.84113600  16.000000   ; qtot 381.775445
19002         ho    710    ccc    H11  19002 0.51201600   1.008000   ; qtot 382.287461
19003         os    710    ccc     O6  19003 -0.26013600  16.000000   ; qtot 382.027325
; residue  711 ccc rtp ccc q 0.0
19004         c3    711    ccc     C1  19004 -0.33178800  12.010000   ; qtot 381.695537
19005         c3    711    ccc     C2  19005 0.30606500  12.010000   ; qtot 382.001602
19006         h1    711    ccc     H1  19006 0.11662300   1.008000   ; qtot 382.118225
19007         h1    711    ccc     H2  19007 0.11526800   1.008000   ; qtot 382.233493
19008         c3    711    ccc     C3  19008 0.15592700  12.010000   ; qtot 382.389420
19009         c3    711    ccc     C4  19009 0.28383300  12.010000   ; qtot 382.673253
19010         c3    711    ccc     C5  19010 0.32403300  12.010000   ; qtot 382.997286
19011         h1    711    ccc     H3  19011 0.13386900   1.008000   ; qtot 383.131155
19012         h1    711    ccc     H4  19012 0.10146700   1.008000   ; qtot 383.232622
19013         h2    711    ccc     H5  19013 0.10960400   1.008000   ; qtot 383.342226
19014         os    711    ccc     O1  19014 -0.28650000  16.000000   ; qtot 383.055726
19015         oh    711    ccc     O2  19015 -0.86012500  16.000000   ; qtot 382.195601
19016         oh    711    ccc     O3  19016 -0.83772800  16.000000   ; qtot 381.357873
19017         oh    711    ccc     O4  19017 -0.77449700  16.000000   ; qtot 380.583376
19018         c3    711    ccc     C6  19018 0.37576500  12.010000   ; qtot 380.959141
19019         ho    711    ccc     H6  19019 0.53656000   1.008000   ; qtot 381.495701
19020         ho    711    ccc     H7  19020 0.49492100   1.008000   ; qtot 381.990622
19021         ho    711    ccc     H8  19021 0.51297200   1.008000   ; qtot 382.503594
19022         h1    711    ccc     H9  19022 0.05653400   1.008000   ; qtot 382.560128
19023         h1    711    ccc    H10  19023 0.05653400   1.008000   ; qtot 382.616662
19024         oh    711    ccc     O5  19024 -0.84113600  16.000000   ; qtot 381.775526
19025         ho    711    ccc    H11  19025 0.51201600   1.008000   ; qtot 382.287542
19026         os    711    ccc     O6  19026 -0.26013600  16.000000   ; qtot 382.027406
; residue  712 ccc rtp ccc q 0.0
19027         c3    712    ccc     C1  19027 -0.33178800  12.010000   ; qtot 381.695618
19028         c3    712    ccc     C2  19028 0.30606500  12.010000   ; qtot 382.001683
19029         h1    712    ccc     H1  19029 0.11662300   1.008000   ; qtot 382.118306
19030         h1    712    ccc     H2  19030 0.11526800   1.008000   ; qtot 382.233574
19031         c3    712    ccc     C3  19031 0.15592700  12.010000   ; qtot 382.389501
19032         c3    712    ccc     C4  19032 0.28383300  12.010000   ; qtot 382.673334
19033         c3    712    ccc     C5  19033 0.32403300  12.010000   ; qtot 382.997367
19034         h1    712    ccc     H3  19034 0.13386900   1.008000   ; qtot 383.131236
19035         h1    712    ccc     H4  19035 0.10146700   1.008000   ; qtot 383.232703
19036         h2    712    ccc     H5  19036 0.10960400   1.008000   ; qtot 383.342307
19037         os    712    ccc     O1  19037 -0.28650000  16.000000   ; qtot 383.055807
19038         oh    712    ccc     O2  19038 -0.86012500  16.000000   ; qtot 382.195682
19039         oh    712    ccc     O3  19039 -0.83772800  16.000000   ; qtot 381.357954
19040         oh    712    ccc     O4  19040 -0.77449700  16.000000   ; qtot 380.583457
19041         c3    712    ccc     C6  19041 0.37576500  12.010000   ; qtot 380.959222
19042         ho    712    ccc     H6  19042 0.53656000   1.008000   ; qtot 381.495782
19043         ho    712    ccc     H7  19043 0.49492100   1.008000   ; qtot 381.990703
19044         ho    712    ccc     H8  19044 0.51297200   1.008000   ; qtot 382.503675
19045         h1    712    ccc     H9  19045 0.05653400   1.008000   ; qtot 382.560209
19046         h1    712    ccc    H10  19046 0.05653400   1.008000   ; qtot 382.616743
19047         oh    712    ccc     O5  19047 -0.84113600  16.000000   ; qtot 381.775607
19048         ho    712    ccc    H11  19048 0.51201600   1.008000   ; qtot 382.287623
19049         os    712    ccc     O6  19049 -0.26013600  16.000000   ; qtot 382.027487
; residue  713 ccc rtp ccc q 0.0
19050         c3    713    ccc     C1  19050 -0.33178800  12.010000   ; qtot 381.695699
19051         c3    713    ccc     C2  19051 0.30606500  12.010000   ; qtot 382.001764
19052         h1    713    ccc     H1  19052 0.11662300   1.008000   ; qtot 382.118387
19053         h1    713    ccc     H2  19053 0.11526800   1.008000   ; qtot 382.233655
19054         c3    713    ccc     C3  19054 0.15592700  12.010000   ; qtot 382.389582
19055         c3    713    ccc     C4  19055 0.28383300  12.010000   ; qtot 382.673415
19056         c3    713    ccc     C5  19056 0.32403300  12.010000   ; qtot 382.997448
19057         h1    713    ccc     H3  19057 0.13386900   1.008000   ; qtot 383.131317
19058         h1    713    ccc     H4  19058 0.10146700   1.008000   ; qtot 383.232784
19059         h2    713    ccc     H5  19059 0.10960400   1.008000   ; qtot 383.342388
19060         os    713    ccc     O1  19060 -0.28650000  16.000000   ; qtot 383.055888
19061         oh    713    ccc     O2  19061 -0.86012500  16.000000   ; qtot 382.195763
19062         oh    713    ccc     O3  19062 -0.83772800  16.000000   ; qtot 381.358035
19063         oh    713    ccc     O4  19063 -0.77449700  16.000000   ; qtot 380.583538
19064         c3    713    ccc     C6  19064 0.37576500  12.010000   ; qtot 380.959303
19065         ho    713    ccc     H6  19065 0.53656000   1.008000   ; qtot 381.495863
19066         ho    713    ccc     H7  19066 0.49492100   1.008000   ; qtot 381.990784
19067         ho    713    ccc     H8  19067 0.51297200   1.008000   ; qtot 382.503756
19068         h1    713    ccc     H9  19068 0.05653400   1.008000   ; qtot 382.560290
19069         h1    713    ccc    H10  19069 0.05653400   1.008000   ; qtot 382.616824
19070         oh    713    ccc     O5  19070 -0.84113600  16.000000   ; qtot 381.775688
19071         ho    713    ccc    H11  19071 0.51201600   1.008000   ; qtot 382.287704
19072         os    713    ccc     O6  19072 -0.26013600  16.000000   ; qtot 382.027568
; residue  714 ccc rtp ccc q 0.0
19073         c3    714    ccc     C1  19073 -0.33178800  12.010000   ; qtot 381.695780
19074         c3    714    ccc     C2  19074 0.30606500  12.010000   ; qtot 382.001845
19075         h1    714    ccc     H1  19075 0.11662300   1.008000   ; qtot 382.118468
19076         h1    714    ccc     H2  19076 0.11526800   1.008000   ; qtot 382.233736
19077         c3    714    ccc     C3  19077 0.15592700  12.010000   ; qtot 382.389663
19078         c3    714    ccc     C4  19078 0.28383300  12.010000   ; qtot 382.673496
19079         c3    714    ccc     C5  19079 0.32403300  12.010000   ; qtot 382.997529
19080         h1    714    ccc     H3  19080 0.13386900   1.008000   ; qtot 383.131398
19081         h1    714    ccc     H4  19081 0.10146700   1.008000   ; qtot 383.232865
19082         h2    714    ccc     H5  19082 0.10960400   1.008000   ; qtot 383.342469
19083         os    714    ccc     O1  19083 -0.28650000  16.000000   ; qtot 383.055969
19084         oh    714    ccc     O2  19084 -0.86012500  16.000000   ; qtot 382.195844
19085         oh    714    ccc     O3  19085 -0.83772800  16.000000   ; qtot 381.358116
19086         oh    714    ccc     O4  19086 -0.77449700  16.000000   ; qtot 380.583619
19087         c3    714    ccc     C6  19087 0.37576500  12.010000   ; qtot 380.959384
19088         ho    714    ccc     H6  19088 0.53656000   1.008000   ; qtot 381.495944
19089         ho    714    ccc     H7  19089 0.49492100   1.008000   ; qtot 381.990865
19090         ho    714    ccc     H8  19090 0.51297200   1.008000   ; qtot 382.503837
19091         h1    714    ccc     H9  19091 0.05653400   1.008000   ; qtot 382.560371
19092         h1    714    ccc    H10  19092 0.05653400   1.008000   ; qtot 382.616905
19093         oh    714    ccc     O5  19093 -0.84113600  16.000000   ; qtot 381.775769
19094         ho    714    ccc    H11  19094 0.51201600   1.008000   ; qtot 382.287785
19095         os    714    ccc     O6  19095 -0.26013600  16.000000   ; qtot 382.027649
; residue  715 ccc rtp ccc q 0.0
19096         c3    715    ccc     C1  19096 -0.33178800  12.010000   ; qtot 381.695861
19097         c3    715    ccc     C2  19097 0.30606500  12.010000   ; qtot 382.001926
19098         h1    715    ccc     H1  19098 0.11662300   1.008000   ; qtot 382.118549
19099         h1    715    ccc     H2  19099 0.11526800   1.008000   ; qtot 382.233817
19100         c3    715    ccc     C3  19100 0.15592700  12.010000   ; qtot 382.389744
19101         c3    715    ccc     C4  19101 0.28383300  12.010000   ; qtot 382.673577
19102         c3    715    ccc     C5  19102 0.32403300  12.010000   ; qtot 382.997610
19103         h1    715    ccc     H3  19103 0.13386900   1.008000   ; qtot 383.131479
19104         h1    715    ccc     H4  19104 0.10146700   1.008000   ; qtot 383.232946
19105         h2    715    ccc     H5  19105 0.10960400   1.008000   ; qtot 383.342550
19106         os    715    ccc     O1  19106 -0.28650000  16.000000   ; qtot 383.056050
19107         oh    715    ccc     O2  19107 -0.86012500  16.000000   ; qtot 382.195925
19108         oh    715    ccc     O3  19108 -0.83772800  16.000000   ; qtot 381.358197
19109         oh    715    ccc     O4  19109 -0.77449700  16.000000   ; qtot 380.583700
19110         c3    715    ccc     C6  19110 0.37576500  12.010000   ; qtot 380.959465
19111         ho    715    ccc     H6  19111 0.53656000   1.008000   ; qtot 381.496025
19112         ho    715    ccc     H7  19112 0.49492100   1.008000   ; qtot 381.990946
19113         ho    715    ccc     H8  19113 0.51297200   1.008000   ; qtot 382.503918
19114         h1    715    ccc     H9  19114 0.05653400   1.008000   ; qtot 382.560452
19115         h1    715    ccc    H10  19115 0.05653400   1.008000   ; qtot 382.616986
19116         oh    715    ccc     O5  19116 -0.84113600  16.000000   ; qtot 381.775850
19117         ho    715    ccc    H11  19117 0.51201600   1.008000   ; qtot 382.287866
19118         os    715    ccc     O6  19118 -0.26013600  16.000000   ; qtot 382.027730
; residue  716 ccc rtp ccc q 0.0
19119         c3    716    ccc     C1  19119 -0.33178800  12.010000   ; qtot 381.695942
19120         c3    716    ccc     C2  19120 0.30606500  12.010000   ; qtot 382.002007
19121         h1    716    ccc     H1  19121 0.11662300   1.008000   ; qtot 382.118630
19122         h1    716    ccc     H2  19122 0.11526800   1.008000   ; qtot 382.233898
19123         c3    716    ccc     C3  19123 0.15592700  12.010000   ; qtot 382.389825
19124         c3    716    ccc     C4  19124 0.28383300  12.010000   ; qtot 382.673658
19125         c3    716    ccc     C5  19125 0.32403300  12.010000   ; qtot 382.997691
19126         h1    716    ccc     H3  19126 0.13386900   1.008000   ; qtot 383.131560
19127         h1    716    ccc     H4  19127 0.10146700   1.008000   ; qtot 383.233027
19128         h2    716    ccc     H5  19128 0.10960400   1.008000   ; qtot 383.342631
19129         os    716    ccc     O1  19129 -0.28650000  16.000000   ; qtot 383.056131
19130         oh    716    ccc     O2  19130 -0.86012500  16.000000   ; qtot 382.196006
19131         oh    716    ccc     O3  19131 -0.83772800  16.000000   ; qtot 381.358278
19132         oh    716    ccc     O4  19132 -0.77449700  16.000000   ; qtot 380.583781
19133         c3    716    ccc     C6  19133 0.37576500  12.010000   ; qtot 380.959546
19134         ho    716    ccc     H6  19134 0.53656000   1.008000   ; qtot 381.496106
19135         ho    716    ccc     H7  19135 0.49492100   1.008000   ; qtot 381.991027
19136         ho    716    ccc     H8  19136 0.51297200   1.008000   ; qtot 382.503999
19137         h1    716    ccc     H9  19137 0.05653400   1.008000   ; qtot 382.560533
19138         h1    716    ccc    H10  19138 0.05653400   1.008000   ; qtot 382.617067
19139         oh    716    ccc     O5  19139 -0.84113600  16.000000   ; qtot 381.775931
19140         ho    716    ccc    H11  19140 0.51201600   1.008000   ; qtot 382.287947
19141         os    716    ccc     O6  19141 -0.26013600  16.000000   ; qtot 382.027811
; residue  717 ccc rtp ccc q 0.0
19142         c3    717    ccc     C1  19142 -0.33178800  12.010000   ; qtot 381.696023
19143         c3    717    ccc     C2  19143 0.30606500  12.010000   ; qtot 382.002088
19144         h1    717    ccc     H1  19144 0.11662300   1.008000   ; qtot 382.118711
19145         h1    717    ccc     H2  19145 0.11526800   1.008000   ; qtot 382.233979
19146         c3    717    ccc     C3  19146 0.15592700  12.010000   ; qtot 382.389906
19147         c3    717    ccc     C4  19147 0.28383300  12.010000   ; qtot 382.673739
19148         c3    717    ccc     C5  19148 0.32403300  12.010000   ; qtot 382.997772
19149         h1    717    ccc     H3  19149 0.13386900   1.008000   ; qtot 383.131641
19150         h1    717    ccc     H4  19150 0.10146700   1.008000   ; qtot 383.233108
19151         h2    717    ccc     H5  19151 0.10960400   1.008000   ; qtot 383.342712
19152         os    717    ccc     O1  19152 -0.28650000  16.000000   ; qtot 383.056212
19153         oh    717    ccc     O2  19153 -0.86012500  16.000000   ; qtot 382.196087
19154         oh    717    ccc     O3  19154 -0.83772800  16.000000   ; qtot 381.358359
19155         oh    717    ccc     O4  19155 -0.77449700  16.000000   ; qtot 380.583862
19156         c3    717    ccc     C6  19156 0.37576500  12.010000   ; qtot 380.959627
19157         ho    717    ccc     H6  19157 0.53656000   1.008000   ; qtot 381.496187
19158         ho    717    ccc     H7  19158 0.49492100   1.008000   ; qtot 381.991108
19159         ho    717    ccc     H8  19159 0.51297200   1.008000   ; qtot 382.504080
19160         h1    717    ccc     H9  19160 0.05653400   1.008000   ; qtot 382.560614
19161         h1    717    ccc    H10  19161 0.05653400   1.008000   ; qtot 382.617148
19162         oh    717    ccc     O5  19162 -0.84113600  16.000000   ; qtot 381.776012
19163         ho    717    ccc    H11  19163 0.51201600   1.008000   ; qtot 382.288028
19164         os    717    ccc     O6  19164 -0.26013600  16.000000   ; qtot 382.027892
; residue  718 ccc rtp ccc q 0.0
19165         c3    718    ccc     C1  19165 -0.33178800  12.010000   ; qtot 381.696104
19166         c3    718    ccc     C2  19166 0.30606500  12.010000   ; qtot 382.002169
19167         h1    718    ccc     H1  19167 0.11662300   1.008000   ; qtot 382.118792
19168         h1    718    ccc     H2  19168 0.11526800   1.008000   ; qtot 382.234060
19169         c3    718    ccc     C3  19169 0.15592700  12.010000   ; qtot 382.389987
19170         c3    718    ccc     C4  19170 0.28383300  12.010000   ; qtot 382.673820
19171         c3    718    ccc     C5  19171 0.32403300  12.010000   ; qtot 382.997853
19172         h1    718    ccc     H3  19172 0.13386900   1.008000   ; qtot 383.131722
19173         h1    718    ccc     H4  19173 0.10146700   1.008000   ; qtot 383.233189
19174         h2    718    ccc     H5  19174 0.10960400   1.008000   ; qtot 383.342793
19175         os    718    ccc     O1  19175 -0.28650000  16.000000   ; qtot 383.056293
19176         oh    718    ccc     O2  19176 -0.86012500  16.000000   ; qtot 382.196168
19177         oh    718    ccc     O3  19177 -0.83772800  16.000000   ; qtot 381.358440
19178         oh    718    ccc     O4  19178 -0.77449700  16.000000   ; qtot 380.583943
19179         c3    718    ccc     C6  19179 0.37576500  12.010000   ; qtot 380.959708
19180         ho    718    ccc     H6  19180 0.53656000   1.008000   ; qtot 381.496268
19181         ho    718    ccc     H7  19181 0.49492100   1.008000   ; qtot 381.991189
19182         ho    718    ccc     H8  19182 0.51297200   1.008000   ; qtot 382.504161
19183         h1    718    ccc     H9  19183 0.05653400   1.008000   ; qtot 382.560695
19184         h1    718    ccc    H10  19184 0.05653400   1.008000   ; qtot 382.617229
19185         oh    718    ccc     O5  19185 -0.84113600  16.000000   ; qtot 381.776093
19186         ho    718    ccc    H11  19186 0.51201600   1.008000   ; qtot 382.288109
19187         os    718    ccc     O6  19187 -0.26013600  16.000000   ; qtot 382.027973
; residue  719 ccc rtp ccc q 0.0
19188         c3    719    ccc     C1  19188 -0.33178800  12.010000   ; qtot 381.696185
19189         c3    719    ccc     C2  19189 0.30606500  12.010000   ; qtot 382.002250
19190         h1    719    ccc     H1  19190 0.11662300   1.008000   ; qtot 382.118873
19191         h1    719    ccc     H2  19191 0.11526800   1.008000   ; qtot 382.234141
19192         c3    719    ccc     C3  19192 0.15592700  12.010000   ; qtot 382.390068
19193         c3    719    ccc     C4  19193 0.28383300  12.010000   ; qtot 382.673901
19194         c3    719    ccc     C5  19194 0.32403300  12.010000   ; qtot 382.997934
19195         h1    719    ccc     H3  19195 0.13386900   1.008000   ; qtot 383.131803
19196         h1    719    ccc     H4  19196 0.10146700   1.008000   ; qtot 383.233270
19197         h2    719    ccc     H5  19197 0.10960400   1.008000   ; qtot 383.342874
19198         os    719    ccc     O1  19198 -0.28650000  16.000000   ; qtot 383.056374
19199         oh    719    ccc     O2  19199 -0.86012500  16.000000   ; qtot 382.196249
19200         oh    719    ccc     O3  19200 -0.83772800  16.000000   ; qtot 381.358521
19201         oh    719    ccc     O4  19201 -0.77449700  16.000000   ; qtot 380.584024
19202         c3    719    ccc     C6  19202 0.37576500  12.010000   ; qtot 380.959789
19203         ho    719    ccc     H6  19203 0.53656000   1.008000   ; qtot 381.496349
19204         ho    719    ccc     H7  19204 0.49492100   1.008000   ; qtot 381.991270
19205         ho    719    ccc     H8  19205 0.51297200   1.008000   ; qtot 382.504242
19206         h1    719    ccc     H9  19206 0.05653400   1.008000   ; qtot 382.560776
19207         h1    719    ccc    H10  19207 0.05653400   1.008000   ; qtot 382.617310
19208         oh    719    ccc     O5  19208 -0.84113600  16.000000   ; qtot 381.776174
19209         ho    719    ccc    H11  19209 0.51201600   1.008000   ; qtot 382.288190
19210         os    719    ccc     O6  19210 -0.26013600  16.000000   ; qtot 382.028054
; residue  720 ccc rtp ccc q 0.0
19211         c3    720    ccc     C1  19211 -0.33178800  12.010000   ; qtot 381.696266
19212         c3    720    ccc     C2  19212 0.30606500  12.010000   ; qtot 382.002331
19213         h1    720    ccc     H1  19213 0.11662300   1.008000   ; qtot 382.118954
19214         h1    720    ccc     H2  19214 0.11526800   1.008000   ; qtot 382.234222
19215         c3    720    ccc     C3  19215 0.15592700  12.010000   ; qtot 382.390149
19216         c3    720    ccc     C4  19216 0.28383300  12.010000   ; qtot 382.673982
19217         c3    720    ccc     C5  19217 0.32403300  12.010000   ; qtot 382.998015
19218         h1    720    ccc     H3  19218 0.13386900   1.008000   ; qtot 383.131884
19219         h1    720    ccc     H4  19219 0.10146700   1.008000   ; qtot 383.233351
19220         h2    720    ccc     H5  19220 0.10960400   1.008000   ; qtot 383.342955
19221         os    720    ccc     O1  19221 -0.28650000  16.000000   ; qtot 383.056455
19222         oh    720    ccc     O2  19222 -0.86012500  16.000000   ; qtot 382.196330
19223         oh    720    ccc     O3  19223 -0.83772800  16.000000   ; qtot 381.358602
19224         oh    720    ccc     O4  19224 -0.77449700  16.000000   ; qtot 380.584105
19225         c3    720    ccc     C6  19225 0.37576500  12.010000   ; qtot 380.959870
19226         ho    720    ccc     H6  19226 0.53656000   1.008000   ; qtot 381.496430
19227         ho    720    ccc     H7  19227 0.49492100   1.008000   ; qtot 381.991351
19228         ho    720    ccc     H8  19228 0.51297200   1.008000   ; qtot 382.504323
19229         h1    720    ccc     H9  19229 0.05653400   1.008000   ; qtot 382.560857
19230         h1    720    ccc    H10  19230 0.05653400   1.008000   ; qtot 382.617391
19231         oh    720    ccc     O5  19231 -0.84113600  16.000000   ; qtot 381.776255
19232         ho    720    ccc    H11  19232 0.51201600   1.008000   ; qtot 382.288271
19233         os    720    ccc     O6  19233 -0.26013600  16.000000   ; qtot 382.028135
; residue  721 ccc rtp ccc q 0.0
19234         c3    721    ccc     C1  19234 -0.33178800  12.010000   ; qtot 381.696347
19235         c3    721    ccc     C2  19235 0.30606500  12.010000   ; qtot 382.002412
19236         h1    721    ccc     H1  19236 0.11662300   1.008000   ; qtot 382.119035
19237         h1    721    ccc     H2  19237 0.11526800   1.008000   ; qtot 382.234303
19238         c3    721    ccc     C3  19238 0.15592700  12.010000   ; qtot 382.390230
19239         c3    721    ccc     C4  19239 0.28383300  12.010000   ; qtot 382.674063
19240         c3    721    ccc     C5  19240 0.32403300  12.010000   ; qtot 382.998096
19241         h1    721    ccc     H3  19241 0.13386900   1.008000   ; qtot 383.131965
19242         h1    721    ccc     H4  19242 0.10146700   1.008000   ; qtot 383.233432
19243         h2    721    ccc     H5  19243 0.10960400   1.008000   ; qtot 383.343036
19244         os    721    ccc     O1  19244 -0.28650000  16.000000   ; qtot 383.056536
19245         oh    721    ccc     O2  19245 -0.86012500  16.000000   ; qtot 382.196411
19246         oh    721    ccc     O3  19246 -0.83772800  16.000000   ; qtot 381.358683
19247         oh    721    ccc     O4  19247 -0.77449700  16.000000   ; qtot 380.584186
19248         c3    721    ccc     C6  19248 0.37576500  12.010000   ; qtot 380.959951
19249         ho    721    ccc     H6  19249 0.53656000   1.008000   ; qtot 381.496511
19250         ho    721    ccc     H7  19250 0.49492100   1.008000   ; qtot 381.991432
19251         ho    721    ccc     H8  19251 0.51297200   1.008000   ; qtot 382.504404
19252         h1    721    ccc     H9  19252 0.05653400   1.008000   ; qtot 382.560938
19253         h1    721    ccc    H10  19253 0.05653400   1.008000   ; qtot 382.617472
19254         oh    721    ccc     O5  19254 -0.84113600  16.000000   ; qtot 381.776336
19255         ho    721    ccc    H11  19255 0.51201600   1.008000   ; qtot 382.288352
19256         os    721    ccc     O6  19256 -0.26013600  16.000000   ; qtot 382.028216
; residue  722 ccc rtp ccc q 0.0
19257         c3    722    ccc     C1  19257 -0.33178800  12.010000   ; qtot 381.696428
19258         c3    722    ccc     C2  19258 0.30606500  12.010000   ; qtot 382.002493
19259         h1    722    ccc     H1  19259 0.11662300   1.008000   ; qtot 382.119116
19260         h1    722    ccc     H2  19260 0.11526800   1.008000   ; qtot 382.234384
19261         c3    722    ccc     C3  19261 0.15592700  12.010000   ; qtot 382.390311
19262         c3    722    ccc     C4  19262 0.28383300  12.010000   ; qtot 382.674144
19263         c3    722    ccc     C5  19263 0.32403300  12.010000   ; qtot 382.998177
19264         h1    722    ccc     H3  19264 0.13386900   1.008000   ; qtot 383.132046
19265         h1    722    ccc     H4  19265 0.10146700   1.008000   ; qtot 383.233513
19266         h2    722    ccc     H5  19266 0.10960400   1.008000   ; qtot 383.343117
19267         os    722    ccc     O1  19267 -0.28650000  16.000000   ; qtot 383.056617
19268         oh    722    ccc     O2  19268 -0.86012500  16.000000   ; qtot 382.196492
19269         oh    722    ccc     O3  19269 -0.83772800  16.000000   ; qtot 381.358764
19270         oh    722    ccc     O4  19270 -0.77449700  16.000000   ; qtot 380.584267
19271         c3    722    ccc     C6  19271 0.37576500  12.010000   ; qtot 380.960032
19272         ho    722    ccc     H6  19272 0.53656000   1.008000   ; qtot 381.496592
19273         ho    722    ccc     H7  19273 0.49492100   1.008000   ; qtot 381.991513
19274         ho    722    ccc     H8  19274 0.51297200   1.008000   ; qtot 382.504485
19275         h1    722    ccc     H9  19275 0.05653400   1.008000   ; qtot 382.561019
19276         h1    722    ccc    H10  19276 0.05653400   1.008000   ; qtot 382.617553
19277         oh    722    ccc     O5  19277 -0.84113600  16.000000   ; qtot 381.776417
19278         ho    722    ccc    H11  19278 0.51201600   1.008000   ; qtot 382.288433
19279         os    722    ccc     O6  19279 -0.26013600  16.000000   ; qtot 382.028297
; residue  723 ccc rtp ccc q 0.0
19280         c3    723    ccc     C1  19280 -0.33178800  12.010000   ; qtot 381.696509
19281         c3    723    ccc     C2  19281 0.30606500  12.010000   ; qtot 382.002574
19282         h1    723    ccc     H1  19282 0.11662300   1.008000   ; qtot 382.119197
19283         h1    723    ccc     H2  19283 0.11526800   1.008000   ; qtot 382.234465
19284         c3    723    ccc     C3  19284 0.15592700  12.010000   ; qtot 382.390392
19285         c3    723    ccc     C4  19285 0.28383300  12.010000   ; qtot 382.674225
19286         c3    723    ccc     C5  19286 0.32403300  12.010000   ; qtot 382.998258
19287         h1    723    ccc     H3  19287 0.13386900   1.008000   ; qtot 383.132127
19288         h1    723    ccc     H4  19288 0.10146700   1.008000   ; qtot 383.233594
19289         h2    723    ccc     H5  19289 0.10960400   1.008000   ; qtot 383.343198
19290         os    723    ccc     O1  19290 -0.28650000  16.000000   ; qtot 383.056698
19291         oh    723    ccc     O2  19291 -0.86012500  16.000000   ; qtot 382.196573
19292         oh    723    ccc     O3  19292 -0.83772800  16.000000   ; qtot 381.358845
19293         oh    723    ccc     O4  19293 -0.77449700  16.000000   ; qtot 380.584348
19294         c3    723    ccc     C6  19294 0.37576500  12.010000   ; qtot 380.960113
19295         ho    723    ccc     H6  19295 0.53656000   1.008000   ; qtot 381.496673
19296         ho    723    ccc     H7  19296 0.49492100   1.008000   ; qtot 381.991594
19297         ho    723    ccc     H8  19297 0.51297200   1.008000   ; qtot 382.504566
19298         h1    723    ccc     H9  19298 0.05653400   1.008000   ; qtot 382.561100
19299         h1    723    ccc    H10  19299 0.05653400   1.008000   ; qtot 382.617634
19300         oh    723    ccc     O5  19300 -0.84113600  16.000000   ; qtot 381.776498
19301         ho    723    ccc    H11  19301 0.51201600   1.008000   ; qtot 382.288514
19302         os    723    ccc     O6  19302 -0.26013600  16.000000   ; qtot 382.028378
; residue  724 ccc rtp ccc q 0.0
19303         c3    724    ccc     C1  19303 -0.33178800  12.010000   ; qtot 381.696590
19304         c3    724    ccc     C2  19304 0.30606500  12.010000   ; qtot 382.002655
19305         h1    724    ccc     H1  19305 0.11662300   1.008000   ; qtot 382.119278
19306         h1    724    ccc     H2  19306 0.11526800   1.008000   ; qtot 382.234546
19307         c3    724    ccc     C3  19307 0.15592700  12.010000   ; qtot 382.390473
19308         c3    724    ccc     C4  19308 0.28383300  12.010000   ; qtot 382.674306
19309         c3    724    ccc     C5  19309 0.32403300  12.010000   ; qtot 382.998339
19310         h1    724    ccc     H3  19310 0.13386900   1.008000   ; qtot 383.132208
19311         h1    724    ccc     H4  19311 0.10146700   1.008000   ; qtot 383.233675
19312         h2    724    ccc     H5  19312 0.10960400   1.008000   ; qtot 383.343279
19313         os    724    ccc     O1  19313 -0.28650000  16.000000   ; qtot 383.056779
19314         oh    724    ccc     O2  19314 -0.86012500  16.000000   ; qtot 382.196654
19315         oh    724    ccc     O3  19315 -0.83772800  16.000000   ; qtot 381.358926
19316         oh    724    ccc     O4  19316 -0.77449700  16.000000   ; qtot 380.584429
19317         c3    724    ccc     C6  19317 0.37576500  12.010000   ; qtot 380.960194
19318         ho    724    ccc     H6  19318 0.53656000   1.008000   ; qtot 381.496754
19319         ho    724    ccc     H7  19319 0.49492100   1.008000   ; qtot 381.991675
19320         ho    724    ccc     H8  19320 0.51297200   1.008000   ; qtot 382.504647
19321         h1    724    ccc     H9  19321 0.05653400   1.008000   ; qtot 382.561181
19322         h1    724    ccc    H10  19322 0.05653400   1.008000   ; qtot 382.617715
19323         oh    724    ccc     O5  19323 -0.84113600  16.000000   ; qtot 381.776579
19324         ho    724    ccc    H11  19324 0.51201600   1.008000   ; qtot 382.288595
19325         os    724    ccc     O6  19325 -0.26013600  16.000000   ; qtot 382.028459
; residue  725 ccc rtp ccc q 0.0
19326         c3    725    ccc     C1  19326 -0.33178800  12.010000   ; qtot 381.696671
19327         c3    725    ccc     C2  19327 0.30606500  12.010000   ; qtot 382.002736
19328         h1    725    ccc     H1  19328 0.11662300   1.008000   ; qtot 382.119359
19329         h1    725    ccc     H2  19329 0.11526800   1.008000   ; qtot 382.234627
19330         c3    725    ccc     C3  19330 0.15592700  12.010000   ; qtot 382.390554
19331         c3    725    ccc     C4  19331 0.28383300  12.010000   ; qtot 382.674387
19332         c3    725    ccc     C5  19332 0.32403300  12.010000   ; qtot 382.998420
19333         h1    725    ccc     H3  19333 0.13386900   1.008000   ; qtot 383.132289
19334         h1    725    ccc     H4  19334 0.10146700   1.008000   ; qtot 383.233756
19335         h2    725    ccc     H5  19335 0.10960400   1.008000   ; qtot 383.343360
19336         os    725    ccc     O1  19336 -0.28650000  16.000000   ; qtot 383.056860
19337         oh    725    ccc     O2  19337 -0.86012500  16.000000   ; qtot 382.196735
19338         oh    725    ccc     O3  19338 -0.83772800  16.000000   ; qtot 381.359007
19339         oh    725    ccc     O4  19339 -0.77449700  16.000000   ; qtot 380.584510
19340         c3    725    ccc     C6  19340 0.37576500  12.010000   ; qtot 380.960275
19341         ho    725    ccc     H6  19341 0.53656000   1.008000   ; qtot 381.496835
19342         ho    725    ccc     H7  19342 0.49492100   1.008000   ; qtot 381.991756
19343         ho    725    ccc     H8  19343 0.51297200   1.008000   ; qtot 382.504728
19344         h1    725    ccc     H9  19344 0.05653400   1.008000   ; qtot 382.561262
19345         h1    725    ccc    H10  19345 0.05653400   1.008000   ; qtot 382.617796
19346         oh    725    ccc     O5  19346 -0.84113600  16.000000   ; qtot 381.776660
19347         ho    725    ccc    H11  19347 0.51201600   1.008000   ; qtot 382.288676
19348         os    725    ccc     O6  19348 -0.26013600  16.000000   ; qtot 382.028540
; residue  726 ccc rtp ccc q 0.0
19349         c3    726    ccc     C1  19349 -0.33178800  12.010000   ; qtot 381.696752
19350         c3    726    ccc     C2  19350 0.30606500  12.010000   ; qtot 382.002817
19351         h1    726    ccc     H1  19351 0.11662300   1.008000   ; qtot 382.119440
19352         h1    726    ccc     H2  19352 0.11526800   1.008000   ; qtot 382.234708
19353         c3    726    ccc     C3  19353 0.15592700  12.010000   ; qtot 382.390635
19354         c3    726    ccc     C4  19354 0.28383300  12.010000   ; qtot 382.674468
19355         c3    726    ccc     C5  19355 0.32403300  12.010000   ; qtot 382.998501
19356         h1    726    ccc     H3  19356 0.13386900   1.008000   ; qtot 383.132370
19357         h1    726    ccc     H4  19357 0.10146700   1.008000   ; qtot 383.233837
19358         h2    726    ccc     H5  19358 0.10960400   1.008000   ; qtot 383.343441
19359         os    726    ccc     O1  19359 -0.28650000  16.000000   ; qtot 383.056941
19360         oh    726    ccc     O2  19360 -0.86012500  16.000000   ; qtot 382.196816
19361         oh    726    ccc     O3  19361 -0.83772800  16.000000   ; qtot 381.359088
19362         oh    726    ccc     O4  19362 -0.77449700  16.000000   ; qtot 380.584591
19363         c3    726    ccc     C6  19363 0.37576500  12.010000   ; qtot 380.960356
19364         ho    726    ccc     H6  19364 0.53656000   1.008000   ; qtot 381.496916
19365         ho    726    ccc     H7  19365 0.49492100   1.008000   ; qtot 381.991837
19366         ho    726    ccc     H8  19366 0.51297200   1.008000   ; qtot 382.504809
19367         h1    726    ccc     H9  19367 0.05653400   1.008000   ; qtot 382.561343
19368         h1    726    ccc    H10  19368 0.05653400   1.008000   ; qtot 382.617877
19369         oh    726    ccc     O5  19369 -0.84113600  16.000000   ; qtot 381.776741
19370         ho    726    ccc    H11  19370 0.51201600   1.008000   ; qtot 382.288757
19371         os    726    ccc     O6  19371 -0.26013600  16.000000   ; qtot 382.028621
; residue  727 ccc rtp ccc q 0.0
19372         c3    727    ccc     C1  19372 -0.33178800  12.010000   ; qtot 381.696833
19373         c3    727    ccc     C2  19373 0.30606500  12.010000   ; qtot 382.002898
19374         h1    727    ccc     H1  19374 0.11662300   1.008000   ; qtot 382.119521
19375         h1    727    ccc     H2  19375 0.11526800   1.008000   ; qtot 382.234789
19376         c3    727    ccc     C3  19376 0.15592700  12.010000   ; qtot 382.390716
19377         c3    727    ccc     C4  19377 0.28383300  12.010000   ; qtot 382.674549
19378         c3    727    ccc     C5  19378 0.32403300  12.010000   ; qtot 382.998582
19379         h1    727    ccc     H3  19379 0.13386900   1.008000   ; qtot 383.132451
19380         h1    727    ccc     H4  19380 0.10146700   1.008000   ; qtot 383.233918
19381         h2    727    ccc     H5  19381 0.10960400   1.008000   ; qtot 383.343522
19382         os    727    ccc     O1  19382 -0.28650000  16.000000   ; qtot 383.057022
19383         oh    727    ccc     O2  19383 -0.86012500  16.000000   ; qtot 382.196897
19384         oh    727    ccc     O3  19384 -0.83772800  16.000000   ; qtot 381.359169
19385         oh    727    ccc     O4  19385 -0.77449700  16.000000   ; qtot 380.584672
19386         c3    727    ccc     C6  19386 0.37576500  12.010000   ; qtot 380.960437
19387         ho    727    ccc     H6  19387 0.53656000   1.008000   ; qtot 381.496997
19388         ho    727    ccc     H7  19388 0.49492100   1.008000   ; qtot 381.991918
19389         ho    727    ccc     H8  19389 0.51297200   1.008000   ; qtot 382.504890
19390         h1    727    ccc     H9  19390 0.05653400   1.008000   ; qtot 382.561424
19391         h1    727    ccc    H10  19391 0.05653400   1.008000   ; qtot 382.617958
19392         oh    727    ccc     O5  19392 -0.84113600  16.000000   ; qtot 381.776822
19393         ho    727    ccc    H11  19393 0.51201600   1.008000   ; qtot 382.288838
19394         os    727    ccc     O6  19394 -0.26013600  16.000000   ; qtot 382.028702
; residue  728 ccc rtp ccc q 0.0
19395         c3    728    ccc     C1  19395 -0.33178800  12.010000   ; qtot 381.696914
19396         c3    728    ccc     C2  19396 0.30606500  12.010000   ; qtot 382.002979
19397         h1    728    ccc     H1  19397 0.11662300   1.008000   ; qtot 382.119602
19398         h1    728    ccc     H2  19398 0.11526800   1.008000   ; qtot 382.234870
19399         c3    728    ccc     C3  19399 0.15592700  12.010000   ; qtot 382.390797
19400         c3    728    ccc     C4  19400 0.28383300  12.010000   ; qtot 382.674630
19401         c3    728    ccc     C5  19401 0.32403300  12.010000   ; qtot 382.998663
19402         h1    728    ccc     H3  19402 0.13386900   1.008000   ; qtot 383.132532
19403         h1    728    ccc     H4  19403 0.10146700   1.008000   ; qtot 383.233999
19404         h2    728    ccc     H5  19404 0.10960400   1.008000   ; qtot 383.343603
19405         os    728    ccc     O1  19405 -0.28650000  16.000000   ; qtot 383.057103
19406         oh    728    ccc     O2  19406 -0.86012500  16.000000   ; qtot 382.196978
19407         oh    728    ccc     O3  19407 -0.83772800  16.000000   ; qtot 381.359250
19408         oh    728    ccc     O4  19408 -0.77449700  16.000000   ; qtot 380.584753
19409         c3    728    ccc     C6  19409 0.37576500  12.010000   ; qtot 380.960518
19410         ho    728    ccc     H6  19410 0.53656000   1.008000   ; qtot 381.497078
19411         ho    728    ccc     H7  19411 0.49492100   1.008000   ; qtot 381.991999
19412         ho    728    ccc     H8  19412 0.51297200   1.008000   ; qtot 382.504971
19413         h1    728    ccc     H9  19413 0.05653400   1.008000   ; qtot 382.561505
19414         h1    728    ccc    H10  19414 0.05653400   1.008000   ; qtot 382.618039
19415         oh    728    ccc     O5  19415 -0.84113600  16.000000   ; qtot 381.776903
19416         ho    728    ccc    H11  19416 0.51201600   1.008000   ; qtot 382.288919
19417         os    728    ccc     O6  19417 -0.26013600  16.000000   ; qtot 382.028783
; residue  729 ccc rtp ccc q 0.0
19418         c3    729    ccc     C1  19418 -0.33178800  12.010000   ; qtot 381.696995
19419         c3    729    ccc     C2  19419 0.30606500  12.010000   ; qtot 382.003060
19420         h1    729    ccc     H1  19420 0.11662300   1.008000   ; qtot 382.119683
19421         h1    729    ccc     H2  19421 0.11526800   1.008000   ; qtot 382.234951
19422         c3    729    ccc     C3  19422 0.15592700  12.010000   ; qtot 382.390878
19423         c3    729    ccc     C4  19423 0.28383300  12.010000   ; qtot 382.674711
19424         c3    729    ccc     C5  19424 0.32403300  12.010000   ; qtot 382.998744
19425         h1    729    ccc     H3  19425 0.13386900   1.008000   ; qtot 383.132613
19426         h1    729    ccc     H4  19426 0.10146700   1.008000   ; qtot 383.234080
19427         h2    729    ccc     H5  19427 0.10960400   1.008000   ; qtot 383.343684
19428         os    729    ccc     O1  19428 -0.28650000  16.000000   ; qtot 383.057184
19429         oh    729    ccc     O2  19429 -0.86012500  16.000000   ; qtot 382.197059
19430         oh    729    ccc     O3  19430 -0.83772800  16.000000   ; qtot 381.359331
19431         oh    729    ccc     O4  19431 -0.77449700  16.000000   ; qtot 380.584834
19432         c3    729    ccc     C6  19432 0.37576500  12.010000   ; qtot 380.960599
19433         ho    729    ccc     H6  19433 0.53656000   1.008000   ; qtot 381.497159
19434         ho    729    ccc     H7  19434 0.49492100   1.008000   ; qtot 381.992080
19435         ho    729    ccc     H8  19435 0.51297200   1.008000   ; qtot 382.505052
19436         h1    729    ccc     H9  19436 0.05653400   1.008000   ; qtot 382.561586
19437         h1    729    ccc    H10  19437 0.05653400   1.008000   ; qtot 382.618120
19438         oh    729    ccc     O5  19438 -0.84113600  16.000000   ; qtot 381.776984
19439         ho    729    ccc    H11  19439 0.51201600   1.008000   ; qtot 382.289000
19440         os    729    ccc     O6  19440 -0.26013600  16.000000   ; qtot 382.028864
; residue  730 ccc rtp ccc q 0.0
19441         c3    730    ccc     C1  19441 -0.33178800  12.010000   ; qtot 381.697076
19442         c3    730    ccc     C2  19442 0.30606500  12.010000   ; qtot 382.003141
19443         h1    730    ccc     H1  19443 0.11662300   1.008000   ; qtot 382.119764
19444         h1    730    ccc     H2  19444 0.11526800   1.008000   ; qtot 382.235032
19445         c3    730    ccc     C3  19445 0.15592700  12.010000   ; qtot 382.390959
19446         c3    730    ccc     C4  19446 0.28383300  12.010000   ; qtot 382.674792
19447         c3    730    ccc     C5  19447 0.32403300  12.010000   ; qtot 382.998825
19448         h1    730    ccc     H3  19448 0.13386900   1.008000   ; qtot 383.132694
19449         h1    730    ccc     H4  19449 0.10146700   1.008000   ; qtot 383.234161
19450         h2    730    ccc     H5  19450 0.10960400   1.008000   ; qtot 383.343765
19451         os    730    ccc     O1  19451 -0.28650000  16.000000   ; qtot 383.057265
19452         oh    730    ccc     O2  19452 -0.86012500  16.000000   ; qtot 382.197140
19453         oh    730    ccc     O3  19453 -0.83772800  16.000000   ; qtot 381.359412
19454         oh    730    ccc     O4  19454 -0.77449700  16.000000   ; qtot 380.584915
19455         c3    730    ccc     C6  19455 0.37576500  12.010000   ; qtot 380.960680
19456         ho    730    ccc     H6  19456 0.53656000   1.008000   ; qtot 381.497240
19457         ho    730    ccc     H7  19457 0.49492100   1.008000   ; qtot 381.992161
19458         ho    730    ccc     H8  19458 0.51297200   1.008000   ; qtot 382.505133
19459         h1    730    ccc     H9  19459 0.05653400   1.008000   ; qtot 382.561667
19460         h1    730    ccc    H10  19460 0.05653400   1.008000   ; qtot 382.618201
19461         oh    730    ccc     O5  19461 -0.84113600  16.000000   ; qtot 381.777065
19462         ho    730    ccc    H11  19462 0.51201600   1.008000   ; qtot 382.289081
19463         os    730    ccc     O6  19463 -0.26013600  16.000000   ; qtot 382.028945
; residue  731 ccc rtp ccc q 0.0
19464         c3    731    ccc     C1  19464 -0.33178800  12.010000   ; qtot 381.697157
19465         c3    731    ccc     C2  19465 0.30606500  12.010000   ; qtot 382.003222
19466         h1    731    ccc     H1  19466 0.11662300   1.008000   ; qtot 382.119845
19467         h1    731    ccc     H2  19467 0.11526800   1.008000   ; qtot 382.235113
19468         c3    731    ccc     C3  19468 0.15592700  12.010000   ; qtot 382.391040
19469         c3    731    ccc     C4  19469 0.28383300  12.010000   ; qtot 382.674873
19470         c3    731    ccc     C5  19470 0.32403300  12.010000   ; qtot 382.998906
19471         h1    731    ccc     H3  19471 0.13386900   1.008000   ; qtot 383.132775
19472         h1    731    ccc     H4  19472 0.10146700   1.008000   ; qtot 383.234242
19473         h2    731    ccc     H5  19473 0.10960400   1.008000   ; qtot 383.343846
19474         os    731    ccc     O1  19474 -0.28650000  16.000000   ; qtot 383.057346
19475         oh    731    ccc     O2  19475 -0.86012500  16.000000   ; qtot 382.197221
19476         oh    731    ccc     O3  19476 -0.83772800  16.000000   ; qtot 381.359493
19477         oh    731    ccc     O4  19477 -0.77449700  16.000000   ; qtot 380.584996
19478         c3    731    ccc     C6  19478 0.37576500  12.010000   ; qtot 380.960761
19479         ho    731    ccc     H6  19479 0.53656000   1.008000   ; qtot 381.497321
19480         ho    731    ccc     H7  19480 0.49492100   1.008000   ; qtot 381.992242
19481         ho    731    ccc     H8  19481 0.51297200   1.008000   ; qtot 382.505214
19482         h1    731    ccc     H9  19482 0.05653400   1.008000   ; qtot 382.561748
19483         h1    731    ccc    H10  19483 0.05653400   1.008000   ; qtot 382.618282
19484         oh    731    ccc     O5  19484 -0.84113600  16.000000   ; qtot 381.777146
19485         ho    731    ccc    H11  19485 0.51201600   1.008000   ; qtot 382.289162
19486         os    731    ccc     O6  19486 -0.26013600  16.000000   ; qtot 382.029026
; residue  732 ccc rtp ccc q 0.0
19487         c3    732    ccc     C1  19487 -0.33178800  12.010000   ; qtot 381.697238
19488         c3    732    ccc     C2  19488 0.30606500  12.010000   ; qtot 382.003303
19489         h1    732    ccc     H1  19489 0.11662300   1.008000   ; qtot 382.119926
19490         h1    732    ccc     H2  19490 0.11526800   1.008000   ; qtot 382.235194
19491         c3    732    ccc     C3  19491 0.15592700  12.010000   ; qtot 382.391121
19492         c3    732    ccc     C4  19492 0.28383300  12.010000   ; qtot 382.674954
19493         c3    732    ccc     C5  19493 0.32403300  12.010000   ; qtot 382.998987
19494         h1    732    ccc     H3  19494 0.13386900   1.008000   ; qtot 383.132856
19495         h1    732    ccc     H4  19495 0.10146700   1.008000   ; qtot 383.234323
19496         h2    732    ccc     H5  19496 0.10960400   1.008000   ; qtot 383.343927
19497         os    732    ccc     O1  19497 -0.28650000  16.000000   ; qtot 383.057427
19498         oh    732    ccc     O2  19498 -0.86012500  16.000000   ; qtot 382.197302
19499         oh    732    ccc     O3  19499 -0.83772800  16.000000   ; qtot 381.359574
19500         oh    732    ccc     O4  19500 -0.77449700  16.000000   ; qtot 380.585077
19501         c3    732    ccc     C6  19501 0.37576500  12.010000   ; qtot 380.960842
19502         ho    732    ccc     H6  19502 0.53656000   1.008000   ; qtot 381.497402
19503         ho    732    ccc     H7  19503 0.49492100   1.008000   ; qtot 381.992323
19504         ho    732    ccc     H8  19504 0.51297200   1.008000   ; qtot 382.505295
19505         h1    732    ccc     H9  19505 0.05653400   1.008000   ; qtot 382.561829
19506         h1    732    ccc    H10  19506 0.05653400   1.008000   ; qtot 382.618363
19507         oh    732    ccc     O5  19507 -0.84113600  16.000000   ; qtot 381.777227
19508         ho    732    ccc    H11  19508 0.51201600   1.008000   ; qtot 382.289243
19509         os    732    ccc     O6  19509 -0.26013600  16.000000   ; qtot 382.029107
; residue  733 ccc rtp ccc q 0.0
19510         c3    733    ccc     C1  19510 -0.33178800  12.010000   ; qtot 381.697319
19511         c3    733    ccc     C2  19511 0.30606500  12.010000   ; qtot 382.003384
19512         h1    733    ccc     H1  19512 0.11662300   1.008000   ; qtot 382.120007
19513         h1    733    ccc     H2  19513 0.11526800   1.008000   ; qtot 382.235275
19514         c3    733    ccc     C3  19514 0.15592700  12.010000   ; qtot 382.391202
19515         c3    733    ccc     C4  19515 0.28383300  12.010000   ; qtot 382.675035
19516         c3    733    ccc     C5  19516 0.32403300  12.010000   ; qtot 382.999068
19517         h1    733    ccc     H3  19517 0.13386900   1.008000   ; qtot 383.132937
19518         h1    733    ccc     H4  19518 0.10146700   1.008000   ; qtot 383.234404
19519         h2    733    ccc     H5  19519 0.10960400   1.008000   ; qtot 383.344008
19520         os    733    ccc     O1  19520 -0.28650000  16.000000   ; qtot 383.057508
19521         oh    733    ccc     O2  19521 -0.86012500  16.000000   ; qtot 382.197383
19522         oh    733    ccc     O3  19522 -0.83772800  16.000000   ; qtot 381.359655
19523         oh    733    ccc     O4  19523 -0.77449700  16.000000   ; qtot 380.585158
19524         c3    733    ccc     C6  19524 0.37576500  12.010000   ; qtot 380.960923
19525         ho    733    ccc     H6  19525 0.53656000   1.008000   ; qtot 381.497483
19526         ho    733    ccc     H7  19526 0.49492100   1.008000   ; qtot 381.992404
19527         ho    733    ccc     H8  19527 0.51297200   1.008000   ; qtot 382.505376
19528         h1    733    ccc     H9  19528 0.05653400   1.008000   ; qtot 382.561910
19529         h1    733    ccc    H10  19529 0.05653400   1.008000   ; qtot 382.618444
19530         oh    733    ccc     O5  19530 -0.84113600  16.000000   ; qtot 381.777308
19531         ho    733    ccc    H11  19531 0.51201600   1.008000   ; qtot 382.289324
19532         os    733    ccc     O6  19532 -0.26013600  16.000000   ; qtot 382.029188
; residue  734 ccc rtp ccc q 0.0
19533         c3    734    ccc     C1  19533 -0.33178800  12.010000   ; qtot 381.697400
19534         c3    734    ccc     C2  19534 0.30606500  12.010000   ; qtot 382.003465
19535         h1    734    ccc     H1  19535 0.11662300   1.008000   ; qtot 382.120088
19536         h1    734    ccc     H2  19536 0.11526800   1.008000   ; qtot 382.235356
19537         c3    734    ccc     C3  19537 0.15592700  12.010000   ; qtot 382.391283
19538         c3    734    ccc     C4  19538 0.28383300  12.010000   ; qtot 382.675116
19539         c3    734    ccc     C5  19539 0.32403300  12.010000   ; qtot 382.999149
19540         h1    734    ccc     H3  19540 0.13386900   1.008000   ; qtot 383.133018
19541         h1    734    ccc     H4  19541 0.10146700   1.008000   ; qtot 383.234485
19542         h2    734    ccc     H5  19542 0.10960400   1.008000   ; qtot 383.344089
19543         os    734    ccc     O1  19543 -0.28650000  16.000000   ; qtot 383.057589
19544         oh    734    ccc     O2  19544 -0.86012500  16.000000   ; qtot 382.197464
19545         oh    734    ccc     O3  19545 -0.83772800  16.000000   ; qtot 381.359736
19546         oh    734    ccc     O4  19546 -0.77449700  16.000000   ; qtot 380.585239
19547         c3    734    ccc     C6  19547 0.37576500  12.010000   ; qtot 380.961004
19548         ho    734    ccc     H6  19548 0.53656000   1.008000   ; qtot 381.497564
19549         ho    734    ccc     H7  19549 0.49492100   1.008000   ; qtot 381.992485
19550         ho    734    ccc     H8  19550 0.51297200   1.008000   ; qtot 382.505457
19551         h1    734    ccc     H9  19551 0.05653400   1.008000   ; qtot 382.561991
19552         h1    734    ccc    H10  19552 0.05653400   1.008000   ; qtot 382.618525
19553         oh    734    ccc     O5  19553 -0.84113600  16.000000   ; qtot 381.777389
19554         ho    734    ccc    H11  19554 0.51201600   1.008000   ; qtot 382.289405
19555         os    734    ccc     O6  19555 -0.26013600  16.000000   ; qtot 382.029269
; residue  735 ccc rtp ccc q 0.0
19556         c3    735    ccc     C1  19556 -0.33178800  12.010000   ; qtot 381.697481
19557         c3    735    ccc     C2  19557 0.30606500  12.010000   ; qtot 382.003546
19558         h1    735    ccc     H1  19558 0.11662300   1.008000   ; qtot 382.120169
19559         h1    735    ccc     H2  19559 0.11526800   1.008000   ; qtot 382.235437
19560         c3    735    ccc     C3  19560 0.15592700  12.010000   ; qtot 382.391364
19561         c3    735    ccc     C4  19561 0.28383300  12.010000   ; qtot 382.675197
19562         c3    735    ccc     C5  19562 0.32403300  12.010000   ; qtot 382.999230
19563         h1    735    ccc     H3  19563 0.13386900   1.008000   ; qtot 383.133099
19564         h1    735    ccc     H4  19564 0.10146700   1.008000   ; qtot 383.234566
19565         h2    735    ccc     H5  19565 0.10960400   1.008000   ; qtot 383.344170
19566         os    735    ccc     O1  19566 -0.28650000  16.000000   ; qtot 383.057670
19567         oh    735    ccc     O2  19567 -0.86012500  16.000000   ; qtot 382.197545
19568         oh    735    ccc     O3  19568 -0.83772800  16.000000   ; qtot 381.359817
19569         oh    735    ccc     O4  19569 -0.77449700  16.000000   ; qtot 380.585320
19570         c3    735    ccc     C6  19570 0.37576500  12.010000   ; qtot 380.961085
19571         ho    735    ccc     H6  19571 0.53656000   1.008000   ; qtot 381.497645
19572         ho    735    ccc     H7  19572 0.49492100   1.008000   ; qtot 381.992566
19573         ho    735    ccc     H8  19573 0.51297200   1.008000   ; qtot 382.505538
19574         h1    735    ccc     H9  19574 0.05653400   1.008000   ; qtot 382.562072
19575         h1    735    ccc    H10  19575 0.05653400   1.008000   ; qtot 382.618606
19576         oh    735    ccc     O5  19576 -0.84113600  16.000000   ; qtot 381.777470
19577         ho    735    ccc    H11  19577 0.51201600   1.008000   ; qtot 382.289486
19578         os    735    ccc     O6  19578 -0.26013600  16.000000   ; qtot 382.029350
; residue  736 ccc rtp ccc q 0.0
19579         c3    736    ccc     C1  19579 -0.33178800  12.010000   ; qtot 381.697562
19580         c3    736    ccc     C2  19580 0.30606500  12.010000   ; qtot 382.003627
19581         h1    736    ccc     H1  19581 0.11662300   1.008000   ; qtot 382.120250
19582         h1    736    ccc     H2  19582 0.11526800   1.008000   ; qtot 382.235518
19583         c3    736    ccc     C3  19583 0.15592700  12.010000   ; qtot 382.391445
19584         c3    736    ccc     C4  19584 0.28383300  12.010000   ; qtot 382.675278
19585         c3    736    ccc     C5  19585 0.32403300  12.010000   ; qtot 382.999311
19586         h1    736    ccc     H3  19586 0.13386900   1.008000   ; qtot 383.133180
19587         h1    736    ccc     H4  19587 0.10146700   1.008000   ; qtot 383.234647
19588         h2    736    ccc     H5  19588 0.10960400   1.008000   ; qtot 383.344251
19589         os    736    ccc     O1  19589 -0.28650000  16.000000   ; qtot 383.057751
19590         oh    736    ccc     O2  19590 -0.86012500  16.000000   ; qtot 382.197626
19591         oh    736    ccc     O3  19591 -0.83772800  16.000000   ; qtot 381.359898
19592         oh    736    ccc     O4  19592 -0.77449700  16.000000   ; qtot 380.585401
19593         c3    736    ccc     C6  19593 0.37576500  12.010000   ; qtot 380.961166
19594         ho    736    ccc     H6  19594 0.53656000   1.008000   ; qtot 381.497726
19595         ho    736    ccc     H7  19595 0.49492100   1.008000   ; qtot 381.992647
19596         ho    736    ccc     H8  19596 0.51297200   1.008000   ; qtot 382.505619
19597         h1    736    ccc     H9  19597 0.05653400   1.008000   ; qtot 382.562153
19598         h1    736    ccc    H10  19598 0.05653400   1.008000   ; qtot 382.618687
19599         oh    736    ccc     O5  19599 -0.84113600  16.000000   ; qtot 381.777551
19600         ho    736    ccc    H11  19600 0.51201600   1.008000   ; qtot 382.289567
19601         os    736    ccc     O6  19601 -0.26013600  16.000000   ; qtot 382.029431
; residue  737 ccc rtp ccc q 0.0
19602         c3    737    ccc     C1  19602 -0.33178800  12.010000   ; qtot 381.697643
19603         c3    737    ccc     C2  19603 0.30606500  12.010000   ; qtot 382.003708
19604         h1    737    ccc     H1  19604 0.11662300   1.008000   ; qtot 382.120331
19605         h1    737    ccc     H2  19605 0.11526800   1.008000   ; qtot 382.235599
19606         c3    737    ccc     C3  19606 0.15592700  12.010000   ; qtot 382.391526
19607         c3    737    ccc     C4  19607 0.28383300  12.010000   ; qtot 382.675359
19608         c3    737    ccc     C5  19608 0.32403300  12.010000   ; qtot 382.999392
19609         h1    737    ccc     H3  19609 0.13386900   1.008000   ; qtot 383.133261
19610         h1    737    ccc     H4  19610 0.10146700   1.008000   ; qtot 383.234728
19611         h2    737    ccc     H5  19611 0.10960400   1.008000   ; qtot 383.344332
19612         os    737    ccc     O1  19612 -0.28650000  16.000000   ; qtot 383.057832
19613         oh    737    ccc     O2  19613 -0.86012500  16.000000   ; qtot 382.197707
19614         oh    737    ccc     O3  19614 -0.83772800  16.000000   ; qtot 381.359979
19615         oh    737    ccc     O4  19615 -0.77449700  16.000000   ; qtot 380.585482
19616         c3    737    ccc     C6  19616 0.37576500  12.010000   ; qtot 380.961247
19617         ho    737    ccc     H6  19617 0.53656000   1.008000   ; qtot 381.497807
19618         ho    737    ccc     H7  19618 0.49492100   1.008000   ; qtot 381.992728
19619         ho    737    ccc     H8  19619 0.51297200   1.008000   ; qtot 382.505700
19620         h1    737    ccc     H9  19620 0.05653400   1.008000   ; qtot 382.562234
19621         h1    737    ccc    H10  19621 0.05653400   1.008000   ; qtot 382.618768
19622         oh    737    ccc     O5  19622 -0.84113600  16.000000   ; qtot 381.777632
19623         ho    737    ccc    H11  19623 0.51201600   1.008000   ; qtot 382.289648
19624         os    737    ccc     O6  19624 -0.26013600  16.000000   ; qtot 382.029512
; residue  738 ccc rtp ccc q 0.0
19625         c3    738    ccc     C1  19625 -0.33178800  12.010000   ; qtot 381.697724
19626         c3    738    ccc     C2  19626 0.30606500  12.010000   ; qtot 382.003789
19627         h1    738    ccc     H1  19627 0.11662300   1.008000   ; qtot 382.120412
19628         h1    738    ccc     H2  19628 0.11526800   1.008000   ; qtot 382.235680
19629         c3    738    ccc     C3  19629 0.15592700  12.010000   ; qtot 382.391607
19630         c3    738    ccc     C4  19630 0.28383300  12.010000   ; qtot 382.675440
19631         c3    738    ccc     C5  19631 0.32403300  12.010000   ; qtot 382.999473
19632         h1    738    ccc     H3  19632 0.13386900   1.008000   ; qtot 383.133342
19633         h1    738    ccc     H4  19633 0.10146700   1.008000   ; qtot 383.234809
19634         h2    738    ccc     H5  19634 0.10960400   1.008000   ; qtot 383.344413
19635         os    738    ccc     O1  19635 -0.28650000  16.000000   ; qtot 383.057913
19636         oh    738    ccc     O2  19636 -0.86012500  16.000000   ; qtot 382.197788
19637         oh    738    ccc     O3  19637 -0.83772800  16.000000   ; qtot 381.360060
19638         oh    738    ccc     O4  19638 -0.77449700  16.000000   ; qtot 380.585563
19639         c3    738    ccc     C6  19639 0.37576500  12.010000   ; qtot 380.961328
19640         ho    738    ccc     H6  19640 0.53656000   1.008000   ; qtot 381.497888
19641         ho    738    ccc     H7  19641 0.49492100   1.008000   ; qtot 381.992809
19642         ho    738    ccc     H8  19642 0.51297200   1.008000   ; qtot 382.505781
19643         h1    738    ccc     H9  19643 0.05653400   1.008000   ; qtot 382.562315
19644         h1    738    ccc    H10  19644 0.05653400   1.008000   ; qtot 382.618849
19645         oh    738    ccc     O5  19645 -0.84113600  16.000000   ; qtot 381.777713
19646         ho    738    ccc    H11  19646 0.51201600   1.008000   ; qtot 382.289729
19647         os    738    ccc     O6  19647 -0.26013600  16.000000   ; qtot 382.029593
; residue  739 ccc rtp ccc q 0.0
19648         c3    739    ccc     C1  19648 -0.33178800  12.010000   ; qtot 381.697805
19649         c3    739    ccc     C2  19649 0.30606500  12.010000   ; qtot 382.003870
19650         h1    739    ccc     H1  19650 0.11662300   1.008000   ; qtot 382.120493
19651         h1    739    ccc     H2  19651 0.11526800   1.008000   ; qtot 382.235761
19652         c3    739    ccc     C3  19652 0.15592700  12.010000   ; qtot 382.391688
19653         c3    739    ccc     C4  19653 0.28383300  12.010000   ; qtot 382.675521
19654         c3    739    ccc     C5  19654 0.32403300  12.010000   ; qtot 382.999554
19655         h1    739    ccc     H3  19655 0.13386900   1.008000   ; qtot 383.133423
19656         h1    739    ccc     H4  19656 0.10146700   1.008000   ; qtot 383.234890
19657         h2    739    ccc     H5  19657 0.10960400   1.008000   ; qtot 383.344494
19658         os    739    ccc     O1  19658 -0.28650000  16.000000   ; qtot 383.057994
19659         oh    739    ccc     O2  19659 -0.86012500  16.000000   ; qtot 382.197869
19660         oh    739    ccc     O3  19660 -0.83772800  16.000000   ; qtot 381.360141
19661         oh    739    ccc     O4  19661 -0.77449700  16.000000   ; qtot 380.585644
19662         c3    739    ccc     C6  19662 0.37576500  12.010000   ; qtot 380.961409
19663         ho    739    ccc     H6  19663 0.53656000   1.008000   ; qtot 381.497969
19664         ho    739    ccc     H7  19664 0.49492100   1.008000   ; qtot 381.992890
19665         ho    739    ccc     H8  19665 0.51297200   1.008000   ; qtot 382.505862
19666         h1    739    ccc     H9  19666 0.05653400   1.008000   ; qtot 382.562396
19667         h1    739    ccc    H10  19667 0.05653400   1.008000   ; qtot 382.618930
19668         oh    739    ccc     O5  19668 -0.84113600  16.000000   ; qtot 381.777794
19669         ho    739    ccc    H11  19669 0.51201600   1.008000   ; qtot 382.289810
19670         os    739    ccc     O6  19670 -0.26013600  16.000000   ; qtot 382.029674
; residue  740 ccc rtp ccc q 0.0
19671         c3    740    ccc     C1  19671 -0.33178800  12.010000   ; qtot 381.697886
19672         c3    740    ccc     C2  19672 0.30606500  12.010000   ; qtot 382.003951
19673         h1    740    ccc     H1  19673 0.11662300   1.008000   ; qtot 382.120574
19674         h1    740    ccc     H2  19674 0.11526800   1.008000   ; qtot 382.235842
19675         c3    740    ccc     C3  19675 0.15592700  12.010000   ; qtot 382.391769
19676         c3    740    ccc     C4  19676 0.28383300  12.010000   ; qtot 382.675602
19677         c3    740    ccc     C5  19677 0.32403300  12.010000   ; qtot 382.999635
19678         h1    740    ccc     H3  19678 0.13386900   1.008000   ; qtot 383.133504
19679         h1    740    ccc     H4  19679 0.10146700   1.008000   ; qtot 383.234971
19680         h2    740    ccc     H5  19680 0.10960400   1.008000   ; qtot 383.344575
19681         os    740    ccc     O1  19681 -0.28650000  16.000000   ; qtot 383.058075
19682         oh    740    ccc     O2  19682 -0.86012500  16.000000   ; qtot 382.197950
19683         oh    740    ccc     O3  19683 -0.83772800  16.000000   ; qtot 381.360222
19684         oh    740    ccc     O4  19684 -0.77449700  16.000000   ; qtot 380.585725
19685         c3    740    ccc     C6  19685 0.37576500  12.010000   ; qtot 380.961490
19686         ho    740    ccc     H6  19686 0.53656000   1.008000   ; qtot 381.498050
19687         ho    740    ccc     H7  19687 0.49492100   1.008000   ; qtot 381.992971
19688         ho    740    ccc     H8  19688 0.51297200   1.008000   ; qtot 382.505943
19689         h1    740    ccc     H9  19689 0.05653400   1.008000   ; qtot 382.562477
19690         h1    740    ccc    H10  19690 0.05653400   1.008000   ; qtot 382.619011
19691         oh    740    ccc     O5  19691 -0.84113600  16.000000   ; qtot 381.777875
19692         ho    740    ccc    H11  19692 0.51201600   1.008000   ; qtot 382.289891
19693         os    740    ccc     O6  19693 -0.26013600  16.000000   ; qtot 382.029755
; residue  741 ccc rtp ccc q 0.0
19694         c3    741    ccc     C1  19694 -0.33178800  12.010000   ; qtot 381.697967
19695         c3    741    ccc     C2  19695 0.30606500  12.010000   ; qtot 382.004032
19696         h1    741    ccc     H1  19696 0.11662300   1.008000   ; qtot 382.120655
19697         h1    741    ccc     H2  19697 0.11526800   1.008000   ; qtot 382.235923
19698         c3    741    ccc     C3  19698 0.15592700  12.010000   ; qtot 382.391850
19699         c3    741    ccc     C4  19699 0.28383300  12.010000   ; qtot 382.675683
19700         c3    741    ccc     C5  19700 0.32403300  12.010000   ; qtot 382.999716
19701         h1    741    ccc     H3  19701 0.13386900   1.008000   ; qtot 383.133585
19702         h1    741    ccc     H4  19702 0.10146700   1.008000   ; qtot 383.235052
19703         h2    741    ccc     H5  19703 0.10960400   1.008000   ; qtot 383.344656
19704         os    741    ccc     O1  19704 -0.28650000  16.000000   ; qtot 383.058156
19705         oh    741    ccc     O2  19705 -0.86012500  16.000000   ; qtot 382.198031
19706         oh    741    ccc     O3  19706 -0.83772800  16.000000   ; qtot 381.360303
19707         oh    741    ccc     O4  19707 -0.77449700  16.000000   ; qtot 380.585806
19708         c3    741    ccc     C6  19708 0.37576500  12.010000   ; qtot 380.961571
19709         ho    741    ccc     H6  19709 0.53656000   1.008000   ; qtot 381.498131
19710         ho    741    ccc     H7  19710 0.49492100   1.008000   ; qtot 381.993052
19711         ho    741    ccc     H8  19711 0.51297200   1.008000   ; qtot 382.506024
19712         h1    741    ccc     H9  19712 0.05653400   1.008000   ; qtot 382.562558
19713         h1    741    ccc    H10  19713 0.05653400   1.008000   ; qtot 382.619092
19714         oh    741    ccc     O5  19714 -0.84113600  16.000000   ; qtot 381.777956
19715         ho    741    ccc    H11  19715 0.51201600   1.008000   ; qtot 382.289972
19716         os    741    ccc     O6  19716 -0.26013600  16.000000   ; qtot 382.029836
; residue  742 ccc rtp ccc q 0.0
19717         c3    742    ccc     C1  19717 -0.33178800  12.010000   ; qtot 381.698048
19718         c3    742    ccc     C2  19718 0.30606500  12.010000   ; qtot 382.004113
19719         h1    742    ccc     H1  19719 0.11662300   1.008000   ; qtot 382.120736
19720         h1    742    ccc     H2  19720 0.11526800   1.008000   ; qtot 382.236004
19721         c3    742    ccc     C3  19721 0.15592700  12.010000   ; qtot 382.391931
19722         c3    742    ccc     C4  19722 0.28383300  12.010000   ; qtot 382.675764
19723         c3    742    ccc     C5  19723 0.32403300  12.010000   ; qtot 382.999797
19724         h1    742    ccc     H3  19724 0.13386900   1.008000   ; qtot 383.133666
19725         h1    742    ccc     H4  19725 0.10146700   1.008000   ; qtot 383.235133
19726         h2    742    ccc     H5  19726 0.10960400   1.008000   ; qtot 383.344737
19727         os    742    ccc     O1  19727 -0.28650000  16.000000   ; qtot 383.058237
19728         oh    742    ccc     O2  19728 -0.86012500  16.000000   ; qtot 382.198112
19729         oh    742    ccc     O3  19729 -0.83772800  16.000000   ; qtot 381.360384
19730         oh    742    ccc     O4  19730 -0.77449700  16.000000   ; qtot 380.585887
19731         c3    742    ccc     C6  19731 0.37576500  12.010000   ; qtot 380.961652
19732         ho    742    ccc     H6  19732 0.53656000   1.008000   ; qtot 381.498212
19733         ho    742    ccc     H7  19733 0.49492100   1.008000   ; qtot 381.993133
19734         ho    742    ccc     H8  19734 0.51297200   1.008000   ; qtot 382.506105
19735         h1    742    ccc     H9  19735 0.05653400   1.008000   ; qtot 382.562639
19736         h1    742    ccc    H10  19736 0.05653400   1.008000   ; qtot 382.619173
19737         oh    742    ccc     O5  19737 -0.84113600  16.000000   ; qtot 381.778037
19738         ho    742    ccc    H11  19738 0.51201600   1.008000   ; qtot 382.290053
19739         os    742    ccc     O6  19739 -0.26013600  16.000000   ; qtot 382.029917
; residue  743 ccc rtp ccc q 0.0
19740         c3    743    ccc     C1  19740 -0.33178800  12.010000   ; qtot 381.698129
19741         c3    743    ccc     C2  19741 0.30606500  12.010000   ; qtot 382.004194
19742         h1    743    ccc     H1  19742 0.11662300   1.008000   ; qtot 382.120817
19743         h1    743    ccc     H2  19743 0.11526800   1.008000   ; qtot 382.236085
19744         c3    743    ccc     C3  19744 0.15592700  12.010000   ; qtot 382.392012
19745         c3    743    ccc     C4  19745 0.28383300  12.010000   ; qtot 382.675845
19746         c3    743    ccc     C5  19746 0.32403300  12.010000   ; qtot 382.999878
19747         h1    743    ccc     H3  19747 0.13386900   1.008000   ; qtot 383.133747
19748         h1    743    ccc     H4  19748 0.10146700   1.008000   ; qtot 383.235214
19749         h2    743    ccc     H5  19749 0.10960400   1.008000   ; qtot 383.344818
19750         os    743    ccc     O1  19750 -0.28650000  16.000000   ; qtot 383.058318
19751         oh    743    ccc     O2  19751 -0.86012500  16.000000   ; qtot 382.198193
19752         oh    743    ccc     O3  19752 -0.83772800  16.000000   ; qtot 381.360465
19753         oh    743    ccc     O4  19753 -0.77449700  16.000000   ; qtot 380.585968
19754         c3    743    ccc     C6  19754 0.37576500  12.010000   ; qtot 380.961733
19755         ho    743    ccc     H6  19755 0.53656000   1.008000   ; qtot 381.498293
19756         ho    743    ccc     H7  19756 0.49492100   1.008000   ; qtot 381.993214
19757         ho    743    ccc     H8  19757 0.51297200   1.008000   ; qtot 382.506186
19758         h1    743    ccc     H9  19758 0.05653400   1.008000   ; qtot 382.562720
19759         h1    743    ccc    H10  19759 0.05653400   1.008000   ; qtot 382.619254
19760         oh    743    ccc     O5  19760 -0.84113600  16.000000   ; qtot 381.778118
19761         ho    743    ccc    H11  19761 0.51201600   1.008000   ; qtot 382.290134
19762         os    743    ccc     O6  19762 -0.26013600  16.000000   ; qtot 382.029998
; residue  744 ccc rtp ccc q 0.0
19763         c3    744    ccc     C1  19763 -0.33178800  12.010000   ; qtot 381.698210
19764         c3    744    ccc     C2  19764 0.30606500  12.010000   ; qtot 382.004275
19765         h1    744    ccc     H1  19765 0.11662300   1.008000   ; qtot 382.120898
19766         h1    744    ccc     H2  19766 0.11526800   1.008000   ; qtot 382.236166
19767         c3    744    ccc     C3  19767 0.15592700  12.010000   ; qtot 382.392093
19768         c3    744    ccc     C4  19768 0.28383300  12.010000   ; qtot 382.675926
19769         c3    744    ccc     C5  19769 0.32403300  12.010000   ; qtot 382.999959
19770         h1    744    ccc     H3  19770 0.13386900   1.008000   ; qtot 383.133828
19771         h1    744    ccc     H4  19771 0.10146700   1.008000   ; qtot 383.235295
19772         h2    744    ccc     H5  19772 0.10960400   1.008000   ; qtot 383.344899
19773         os    744    ccc     O1  19773 -0.28650000  16.000000   ; qtot 383.058399
19774         oh    744    ccc     O2  19774 -0.86012500  16.000000   ; qtot 382.198274
19775         oh    744    ccc     O3  19775 -0.83772800  16.000000   ; qtot 381.360546
19776         oh    744    ccc     O4  19776 -0.77449700  16.000000   ; qtot 380.586049
19777         c3    744    ccc     C6  19777 0.37576500  12.010000   ; qtot 380.961814
19778         ho    744    ccc     H6  19778 0.53656000   1.008000   ; qtot 381.498374
19779         ho    744    ccc     H7  19779 0.49492100   1.008000   ; qtot 381.993295
19780         ho    744    ccc     H8  19780 0.51297200   1.008000   ; qtot 382.506267
19781         h1    744    ccc     H9  19781 0.05653400   1.008000   ; qtot 382.562801
19782         h1    744    ccc    H10  19782 0.05653400   1.008000   ; qtot 382.619335
19783         oh    744    ccc     O5  19783 -0.84113600  16.000000   ; qtot 381.778199
19784         ho    744    ccc    H11  19784 0.51201600   1.008000   ; qtot 382.290215
19785         os    744    ccc     O6  19785 -0.26013600  16.000000   ; qtot 382.030079
; residue  745 ccc rtp ccc q 0.0
19786         c3    745    ccc     C1  19786 -0.33178800  12.010000   ; qtot 381.698291
19787         c3    745    ccc     C2  19787 0.30606500  12.010000   ; qtot 382.004356
19788         h1    745    ccc     H1  19788 0.11662300   1.008000   ; qtot 382.120979
19789         h1    745    ccc     H2  19789 0.11526800   1.008000   ; qtot 382.236247
19790         c3    745    ccc     C3  19790 0.15592700  12.010000   ; qtot 382.392174
19791         c3    745    ccc     C4  19791 0.28383300  12.010000   ; qtot 382.676007
19792         c3    745    ccc     C5  19792 0.32403300  12.010000   ; qtot 383.000040
19793         h1    745    ccc     H3  19793 0.13386900   1.008000   ; qtot 383.133909
19794         h1    745    ccc     H4  19794 0.10146700   1.008000   ; qtot 383.235376
19795         h2    745    ccc     H5  19795 0.10960400   1.008000   ; qtot 383.344980
19796         os    745    ccc     O1  19796 -0.28650000  16.000000   ; qtot 383.058480
19797         oh    745    ccc     O2  19797 -0.86012500  16.000000   ; qtot 382.198355
19798         oh    745    ccc     O3  19798 -0.83772800  16.000000   ; qtot 381.360627
19799         oh    745    ccc     O4  19799 -0.77449700  16.000000   ; qtot 380.586130
19800         c3    745    ccc     C6  19800 0.37576500  12.010000   ; qtot 380.961895
19801         ho    745    ccc     H6  19801 0.53656000   1.008000   ; qtot 381.498455
19802         ho    745    ccc     H7  19802 0.49492100   1.008000   ; qtot 381.993376
19803         ho    745    ccc     H8  19803 0.51297200   1.008000   ; qtot 382.506348
19804         h1    745    ccc     H9  19804 0.05653400   1.008000   ; qtot 382.562882
19805         h1    745    ccc    H10  19805 0.05653400   1.008000   ; qtot 382.619416
19806         oh    745    ccc     O5  19806 -0.84113600  16.000000   ; qtot 381.778280
19807         ho    745    ccc    H11  19807 0.51201600   1.008000   ; qtot 382.290296
19808         os    745    ccc     O6  19808 -0.26013600  16.000000   ; qtot 382.030160
; residue  746 ccc rtp ccc q 0.0
19809         c3    746    ccc     C1  19809 -0.33178800  12.010000   ; qtot 381.698372
19810         c3    746    ccc     C2  19810 0.30606500  12.010000   ; qtot 382.004437
19811         h1    746    ccc     H1  19811 0.11662300   1.008000   ; qtot 382.121060
19812         h1    746    ccc     H2  19812 0.11526800   1.008000   ; qtot 382.236328
19813         c3    746    ccc     C3  19813 0.15592700  12.010000   ; qtot 382.392255
19814         c3    746    ccc     C4  19814 0.28383300  12.010000   ; qtot 382.676088
19815         c3    746    ccc     C5  19815 0.32403300  12.010000   ; qtot 383.000121
19816         h1    746    ccc     H3  19816 0.13386900   1.008000   ; qtot 383.133990
19817         h1    746    ccc     H4  19817 0.10146700   1.008000   ; qtot 383.235457
19818         h2    746    ccc     H5  19818 0.10960400   1.008000   ; qtot 383.345061
19819         os    746    ccc     O1  19819 -0.28650000  16.000000   ; qtot 383.058561
19820         oh    746    ccc     O2  19820 -0.86012500  16.000000   ; qtot 382.198436
19821         oh    746    ccc     O3  19821 -0.83772800  16.000000   ; qtot 381.360708
19822         oh    746    ccc     O4  19822 -0.77449700  16.000000   ; qtot 380.586211
19823         c3    746    ccc     C6  19823 0.37576500  12.010000   ; qtot 380.961976
19824         ho    746    ccc     H6  19824 0.53656000   1.008000   ; qtot 381.498536
19825         ho    746    ccc     H7  19825 0.49492100   1.008000   ; qtot 381.993457
19826         ho    746    ccc     H8  19826 0.51297200   1.008000   ; qtot 382.506429
19827         h1    746    ccc     H9  19827 0.05653400   1.008000   ; qtot 382.562963
19828         h1    746    ccc    H10  19828 0.05653400   1.008000   ; qtot 382.619497
19829         oh    746    ccc     O5  19829 -0.84113600  16.000000   ; qtot 381.778361
19830         ho    746    ccc    H11  19830 0.51201600   1.008000   ; qtot 382.290377
19831         os    746    ccc     O6  19831 -0.26013600  16.000000   ; qtot 382.030241
; residue  747 ccc rtp ccc q 0.0
19832         c3    747    ccc     C1  19832 -0.33178800  12.010000   ; qtot 381.698453
19833         c3    747    ccc     C2  19833 0.30606500  12.010000   ; qtot 382.004518
19834         h1    747    ccc     H1  19834 0.11662300   1.008000   ; qtot 382.121141
19835         h1    747    ccc     H2  19835 0.11526800   1.008000   ; qtot 382.236409
19836         c3    747    ccc     C3  19836 0.15592700  12.010000   ; qtot 382.392336
19837         c3    747    ccc     C4  19837 0.28383300  12.010000   ; qtot 382.676169
19838         c3    747    ccc     C5  19838 0.32403300  12.010000   ; qtot 383.000202
19839         h1    747    ccc     H3  19839 0.13386900   1.008000   ; qtot 383.134071
19840         h1    747    ccc     H4  19840 0.10146700   1.008000   ; qtot 383.235538
19841         h2    747    ccc     H5  19841 0.10960400   1.008000   ; qtot 383.345142
19842         os    747    ccc     O1  19842 -0.28650000  16.000000   ; qtot 383.058642
19843         oh    747    ccc     O2  19843 -0.86012500  16.000000   ; qtot 382.198517
19844         oh    747    ccc     O3  19844 -0.83772800  16.000000   ; qtot 381.360789
19845         oh    747    ccc     O4  19845 -0.77449700  16.000000   ; qtot 380.586292
19846         c3    747    ccc     C6  19846 0.37576500  12.010000   ; qtot 380.962057
19847         ho    747    ccc     H6  19847 0.53656000   1.008000   ; qtot 381.498617
19848         ho    747    ccc     H7  19848 0.49492100   1.008000   ; qtot 381.993538
19849         ho    747    ccc     H8  19849 0.51297200   1.008000   ; qtot 382.506510
19850         h1    747    ccc     H9  19850 0.05653400   1.008000   ; qtot 382.563044
19851         h1    747    ccc    H10  19851 0.05653400   1.008000   ; qtot 382.619578
19852         oh    747    ccc     O5  19852 -0.84113600  16.000000   ; qtot 381.778442
19853         ho    747    ccc    H11  19853 0.51201600   1.008000   ; qtot 382.290458
19854         os    747    ccc     O6  19854 -0.26013600  16.000000   ; qtot 382.030322
; residue  748 ccc rtp ccc q 0.0
19855         c3    748    ccc     C1  19855 -0.33178800  12.010000   ; qtot 381.698534
19856         c3    748    ccc     C2  19856 0.30606500  12.010000   ; qtot 382.004599
19857         h1    748    ccc     H1  19857 0.11662300   1.008000   ; qtot 382.121222
19858         h1    748    ccc     H2  19858 0.11526800   1.008000   ; qtot 382.236490
19859         c3    748    ccc     C3  19859 0.15592700  12.010000   ; qtot 382.392417
19860         c3    748    ccc     C4  19860 0.28383300  12.010000   ; qtot 382.676250
19861         c3    748    ccc     C5  19861 0.32403300  12.010000   ; qtot 383.000283
19862         h1    748    ccc     H3  19862 0.13386900   1.008000   ; qtot 383.134152
19863         h1    748    ccc     H4  19863 0.10146700   1.008000   ; qtot 383.235619
19864         h2    748    ccc     H5  19864 0.10960400   1.008000   ; qtot 383.345223
19865         os    748    ccc     O1  19865 -0.28650000  16.000000   ; qtot 383.058723
19866         oh    748    ccc     O2  19866 -0.86012500  16.000000   ; qtot 382.198598
19867         oh    748    ccc     O3  19867 -0.83772800  16.000000   ; qtot 381.360870
19868         oh    748    ccc     O4  19868 -0.77449700  16.000000   ; qtot 380.586373
19869         c3    748    ccc     C6  19869 0.37576500  12.010000   ; qtot 380.962138
19870         ho    748    ccc     H6  19870 0.53656000   1.008000   ; qtot 381.498698
19871         ho    748    ccc     H7  19871 0.49492100   1.008000   ; qtot 381.993619
19872         ho    748    ccc     H8  19872 0.51297200   1.008000   ; qtot 382.506591
19873         h1    748    ccc     H9  19873 0.05653400   1.008000   ; qtot 382.563125
19874         h1    748    ccc    H10  19874 0.05653400   1.008000   ; qtot 382.619659
19875         oh    748    ccc     O5  19875 -0.84113600  16.000000   ; qtot 381.778523
19876         ho    748    ccc    H11  19876 0.51201600   1.008000   ; qtot 382.290539
19877         os    748    ccc     O6  19877 -0.26013600  16.000000   ; qtot 382.030403
; residue  749 ccc rtp ccc q 0.0
19878         c3    749    ccc     C1  19878 -0.33178800  12.010000   ; qtot 381.698615
19879         c3    749    ccc     C2  19879 0.30606500  12.010000   ; qtot 382.004680
19880         h1    749    ccc     H1  19880 0.11662300   1.008000   ; qtot 382.121303
19881         h1    749    ccc     H2  19881 0.11526800   1.008000   ; qtot 382.236571
19882         c3    749    ccc     C3  19882 0.15592700  12.010000   ; qtot 382.392498
19883         c3    749    ccc     C4  19883 0.28383300  12.010000   ; qtot 382.676331
19884         c3    749    ccc     C5  19884 0.32403300  12.010000   ; qtot 383.000364
19885         h1    749    ccc     H3  19885 0.13386900   1.008000   ; qtot 383.134233
19886         h1    749    ccc     H4  19886 0.10146700   1.008000   ; qtot 383.235700
19887         h2    749    ccc     H5  19887 0.10960400   1.008000   ; qtot 383.345304
19888         os    749    ccc     O1  19888 -0.28650000  16.000000   ; qtot 383.058804
19889         oh    749    ccc     O2  19889 -0.86012500  16.000000   ; qtot 382.198679
19890         oh    749    ccc     O3  19890 -0.83772800  16.000000   ; qtot 381.360951
19891         oh    749    ccc     O4  19891 -0.77449700  16.000000   ; qtot 380.586454
19892         c3    749    ccc     C6  19892 0.37576500  12.010000   ; qtot 380.962219
19893         ho    749    ccc     H6  19893 0.53656000   1.008000   ; qtot 381.498779
19894         ho    749    ccc     H7  19894 0.49492100   1.008000   ; qtot 381.993700
19895         ho    749    ccc     H8  19895 0.51297200   1.008000   ; qtot 382.506672
19896         h1    749    ccc     H9  19896 0.05653400   1.008000   ; qtot 382.563206
19897         h1    749    ccc    H10  19897 0.05653400   1.008000   ; qtot 382.619740
19898         oh    749    ccc     O5  19898 -0.84113600  16.000000   ; qtot 381.778604
19899         ho    749    ccc    H11  19899 0.51201600   1.008000   ; qtot 382.290620
19900         os    749    ccc     O6  19900 -0.26013600  16.000000   ; qtot 382.030484
; residue  750 ccc rtp ccc q 0.0
19901         c3    750    ccc     C1  19901 -0.33178800  12.010000   ; qtot 381.698696
19902         c3    750    ccc     C2  19902 0.30606500  12.010000   ; qtot 382.004761
19903         h1    750    ccc     H1  19903 0.11662300   1.008000   ; qtot 382.121384
19904         h1    750    ccc     H2  19904 0.11526800   1.008000   ; qtot 382.236652
19905         c3    750    ccc     C3  19905 0.15592700  12.010000   ; qtot 382.392579
19906         c3    750    ccc     C4  19906 0.28383300  12.010000   ; qtot 382.676412
19907         c3    750    ccc     C5  19907 0.32403300  12.010000   ; qtot 383.000445
19908         h1    750    ccc     H3  19908 0.13386900   1.008000   ; qtot 383.134314
19909         h1    750    ccc     H4  19909 0.10146700   1.008000   ; qtot 383.235781
19910         h2    750    ccc     H5  19910 0.10960400   1.008000   ; qtot 383.345385
19911         os    750    ccc     O1  19911 -0.28650000  16.000000   ; qtot 383.058885
19912         oh    750    ccc     O2  19912 -0.86012500  16.000000   ; qtot 382.198760
19913         oh    750    ccc     O3  19913 -0.83772800  16.000000   ; qtot 381.361032
19914         oh    750    ccc     O4  19914 -0.77449700  16.000000   ; qtot 380.586535
19915         c3    750    ccc     C6  19915 0.37576500  12.010000   ; qtot 380.962300
19916         ho    750    ccc     H6  19916 0.53656000   1.008000   ; qtot 381.498860
19917         ho    750    ccc     H7  19917 0.49492100   1.008000   ; qtot 381.993781
19918         ho    750    ccc     H8  19918 0.51297200   1.008000   ; qtot 382.506753
19919         h1    750    ccc     H9  19919 0.05653400   1.008000   ; qtot 382.563287
19920         h1    750    ccc    H10  19920 0.05653400   1.008000   ; qtot 382.619821
19921         oh    750    ccc     O5  19921 -0.84113600  16.000000   ; qtot 381.778685
19922         ho    750    ccc    H11  19922 0.51201600   1.008000   ; qtot 382.290701
19923         os    750    ccc     O6  19923 -0.26013600  16.000000   ; qtot 382.030565
; residue  751 ccc rtp ccc q 0.0
19924         c3    751    ccc     C1  19924 -0.33178800  12.010000   ; qtot 381.698777
19925         c3    751    ccc     C2  19925 0.30606500  12.010000   ; qtot 382.004842
19926         h1    751    ccc     H1  19926 0.11662300   1.008000   ; qtot 382.121465
19927         h1    751    ccc     H2  19927 0.11526800   1.008000   ; qtot 382.236733
19928         c3    751    ccc     C3  19928 0.15592700  12.010000   ; qtot 382.392660
19929         c3    751    ccc     C4  19929 0.28383300  12.010000   ; qtot 382.676493
19930         c3    751    ccc     C5  19930 0.32403300  12.010000   ; qtot 383.000526
19931         h1    751    ccc     H3  19931 0.13386900   1.008000   ; qtot 383.134395
19932         h1    751    ccc     H4  19932 0.10146700   1.008000   ; qtot 383.235862
19933         h2    751    ccc     H5  19933 0.10960400   1.008000   ; qtot 383.345466
19934         os    751    ccc     O1  19934 -0.28650000  16.000000   ; qtot 383.058966
19935         oh    751    ccc     O2  19935 -0.86012500  16.000000   ; qtot 382.198841
19936         oh    751    ccc     O3  19936 -0.83772800  16.000000   ; qtot 381.361113
19937         oh    751    ccc     O4  19937 -0.77449700  16.000000   ; qtot 380.586616
19938         c3    751    ccc     C6  19938 0.37576500  12.010000   ; qtot 380.962381
19939         ho    751    ccc     H6  19939 0.53656000   1.008000   ; qtot 381.498941
19940         ho    751    ccc     H7  19940 0.49492100   1.008000   ; qtot 381.993862
19941         ho    751    ccc     H8  19941 0.51297200   1.008000   ; qtot 382.506834
19942         h1    751    ccc     H9  19942 0.05653400   1.008000   ; qtot 382.563368
19943         h1    751    ccc    H10  19943 0.05653400   1.008000   ; qtot 382.619902
19944         oh    751    ccc     O5  19944 -0.84113600  16.000000   ; qtot 381.778766
19945         ho    751    ccc    H11  19945 0.51201600   1.008000   ; qtot 382.290782
19946         os    751    ccc     O6  19946 -0.26013600  16.000000   ; qtot 382.030646
; residue  752 ccc rtp ccc q 0.0
19947         c3    752    ccc     C1  19947 -0.33178800  12.010000   ; qtot 381.698858
19948         c3    752    ccc     C2  19948 0.30606500  12.010000   ; qtot 382.004923
19949         h1    752    ccc     H1  19949 0.11662300   1.008000   ; qtot 382.121546
19950         h1    752    ccc     H2  19950 0.11526800   1.008000   ; qtot 382.236814
19951         c3    752    ccc     C3  19951 0.15592700  12.010000   ; qtot 382.392741
19952         c3    752    ccc     C4  19952 0.28383300  12.010000   ; qtot 382.676574
19953         c3    752    ccc     C5  19953 0.32403300  12.010000   ; qtot 383.000607
19954         h1    752    ccc     H3  19954 0.13386900   1.008000   ; qtot 383.134476
19955         h1    752    ccc     H4  19955 0.10146700   1.008000   ; qtot 383.235943
19956         h2    752    ccc     H5  19956 0.10960400   1.008000   ; qtot 383.345547
19957         os    752    ccc     O1  19957 -0.28650000  16.000000   ; qtot 383.059047
19958         oh    752    ccc     O2  19958 -0.86012500  16.000000   ; qtot 382.198922
19959         oh    752    ccc     O3  19959 -0.83772800  16.000000   ; qtot 381.361194
19960         oh    752    ccc     O4  19960 -0.77449700  16.000000   ; qtot 380.586697
19961         c3    752    ccc     C6  19961 0.37576500  12.010000   ; qtot 380.962462
19962         ho    752    ccc     H6  19962 0.53656000   1.008000   ; qtot 381.499022
19963         ho    752    ccc     H7  19963 0.49492100   1.008000   ; qtot 381.993943
19964         ho    752    ccc     H8  19964 0.51297200   1.008000   ; qtot 382.506915
19965         h1    752    ccc     H9  19965 0.05653400   1.008000   ; qtot 382.563449
19966         h1    752    ccc    H10  19966 0.05653400   1.008000   ; qtot 382.619983
19967         oh    752    ccc     O5  19967 -0.84113600  16.000000   ; qtot 381.778847
19968         ho    752    ccc    H11  19968 0.51201600   1.008000   ; qtot 382.290863
19969         os    752    ccc     O6  19969 -0.26013600  16.000000   ; qtot 382.030727
; residue  753 ccc rtp ccc q 0.0
19970         c3    753    ccc     C1  19970 -0.33178800  12.010000   ; qtot 381.698939
19971         c3    753    ccc     C2  19971 0.30606500  12.010000   ; qtot 382.005004
19972         h1    753    ccc     H1  19972 0.11662300   1.008000   ; qtot 382.121627
19973         h1    753    ccc     H2  19973 0.11526800   1.008000   ; qtot 382.236895
19974         c3    753    ccc     C3  19974 0.15592700  12.010000   ; qtot 382.392822
19975         c3    753    ccc     C4  19975 0.28383300  12.010000   ; qtot 382.676655
19976         c3    753    ccc     C5  19976 0.32403300  12.010000   ; qtot 383.000688
19977         h1    753    ccc     H3  19977 0.13386900   1.008000   ; qtot 383.134557
19978         h1    753    ccc     H4  19978 0.10146700   1.008000   ; qtot 383.236024
19979         h2    753    ccc     H5  19979 0.10960400   1.008000   ; qtot 383.345628
19980         os    753    ccc     O1  19980 -0.28650000  16.000000   ; qtot 383.059128
19981         oh    753    ccc     O2  19981 -0.86012500  16.000000   ; qtot 382.199003
19982         oh    753    ccc     O3  19982 -0.83772800  16.000000   ; qtot 381.361275
19983         oh    753    ccc     O4  19983 -0.77449700  16.000000   ; qtot 380.586778
19984         c3    753    ccc     C6  19984 0.37576500  12.010000   ; qtot 380.962543
19985         ho    753    ccc     H6  19985 0.53656000   1.008000   ; qtot 381.499103
19986         ho    753    ccc     H7  19986 0.49492100   1.008000   ; qtot 381.994024
19987         ho    753    ccc     H8  19987 0.51297200   1.008000   ; qtot 382.506996
19988         h1    753    ccc     H9  19988 0.05653400   1.008000   ; qtot 382.563530
19989         h1    753    ccc    H10  19989 0.05653400   1.008000   ; qtot 382.620064
19990         oh    753    ccc     O5  19990 -0.84113600  16.000000   ; qtot 381.778928
19991         ho    753    ccc    H11  19991 0.51201600   1.008000   ; qtot 382.290944
19992         os    753    ccc     O6  19992 -0.26013600  16.000000   ; qtot 382.030808
; residue  754 ccc rtp ccc q 0.0
19993         c3    754    ccc     C1  19993 -0.33178800  12.010000   ; qtot 381.699020
19994         c3    754    ccc     C2  19994 0.30606500  12.010000   ; qtot 382.005085
19995         h1    754    ccc     H1  19995 0.11662300   1.008000   ; qtot 382.121708
19996         h1    754    ccc     H2  19996 0.11526800   1.008000   ; qtot 382.236976
19997         c3    754    ccc     C3  19997 0.15592700  12.010000   ; qtot 382.392903
19998         c3    754    ccc     C4  19998 0.28383300  12.010000   ; qtot 382.676736
19999         c3    754    ccc     C5  19999 0.32403300  12.010000   ; qtot 383.000769
20000         h1    754    ccc     H3  20000 0.13386900   1.008000   ; qtot 383.134638
20001         h1    754    ccc     H4  20001 0.10146700   1.008000   ; qtot 383.236105
20002         h2    754    ccc     H5  20002 0.10960400   1.008000   ; qtot 383.345709
20003         os    754    ccc     O1  20003 -0.28650000  16.000000   ; qtot 383.059209
20004         oh    754    ccc     O2  20004 -0.86012500  16.000000   ; qtot 382.199084
20005         oh    754    ccc     O3  20005 -0.83772800  16.000000   ; qtot 381.361356
20006         oh    754    ccc     O4  20006 -0.77449700  16.000000   ; qtot 380.586859
20007         c3    754    ccc     C6  20007 0.37576500  12.010000   ; qtot 380.962624
20008         ho    754    ccc     H6  20008 0.53656000   1.008000   ; qtot 381.499184
20009         ho    754    ccc     H7  20009 0.49492100   1.008000   ; qtot 381.994105
20010         ho    754    ccc     H8  20010 0.51297200   1.008000   ; qtot 382.507077
20011         h1    754    ccc     H9  20011 0.05653400   1.008000   ; qtot 382.563611
20012         h1    754    ccc    H10  20012 0.05653400   1.008000   ; qtot 382.620145
20013         oh    754    ccc     O5  20013 -0.84113600  16.000000   ; qtot 381.779009
20014         ho    754    ccc    H11  20014 0.51201600   1.008000   ; qtot 382.291025
20015         os    754    ccc     O6  20015 -0.26013600  16.000000   ; qtot 382.030889
; residue  755 ccc rtp ccc q 0.0
20016         c3    755    ccc     C1  20016 -0.33178800  12.010000   ; qtot 381.699101
20017         c3    755    ccc     C2  20017 0.30606500  12.010000   ; qtot 382.005166
20018         h1    755    ccc     H1  20018 0.11662300   1.008000   ; qtot 382.121789
20019         h1    755    ccc     H2  20019 0.11526800   1.008000   ; qtot 382.237057
20020         c3    755    ccc     C3  20020 0.15592700  12.010000   ; qtot 382.392984
20021         c3    755    ccc     C4  20021 0.28383300  12.010000   ; qtot 382.676817
20022         c3    755    ccc     C5  20022 0.32403300  12.010000   ; qtot 383.000850
20023         h1    755    ccc     H3  20023 0.13386900   1.008000   ; qtot 383.134719
20024         h1    755    ccc     H4  20024 0.10146700   1.008000   ; qtot 383.236186
20025         h2    755    ccc     H5  20025 0.10960400   1.008000   ; qtot 383.345790
20026         os    755    ccc     O1  20026 -0.28650000  16.000000   ; qtot 383.059290
20027         oh    755    ccc     O2  20027 -0.86012500  16.000000   ; qtot 382.199165
20028         oh    755    ccc     O3  20028 -0.83772800  16.000000   ; qtot 381.361437
20029         oh    755    ccc     O4  20029 -0.77449700  16.000000   ; qtot 380.586940
20030         c3    755    ccc     C6  20030 0.37576500  12.010000   ; qtot 380.962705
20031         ho    755    ccc     H6  20031 0.53656000   1.008000   ; qtot 381.499265
20032         ho    755    ccc     H7  20032 0.49492100   1.008000   ; qtot 381.994186
20033         ho    755    ccc     H8  20033 0.51297200   1.008000   ; qtot 382.507158
20034         h1    755    ccc     H9  20034 0.05653400   1.008000   ; qtot 382.563692
20035         h1    755    ccc    H10  20035 0.05653400   1.008000   ; qtot 382.620226
20036         oh    755    ccc     O5  20036 -0.84113600  16.000000   ; qtot 381.779090
20037         ho    755    ccc    H11  20037 0.51201600   1.008000   ; qtot 382.291106
20038         os    755    ccc     O6  20038 -0.26013600  16.000000   ; qtot 382.030970
; residue  756 ccc rtp ccc q 0.0
20039         c3    756    ccc     C1  20039 -0.33178800  12.010000   ; qtot 381.699182
20040         c3    756    ccc     C2  20040 0.30606500  12.010000   ; qtot 382.005247
20041         h1    756    ccc     H1  20041 0.11662300   1.008000   ; qtot 382.121870
20042         h1    756    ccc     H2  20042 0.11526800   1.008000   ; qtot 382.237138
20043         c3    756    ccc     C3  20043 0.15592700  12.010000   ; qtot 382.393065
20044         c3    756    ccc     C4  20044 0.28383300  12.010000   ; qtot 382.676898
20045         c3    756    ccc     C5  20045 0.32403300  12.010000   ; qtot 383.000931
20046         h1    756    ccc     H3  20046 0.13386900   1.008000   ; qtot 383.134800
20047         h1    756    ccc     H4  20047 0.10146700   1.008000   ; qtot 383.236267
20048         h2    756    ccc     H5  20048 0.10960400   1.008000   ; qtot 383.345871
20049         os    756    ccc     O1  20049 -0.28650000  16.000000   ; qtot 383.059371
20050         oh    756    ccc     O2  20050 -0.86012500  16.000000   ; qtot 382.199246
20051         oh    756    ccc     O3  20051 -0.83772800  16.000000   ; qtot 381.361518
20052         oh    756    ccc     O4  20052 -0.77449700  16.000000   ; qtot 380.587021
20053         c3    756    ccc     C6  20053 0.37576500  12.010000   ; qtot 380.962786
20054         ho    756    ccc     H6  20054 0.53656000   1.008000   ; qtot 381.499346
20055         ho    756    ccc     H7  20055 0.49492100   1.008000   ; qtot 381.994267
20056         ho    756    ccc     H8  20056 0.51297200   1.008000   ; qtot 382.507239
20057         h1    756    ccc     H9  20057 0.05653400   1.008000   ; qtot 382.563773
20058         h1    756    ccc    H10  20058 0.05653400   1.008000   ; qtot 382.620307
20059         oh    756    ccc     O5  20059 -0.84113600  16.000000   ; qtot 381.779171
20060         ho    756    ccc    H11  20060 0.51201600   1.008000   ; qtot 382.291187
20061         os    756    ccc     O6  20061 -0.26013600  16.000000   ; qtot 382.031051
; residue  757 ccc rtp ccc q 0.0
20062         c3    757    ccc     C1  20062 -0.33178800  12.010000   ; qtot 381.699263
20063         c3    757    ccc     C2  20063 0.30606500  12.010000   ; qtot 382.005328
20064         h1    757    ccc     H1  20064 0.11662300   1.008000   ; qtot 382.121951
20065         h1    757    ccc     H2  20065 0.11526800   1.008000   ; qtot 382.237219
20066         c3    757    ccc     C3  20066 0.15592700  12.010000   ; qtot 382.393146
20067         c3    757    ccc     C4  20067 0.28383300  12.010000   ; qtot 382.676979
20068         c3    757    ccc     C5  20068 0.32403300  12.010000   ; qtot 383.001012
20069         h1    757    ccc     H3  20069 0.13386900   1.008000   ; qtot 383.134881
20070         h1    757    ccc     H4  20070 0.10146700   1.008000   ; qtot 383.236348
20071         h2    757    ccc     H5  20071 0.10960400   1.008000   ; qtot 383.345952
20072         os    757    ccc     O1  20072 -0.28650000  16.000000   ; qtot 383.059452
20073         oh    757    ccc     O2  20073 -0.86012500  16.000000   ; qtot 382.199327
20074         oh    757    ccc     O3  20074 -0.83772800  16.000000   ; qtot 381.361599
20075         oh    757    ccc     O4  20075 -0.77449700  16.000000   ; qtot 380.587102
20076         c3    757    ccc     C6  20076 0.37576500  12.010000   ; qtot 380.962867
20077         ho    757    ccc     H6  20077 0.53656000   1.008000   ; qtot 381.499427
20078         ho    757    ccc     H7  20078 0.49492100   1.008000   ; qtot 381.994348
20079         ho    757    ccc     H8  20079 0.51297200   1.008000   ; qtot 382.507320
20080         h1    757    ccc     H9  20080 0.05653400   1.008000   ; qtot 382.563854
20081         h1    757    ccc    H10  20081 0.05653400   1.008000   ; qtot 382.620388
20082         oh    757    ccc     O5  20082 -0.84113600  16.000000   ; qtot 381.779252
20083         ho    757    ccc    H11  20083 0.51201600   1.008000   ; qtot 382.291268
20084         os    757    ccc     O6  20084 -0.26013600  16.000000   ; qtot 382.031132
; residue  758 ccc rtp ccc q 0.0
20085         c3    758    ccc     C1  20085 -0.33178800  12.010000   ; qtot 381.699344
20086         c3    758    ccc     C2  20086 0.30606500  12.010000   ; qtot 382.005409
20087         h1    758    ccc     H1  20087 0.11662300   1.008000   ; qtot 382.122032
20088         h1    758    ccc     H2  20088 0.11526800   1.008000   ; qtot 382.237300
20089         c3    758    ccc     C3  20089 0.15592700  12.010000   ; qtot 382.393227
20090         c3    758    ccc     C4  20090 0.28383300  12.010000   ; qtot 382.677060
20091         c3    758    ccc     C5  20091 0.32403300  12.010000   ; qtot 383.001093
20092         h1    758    ccc     H3  20092 0.13386900   1.008000   ; qtot 383.134962
20093         h1    758    ccc     H4  20093 0.10146700   1.008000   ; qtot 383.236429
20094         h2    758    ccc     H5  20094 0.10960400   1.008000   ; qtot 383.346033
20095         os    758    ccc     O1  20095 -0.28650000  16.000000   ; qtot 383.059533
20096         oh    758    ccc     O2  20096 -0.86012500  16.000000   ; qtot 382.199408
20097         oh    758    ccc     O3  20097 -0.83772800  16.000000   ; qtot 381.361680
20098         oh    758    ccc     O4  20098 -0.77449700  16.000000   ; qtot 380.587183
20099         c3    758    ccc     C6  20099 0.37576500  12.010000   ; qtot 380.962948
20100         ho    758    ccc     H6  20100 0.53656000   1.008000   ; qtot 381.499508
20101         ho    758    ccc     H7  20101 0.49492100   1.008000   ; qtot 381.994429
20102         ho    758    ccc     H8  20102 0.51297200   1.008000   ; qtot 382.507401
20103         h1    758    ccc     H9  20103 0.05653400   1.008000   ; qtot 382.563935
20104         h1    758    ccc    H10  20104 0.05653400   1.008000   ; qtot 382.620469
20105         oh    758    ccc     O5  20105 -0.84113600  16.000000   ; qtot 381.779333
20106         ho    758    ccc    H11  20106 0.51201600   1.008000   ; qtot 382.291349
20107         os    758    ccc     O6  20107 -0.26013600  16.000000   ; qtot 382.031213
; residue  759 ccc rtp ccc q 0.0
20108         c3    759    ccc     C1  20108 -0.33178800  12.010000   ; qtot 381.699425
20109         c3    759    ccc     C2  20109 0.30606500  12.010000   ; qtot 382.005490
20110         h1    759    ccc     H1  20110 0.11662300   1.008000   ; qtot 382.122113
20111         h1    759    ccc     H2  20111 0.11526800   1.008000   ; qtot 382.237381
20112         c3    759    ccc     C3  20112 0.15592700  12.010000   ; qtot 382.393308
20113         c3    759    ccc     C4  20113 0.28383300  12.010000   ; qtot 382.677141
20114         c3    759    ccc     C5  20114 0.32403300  12.010000   ; qtot 383.001174
20115         h1    759    ccc     H3  20115 0.13386900   1.008000   ; qtot 383.135043
20116         h1    759    ccc     H4  20116 0.10146700   1.008000   ; qtot 383.236510
20117         h2    759    ccc     H5  20117 0.10960400   1.008000   ; qtot 383.346114
20118         os    759    ccc     O1  20118 -0.28650000  16.000000   ; qtot 383.059614
20119         oh    759    ccc     O2  20119 -0.86012500  16.000000   ; qtot 382.199489
20120         oh    759    ccc     O3  20120 -0.83772800  16.000000   ; qtot 381.361761
20121         oh    759    ccc     O4  20121 -0.77449700  16.000000   ; qtot 380.587264
20122         c3    759    ccc     C6  20122 0.37576500  12.010000   ; qtot 380.963029
20123         ho    759    ccc     H6  20123 0.53656000   1.008000   ; qtot 381.499589
20124         ho    759    ccc     H7  20124 0.49492100   1.008000   ; qtot 381.994510
20125         ho    759    ccc     H8  20125 0.51297200   1.008000   ; qtot 382.507482
20126         h1    759    ccc     H9  20126 0.05653400   1.008000   ; qtot 382.564016
20127         h1    759    ccc    H10  20127 0.05653400   1.008000   ; qtot 382.620550
20128         oh    759    ccc     O5  20128 -0.84113600  16.000000   ; qtot 381.779414
20129         ho    759    ccc    H11  20129 0.51201600   1.008000   ; qtot 382.291430
20130         os    759    ccc     O6  20130 -0.26013600  16.000000   ; qtot 382.031294
; residue  760 ccc rtp ccc q 0.0
20131         c3    760    ccc     C1  20131 -0.33178800  12.010000   ; qtot 381.699506
20132         c3    760    ccc     C2  20132 0.30606500  12.010000   ; qtot 382.005571
20133         h1    760    ccc     H1  20133 0.11662300   1.008000   ; qtot 382.122194
20134         h1    760    ccc     H2  20134 0.11526800   1.008000   ; qtot 382.237462
20135         c3    760    ccc     C3  20135 0.15592700  12.010000   ; qtot 382.393389
20136         c3    760    ccc     C4  20136 0.28383300  12.010000   ; qtot 382.677222
20137         c3    760    ccc     C5  20137 0.32403300  12.010000   ; qtot 383.001255
20138         h1    760    ccc     H3  20138 0.13386900   1.008000   ; qtot 383.135124
20139         h1    760    ccc     H4  20139 0.10146700   1.008000   ; qtot 383.236591
20140         h2    760    ccc     H5  20140 0.10960400   1.008000   ; qtot 383.346195
20141         os    760    ccc     O1  20141 -0.28650000  16.000000   ; qtot 383.059695
20142         oh    760    ccc     O2  20142 -0.86012500  16.000000   ; qtot 382.199570
20143         oh    760    ccc     O3  20143 -0.83772800  16.000000   ; qtot 381.361842
20144         oh    760    ccc     O4  20144 -0.77449700  16.000000   ; qtot 380.587345
20145         c3    760    ccc     C6  20145 0.37576500  12.010000   ; qtot 380.963110
20146         ho    760    ccc     H6  20146 0.53656000   1.008000   ; qtot 381.499670
20147         ho    760    ccc     H7  20147 0.49492100   1.008000   ; qtot 381.994591
20148         ho    760    ccc     H8  20148 0.51297200   1.008000   ; qtot 382.507563
20149         h1    760    ccc     H9  20149 0.05653400   1.008000   ; qtot 382.564097
20150         h1    760    ccc    H10  20150 0.05653400   1.008000   ; qtot 382.620631
20151         oh    760    ccc     O5  20151 -0.84113600  16.000000   ; qtot 381.779495
20152         ho    760    ccc    H11  20152 0.51201600   1.008000   ; qtot 382.291511
20153         os    760    ccc     O6  20153 -0.26013600  16.000000   ; qtot 382.031375
; residue  761 ccc rtp ccc q 0.0
20154         c3    761    ccc     C1  20154 -0.33178800  12.010000   ; qtot 381.699587
20155         c3    761    ccc     C2  20155 0.30606500  12.010000   ; qtot 382.005652
20156         h1    761    ccc     H1  20156 0.11662300   1.008000   ; qtot 382.122275
20157         h1    761    ccc     H2  20157 0.11526800   1.008000   ; qtot 382.237543
20158         c3    761    ccc     C3  20158 0.15592700  12.010000   ; qtot 382.393470
20159         c3    761    ccc     C4  20159 0.28383300  12.010000   ; qtot 382.677303
20160         c3    761    ccc     C5  20160 0.32403300  12.010000   ; qtot 383.001336
20161         h1    761    ccc     H3  20161 0.13386900   1.008000   ; qtot 383.135205
20162         h1    761    ccc     H4  20162 0.10146700   1.008000   ; qtot 383.236672
20163         h2    761    ccc     H5  20163 0.10960400   1.008000   ; qtot 383.346276
20164         os    761    ccc     O1  20164 -0.28650000  16.000000   ; qtot 383.059776
20165         oh    761    ccc     O2  20165 -0.86012500  16.000000   ; qtot 382.199651
20166         oh    761    ccc     O3  20166 -0.83772800  16.000000   ; qtot 381.361923
20167         oh    761    ccc     O4  20167 -0.77449700  16.000000   ; qtot 380.587426
20168         c3    761    ccc     C6  20168 0.37576500  12.010000   ; qtot 380.963191
20169         ho    761    ccc     H6  20169 0.53656000   1.008000   ; qtot 381.499751
20170         ho    761    ccc     H7  20170 0.49492100   1.008000   ; qtot 381.994672
20171         ho    761    ccc     H8  20171 0.51297200   1.008000   ; qtot 382.507644
20172         h1    761    ccc     H9  20172 0.05653400   1.008000   ; qtot 382.564178
20173         h1    761    ccc    H10  20173 0.05653400   1.008000   ; qtot 382.620712
20174         oh    761    ccc     O5  20174 -0.84113600  16.000000   ; qtot 381.779576
20175         ho    761    ccc    H11  20175 0.51201600   1.008000   ; qtot 382.291592
20176         os    761    ccc     O6  20176 -0.26013600  16.000000   ; qtot 382.031456
; residue  762 ccc rtp ccc q 0.0
20177         c3    762    ccc     C1  20177 -0.33178800  12.010000   ; qtot 381.699668
20178         c3    762    ccc     C2  20178 0.30606500  12.010000   ; qtot 382.005733
20179         h1    762    ccc     H1  20179 0.11662300   1.008000   ; qtot 382.122356
20180         h1    762    ccc     H2  20180 0.11526800   1.008000   ; qtot 382.237624
20181         c3    762    ccc     C3  20181 0.15592700  12.010000   ; qtot 382.393551
20182         c3    762    ccc     C4  20182 0.28383300  12.010000   ; qtot 382.677384
20183         c3    762    ccc     C5  20183 0.32403300  12.010000   ; qtot 383.001417
20184         h1    762    ccc     H3  20184 0.13386900   1.008000   ; qtot 383.135286
20185         h1    762    ccc     H4  20185 0.10146700   1.008000   ; qtot 383.236753
20186         h2    762    ccc     H5  20186 0.10960400   1.008000   ; qtot 383.346357
20187         os    762    ccc     O1  20187 -0.28650000  16.000000   ; qtot 383.059857
20188         oh    762    ccc     O2  20188 -0.86012500  16.000000   ; qtot 382.199732
20189         oh    762    ccc     O3  20189 -0.83772800  16.000000   ; qtot 381.362004
20190         oh    762    ccc     O4  20190 -0.77449700  16.000000   ; qtot 380.587507
20191         c3    762    ccc     C6  20191 0.37576500  12.010000   ; qtot 380.963272
20192         ho    762    ccc     H6  20192 0.53656000   1.008000   ; qtot 381.499832
20193         ho    762    ccc     H7  20193 0.49492100   1.008000   ; qtot 381.994753
20194         ho    762    ccc     H8  20194 0.51297200   1.008000   ; qtot 382.507725
20195         h1    762    ccc     H9  20195 0.05653400   1.008000   ; qtot 382.564259
20196         h1    762    ccc    H10  20196 0.05653400   1.008000   ; qtot 382.620793
20197         oh    762    ccc     O5  20197 -0.84113600  16.000000   ; qtot 381.779657
20198         ho    762    ccc    H11  20198 0.51201600   1.008000   ; qtot 382.291673
20199         os    762    ccc     O6  20199 -0.26013600  16.000000   ; qtot 382.031537
; residue  763 ccc rtp ccc q 0.0
20200         c3    763    ccc     C1  20200 -0.33178800  12.010000   ; qtot 381.699749
20201         c3    763    ccc     C2  20201 0.30606500  12.010000   ; qtot 382.005814
20202         h1    763    ccc     H1  20202 0.11662300   1.008000   ; qtot 382.122437
20203         h1    763    ccc     H2  20203 0.11526800   1.008000   ; qtot 382.237705
20204         c3    763    ccc     C3  20204 0.15592700  12.010000   ; qtot 382.393632
20205         c3    763    ccc     C4  20205 0.28383300  12.010000   ; qtot 382.677465
20206         c3    763    ccc     C5  20206 0.32403300  12.010000   ; qtot 383.001498
20207         h1    763    ccc     H3  20207 0.13386900   1.008000   ; qtot 383.135367
20208         h1    763    ccc     H4  20208 0.10146700   1.008000   ; qtot 383.236834
20209         h2    763    ccc     H5  20209 0.10960400   1.008000   ; qtot 383.346438
20210         os    763    ccc     O1  20210 -0.28650000  16.000000   ; qtot 383.059938
20211         oh    763    ccc     O2  20211 -0.86012500  16.000000   ; qtot 382.199813
20212         oh    763    ccc     O3  20212 -0.83772800  16.000000   ; qtot 381.362085
20213         oh    763    ccc     O4  20213 -0.77449700  16.000000   ; qtot 380.587588
20214         c3    763    ccc     C6  20214 0.37576500  12.010000   ; qtot 380.963353
20215         ho    763    ccc     H6  20215 0.53656000   1.008000   ; qtot 381.499913
20216         ho    763    ccc     H7  20216 0.49492100   1.008000   ; qtot 381.994834
20217         ho    763    ccc     H8  20217 0.51297200   1.008000   ; qtot 382.507806
20218         h1    763    ccc     H9  20218 0.05653400   1.008000   ; qtot 382.564340
20219         h1    763    ccc    H10  20219 0.05653400   1.008000   ; qtot 382.620874
20220         oh    763    ccc     O5  20220 -0.84113600  16.000000   ; qtot 381.779738
20221         ho    763    ccc    H11  20221 0.51201600   1.008000   ; qtot 382.291754
20222         os    763    ccc     O6  20222 -0.26013600  16.000000   ; qtot 382.031618
; residue  764 ccc rtp ccc q 0.0
20223         c3    764    ccc     C1  20223 -0.33178800  12.010000   ; qtot 381.699830
20224         c3    764    ccc     C2  20224 0.30606500  12.010000   ; qtot 382.005895
20225         h1    764    ccc     H1  20225 0.11662300   1.008000   ; qtot 382.122518
20226         h1    764    ccc     H2  20226 0.11526800   1.008000   ; qtot 382.237786
20227         c3    764    ccc     C3  20227 0.15592700  12.010000   ; qtot 382.393713
20228         c3    764    ccc     C4  20228 0.28383300  12.010000   ; qtot 382.677546
20229         c3    764    ccc     C5  20229 0.32403300  12.010000   ; qtot 383.001579
20230         h1    764    ccc     H3  20230 0.13386900   1.008000   ; qtot 383.135448
20231         h1    764    ccc     H4  20231 0.10146700   1.008000   ; qtot 383.236915
20232         h2    764    ccc     H5  20232 0.10960400   1.008000   ; qtot 383.346519
20233         os    764    ccc     O1  20233 -0.28650000  16.000000   ; qtot 383.060019
20234         oh    764    ccc     O2  20234 -0.86012500  16.000000   ; qtot 382.199894
20235         oh    764    ccc     O3  20235 -0.83772800  16.000000   ; qtot 381.362166
20236         oh    764    ccc     O4  20236 -0.77449700  16.000000   ; qtot 380.587669
20237         c3    764    ccc     C6  20237 0.37576500  12.010000   ; qtot 380.963434
20238         ho    764    ccc     H6  20238 0.53656000   1.008000   ; qtot 381.499994
20239         ho    764    ccc     H7  20239 0.49492100   1.008000   ; qtot 381.994915
20240         ho    764    ccc     H8  20240 0.51297200   1.008000   ; qtot 382.507887
20241         h1    764    ccc     H9  20241 0.05653400   1.008000   ; qtot 382.564421
20242         h1    764    ccc    H10  20242 0.05653400   1.008000   ; qtot 382.620955
20243         oh    764    ccc     O5  20243 -0.84113600  16.000000   ; qtot 381.779819
20244         ho    764    ccc    H11  20244 0.51201600   1.008000   ; qtot 382.291835
20245         os    764    ccc     O6  20245 -0.26013600  16.000000   ; qtot 382.031699
; residue  765 ccc rtp ccc q 0.0
20246         c3    765    ccc     C1  20246 -0.33178800  12.010000   ; qtot 381.699911
20247         c3    765    ccc     C2  20247 0.30606500  12.010000   ; qtot 382.005976
20248         h1    765    ccc     H1  20248 0.11662300   1.008000   ; qtot 382.122599
20249         h1    765    ccc     H2  20249 0.11526800   1.008000   ; qtot 382.237867
20250         c3    765    ccc     C3  20250 0.15592700  12.010000   ; qtot 382.393794
20251         c3    765    ccc     C4  20251 0.28383300  12.010000   ; qtot 382.677627
20252         c3    765    ccc     C5  20252 0.32403300  12.010000   ; qtot 383.001660
20253         h1    765    ccc     H3  20253 0.13386900   1.008000   ; qtot 383.135529
20254         h1    765    ccc     H4  20254 0.10146700   1.008000   ; qtot 383.236996
20255         h2    765    ccc     H5  20255 0.10960400   1.008000   ; qtot 383.346600
20256         os    765    ccc     O1  20256 -0.28650000  16.000000   ; qtot 383.060100
20257         oh    765    ccc     O2  20257 -0.86012500  16.000000   ; qtot 382.199975
20258         oh    765    ccc     O3  20258 -0.83772800  16.000000   ; qtot 381.362247
20259         oh    765    ccc     O4  20259 -0.77449700  16.000000   ; qtot 380.587750
20260         c3    765    ccc     C6  20260 0.37576500  12.010000   ; qtot 380.963515
20261         ho    765    ccc     H6  20261 0.53656000   1.008000   ; qtot 381.500075
20262         ho    765    ccc     H7  20262 0.49492100   1.008000   ; qtot 381.994996
20263         ho    765    ccc     H8  20263 0.51297200   1.008000   ; qtot 382.507968
20264         h1    765    ccc     H9  20264 0.05653400   1.008000   ; qtot 382.564502
20265         h1    765    ccc    H10  20265 0.05653400   1.008000   ; qtot 382.621036
20266         oh    765    ccc     O5  20266 -0.84113600  16.000000   ; qtot 381.779900
20267         ho    765    ccc    H11  20267 0.51201600   1.008000   ; qtot 382.291916
20268         os    765    ccc     O6  20268 -0.26013600  16.000000   ; qtot 382.031780
; residue  766 ccc rtp ccc q 0.0
20269         c3    766    ccc     C1  20269 -0.33178800  12.010000   ; qtot 381.699992
20270         c3    766    ccc     C2  20270 0.30606500  12.010000   ; qtot 382.006057
20271         h1    766    ccc     H1  20271 0.11662300   1.008000   ; qtot 382.122680
20272         h1    766    ccc     H2  20272 0.11526800   1.008000   ; qtot 382.237948
20273         c3    766    ccc     C3  20273 0.15592700  12.010000   ; qtot 382.393875
20274         c3    766    ccc     C4  20274 0.28383300  12.010000   ; qtot 382.677708
20275         c3    766    ccc     C5  20275 0.32403300  12.010000   ; qtot 383.001741
20276         h1    766    ccc     H3  20276 0.13386900   1.008000   ; qtot 383.135610
20277         h1    766    ccc     H4  20277 0.10146700   1.008000   ; qtot 383.237077
20278         h2    766    ccc     H5  20278 0.10960400   1.008000   ; qtot 383.346681
20279         os    766    ccc     O1  20279 -0.28650000  16.000000   ; qtot 383.060181
20280         oh    766    ccc     O2  20280 -0.86012500  16.000000   ; qtot 382.200056
20281         oh    766    ccc     O3  20281 -0.83772800  16.000000   ; qtot 381.362328
20282         oh    766    ccc     O4  20282 -0.77449700  16.000000   ; qtot 380.587831
20283         c3    766    ccc     C6  20283 0.37576500  12.010000   ; qtot 380.963596
20284         ho    766    ccc     H6  20284 0.53656000   1.008000   ; qtot 381.500156
20285         ho    766    ccc     H7  20285 0.49492100   1.008000   ; qtot 381.995077
20286         ho    766    ccc     H8  20286 0.51297200   1.008000   ; qtot 382.508049
20287         h1    766    ccc     H9  20287 0.05653400   1.008000   ; qtot 382.564583
20288         h1    766    ccc    H10  20288 0.05653400   1.008000   ; qtot 382.621117
20289         oh    766    ccc     O5  20289 -0.84113600  16.000000   ; qtot 381.779981
20290         ho    766    ccc    H11  20290 0.51201600   1.008000   ; qtot 382.291997
20291         os    766    ccc     O6  20291 -0.26013600  16.000000   ; qtot 382.031861

[ bonds ]
;    ai     aj funct         c0         c1         c2         c3
      1      2     1   0.15110 237065.440000
      1      5     1   0.15110 237065.440000
      1      8     1   0.15110 237065.440000
      2     14     1   0.15375 251793.120000
      5     17     1   0.15375 251793.120000
      8     11     1   0.15375 251793.120000
     11     23     1   0.15375 251793.120000
     14     26     1   0.15375 251793.120000
     17     20     1   0.15375 251793.120000
     20     58     1   0.14316 258236.480000
     23     88     1   0.14316 258236.480000
     26    118     1   0.14316 258236.480000
     30     31     1   0.15110 237065.440000
     30     34     1   0.15110 237065.440000
     30     37     1   0.15110 237065.440000
     31     43     1   0.15375 251793.120000
     34     46     1   0.15375 251793.120000
     37     40     1   0.15375 251793.120000
     40     49     1   0.15375 251793.120000
     43     55     1   0.15375 251793.120000
     46     52     1   0.15375 251793.120000
     49     58     1   0.14316 258236.480000
     52    148     1   0.14316 258236.480000
     55    178     1   0.14316 258236.480000
     60     61     1   0.15110 237065.440000
     60     64     1   0.15110 237065.440000
     60     67     1   0.15110 237065.440000
     61     73     1   0.15375 251793.120000
     64     76     1   0.15375 251793.120000
     67     70     1   0.15375 251793.120000
     70     79     1   0.15375 251793.120000
     73     85     1   0.15375 251793.120000
     76     82     1   0.15375 251793.120000
     79     88     1   0.14316 258236.480000
     82    208     1   0.14316 258236.480000
     85    238     1   0.14316 258236.480000
     90     91     1   0.15110 237065.440000
     90     94     1   0.15110 237065.440000
     90     97     1   0.15110 237065.440000
     91    103     1   0.15375 251793.120000
     94    106     1   0.15375 251793.120000
     97    100     1   0.15375 251793.120000
    100    109     1   0.15375 251793.120000
    103    115     1   0.15375 251793.120000
    106    112     1   0.15375 251793.120000
    109    118     1   0.14316 258236.480000
    112    268     1   0.14316 258236.480000
    115    298     1   0.14316 258236.480000
    120    121     1   0.15110 237065.440000
    120    124     1   0.15110 237065.440000
    120    127     1   0.15110 237065.440000
    121    133     1   0.15375 251793.120000
    124    136     1   0.15375 251793.120000
    127    130     1   0.15375 251793.120000
    130    139     1   0.15375 251793.120000
    133    145     1   0.15375 251793.120000
    136    142     1   0.15375 251793.120000
    139    148     1   0.14316 258236.480000
    142    328     1   0.14316 258236.480000
    145    358     1   0.14316 258236.480000
    150    151     1   0.15110 237065.440000
    150    154     1   0.15110 237065.440000
    150    157     1   0.15110 237065.440000
    151    163     1   0.15375 251793.120000
    154    166     1   0.15375 251793.120000
    157    160     1   0.15375 251793.120000
    160    169     1   0.15375 251793.120000
    163    175     1   0.15375 251793.120000
    166    172     1   0.15375 251793.120000
    169    178     1   0.14316 258236.480000
    172    388     1   0.14316 258236.480000
    175    418     1   0.14316 258236.480000
    180    181     1   0.15110 237065.440000
    180    184     1   0.15110 237065.440000
    180    187     1   0.15110 237065.440000
    181    193     1   0.15375 251793.120000
    184    196     1   0.15375 251793.120000
    187    190     1   0.15375 251793.120000
    190    199     1   0.15375 251793.120000
    193    205     1   0.15375 251793.120000
    196    202     1   0.15375 251793.120000
    199    208     1   0.14316 258236.480000
    202    448     1   0.14316 258236.480000
    205    478     1   0.14316 258236.480000
    210    211     1   0.15110 237065.440000
    210    214     1   0.15110 237065.440000
    210    217     1   0.15110 237065.440000
    211    223     1   0.15375 251793.120000
    214    226     1   0.15375 251793.120000
    217    220     1   0.15375 251793.120000
    220    229     1   0.15375 251793.120000
    223    235     1   0.15375 251793.120000
    226    232     1   0.15375 251793.120000
    229    238     1   0.14316 258236.480000
    232    508     1   0.14316 258236.480000
    235    538     1   0.14316 258236.480000
    240    241     1   0.15110 237065.440000
    240    244     1   0.15110 237065.440000
    240    247     1   0.15110 237065.440000
    241    253     1   0.15375 251793.120000
    244    256     1   0.15375 251793.120000
    247    250     1   0.15375 251793.120000
    250    259     1   0.15375 251793.120000
    253    265     1   0.15375 251793.120000
    256    262     1   0.15375 251793.120000
    259    268     1   0.14316 258236.480000
    262    568     1   0.14316 258236.480000
    265    598     1   0.14316 258236.480000
    270    271     1   0.15110 237065.440000
    270    274     1   0.15110 237065.440000
    270    277     1   0.15110 237065.440000
    271    283     1   0.15375 251793.120000
    274    286     1   0.15375 251793.120000
    277    280     1   0.15375 251793.120000
    280    289     1   0.15375 251793.120000
    283    295     1   0.15375 251793.120000
    286    292     1   0.15375 251793.120000
    289    298     1   0.14316 258236.480000
    292    628     1   0.14316 258236.480000
    295    658     1   0.14316 258236.480000
    300    301     1   0.15110 237065.440000
    300    304     1   0.15110 237065.440000
    300    307     1   0.15110 237065.440000
    301    313     1   0.15375 251793.120000
    304    316     1   0.15375 251793.120000
    307    310     1   0.15375 251793.120000
    310    319     1   0.15375 251793.120000
    313    325     1   0.15375 251793.120000
    316    322     1   0.15375 251793.120000
    319    328     1   0.14316 258236.480000
    322    688     1   0.14316 258236.480000
    325    718     1   0.14316 258236.480000
    330    331     1   0.15110 237065.440000
    330    334     1   0.15110 237065.440000
    330    337     1   0.15110 237065.440000
    331    343     1   0.15375 251793.120000
    334    346     1   0.15375 251793.120000
    337    340     1   0.15375 251793.120000
    340    349     1   0.15375 251793.120000
    343    355     1   0.15375 251793.120000
    346    352     1   0.15375 251793.120000
    349    358     1   0.14316 258236.480000
    352    748     1   0.14316 258236.480000
    355    778     1   0.14316 258236.480000
    360    361     1   0.15110 237065.440000
    360    364     1   0.15110 237065.440000
    360    367     1   0.15110 237065.440000
    361    373     1   0.15375 251793.120000
    364    376     1   0.15375 251793.120000
    367    370     1   0.15375 251793.120000
    370    379     1   0.15375 251793.120000
    373    385     1   0.15375 251793.120000
    376    382     1   0.15375 251793.120000
    379    388     1   0.14316 258236.480000
    382    808     1   0.14316 258236.480000
    385    838     1   0.14316 258236.480000
    390    391     1   0.15110 237065.440000
    390    394     1   0.15110 237065.440000
    390    397     1   0.15110 237065.440000
    391    403     1   0.15375 251793.120000
    394    406     1   0.15375 251793.120000
    397    400     1   0.15375 251793.120000
    400    409     1   0.15375 251793.120000
    403    415     1   0.15375 251793.120000
    406    412     1   0.15375 251793.120000
    409    418     1   0.14316 258236.480000
    412    868     1   0.14316 258236.480000
    415    898     1   0.14316 258236.480000
    420    421     1   0.15110 237065.440000
    420    424     1   0.15110 237065.440000
    420    427     1   0.15110 237065.440000
    421    433     1   0.15375 251793.120000
    424    436     1   0.15375 251793.120000
    427    430     1   0.15375 251793.120000
    430    439     1   0.15375 251793.120000
    433    445     1   0.15375 251793.120000
    436    442     1   0.15375 251793.120000
    439    448     1   0.14316 258236.480000
    442    928     1   0.14316 258236.480000
    445    958     1   0.14316 258236.480000
    450    451     1   0.15110 237065.440000
    450    454     1   0.15110 237065.440000
    450    457     1   0.15110 237065.440000
    451    463     1   0.15375 251793.120000
    454    466     1   0.15375 251793.120000
    457    460     1   0.15375 251793.120000
    460    469     1   0.15375 251793.120000
    463    475     1   0.15375 251793.120000
    466    472     1   0.15375 251793.120000
    469    478     1   0.14316 258236.480000
    472    988     1   0.14316 258236.480000
    475   1018     1   0.14316 258236.480000
    480    481     1   0.15110 237065.440000
    480    484     1   0.15110 237065.440000
    480    487     1   0.15110 237065.440000
    481    493     1   0.15375 251793.120000
    484    496     1   0.15375 251793.120000
    487    490     1   0.15375 251793.120000
    490    499     1   0.15375 251793.120000
    493    505     1   0.15375 251793.120000
    496    502     1   0.15375 251793.120000
    499    508     1   0.14316 258236.480000
    502   1048     1   0.14316 258236.480000
    505   1078     1   0.14316 258236.480000
    510    511     1   0.15110 237065.440000
    510    514     1   0.15110 237065.440000
    510    517     1   0.15110 237065.440000
    511    523     1   0.15375 251793.120000
    514    526     1   0.15375 251793.120000
    517    520     1   0.15375 251793.120000
    520    529     1   0.15375 251793.120000
    523    535     1   0.15375 251793.120000
    526    532     1   0.15375 251793.120000
    529    538     1   0.14316 258236.480000
    532   1108     1   0.14316 258236.480000
    535   1138     1   0.14316 258236.480000
    540    541     1   0.15110 237065.440000
    540    544     1   0.15110 237065.440000
    540    547     1   0.15110 237065.440000
    541    553     1   0.15375 251793.120000
    544    556     1   0.15375 251793.120000
    547    550     1   0.15375 251793.120000
    550    559     1   0.15375 251793.120000
    553    565     1   0.15375 251793.120000
    556    562     1   0.15375 251793.120000
    559    568     1   0.14316 258236.480000
    562   1168     1   0.14316 258236.480000
    565   1198     1   0.14316 258236.480000
    570    571     1   0.15110 237065.440000
    570    574     1   0.15110 237065.440000
    570    577     1   0.15110 237065.440000
    571    583     1   0.15375 251793.120000
    574    586     1   0.15375 251793.120000
    577    580     1   0.15375 251793.120000
    580    589     1   0.15375 251793.120000
    583    595     1   0.15375 251793.120000
    586    592     1   0.15375 251793.120000
    589    598     1   0.14316 258236.480000
    592   1228     1   0.14316 258236.480000
    595   1258     1   0.14316 258236.480000
    600    601     1   0.15110 237065.440000
    600    604     1   0.15110 237065.440000
    600    607     1   0.15110 237065.440000
    601    613     1   0.15375 251793.120000
    604    616     1   0.15375 251793.120000
    607    610     1   0.15375 251793.120000
    610    619     1   0.15375 251793.120000
    613    625     1   0.15375 251793.120000
    616    622     1   0.15375 251793.120000
    619    628     1   0.14316 258236.480000
    622   1288     1   0.14316 258236.480000
    625   1318     1   0.14316 258236.480000
    630    631     1   0.15110 237065.440000
    630    634     1   0.15110 237065.440000
    630    637     1   0.15110 237065.440000
    631    643     1   0.15375 251793.120000
    634    646     1   0.15375 251793.120000
    637    640     1   0.15375 251793.120000
    640    649     1   0.15375 251793.120000
    643    655     1   0.15375 251793.120000
    646    652     1   0.15375 251793.120000
    649    658     1   0.14316 258236.480000
    652   1348     1   0.14316 258236.480000
    655   1378     1   0.14316 258236.480000
    660    661     1   0.15110 237065.440000
    660    664     1   0.15110 237065.440000
    660    667     1   0.15110 237065.440000
    661    673     1   0.15375 251793.120000
    664    676     1   0.15375 251793.120000
    667    670     1   0.15375 251793.120000
    670    679     1   0.15375 251793.120000
    673    685     1   0.15375 251793.120000
    676    682     1   0.15375 251793.120000
    679    688     1   0.14316 258236.480000
    682   1408     1   0.14316 258236.480000
    685   1438     1   0.14316 258236.480000
    690    691     1   0.15110 237065.440000
    690    694     1   0.15110 237065.440000
    690    697     1   0.15110 237065.440000
    691    703     1   0.15375 251793.120000
    694    706     1   0.15375 251793.120000
    697    700     1   0.15375 251793.120000
    700    709     1   0.15375 251793.120000
    703    715     1   0.15375 251793.120000
    706    712     1   0.15375 251793.120000
    709    718     1   0.14316 258236.480000
    712   1468     1   0.14316 258236.480000
    715   1498     1   0.14316 258236.480000
    720    721     1   0.15110 237065.440000
    720    724     1   0.15110 237065.440000
    720    727     1   0.15110 237065.440000
    721    733     1   0.15375 251793.120000
    724    736     1   0.15375 251793.120000
    727    730     1   0.15375 251793.120000
    730    739     1   0.15375 251793.120000
    733    745     1   0.15375 251793.120000
    736    742     1   0.15375 251793.120000
    739    748     1   0.14316 258236.480000
    742   1528     1   0.14316 258236.480000
    745   1558     1   0.14316 258236.480000
    750    751     1   0.15110 237065.440000
    750    754     1   0.15110 237065.440000
    750    757     1   0.15110 237065.440000
    751    763     1   0.15375 251793.120000
    754    766     1   0.15375 251793.120000
    757    760     1   0.15375 251793.120000
    760    769     1   0.15375 251793.120000
    763    775     1   0.15375 251793.120000
    766    772     1   0.15375 251793.120000
    769    778     1   0.14316 258236.480000
    772   1588     1   0.14316 258236.480000
    775   1618     1   0.14316 258236.480000
    780    781     1   0.15110 237065.440000
    780    784     1   0.15110 237065.440000
    780    787     1   0.15110 237065.440000
    781    793     1   0.15375 251793.120000
    784    796     1   0.15375 251793.120000
    787    790     1   0.15375 251793.120000
    790    799     1   0.15375 251793.120000
    793    805     1   0.15375 251793.120000
    796    802     1   0.15375 251793.120000
    799    808     1   0.14316 258236.480000
    802   1648     1   0.14316 258236.480000
    805   1678     1   0.14316 258236.480000
    810    811     1   0.15110 237065.440000
    810    814     1   0.15110 237065.440000
    810    817     1   0.15110 237065.440000
    811    823     1   0.15375 251793.120000
    814    826     1   0.15375 251793.120000
    817    820     1   0.15375 251793.120000
    820    829     1   0.15375 251793.120000
    823    835     1   0.15375 251793.120000
    826    832     1   0.15375 251793.120000
    829    838     1   0.14316 258236.480000
    832   1708     1   0.14316 258236.480000
    835   1738     1   0.14316 258236.480000
    840    841     1   0.15110 237065.440000
    840    844     1   0.15110 237065.440000
    840    847     1   0.15110 237065.440000
    841    853     1   0.15375 251793.120000
    844    856     1   0.15375 251793.120000
    847    850     1   0.15375 251793.120000
    850    859     1   0.15375 251793.120000
    853    865     1   0.15375 251793.120000
    856    862     1   0.15375 251793.120000
    859    868     1   0.14316 258236.480000
    862   1768     1   0.14316 258236.480000
    865   1798     1   0.14316 258236.480000
    870    871     1   0.15110 237065.440000
    870    874     1   0.15110 237065.440000
    870    877     1   0.15110 237065.440000
    871    883     1   0.15375 251793.120000
    874    886     1   0.15375 251793.120000
    877    880     1   0.15375 251793.120000
    880    889     1   0.15375 251793.120000
    883    895     1   0.15375 251793.120000
    886    892     1   0.15375 251793.120000
    889    898     1   0.14316 258236.480000
    892   1828     1   0.14316 258236.480000
    895   1858     1   0.14316 258236.480000
    900    901     1   0.15110 237065.440000
    900    904     1   0.15110 237065.440000
    900    907     1   0.15110 237065.440000
    901    913     1   0.15375 251793.120000
    904    916     1   0.15375 251793.120000
    907    910     1   0.15375 251793.120000
    910    919     1   0.15375 251793.120000
    913    925     1   0.15375 251793.120000
    916    922     1   0.15375 251793.120000
    919    928     1   0.14316 258236.480000
    922   1888     1   0.14316 258236.480000
    925   1918     1   0.14316 258236.480000
    930    931     1   0.15110 237065.440000
    930    934     1   0.15110 237065.440000
    930    937     1   0.15110 237065.440000
    931    943     1   0.15375 251793.120000
    934    946     1   0.15375 251793.120000
    937    940     1   0.15375 251793.120000
    940    949     1   0.15375 251793.120000
    943    955     1   0.15375 251793.120000
    946    952     1   0.15375 251793.120000
    949    958     1   0.14316 258236.480000
    952   1948     1   0.14316 258236.480000
    955   1978     1   0.14316 258236.480000
    960    961     1   0.15110 237065.440000
    960    964     1   0.15110 237065.440000
    960    967     1   0.15110 237065.440000
    961    973     1   0.15375 251793.120000
    964    976     1   0.15375 251793.120000
    967    970     1   0.15375 251793.120000
    970    979     1   0.15375 251793.120000
    973    985     1   0.15375 251793.120000
    976    982     1   0.15375 251793.120000
    979    988     1   0.14316 258236.480000
    982   2008     1   0.14316 258236.480000
    985   2038     1   0.14316 258236.480000
    990    991     1   0.15110 237065.440000
    990    994     1   0.15110 237065.440000
    990    997     1   0.15110 237065.440000
    991   1003     1   0.15375 251793.120000
    994   1006     1   0.15375 251793.120000
    997   1000     1   0.15375 251793.120000
   1000   1009     1   0.15375 251793.120000
   1003   1015     1   0.15375 251793.120000
   1006   1012     1   0.15375 251793.120000
   1009   1018     1   0.14316 258236.480000
   1012   2068     1   0.14316 258236.480000
   1015   2098     1   0.14316 258236.480000
   1020   1021     1   0.15110 237065.440000
   1020   1024     1   0.15110 237065.440000
   1020   1027     1   0.15110 237065.440000
   1021   1033     1   0.15375 251793.120000
   1024   1036     1   0.15375 251793.120000
   1027   1030     1   0.15375 251793.120000
   1030   1039     1   0.15375 251793.120000
   1033   1045     1   0.15375 251793.120000
   1036   1042     1   0.15375 251793.120000
   1039   1048     1   0.14316 258236.480000
   1042   2128     1   0.14316 258236.480000
   1045   2158     1   0.14316 258236.480000
   1050   1051     1   0.15110 237065.440000
   1050   1054     1   0.15110 237065.440000
   1050   1057     1   0.15110 237065.440000
   1051   1063     1   0.15375 251793.120000
   1054   1066     1   0.15375 251793.120000
   1057   1060     1   0.15375 251793.120000
   1060   1069     1   0.15375 251793.120000
   1063   1075     1   0.15375 251793.120000
   1066   1072     1   0.15375 251793.120000
   1069   1078     1   0.14316 258236.480000
   1072   2188     1   0.14316 258236.480000
   1075   2218     1   0.14316 258236.480000
   1080   1081     1   0.15110 237065.440000
   1080   1084     1   0.15110 237065.440000
   1080   1087     1   0.15110 237065.440000
   1081   1093     1   0.15375 251793.120000
   1084   1096     1   0.15375 251793.120000
   1087   1090     1   0.15375 251793.120000
   1090   1099     1   0.15375 251793.120000
   1093   1105     1   0.15375 251793.120000
   1096   1102     1   0.15375 251793.120000
   1099   1108     1   0.14316 258236.480000
   1102   2248     1   0.14316 258236.480000
   1105   2278     1   0.14316 258236.480000
   1110   1111     1   0.15110 237065.440000
   1110   1114     1   0.15110 237065.440000
   1110   1117     1   0.15110 237065.440000
   1111   1123     1   0.15375 251793.120000
   1114   1126     1   0.15375 251793.120000
   1117   1120     1   0.15375 251793.120000
   1120   1129     1   0.15375 251793.120000
   1123   1135     1   0.15375 251793.120000
   1126   1132     1   0.15375 251793.120000
   1129   1138     1   0.14316 258236.480000
   1132   2308     1   0.14316 258236.480000
   1135   2338     1   0.14316 258236.480000
   1140   1141     1   0.15110 237065.440000
   1140   1144     1   0.15110 237065.440000
   1140   1147     1   0.15110 237065.440000
   1141   1153     1   0.15375 251793.120000
   1144   1156     1   0.15375 251793.120000
   1147   1150     1   0.15375 251793.120000
   1150   1159     1   0.15375 251793.120000
   1153   1165     1   0.15375 251793.120000
   1156   1162     1   0.15375 251793.120000
   1159   1168     1   0.14316 258236.480000
   1162   2368     1   0.14316 258236.480000
   1165   2398     1   0.14316 258236.480000
   1170   1171     1   0.15110 237065.440000
   1170   1174     1   0.15110 237065.440000
   1170   1177     1   0.15110 237065.440000
   1171   1183     1   0.15375 251793.120000
   1174   1186     1   0.15375 251793.120000
   1177   1180     1   0.15375 251793.120000
   1180   1189     1   0.15375 251793.120000
   1183   1195     1   0.15375 251793.120000
   1186   1192     1   0.15375 251793.120000
   1189   1198     1   0.14316 258236.480000
   1192   2428     1   0.14316 258236.480000
   1195   2458     1   0.14316 258236.480000
   1200   1201     1   0.15110 237065.440000
   1200   1204     1   0.15110 237065.440000
   1200   1207     1   0.15110 237065.440000
   1201   1213     1   0.15375 251793.120000
   1204   1216     1   0.15375 251793.120000
   1207   1210     1   0.15375 251793.120000
   1210   1219     1   0.15375 251793.120000
   1213   1225     1   0.15375 251793.120000
   1216   1222     1   0.15375 251793.120000
   1219   1228     1   0.14316 258236.480000
   1222   2488     1   0.14316 258236.480000
   1225   2518     1   0.14316 258236.480000
   1230   1231     1   0.15110 237065.440000
   1230   1234     1   0.15110 237065.440000
   1230   1237     1   0.15110 237065.440000
   1231   1243     1   0.15375 251793.120000
   1234   1246     1   0.15375 251793.120000
   1237   1240     1   0.15375 251793.120000
   1240   1249     1   0.15375 251793.120000
   1243   1255     1   0.15375 251793.120000
   1246   1252     1   0.15375 251793.120000
   1249   1258     1   0.14316 258236.480000
   1252   2548     1   0.14316 258236.480000
   1255   2578     1   0.14316 258236.480000
   1260   1261     1   0.15110 237065.440000
   1260   1264     1   0.15110 237065.440000
   1260   1267     1   0.15110 237065.440000
   1261   1273     1   0.15375 251793.120000
   1264   1276     1   0.15375 251793.120000
   1267   1270     1   0.15375 251793.120000
   1270   1279     1   0.15375 251793.120000
   1273   1285     1   0.15375 251793.120000
   1276   1282     1   0.15375 251793.120000
   1279   1288     1   0.14316 258236.480000
   1282   2608     1   0.14316 258236.480000
   1285   2638     1   0.14316 258236.480000
   1290   1291     1   0.15110 237065.440000
   1290   1294     1   0.15110 237065.440000
   1290   1297     1   0.15110 237065.440000
   1291   1303     1   0.15375 251793.120000
   1294   1306     1   0.15375 251793.120000
   1297   1300     1   0.15375 251793.120000
   1300   1309     1   0.15375 251793.120000
   1303   1315     1   0.15375 251793.120000
   1306   1312     1   0.15375 251793.120000
   1309   1318     1   0.14316 258236.480000
   1312   2668     1   0.14316 258236.480000
   1315   2698     1   0.14316 258236.480000
   1320   1321     1   0.15110 237065.440000
   1320   1324     1   0.15110 237065.440000
   1320   1327     1   0.15110 237065.440000
   1321   1333     1   0.15375 251793.120000
   1324   1336     1   0.15375 251793.120000
   1327   1330     1   0.15375 251793.120000
   1330   1339     1   0.15375 251793.120000
   1333   1345     1   0.15375 251793.120000
   1336   1342     1   0.15375 251793.120000
   1339   1348     1   0.14316 258236.480000
   1342   2728     1   0.14316 258236.480000
   1345   2758     1   0.14316 258236.480000
   1350   1351     1   0.15110 237065.440000
   1350   1354     1   0.15110 237065.440000
   1350   1357     1   0.15110 237065.440000
   1351   1363     1   0.15375 251793.120000
   1354   1366     1   0.15375 251793.120000
   1357   1360     1   0.15375 251793.120000
   1360   1369     1   0.15375 251793.120000
   1363   1375     1   0.15375 251793.120000
   1366   1372     1   0.15375 251793.120000
   1369   1378     1   0.14316 258236.480000
   1372   2788     1   0.14316 258236.480000
   1375   2818     1   0.14316 258236.480000
   1380   1381     1   0.15110 237065.440000
   1380   1384     1   0.15110 237065.440000
   1380   1387     1   0.15110 237065.440000
   1381   1393     1   0.15375 251793.120000
   1384   1396     1   0.15375 251793.120000
   1387   1390     1   0.15375 251793.120000
   1390   1399     1   0.15375 251793.120000
   1393   1405     1   0.15375 251793.120000
   1396   1402     1   0.15375 251793.120000
   1399   1408     1   0.14316 258236.480000
   1402   2848     1   0.14316 258236.480000
   1405   2878     1   0.14316 258236.480000
   1410   1411     1   0.15110 237065.440000
   1410   1414     1   0.15110 237065.440000
   1410   1417     1   0.15110 237065.440000
   1411   1423     1   0.15375 251793.120000
   1414   1426     1   0.15375 251793.120000
   1417   1420     1   0.15375 251793.120000
   1420   1429     1   0.15375 251793.120000
   1423   1435     1   0.15375 251793.120000
   1426   1432     1   0.15375 251793.120000
   1429   1438     1   0.14316 258236.480000
   1432   2908     1   0.14316 258236.480000
   1435   2938     1   0.14316 258236.480000
   1440   1441     1   0.15110 237065.440000
   1440   1444     1   0.15110 237065.440000
   1440   1447     1   0.15110 237065.440000
   1441   1453     1   0.15375 251793.120000
   1444   1456     1   0.15375 251793.120000
   1447   1450     1   0.15375 251793.120000
   1450   1459     1   0.15375 251793.120000
   1453   1465     1   0.15375 251793.120000
   1456   1462     1   0.15375 251793.120000
   1459   1468     1   0.14316 258236.480000
   1462   2968     1   0.14316 258236.480000
   1465   2998     1   0.14316 258236.480000
   1470   1471     1   0.15110 237065.440000
   1470   1474     1   0.15110 237065.440000
   1470   1477     1   0.15110 237065.440000
   1471   1483     1   0.15375 251793.120000
   1474   1486     1   0.15375 251793.120000
   1477   1480     1   0.15375 251793.120000
   1480   1489     1   0.15375 251793.120000
   1483   1495     1   0.15375 251793.120000
   1486   1492     1   0.15375 251793.120000
   1489   1498     1   0.14316 258236.480000
   1492   3028     1   0.14316 258236.480000
   1495   3058     1   0.14316 258236.480000
   1500   1501     1   0.15110 237065.440000
   1500   1504     1   0.15110 237065.440000
   1500   1507     1   0.15110 237065.440000
   1501   1513     1   0.15375 251793.120000
   1504   1516     1   0.15375 251793.120000
   1507   1510     1   0.15375 251793.120000
   1510   1519     1   0.15375 251793.120000
   1513   1525     1   0.15375 251793.120000
   1516   1522     1   0.15375 251793.120000
   1519   1528     1   0.14316 258236.480000
   1522   3088     1   0.14316 258236.480000
   1525   3118     1   0.14316 258236.480000
   1530   1531     1   0.15110 237065.440000
   1530   1534     1   0.15110 237065.440000
   1530   1537     1   0.15110 237065.440000
   1531   1543     1   0.15375 251793.120000
   1534   1546     1   0.15375 251793.120000
   1537   1540     1   0.15375 251793.120000
   1540   1549     1   0.15375 251793.120000
   1543   1555     1   0.15375 251793.120000
   1546   1552     1   0.15375 251793.120000
   1549   1558     1   0.14316 258236.480000
   1552   3148     1   0.14316 258236.480000
   1555   3178     1   0.14316 258236.480000
   1560   1561     1   0.15110 237065.440000
   1560   1564     1   0.15110 237065.440000
   1560   1567     1   0.15110 237065.440000
   1561   1573     1   0.15375 251793.120000
   1564   1576     1   0.15375 251793.120000
   1567   1570     1   0.15375 251793.120000
   1570   1579     1   0.15375 251793.120000
   1573   1585     1   0.15375 251793.120000
   1576   1582     1   0.15375 251793.120000
   1579   1588     1   0.14316 258236.480000
   1582   3208     1   0.14316 258236.480000
   1585   3238     1   0.14316 258236.480000
   1590   1591     1   0.15110 237065.440000
   1590   1594     1   0.15110 237065.440000
   1590   1597     1   0.15110 237065.440000
   1591   1603     1   0.15375 251793.120000
   1594   1606     1   0.15375 251793.120000
   1597   1600     1   0.15375 251793.120000
   1600   1609     1   0.15375 251793.120000
   1603   1615     1   0.15375 251793.120000
   1606   1612     1   0.15375 251793.120000
   1609   1618     1   0.14316 258236.480000
   1612   3268     1   0.14316 258236.480000
   1615   3298     1   0.14316 258236.480000
   1620   1621     1   0.15110 237065.440000
   1620   1624     1   0.15110 237065.440000
   1620   1627     1   0.15110 237065.440000
   1621   1633     1   0.15375 251793.120000
   1624   1636     1   0.15375 251793.120000
   1627   1630     1   0.15375 251793.120000
   1630   1639     1   0.15375 251793.120000
   1633   1645     1   0.15375 251793.120000
   1636   1642     1   0.15375 251793.120000
   1639   1648     1   0.14316 258236.480000
   1642   3328     1   0.14316 258236.480000
   1645   3358     1   0.14316 258236.480000
   1650   1651     1   0.15110 237065.440000
   1650   1654     1   0.15110 237065.440000
   1650   1657     1   0.15110 237065.440000
   1651   1663     1   0.15375 251793.120000
   1654   1666     1   0.15375 251793.120000
   1657   1660     1   0.15375 251793.120000
   1660   1669     1   0.15375 251793.120000
   1663   1675     1   0.15375 251793.120000
   1666   1672     1   0.15375 251793.120000
   1669   1678     1   0.14316 258236.480000
   1672   3388     1   0.14316 258236.480000
   1675   3418     1   0.14316 258236.480000
   1680   1681     1   0.15110 237065.440000
   1680   1684     1   0.15110 237065.440000
   1680   1687     1   0.15110 237065.440000
   1681   1693     1   0.15375 251793.120000
   1684   1696     1   0.15375 251793.120000
   1687   1690     1   0.15375 251793.120000
   1690   1699     1   0.15375 251793.120000
   1693   1705     1   0.15375 251793.120000
   1696   1702     1   0.15375 251793.120000
   1699   1708     1   0.14316 258236.480000
   1702   3448     1   0.14316 258236.480000
   1705   3478     1   0.14316 258236.480000
   1710   1711     1   0.15110 237065.440000
   1710   1714     1   0.15110 237065.440000
   1710   1717     1   0.15110 237065.440000
   1711   1723     1   0.15375 251793.120000
   1714   1726     1   0.15375 251793.120000
   1717   1720     1   0.15375 251793.120000
   1720   1729     1   0.15375 251793.120000
   1723   1735     1   0.15375 251793.120000
   1726   1732     1   0.15375 251793.120000
   1729   1738     1   0.14316 258236.480000
   1732   3508     1   0.14316 258236.480000
   1735   3538     1   0.14316 258236.480000
   1740   1741     1   0.15110 237065.440000
   1740   1744     1   0.15110 237065.440000
   1740   1747     1   0.15110 237065.440000
   1741   1753     1   0.15375 251793.120000
   1744   1756     1   0.15375 251793.120000
   1747   1750     1   0.15375 251793.120000
   1750   1759     1   0.15375 251793.120000
   1753   1765     1   0.15375 251793.120000
   1756   1762     1   0.15375 251793.120000
   1759   1768     1   0.14316 258236.480000
   1762   3568     1   0.14316 258236.480000
   1765   3598     1   0.14316 258236.480000
   1770   1771     1   0.15110 237065.440000
   1770   1774     1   0.15110 237065.440000
   1770   1777     1   0.15110 237065.440000
   1771   1783     1   0.15375 251793.120000
   1774   1786     1   0.15375 251793.120000
   1777   1780     1   0.15375 251793.120000
   1780   1789     1   0.15375 251793.120000
   1783   1795     1   0.15375 251793.120000
   1786   1792     1   0.15375 251793.120000
   1789   1798     1   0.14316 258236.480000
   1792   3628     1   0.14316 258236.480000
   1795   3658     1   0.14316 258236.480000
   1800   1801     1   0.15110 237065.440000
   1800   1804     1   0.15110 237065.440000
   1800   1807     1   0.15110 237065.440000
   1801   1813     1   0.15375 251793.120000
   1804   1816     1   0.15375 251793.120000
   1807   1810     1   0.15375 251793.120000
   1810   1819     1   0.15375 251793.120000
   1813   1825     1   0.15375 251793.120000
   1816   1822     1   0.15375 251793.120000
   1819   1828     1   0.14316 258236.480000
   1822   3688     1   0.14316 258236.480000
   1825   3718     1   0.14316 258236.480000
   1830   1831     1   0.15110 237065.440000
   1830   1834     1   0.15110 237065.440000
   1830   1837     1   0.15110 237065.440000
   1831   1843     1   0.15375 251793.120000
   1834   1846     1   0.15375 251793.120000
   1837   1840     1   0.15375 251793.120000
   1840   1849     1   0.15375 251793.120000
   1843   1855     1   0.15375 251793.120000
   1846   1852     1   0.15375 251793.120000
   1849   1858     1   0.14316 258236.480000
   1852   3748     1   0.14316 258236.480000
   1855   3778     1   0.14316 258236.480000
   1860   1861     1   0.15110 237065.440000
   1860   1864     1   0.15110 237065.440000
   1860   1867     1   0.15110 237065.440000
   1861   1873     1   0.15375 251793.120000
   1864   1876     1   0.15375 251793.120000
   1867   1870     1   0.15375 251793.120000
   1870   1879     1   0.15375 251793.120000
   1873   1885     1   0.15375 251793.120000
   1876   1882     1   0.15375 251793.120000
   1879   1888     1   0.14316 258236.480000
   1882   3808     1   0.14316 258236.480000
   1885   3838     1   0.14316 258236.480000
   1890   1891     1   0.15110 237065.440000
   1890   1894     1   0.15110 237065.440000
   1890   1897     1   0.15110 237065.440000
   1891   1903     1   0.15375 251793.120000
   1894   1906     1   0.15375 251793.120000
   1897   1900     1   0.15375 251793.120000
   1900   1909     1   0.15375 251793.120000
   1903   1915     1   0.15375 251793.120000
   1906   1912     1   0.15375 251793.120000
   1909   1918     1   0.14316 258236.480000
   1912   3868     1   0.14316 258236.480000
   1915   3898     1   0.14316 258236.480000
   1920   1921     1   0.15110 237065.440000
   1920   1924     1   0.15110 237065.440000
   1920   1927     1   0.15110 237065.440000
   1921   1933     1   0.15375 251793.120000
   1924   1936     1   0.15375 251793.120000
   1927   1930     1   0.15375 251793.120000
   1930   1939     1   0.15375 251793.120000
   1933   1945     1   0.15375 251793.120000
   1936   1942     1   0.15375 251793.120000
   1939   1948     1   0.14316 258236.480000
   1942   3928     1   0.14316 258236.480000
   1945   3958     1   0.14316 258236.480000
   1950   1951     1   0.15110 237065.440000
   1950   1954     1   0.15110 237065.440000
   1950   1957     1   0.15110 237065.440000
   1951   1963     1   0.15375 251793.120000
   1954   1966     1   0.15375 251793.120000
   1957   1960     1   0.15375 251793.120000
   1960   1969     1   0.15375 251793.120000
   1963   1975     1   0.15375 251793.120000
   1966   1972     1   0.15375 251793.120000
   1969   1978     1   0.14316 258236.480000
   1972   3988     1   0.14316 258236.480000
   1975   4018     1   0.14316 258236.480000
   1980   1981     1   0.15110 237065.440000
   1980   1984     1   0.15110 237065.440000
   1980   1987     1   0.15110 237065.440000
   1981   1993     1   0.15375 251793.120000
   1984   1996     1   0.15375 251793.120000
   1987   1990     1   0.15375 251793.120000
   1990   1999     1   0.15375 251793.120000
   1993   2005     1   0.15375 251793.120000
   1996   2002     1   0.15375 251793.120000
   1999   2008     1   0.14316 258236.480000
   2002   4048     1   0.14316 258236.480000
   2005   4078     1   0.14316 258236.480000
   2010   2011     1   0.15110 237065.440000
   2010   2014     1   0.15110 237065.440000
   2010   2017     1   0.15110 237065.440000
   2011   2023     1   0.15375 251793.120000
   2014   2026     1   0.15375 251793.120000
   2017   2020     1   0.15375 251793.120000
   2020   2029     1   0.15375 251793.120000
   2023   2035     1   0.15375 251793.120000
   2026   2032     1   0.15375 251793.120000
   2029   2038     1   0.14316 258236.480000
   2032   4108     1   0.14316 258236.480000
   2035   4138     1   0.14316 258236.480000
   2040   2041     1   0.15110 237065.440000
   2040   2044     1   0.15110 237065.440000
   2040   2047     1   0.15110 237065.440000
   2041   2053     1   0.15375 251793.120000
   2044   2056     1   0.15375 251793.120000
   2047   2050     1   0.15375 251793.120000
   2050   2059     1   0.15375 251793.120000
   2053   2065     1   0.15375 251793.120000
   2056   2062     1   0.15375 251793.120000
   2059   2068     1   0.14316 258236.480000
   2062   4168     1   0.14316 258236.480000
   2065   4198     1   0.14316 258236.480000
   2070   2071     1   0.15110 237065.440000
   2070   2074     1   0.15110 237065.440000
   2070   2077     1   0.15110 237065.440000
   2071   2083     1   0.15375 251793.120000
   2074   2086     1   0.15375 251793.120000
   2077   2080     1   0.15375 251793.120000
   2080   2089     1   0.15375 251793.120000
   2083   2095     1   0.15375 251793.120000
   2086   2092     1   0.15375 251793.120000
   2089   2098     1   0.14316 258236.480000
   2092   4228     1   0.14316 258236.480000
   2095   4258     1   0.14316 258236.480000
   2100   2101     1   0.15110 237065.440000
   2100   2104     1   0.15110 237065.440000
   2100   2107     1   0.15110 237065.440000
   2101   2113     1   0.15375 251793.120000
   2104   2116     1   0.15375 251793.120000
   2107   2110     1   0.15375 251793.120000
   2110   2119     1   0.15375 251793.120000
   2113   2125     1   0.15375 251793.120000
   2116   2122     1   0.15375 251793.120000
   2119   2128     1   0.14316 258236.480000
   2122   4288     1   0.14316 258236.480000
   2125   4318     1   0.14316 258236.480000
   2130   2131     1   0.15110 237065.440000
   2130   2134     1   0.15110 237065.440000
   2130   2137     1   0.15110 237065.440000
   2131   2143     1   0.15375 251793.120000
   2134   2146     1   0.15375 251793.120000
   2137   2140     1   0.15375 251793.120000
   2140   2149     1   0.15375 251793.120000
   2143   2155     1   0.15375 251793.120000
   2146   2152     1   0.15375 251793.120000
   2149   2158     1   0.14316 258236.480000
   2152   4348     1   0.14316 258236.480000
   2155   4378     1   0.14316 258236.480000
   2160   2161     1   0.15110 237065.440000
   2160   2164     1   0.15110 237065.440000
   2160   2167     1   0.15110 237065.440000
   2161   2173     1   0.15375 251793.120000
   2164   2176     1   0.15375 251793.120000
   2167   2170     1   0.15375 251793.120000
   2170   2179     1   0.15375 251793.120000
   2173   2185     1   0.15375 251793.120000
   2176   2182     1   0.15375 251793.120000
   2179   2188     1   0.14316 258236.480000
   2182   4408     1   0.14316 258236.480000
   2185   4438     1   0.14316 258236.480000
   2190   2191     1   0.15110 237065.440000
   2190   2194     1   0.15110 237065.440000
   2190   2197     1   0.15110 237065.440000
   2191   2203     1   0.15375 251793.120000
   2194   2206     1   0.15375 251793.120000
   2197   2200     1   0.15375 251793.120000
   2200   2209     1   0.15375 251793.120000
   2203   2215     1   0.15375 251793.120000
   2206   2212     1   0.15375 251793.120000
   2209   2218     1   0.14316 258236.480000
   2212   4468     1   0.14316 258236.480000
   2215   4498     1   0.14316 258236.480000
   2220   2221     1   0.15110 237065.440000
   2220   2224     1   0.15110 237065.440000
   2220   2227     1   0.15110 237065.440000
   2221   2233     1   0.15375 251793.120000
   2224   2236     1   0.15375 251793.120000
   2227   2230     1   0.15375 251793.120000
   2230   2239     1   0.15375 251793.120000
   2233   2245     1   0.15375 251793.120000
   2236   2242     1   0.15375 251793.120000
   2239   2248     1   0.14316 258236.480000
   2242   4528     1   0.14316 258236.480000
   2245   4558     1   0.14316 258236.480000
   2250   2251     1   0.15110 237065.440000
   2250   2254     1   0.15110 237065.440000
   2250   2257     1   0.15110 237065.440000
   2251   2263     1   0.15375 251793.120000
   2254   2266     1   0.15375 251793.120000
   2257   2260     1   0.15375 251793.120000
   2260   2269     1   0.15375 251793.120000
   2263   2275     1   0.15375 251793.120000
   2266   2272     1   0.15375 251793.120000
   2269   2278     1   0.14316 258236.480000
   2272   4588     1   0.14316 258236.480000
   2275   4618     1   0.14316 258236.480000
   2280   2281     1   0.15110 237065.440000
   2280   2284     1   0.15110 237065.440000
   2280   2287     1   0.15110 237065.440000
   2281   2293     1   0.15375 251793.120000
   2284   2296     1   0.15375 251793.120000
   2287   2290     1   0.15375 251793.120000
   2290   2299     1   0.15375 251793.120000
   2293   2305     1   0.15375 251793.120000
   2296   2302     1   0.15375 251793.120000
   2299   2308     1   0.14316 258236.480000
   2302   4648     1   0.14316 258236.480000
   2305   4678     1   0.14316 258236.480000
   2310   2311     1   0.15110 237065.440000
   2310   2314     1   0.15110 237065.440000
   2310   2317     1   0.15110 237065.440000
   2311   2323     1   0.15375 251793.120000
   2314   2326     1   0.15375 251793.120000
   2317   2320     1   0.15375 251793.120000
   2320   2329     1   0.15375 251793.120000
   2323   2335     1   0.15375 251793.120000
   2326   2332     1   0.15375 251793.120000
   2329   2338     1   0.14316 258236.480000
   2332   4708     1   0.14316 258236.480000
   2335   4738     1   0.14316 258236.480000
   2340   2341     1   0.15110 237065.440000
   2340   2344     1   0.15110 237065.440000
   2340   2347     1   0.15110 237065.440000
   2341   2353     1   0.15375 251793.120000
   2344   2356     1   0.15375 251793.120000
   2347   2350     1   0.15375 251793.120000
   2350   2359     1   0.15375 251793.120000
   2353   2365     1   0.15375 251793.120000
   2356   2362     1   0.15375 251793.120000
   2359   2368     1   0.14316 258236.480000
   2362   4768     1   0.14316 258236.480000
   2365   4798     1   0.14316 258236.480000
   2370   2371     1   0.15110 237065.440000
   2370   2374     1   0.15110 237065.440000
   2370   2377     1   0.15110 237065.440000
   2371   2383     1   0.15375 251793.120000
   2374   2386     1   0.15375 251793.120000
   2377   2380     1   0.15375 251793.120000
   2380   2389     1   0.15375 251793.120000
   2383   2395     1   0.15375 251793.120000
   2386   2392     1   0.15375 251793.120000
   2389   2398     1   0.14316 258236.480000
   2392   4828     1   0.14316 258236.480000
   2395   4858     1   0.14316 258236.480000
   2400   2401     1   0.15110 237065.440000
   2400   2404     1   0.15110 237065.440000
   2400   2407     1   0.15110 237065.440000
   2401   2413     1   0.15375 251793.120000
   2404   2416     1   0.15375 251793.120000
   2407   2410     1   0.15375 251793.120000
   2410   2419     1   0.15375 251793.120000
   2413   2425     1   0.15375 251793.120000
   2416   2422     1   0.15375 251793.120000
   2419   2428     1   0.14316 258236.480000
   2422   4888     1   0.14316 258236.480000
   2425   4918     1   0.14316 258236.480000
   2430   2431     1   0.15110 237065.440000
   2430   2434     1   0.15110 237065.440000
   2430   2437     1   0.15110 237065.440000
   2431   2443     1   0.15375 251793.120000
   2434   2446     1   0.15375 251793.120000
   2437   2440     1   0.15375 251793.120000
   2440   2449     1   0.15375 251793.120000
   2443   2455     1   0.15375 251793.120000
   2446   2452     1   0.15375 251793.120000
   2449   2458     1   0.14316 258236.480000
   2452   4948     1   0.14316 258236.480000
   2455   4978     1   0.14316 258236.480000
   2460   2461     1   0.15110 237065.440000
   2460   2464     1   0.15110 237065.440000
   2460   2467     1   0.15110 237065.440000
   2461   2473     1   0.15375 251793.120000
   2464   2476     1   0.15375 251793.120000
   2467   2470     1   0.15375 251793.120000
   2470   2479     1   0.15375 251793.120000
   2473   2485     1   0.15375 251793.120000
   2476   2482     1   0.15375 251793.120000
   2479   2488     1   0.14316 258236.480000
   2482   5008     1   0.14316 258236.480000
   2485   5038     1   0.14316 258236.480000
   2490   2491     1   0.15110 237065.440000
   2490   2494     1   0.15110 237065.440000
   2490   2497     1   0.15110 237065.440000
   2491   2503     1   0.15375 251793.120000
   2494   2506     1   0.15375 251793.120000
   2497   2500     1   0.15375 251793.120000
   2500   2509     1   0.15375 251793.120000
   2503   2515     1   0.15375 251793.120000
   2506   2512     1   0.15375 251793.120000
   2509   2518     1   0.14316 258236.480000
   2512   5068     1   0.14316 258236.480000
   2515   5098     1   0.14316 258236.480000
   2520   2521     1   0.15110 237065.440000
   2520   2524     1   0.15110 237065.440000
   2520   2527     1   0.15110 237065.440000
   2521   2533     1   0.15375 251793.120000
   2524   2536     1   0.15375 251793.120000
   2527   2530     1   0.15375 251793.120000
   2530   2539     1   0.15375 251793.120000
   2533   2545     1   0.15375 251793.120000
   2536   2542     1   0.15375 251793.120000
   2539   2548     1   0.14316 258236.480000
   2542   5128     1   0.14316 258236.480000
   2545   5158     1   0.14316 258236.480000
   2550   2551     1   0.15110 237065.440000
   2550   2554     1   0.15110 237065.440000
   2550   2557     1   0.15110 237065.440000
   2551   2563     1   0.15375 251793.120000
   2554   2566     1   0.15375 251793.120000
   2557   2560     1   0.15375 251793.120000
   2560   2569     1   0.15375 251793.120000
   2563   2575     1   0.15375 251793.120000
   2566   2572     1   0.15375 251793.120000
   2569   2578     1   0.14316 258236.480000
   2572   5188     1   0.14316 258236.480000
   2575   5218     1   0.14316 258236.480000
   2580   2581     1   0.15110 237065.440000
   2580   2584     1   0.15110 237065.440000
   2580   2587     1   0.15110 237065.440000
   2581   2593     1   0.15375 251793.120000
   2584   2596     1   0.15375 251793.120000
   2587   2590     1   0.15375 251793.120000
   2590   2599     1   0.15375 251793.120000
   2593   2605     1   0.15375 251793.120000
   2596   2602     1   0.15375 251793.120000
   2599   2608     1   0.14316 258236.480000
   2602   5248     1   0.14316 258236.480000
   2605   5278     1   0.14316 258236.480000
   2610   2611     1   0.15110 237065.440000
   2610   2614     1   0.15110 237065.440000
   2610   2617     1   0.15110 237065.440000
   2611   2623     1   0.15375 251793.120000
   2614   2626     1   0.15375 251793.120000
   2617   2620     1   0.15375 251793.120000
   2620   2629     1   0.15375 251793.120000
   2623   2635     1   0.15375 251793.120000
   2626   2632     1   0.15375 251793.120000
   2629   2638     1   0.14316 258236.480000
   2632   5308     1   0.14316 258236.480000
   2635   5338     1   0.14316 258236.480000
   2640   2641     1   0.15110 237065.440000
   2640   2644     1   0.15110 237065.440000
   2640   2647     1   0.15110 237065.440000
   2641   2653     1   0.15375 251793.120000
   2644   2656     1   0.15375 251793.120000
   2647   2650     1   0.15375 251793.120000
   2650   2659     1   0.15375 251793.120000
   2653   2665     1   0.15375 251793.120000
   2656   2662     1   0.15375 251793.120000
   2659   2668     1   0.14316 258236.480000
   2662   5368     1   0.14316 258236.480000
   2665   5398     1   0.14316 258236.480000
   2670   2671     1   0.15110 237065.440000
   2670   2674     1   0.15110 237065.440000
   2670   2677     1   0.15110 237065.440000
   2671   2683     1   0.15375 251793.120000
   2674   2686     1   0.15375 251793.120000
   2677   2680     1   0.15375 251793.120000
   2680   2689     1   0.15375 251793.120000
   2683   2695     1   0.15375 251793.120000
   2686   2692     1   0.15375 251793.120000
   2689   2698     1   0.14316 258236.480000
   2692   5428     1   0.14316 258236.480000
   2695   5458     1   0.14316 258236.480000
   2700   2701     1   0.15110 237065.440000
   2700   2704     1   0.15110 237065.440000
   2700   2707     1   0.15110 237065.440000
   2701   2713     1   0.15375 251793.120000
   2704   2716     1   0.15375 251793.120000
   2707   2710     1   0.15375 251793.120000
   2710   2719     1   0.15375 251793.120000
   2713   2725     1   0.15375 251793.120000
   2716   2722     1   0.15375 251793.120000
   2719   2728     1   0.14316 258236.480000
   2722   5488     1   0.14316 258236.480000
   2725   5518     1   0.14316 258236.480000
   2730   2731     1   0.15110 237065.440000
   2730   2734     1   0.15110 237065.440000
   2730   2737     1   0.15110 237065.440000
   2731   2743     1   0.15375 251793.120000
   2734   2746     1   0.15375 251793.120000
   2737   2740     1   0.15375 251793.120000
   2740   2749     1   0.15375 251793.120000
   2743   2755     1   0.15375 251793.120000
   2746   2752     1   0.15375 251793.120000
   2749   2758     1   0.14316 258236.480000
   2752   5548     1   0.14316 258236.480000
   2755   5578     1   0.14316 258236.480000
   2760   2761     1   0.15110 237065.440000
   2760   2764     1   0.15110 237065.440000
   2760   2767     1   0.15110 237065.440000
   2761   2773     1   0.15375 251793.120000
   2764   2776     1   0.15375 251793.120000
   2767   2770     1   0.15375 251793.120000
   2770   2779     1   0.15375 251793.120000
   2773   2785     1   0.15375 251793.120000
   2776   2782     1   0.15375 251793.120000
   2779   2788     1   0.14316 258236.480000
   2782   5608     1   0.14316 258236.480000
   2785   5638     1   0.14316 258236.480000
   2790   2791     1   0.15110 237065.440000
   2790   2794     1   0.15110 237065.440000
   2790   2797     1   0.15110 237065.440000
   2791   2803     1   0.15375 251793.120000
   2794   2806     1   0.15375 251793.120000
   2797   2800     1   0.15375 251793.120000
   2800   2809     1   0.15375 251793.120000
   2803   2815     1   0.15375 251793.120000
   2806   2812     1   0.15375 251793.120000
   2809   2818     1   0.14316 258236.480000
   2812   5668     1   0.14316 258236.480000
   2815   5698     1   0.14316 258236.480000
   2820   2821     1   0.15110 237065.440000
   2820   2824     1   0.15110 237065.440000
   2820   2827     1   0.15110 237065.440000
   2821   2833     1   0.15375 251793.120000
   2824   2836     1   0.15375 251793.120000
   2827   2830     1   0.15375 251793.120000
   2830   2839     1   0.15375 251793.120000
   2833   2845     1   0.15375 251793.120000
   2836   2842     1   0.15375 251793.120000
   2839   2848     1   0.14316 258236.480000
   2842   5728     1   0.14316 258236.480000
   2845   5758     1   0.14316 258236.480000
   2850   2851     1   0.15110 237065.440000
   2850   2854     1   0.15110 237065.440000
   2850   2857     1   0.15110 237065.440000
   2851   2863     1   0.15375 251793.120000
   2854   2866     1   0.15375 251793.120000
   2857   2860     1   0.15375 251793.120000
   2860   2869     1   0.15375 251793.120000
   2863   2875     1   0.15375 251793.120000
   2866   2872     1   0.15375 251793.120000
   2869   2878     1   0.14316 258236.480000
   2872   5788     1   0.14316 258236.480000
   2875   5818     1   0.14316 258236.480000
   2880   2881     1   0.15110 237065.440000
   2880   2884     1   0.15110 237065.440000
   2880   2887     1   0.15110 237065.440000
   2881   2893     1   0.15375 251793.120000
   2884   2896     1   0.15375 251793.120000
   2887   2890     1   0.15375 251793.120000
   2890   2899     1   0.15375 251793.120000
   2893   2905     1   0.15375 251793.120000
   2896   2902     1   0.15375 251793.120000
   2899   2908     1   0.14316 258236.480000
   2902   5848     1   0.14316 258236.480000
   2905   5878     1   0.14316 258236.480000
   2910   2911     1   0.15110 237065.440000
   2910   2914     1   0.15110 237065.440000
   2910   2917     1   0.15110 237065.440000
   2911   2923     1   0.15375 251793.120000
   2914   2926     1   0.15375 251793.120000
   2917   2920     1   0.15375 251793.120000
   2920   2929     1   0.15375 251793.120000
   2923   2935     1   0.15375 251793.120000
   2926   2932     1   0.15375 251793.120000
   2929   2938     1   0.14316 258236.480000
   2932   5908     1   0.14316 258236.480000
   2935   5938     1   0.14316 258236.480000
   2940   2941     1   0.15110 237065.440000
   2940   2944     1   0.15110 237065.440000
   2940   2947     1   0.15110 237065.440000
   2941   2953     1   0.15375 251793.120000
   2944   2956     1   0.15375 251793.120000
   2947   2950     1   0.15375 251793.120000
   2950   2959     1   0.15375 251793.120000
   2953   2965     1   0.15375 251793.120000
   2956   2962     1   0.15375 251793.120000
   2959   2968     1   0.14316 258236.480000
   2962   5968     1   0.14316 258236.480000
   2965   5998     1   0.14316 258236.480000
   2970   2971     1   0.15110 237065.440000
   2970   2974     1   0.15110 237065.440000
   2970   2977     1   0.15110 237065.440000
   2971   2983     1   0.15375 251793.120000
   2974   2986     1   0.15375 251793.120000
   2977   2980     1   0.15375 251793.120000
   2980   2989     1   0.15375 251793.120000
   2983   2995     1   0.15375 251793.120000
   2986   2992     1   0.15375 251793.120000
   2989   2998     1   0.14316 258236.480000
   2992   6028     1   0.14316 258236.480000
   2995   6058     1   0.14316 258236.480000
   3000   3001     1   0.15110 237065.440000
   3000   3004     1   0.15110 237065.440000
   3000   3007     1   0.15110 237065.440000
   3001   3013     1   0.15375 251793.120000
   3004   3016     1   0.15375 251793.120000
   3007   3010     1   0.15375 251793.120000
   3010   3019     1   0.15375 251793.120000
   3013   3025     1   0.15375 251793.120000
   3016   3022     1   0.15375 251793.120000
   3019   3028     1   0.14316 258236.480000
   3022   6088     1   0.14316 258236.480000
   3025   6118     1   0.14316 258236.480000
   3030   3031     1   0.15110 237065.440000
   3030   3034     1   0.15110 237065.440000
   3030   3037     1   0.15110 237065.440000
   3031   3043     1   0.15375 251793.120000
   3034   3046     1   0.15375 251793.120000
   3037   3040     1   0.15375 251793.120000
   3040   3049     1   0.15375 251793.120000
   3043   3055     1   0.15375 251793.120000
   3046   3052     1   0.15375 251793.120000
   3049   3058     1   0.14316 258236.480000
   3052   6148     1   0.14316 258236.480000
   3055   6178     1   0.14316 258236.480000
   3060   3061     1   0.15110 237065.440000
   3060   3064     1   0.15110 237065.440000
   3060   3067     1   0.15110 237065.440000
   3061   3073     1   0.15375 251793.120000
   3064   3076     1   0.15375 251793.120000
   3067   3070     1   0.15375 251793.120000
   3070   3079     1   0.15375 251793.120000
   3073   3085     1   0.15375 251793.120000
   3076   3082     1   0.15375 251793.120000
   3079   3088     1   0.14316 258236.480000
   3082   6208     1   0.14316 258236.480000
   3085   6238     1   0.14316 258236.480000
   3090   3091     1   0.15110 237065.440000
   3090   3094     1   0.15110 237065.440000
   3090   3097     1   0.15110 237065.440000
   3091   3103     1   0.15375 251793.120000
   3094   3106     1   0.15375 251793.120000
   3097   3100     1   0.15375 251793.120000
   3100   3109     1   0.15375 251793.120000
   3103   3115     1   0.15375 251793.120000
   3106   3112     1   0.15375 251793.120000
   3109   3118     1   0.14316 258236.480000
   3112   6268     1   0.14316 258236.480000
   3115   6298     1   0.14316 258236.480000
   3120   3121     1   0.15110 237065.440000
   3120   3124     1   0.15110 237065.440000
   3120   3127     1   0.15110 237065.440000
   3121   3133     1   0.15375 251793.120000
   3124   3136     1   0.15375 251793.120000
   3127   3130     1   0.15375 251793.120000
   3130   3139     1   0.15375 251793.120000
   3133   3145     1   0.15375 251793.120000
   3136   3142     1   0.15375 251793.120000
   3139   3148     1   0.14316 258236.480000
   3142   6328     1   0.14316 258236.480000
   3145   6358     1   0.14316 258236.480000
   3150   3151     1   0.15110 237065.440000
   3150   3154     1   0.15110 237065.440000
   3150   3157     1   0.15110 237065.440000
   3151   3163     1   0.15375 251793.120000
   3154   3166     1   0.15375 251793.120000
   3157   3160     1   0.15375 251793.120000
   3160   3169     1   0.15375 251793.120000
   3163   3175     1   0.15375 251793.120000
   3166   3172     1   0.15375 251793.120000
   3169   3178     1   0.14316 258236.480000
   3172   6388     1   0.14316 258236.480000
   3175   6418     1   0.14316 258236.480000
   3180   3181     1   0.15110 237065.440000
   3180   3184     1   0.15110 237065.440000
   3180   3187     1   0.15110 237065.440000
   3181   3193     1   0.15375 251793.120000
   3184   3196     1   0.15375 251793.120000
   3187   3190     1   0.15375 251793.120000
   3190   3199     1   0.15375 251793.120000
   3193   3205     1   0.15375 251793.120000
   3196   3202     1   0.15375 251793.120000
   3199   3208     1   0.14316 258236.480000
   3202   6448     1   0.14316 258236.480000
   3205   6478     1   0.14316 258236.480000
   3210   3211     1   0.15110 237065.440000
   3210   3214     1   0.15110 237065.440000
   3210   3217     1   0.15110 237065.440000
   3211   3223     1   0.15375 251793.120000
   3214   3226     1   0.15375 251793.120000
   3217   3220     1   0.15375 251793.120000
   3220   3229     1   0.15375 251793.120000
   3223   3235     1   0.15375 251793.120000
   3226   3232     1   0.15375 251793.120000
   3229   3238     1   0.14316 258236.480000
   3232   6508     1   0.14316 258236.480000
   3235   6538     1   0.14316 258236.480000
   3240   3241     1   0.15110 237065.440000
   3240   3244     1   0.15110 237065.440000
   3240   3247     1   0.15110 237065.440000
   3241   3253     1   0.15375 251793.120000
   3244   3256     1   0.15375 251793.120000
   3247   3250     1   0.15375 251793.120000
   3250   3259     1   0.15375 251793.120000
   3253   3265     1   0.15375 251793.120000
   3256   3262     1   0.15375 251793.120000
   3259   3268     1   0.14316 258236.480000
   3262   6568     1   0.14316 258236.480000
   3265   6598     1   0.14316 258236.480000
   3270   3271     1   0.15110 237065.440000
   3270   3274     1   0.15110 237065.440000
   3270   3277     1   0.15110 237065.440000
   3271   3283     1   0.15375 251793.120000
   3274   3286     1   0.15375 251793.120000
   3277   3280     1   0.15375 251793.120000
   3280   3289     1   0.15375 251793.120000
   3283   3295     1   0.15375 251793.120000
   3286   3292     1   0.15375 251793.120000
   3289   3298     1   0.14316 258236.480000
   3292   6628     1   0.14316 258236.480000
   3295   6658     1   0.14316 258236.480000
   3300   3301     1   0.15110 237065.440000
   3300   3304     1   0.15110 237065.440000
   3300   3307     1   0.15110 237065.440000
   3301   3313     1   0.15375 251793.120000
   3304   3316     1   0.15375 251793.120000
   3307   3310     1   0.15375 251793.120000
   3310   3319     1   0.15375 251793.120000
   3313   3325     1   0.15375 251793.120000
   3316   3322     1   0.15375 251793.120000
   3319   3328     1   0.14316 258236.480000
   3322   6688     1   0.14316 258236.480000
   3325   6718     1   0.14316 258236.480000
   3330   3331     1   0.15110 237065.440000
   3330   3334     1   0.15110 237065.440000
   3330   3337     1   0.15110 237065.440000
   3331   3343     1   0.15375 251793.120000
   3334   3346     1   0.15375 251793.120000
   3337   3340     1   0.15375 251793.120000
   3340   3349     1   0.15375 251793.120000
   3343   3355     1   0.15375 251793.120000
   3346   3352     1   0.15375 251793.120000
   3349   3358     1   0.14316 258236.480000
   3352   6748     1   0.14316 258236.480000
   3355   6778     1   0.14316 258236.480000
   3360   3361     1   0.15110 237065.440000
   3360   3364     1   0.15110 237065.440000
   3360   3367     1   0.15110 237065.440000
   3361   3373     1   0.15375 251793.120000
   3364   3376     1   0.15375 251793.120000
   3367   3370     1   0.15375 251793.120000
   3370   3379     1   0.15375 251793.120000
   3373   3385     1   0.15375 251793.120000
   3376   3382     1   0.15375 251793.120000
   3379   3388     1   0.14316 258236.480000
   3382   6808     1   0.14316 258236.480000
   3385   6838     1   0.14316 258236.480000
   3390   3391     1   0.15110 237065.440000
   3390   3394     1   0.15110 237065.440000
   3390   3397     1   0.15110 237065.440000
   3391   3403     1   0.15375 251793.120000
   3394   3406     1   0.15375 251793.120000
   3397   3400     1   0.15375 251793.120000
   3400   3409     1   0.15375 251793.120000
   3403   3415     1   0.15375 251793.120000
   3406   3412     1   0.15375 251793.120000
   3409   3418     1   0.14316 258236.480000
   3412   6868     1   0.14316 258236.480000
   3415   6898     1   0.14316 258236.480000
   3420   3421     1   0.15110 237065.440000
   3420   3424     1   0.15110 237065.440000
   3420   3427     1   0.15110 237065.440000
   3421   3433     1   0.15375 251793.120000
   3424   3436     1   0.15375 251793.120000
   3427   3430     1   0.15375 251793.120000
   3430   3439     1   0.15375 251793.120000
   3433   3445     1   0.15375 251793.120000
   3436   3442     1   0.15375 251793.120000
   3439   3448     1   0.14316 258236.480000
   3442   6928     1   0.14316 258236.480000
   3445   6958     1   0.14316 258236.480000
   3450   3451     1   0.15110 237065.440000
   3450   3454     1   0.15110 237065.440000
   3450   3457     1   0.15110 237065.440000
   3451   3463     1   0.15375 251793.120000
   3454   3466     1   0.15375 251793.120000
   3457   3460     1   0.15375 251793.120000
   3460   3469     1   0.15375 251793.120000
   3463   3475     1   0.15375 251793.120000
   3466   3472     1   0.15375 251793.120000
   3469   3478     1   0.14316 258236.480000
   3472   6988     1   0.14316 258236.480000
   3475   7018     1   0.14316 258236.480000
   3480   3481     1   0.15110 237065.440000
   3480   3484     1   0.15110 237065.440000
   3480   3487     1   0.15110 237065.440000
   3481   3493     1   0.15375 251793.120000
   3484   3496     1   0.15375 251793.120000
   3487   3490     1   0.15375 251793.120000
   3490   3499     1   0.15375 251793.120000
   3493   3505     1   0.15375 251793.120000
   3496   3502     1   0.15375 251793.120000
   3499   3508     1   0.14316 258236.480000
   3502   7048     1   0.14316 258236.480000
   3505   7078     1   0.14316 258236.480000
   3510   3511     1   0.15110 237065.440000
   3510   3514     1   0.15110 237065.440000
   3510   3517     1   0.15110 237065.440000
   3511   3523     1   0.15375 251793.120000
   3514   3526     1   0.15375 251793.120000
   3517   3520     1   0.15375 251793.120000
   3520   3529     1   0.15375 251793.120000
   3523   3535     1   0.15375 251793.120000
   3526   3532     1   0.15375 251793.120000
   3529   3538     1   0.14316 258236.480000
   3532   7108     1   0.14316 258236.480000
   3535   7138     1   0.14316 258236.480000
   3540   3541     1   0.15110 237065.440000
   3540   3544     1   0.15110 237065.440000
   3540   3547     1   0.15110 237065.440000
   3541   3553     1   0.15375 251793.120000
   3544   3556     1   0.15375 251793.120000
   3547   3550     1   0.15375 251793.120000
   3550   3559     1   0.15375 251793.120000
   3553   3565     1   0.15375 251793.120000
   3556   3562     1   0.15375 251793.120000
   3559   3568     1   0.14316 258236.480000
   3562   7168     1   0.14316 258236.480000
   3565   7198     1   0.14316 258236.480000
   3570   3571     1   0.15110 237065.440000
   3570   3574     1   0.15110 237065.440000
   3570   3577     1   0.15110 237065.440000
   3571   3583     1   0.15375 251793.120000
   3574   3586     1   0.15375 251793.120000
   3577   3580     1   0.15375 251793.120000
   3580   3589     1   0.15375 251793.120000
   3583   3595     1   0.15375 251793.120000
   3586   3592     1   0.15375 251793.120000
   3589   3598     1   0.14316 258236.480000
   3592   7228     1   0.14316 258236.480000
   3595   7258     1   0.14316 258236.480000
   3600   3601     1   0.15110 237065.440000
   3600   3604     1   0.15110 237065.440000
   3600   3607     1   0.15110 237065.440000
   3601   3613     1   0.15375 251793.120000
   3604   3616     1   0.15375 251793.120000
   3607   3610     1   0.15375 251793.120000
   3610   3619     1   0.15375 251793.120000
   3613   3625     1   0.15375 251793.120000
   3616   3622     1   0.15375 251793.120000
   3619   3628     1   0.14316 258236.480000
   3622   7288     1   0.14316 258236.480000
   3625   7318     1   0.14316 258236.480000
   3630   3631     1   0.15110 237065.440000
   3630   3634     1   0.15110 237065.440000
   3630   3637     1   0.15110 237065.440000
   3631   3643     1   0.15375 251793.120000
   3634   3646     1   0.15375 251793.120000
   3637   3640     1   0.15375 251793.120000
   3640   3649     1   0.15375 251793.120000
   3643   3655     1   0.15375 251793.120000
   3646   3652     1   0.15375 251793.120000
   3649   3658     1   0.14316 258236.480000
   3652   7348     1   0.14316 258236.480000
   3655   7378     1   0.14316 258236.480000
   3660   3661     1   0.15110 237065.440000
   3660   3664     1   0.15110 237065.440000
   3660   3667     1   0.15110 237065.440000
   3661   3673     1   0.15375 251793.120000
   3664   3676     1   0.15375 251793.120000
   3667   3670     1   0.15375 251793.120000
   3670   3679     1   0.15375 251793.120000
   3673   3685     1   0.15375 251793.120000
   3676   3682     1   0.15375 251793.120000
   3679   3688     1   0.14316 258236.480000
   3682   7408     1   0.14316 258236.480000
   3685   7438     1   0.14316 258236.480000
   3690   3691     1   0.15110 237065.440000
   3690   3694     1   0.15110 237065.440000
   3690   3697     1   0.15110 237065.440000
   3691   3703     1   0.15375 251793.120000
   3694   3706     1   0.15375 251793.120000
   3697   3700     1   0.15375 251793.120000
   3700   3709     1   0.15375 251793.120000
   3703   3715     1   0.15375 251793.120000
   3706   3712     1   0.15375 251793.120000
   3709   3718     1   0.14316 258236.480000
   3712   7468     1   0.14316 258236.480000
   3715   7498     1   0.14316 258236.480000
   3720   3721     1   0.15110 237065.440000
   3720   3724     1   0.15110 237065.440000
   3720   3727     1   0.15110 237065.440000
   3721   3733     1   0.15375 251793.120000
   3724   3736     1   0.15375 251793.120000
   3727   3730     1   0.15375 251793.120000
   3730   3739     1   0.15375 251793.120000
   3733   3745     1   0.15375 251793.120000
   3736   3742     1   0.15375 251793.120000
   3739   3748     1   0.14316 258236.480000
   3742   7528     1   0.14316 258236.480000
   3745   7558     1   0.14316 258236.480000
   3750   3751     1   0.15110 237065.440000
   3750   3754     1   0.15110 237065.440000
   3750   3757     1   0.15110 237065.440000
   3751   3763     1   0.15375 251793.120000
   3754   3766     1   0.15375 251793.120000
   3757   3760     1   0.15375 251793.120000
   3760   3769     1   0.15375 251793.120000
   3763   3775     1   0.15375 251793.120000
   3766   3772     1   0.15375 251793.120000
   3769   3778     1   0.14316 258236.480000
   3772   7588     1   0.14316 258236.480000
   3775   7618     1   0.14316 258236.480000
   3780   3781     1   0.15110 237065.440000
   3780   3784     1   0.15110 237065.440000
   3780   3787     1   0.15110 237065.440000
   3781   3793     1   0.15375 251793.120000
   3784   3796     1   0.15375 251793.120000
   3787   3790     1   0.15375 251793.120000
   3790   3799     1   0.15375 251793.120000
   3793   3805     1   0.15375 251793.120000
   3796   3802     1   0.15375 251793.120000
   3799   3808     1   0.14316 258236.480000
   3802   7648     1   0.14316 258236.480000
   3805   7678     1   0.14316 258236.480000
   3810   3811     1   0.15110 237065.440000
   3810   3814     1   0.15110 237065.440000
   3810   3817     1   0.15110 237065.440000
   3811   3823     1   0.15375 251793.120000
   3814   3826     1   0.15375 251793.120000
   3817   3820     1   0.15375 251793.120000
   3820   3829     1   0.15375 251793.120000
   3823   3835     1   0.15375 251793.120000
   3826   3832     1   0.15375 251793.120000
   3829   3838     1   0.14316 258236.480000
   3832   7708     1   0.14316 258236.480000
   3835   7738     1   0.14316 258236.480000
   3840   3841     1   0.15110 237065.440000
   3840   3844     1   0.15110 237065.440000
   3840   3847     1   0.15110 237065.440000
   3841   3853     1   0.15375 251793.120000
   3844   3856     1   0.15375 251793.120000
   3847   3850     1   0.15375 251793.120000
   3850   3859     1   0.15375 251793.120000
   3853   3865     1   0.15375 251793.120000
   3856   3862     1   0.15375 251793.120000
   3859   3868     1   0.14316 258236.480000
   3862   7768     1   0.14316 258236.480000
   3865   7798     1   0.14316 258236.480000
   3870   3871     1   0.15110 237065.440000
   3870   3874     1   0.15110 237065.440000
   3870   3877     1   0.15110 237065.440000
   3871   3883     1   0.15375 251793.120000
   3874   3886     1   0.15375 251793.120000
   3877   3880     1   0.15375 251793.120000
   3880   3889     1   0.15375 251793.120000
   3883   3895     1   0.15375 251793.120000
   3886   3892     1   0.15375 251793.120000
   3889   3898     1   0.14316 258236.480000
   3892   7828     1   0.14316 258236.480000
   3895   7858     1   0.14316 258236.480000
   3900   3901     1   0.15110 237065.440000
   3900   3904     1   0.15110 237065.440000
   3900   3907     1   0.15110 237065.440000
   3901   3913     1   0.15375 251793.120000
   3904   3916     1   0.15375 251793.120000
   3907   3910     1   0.15375 251793.120000
   3910   3919     1   0.15375 251793.120000
   3913   3925     1   0.15375 251793.120000
   3916   3922     1   0.15375 251793.120000
   3919   3928     1   0.14316 258236.480000
   3922   7888     1   0.14316 258236.480000
   3925   7918     1   0.14316 258236.480000
   3930   3931     1   0.15110 237065.440000
   3930   3934     1   0.15110 237065.440000
   3930   3937     1   0.15110 237065.440000
   3931   3943     1   0.15375 251793.120000
   3934   3946     1   0.15375 251793.120000
   3937   3940     1   0.15375 251793.120000
   3940   3949     1   0.15375 251793.120000
   3943   3955     1   0.15375 251793.120000
   3946   3952     1   0.15375 251793.120000
   3949   3958     1   0.14316 258236.480000
   3952   7948     1   0.14316 258236.480000
   3955   7978     1   0.14316 258236.480000
   3960   3961     1   0.15110 237065.440000
   3960   3964     1   0.15110 237065.440000
   3960   3967     1   0.15110 237065.440000
   3961   3973     1   0.15375 251793.120000
   3964   3976     1   0.15375 251793.120000
   3967   3970     1   0.15375 251793.120000
   3970   3979     1   0.15375 251793.120000
   3973   3985     1   0.15375 251793.120000
   3976   3982     1   0.15375 251793.120000
   3979   3988     1   0.14316 258236.480000
   3982   8008     1   0.14316 258236.480000
   3985   8038     1   0.14316 258236.480000
   3990   3991     1   0.15110 237065.440000
   3990   3994     1   0.15110 237065.440000
   3990   3997     1   0.15110 237065.440000
   3991   4003     1   0.15375 251793.120000
   3994   4006     1   0.15375 251793.120000
   3997   4000     1   0.15375 251793.120000
   4000   4009     1   0.15375 251793.120000
   4003   4015     1   0.15375 251793.120000
   4006   4012     1   0.15375 251793.120000
   4009   4018     1   0.14316 258236.480000
   4012   8068     1   0.14316 258236.480000
   4015   8098     1   0.14316 258236.480000
   4020   4021     1   0.15110 237065.440000
   4020   4024     1   0.15110 237065.440000
   4020   4027     1   0.15110 237065.440000
   4021   4033     1   0.15375 251793.120000
   4024   4036     1   0.15375 251793.120000
   4027   4030     1   0.15375 251793.120000
   4030   4039     1   0.15375 251793.120000
   4033   4045     1   0.15375 251793.120000
   4036   4042     1   0.15375 251793.120000
   4039   4048     1   0.14316 258236.480000
   4042   8128     1   0.14316 258236.480000
   4045   8158     1   0.14316 258236.480000
   4050   4051     1   0.15110 237065.440000
   4050   4054     1   0.15110 237065.440000
   4050   4057     1   0.15110 237065.440000
   4051   4063     1   0.15375 251793.120000
   4054   4066     1   0.15375 251793.120000
   4057   4060     1   0.15375 251793.120000
   4060   4069     1   0.15375 251793.120000
   4063   4075     1   0.15375 251793.120000
   4066   4072     1   0.15375 251793.120000
   4069   4078     1   0.14316 258236.480000
   4072   8188     1   0.14316 258236.480000
   4075   8218     1   0.14316 258236.480000
   4080   4081     1   0.15110 237065.440000
   4080   4084     1   0.15110 237065.440000
   4080   4087     1   0.15110 237065.440000
   4081   4093     1   0.15375 251793.120000
   4084   4096     1   0.15375 251793.120000
   4087   4090     1   0.15375 251793.120000
   4090   4099     1   0.15375 251793.120000
   4093   4105     1   0.15375 251793.120000
   4096   4102     1   0.15375 251793.120000
   4099   4108     1   0.14316 258236.480000
   4102   8248     1   0.14316 258236.480000
   4105   8278     1   0.14316 258236.480000
   4110   4111     1   0.15110 237065.440000
   4110   4114     1   0.15110 237065.440000
   4110   4117     1   0.15110 237065.440000
   4111   4123     1   0.15375 251793.120000
   4114   4126     1   0.15375 251793.120000
   4117   4120     1   0.15375 251793.120000
   4120   4129     1   0.15375 251793.120000
   4123   4135     1   0.15375 251793.120000
   4126   4132     1   0.15375 251793.120000
   4129   4138     1   0.14316 258236.480000
   4132   8308     1   0.14316 258236.480000
   4135   8338     1   0.14316 258236.480000
   4140   4141     1   0.15110 237065.440000
   4140   4144     1   0.15110 237065.440000
   4140   4147     1   0.15110 237065.440000
   4141   4153     1   0.15375 251793.120000
   4144   4156     1   0.15375 251793.120000
   4147   4150     1   0.15375 251793.120000
   4150   4159     1   0.15375 251793.120000
   4153   4165     1   0.15375 251793.120000
   4156   4162     1   0.15375 251793.120000
   4159   4168     1   0.14316 258236.480000
   4162   8368     1   0.14316 258236.480000
   4165   8398     1   0.14316 258236.480000
   4170   4171     1   0.15110 237065.440000
   4170   4174     1   0.15110 237065.440000
   4170   4177     1   0.15110 237065.440000
   4171   4183     1   0.15375 251793.120000
   4174   4186     1   0.15375 251793.120000
   4177   4180     1   0.15375 251793.120000
   4180   4189     1   0.15375 251793.120000
   4183   4195     1   0.15375 251793.120000
   4186   4192     1   0.15375 251793.120000
   4189   4198     1   0.14316 258236.480000
   4192   8428     1   0.14316 258236.480000
   4195   8458     1   0.14316 258236.480000
   4200   4201     1   0.15110 237065.440000
   4200   4204     1   0.15110 237065.440000
   4200   4207     1   0.15110 237065.440000
   4201   4213     1   0.15375 251793.120000
   4204   4216     1   0.15375 251793.120000
   4207   4210     1   0.15375 251793.120000
   4210   4219     1   0.15375 251793.120000
   4213   4225     1   0.15375 251793.120000
   4216   4222     1   0.15375 251793.120000
   4219   4228     1   0.14316 258236.480000
   4222   8488     1   0.14316 258236.480000
   4225   8518     1   0.14316 258236.480000
   4230   4231     1   0.15110 237065.440000
   4230   4234     1   0.15110 237065.440000
   4230   4237     1   0.15110 237065.440000
   4231   4243     1   0.15375 251793.120000
   4234   4246     1   0.15375 251793.120000
   4237   4240     1   0.15375 251793.120000
   4240   4249     1   0.15375 251793.120000
   4243   4255     1   0.15375 251793.120000
   4246   4252     1   0.15375 251793.120000
   4249   4258     1   0.14316 258236.480000
   4252   8548     1   0.14316 258236.480000
   4255   8578     1   0.14316 258236.480000
   4260   4261     1   0.15110 237065.440000
   4260   4264     1   0.15110 237065.440000
   4260   4267     1   0.15110 237065.440000
   4261   4273     1   0.15375 251793.120000
   4264   4276     1   0.15375 251793.120000
   4267   4270     1   0.15375 251793.120000
   4270   4279     1   0.15375 251793.120000
   4273   4285     1   0.15375 251793.120000
   4276   4282     1   0.15375 251793.120000
   4279   4288     1   0.14316 258236.480000
   4282   8608     1   0.14316 258236.480000
   4285   8638     1   0.14316 258236.480000
   4290   4291     1   0.15110 237065.440000
   4290   4294     1   0.15110 237065.440000
   4290   4297     1   0.15110 237065.440000
   4291   4303     1   0.15375 251793.120000
   4294   4306     1   0.15375 251793.120000
   4297   4300     1   0.15375 251793.120000
   4300   4309     1   0.15375 251793.120000
   4303   4315     1   0.15375 251793.120000
   4306   4312     1   0.15375 251793.120000
   4309   4318     1   0.14316 258236.480000
   4312   8668     1   0.14316 258236.480000
   4315   8698     1   0.14316 258236.480000
   4320   4321     1   0.15110 237065.440000
   4320   4324     1   0.15110 237065.440000
   4320   4327     1   0.15110 237065.440000
   4321   4333     1   0.15375 251793.120000
   4324   4336     1   0.15375 251793.120000
   4327   4330     1   0.15375 251793.120000
   4330   4339     1   0.15375 251793.120000
   4333   4345     1   0.15375 251793.120000
   4336   4342     1   0.15375 251793.120000
   4339   4348     1   0.14316 258236.480000
   4342   8728     1   0.14316 258236.480000
   4345   8758     1   0.14316 258236.480000
   4350   4351     1   0.15110 237065.440000
   4350   4354     1   0.15110 237065.440000
   4350   4357     1   0.15110 237065.440000
   4351   4363     1   0.15375 251793.120000
   4354   4366     1   0.15375 251793.120000
   4357   4360     1   0.15375 251793.120000
   4360   4369     1   0.15375 251793.120000
   4363   4375     1   0.15375 251793.120000
   4366   4372     1   0.15375 251793.120000
   4369   4378     1   0.14316 258236.480000
   4372   8788     1   0.14316 258236.480000
   4375   8818     1   0.14316 258236.480000
   4380   4381     1   0.15110 237065.440000
   4380   4384     1   0.15110 237065.440000
   4380   4387     1   0.15110 237065.440000
   4381   4393     1   0.15375 251793.120000
   4384   4396     1   0.15375 251793.120000
   4387   4390     1   0.15375 251793.120000
   4390   4399     1   0.15375 251793.120000
   4393   4405     1   0.15375 251793.120000
   4396   4402     1   0.15375 251793.120000
   4399   4408     1   0.14316 258236.480000
   4402   8848     1   0.14316 258236.480000
   4405   8878     1   0.14316 258236.480000
   4410   4411     1   0.15110 237065.440000
   4410   4414     1   0.15110 237065.440000
   4410   4417     1   0.15110 237065.440000
   4411   4423     1   0.15375 251793.120000
   4414   4426     1   0.15375 251793.120000
   4417   4420     1   0.15375 251793.120000
   4420   4429     1   0.15375 251793.120000
   4423   4435     1   0.15375 251793.120000
   4426   4432     1   0.15375 251793.120000
   4429   4438     1   0.14316 258236.480000
   4432   8908     1   0.14316 258236.480000
   4435   8938     1   0.14316 258236.480000
   4440   4441     1   0.15110 237065.440000
   4440   4444     1   0.15110 237065.440000
   4440   4447     1   0.15110 237065.440000
   4441   4453     1   0.15375 251793.120000
   4444   4456     1   0.15375 251793.120000
   4447   4450     1   0.15375 251793.120000
   4450   4459     1   0.15375 251793.120000
   4453   4465     1   0.15375 251793.120000
   4456   4462     1   0.15375 251793.120000
   4459   4468     1   0.14316 258236.480000
   4462   8968     1   0.14316 258236.480000
   4465   8998     1   0.14316 258236.480000
   4470   4471     1   0.15110 237065.440000
   4470   4474     1   0.15110 237065.440000
   4470   4477     1   0.15110 237065.440000
   4471   4483     1   0.15375 251793.120000
   4474   4486     1   0.15375 251793.120000
   4477   4480     1   0.15375 251793.120000
   4480   4489     1   0.15375 251793.120000
   4483   4495     1   0.15375 251793.120000
   4486   4492     1   0.15375 251793.120000
   4489   4498     1   0.14316 258236.480000
   4492   9028     1   0.14316 258236.480000
   4495   9058     1   0.14316 258236.480000
   4500   4501     1   0.15110 237065.440000
   4500   4504     1   0.15110 237065.440000
   4500   4507     1   0.15110 237065.440000
   4501   4513     1   0.15375 251793.120000
   4504   4516     1   0.15375 251793.120000
   4507   4510     1   0.15375 251793.120000
   4510   4519     1   0.15375 251793.120000
   4513   4525     1   0.15375 251793.120000
   4516   4522     1   0.15375 251793.120000
   4519   4528     1   0.14316 258236.480000
   4522   9088     1   0.14316 258236.480000
   4525   9118     1   0.14316 258236.480000
   4530   4531     1   0.15110 237065.440000
   4530   4534     1   0.15110 237065.440000
   4530   4537     1   0.15110 237065.440000
   4531   4543     1   0.15375 251793.120000
   4534   4546     1   0.15375 251793.120000
   4537   4540     1   0.15375 251793.120000
   4540   4549     1   0.15375 251793.120000
   4543   4555     1   0.15375 251793.120000
   4546   4552     1   0.15375 251793.120000
   4549   4558     1   0.14316 258236.480000
   4552   9148     1   0.14316 258236.480000
   4555   9178     1   0.14316 258236.480000
   4560   4561     1   0.15110 237065.440000
   4560   4564     1   0.15110 237065.440000
   4560   4567     1   0.15110 237065.440000
   4561   4573     1   0.15375 251793.120000
   4564   4576     1   0.15375 251793.120000
   4567   4570     1   0.15375 251793.120000
   4570   4579     1   0.15375 251793.120000
   4573   4585     1   0.15375 251793.120000
   4576   4582     1   0.15375 251793.120000
   4579   4588     1   0.14316 258236.480000
   4582   9208     1   0.14316 258236.480000
   4585   9238     1   0.14316 258236.480000
   4590   4591     1   0.15110 237065.440000
   4590   4594     1   0.15110 237065.440000
   4590   4597     1   0.15110 237065.440000
   4591   4603     1   0.15375 251793.120000
   4594   4606     1   0.15375 251793.120000
   4597   4600     1   0.15375 251793.120000
   4600   4609     1   0.15375 251793.120000
   4603   4615     1   0.15375 251793.120000
   4606   4612     1   0.15375 251793.120000
   4609   4618     1   0.14316 258236.480000
   4612   9268     1   0.14316 258236.480000
   4615   9298     1   0.14316 258236.480000
   4620   4621     1   0.15110 237065.440000
   4620   4624     1   0.15110 237065.440000
   4620   4627     1   0.15110 237065.440000
   4621   4633     1   0.15375 251793.120000
   4624   4636     1   0.15375 251793.120000
   4627   4630     1   0.15375 251793.120000
   4630   4639     1   0.15375 251793.120000
   4633   4645     1   0.15375 251793.120000
   4636   4642     1   0.15375 251793.120000
   4639   4648     1   0.14316 258236.480000
   4642   9328     1   0.14316 258236.480000
   4645   9358     1   0.14316 258236.480000
   4650   4651     1   0.15110 237065.440000
   4650   4654     1   0.15110 237065.440000
   4650   4657     1   0.15110 237065.440000
   4651   4663     1   0.15375 251793.120000
   4654   4666     1   0.15375 251793.120000
   4657   4660     1   0.15375 251793.120000
   4660   4669     1   0.15375 251793.120000
   4663   4675     1   0.15375 251793.120000
   4666   4672     1   0.15375 251793.120000
   4669   4678     1   0.14316 258236.480000
   4672   9388     1   0.14316 258236.480000
   4675   9418     1   0.14316 258236.480000
   4680   4681     1   0.15110 237065.440000
   4680   4684     1   0.15110 237065.440000
   4680   4687     1   0.15110 237065.440000
   4681   4693     1   0.15375 251793.120000
   4684   4696     1   0.15375 251793.120000
   4687   4690     1   0.15375 251793.120000
   4690   4699     1   0.15375 251793.120000
   4693   4705     1   0.15375 251793.120000
   4696   4702     1   0.15375 251793.120000
   4699   4708     1   0.14316 258236.480000
   4702   9448     1   0.14316 258236.480000
   4705   9478     1   0.14316 258236.480000
   4710   4711     1   0.15110 237065.440000
   4710   4714     1   0.15110 237065.440000
   4710   4717     1   0.15110 237065.440000
   4711   4723     1   0.15375 251793.120000
   4714   4726     1   0.15375 251793.120000
   4717   4720     1   0.15375 251793.120000
   4720   4729     1   0.15375 251793.120000
   4723   4735     1   0.15375 251793.120000
   4726   4732     1   0.15375 251793.120000
   4729   4738     1   0.14316 258236.480000
   4732   9508     1   0.14316 258236.480000
   4735   9538     1   0.14316 258236.480000
   4740   4741     1   0.15110 237065.440000
   4740   4744     1   0.15110 237065.440000
   4740   4747     1   0.15110 237065.440000
   4741   4753     1   0.15375 251793.120000
   4744   4756     1   0.15375 251793.120000
   4747   4750     1   0.15375 251793.120000
   4750   4759     1   0.15375 251793.120000
   4753   4765     1   0.15375 251793.120000
   4756   4762     1   0.15375 251793.120000
   4759   4768     1   0.14316 258236.480000
   4762   9568     1   0.14316 258236.480000
   4765   9598     1   0.14316 258236.480000
   4770   4771     1   0.15110 237065.440000
   4770   4774     1   0.15110 237065.440000
   4770   4777     1   0.15110 237065.440000
   4771   4783     1   0.15375 251793.120000
   4774   4786     1   0.15375 251793.120000
   4777   4780     1   0.15375 251793.120000
   4780   4789     1   0.15375 251793.120000
   4783   4795     1   0.15375 251793.120000
   4786   4792     1   0.15375 251793.120000
   4789   4798     1   0.14316 258236.480000
   4792   9628     1   0.14316 258236.480000
   4795   9658     1   0.14316 258236.480000
   4800   4801     1   0.15110 237065.440000
   4800   4804     1   0.15110 237065.440000
   4800   4807     1   0.15110 237065.440000
   4801   4813     1   0.15375 251793.120000
   4804   4816     1   0.15375 251793.120000
   4807   4810     1   0.15375 251793.120000
   4810   4819     1   0.15375 251793.120000
   4813   4825     1   0.15375 251793.120000
   4816   4822     1   0.15375 251793.120000
   4819   4828     1   0.14316 258236.480000
   4822   9688     1   0.14316 258236.480000
   4825   9718     1   0.14316 258236.480000
   4830   4831     1   0.15110 237065.440000
   4830   4834     1   0.15110 237065.440000
   4830   4837     1   0.15110 237065.440000
   4831   4843     1   0.15375 251793.120000
   4834   4846     1   0.15375 251793.120000
   4837   4840     1   0.15375 251793.120000
   4840   4849     1   0.15375 251793.120000
   4843   4855     1   0.15375 251793.120000
   4846   4852     1   0.15375 251793.120000
   4849   4858     1   0.14316 258236.480000
   4852   9748     1   0.14316 258236.480000
   4855   9778     1   0.14316 258236.480000
   4860   4861     1   0.15110 237065.440000
   4860   4864     1   0.15110 237065.440000
   4860   4867     1   0.15110 237065.440000
   4861   4873     1   0.15375 251793.120000
   4864   4876     1   0.15375 251793.120000
   4867   4870     1   0.15375 251793.120000
   4870   4879     1   0.15375 251793.120000
   4873   4885     1   0.15375 251793.120000
   4876   4882     1   0.15375 251793.120000
   4879   4888     1   0.14316 258236.480000
   4882   9808     1   0.14316 258236.480000
   4885   9838     1   0.14316 258236.480000
   4890   4891     1   0.15110 237065.440000
   4890   4894     1   0.15110 237065.440000
   4890   4897     1   0.15110 237065.440000
   4891   4903     1   0.15375 251793.120000
   4894   4906     1   0.15375 251793.120000
   4897   4900     1   0.15375 251793.120000
   4900   4909     1   0.15375 251793.120000
   4903   4915     1   0.15375 251793.120000
   4906   4912     1   0.15375 251793.120000
   4909   4918     1   0.14316 258236.480000
   4912   9868     1   0.14316 258236.480000
   4915   9898     1   0.14316 258236.480000
   4920   4921     1   0.15110 237065.440000
   4920   4924     1   0.15110 237065.440000
   4920   4927     1   0.15110 237065.440000
   4921   4933     1   0.15375 251793.120000
   4924   4936     1   0.15375 251793.120000
   4927   4930     1   0.15375 251793.120000
   4930   4939     1   0.15375 251793.120000
   4933   4945     1   0.15375 251793.120000
   4936   4942     1   0.15375 251793.120000
   4939   4948     1   0.14316 258236.480000
   4942   9928     1   0.14316 258236.480000
   4945   9958     1   0.14316 258236.480000
   4950   4951     1   0.15110 237065.440000
   4950   4954     1   0.15110 237065.440000
   4950   4957     1   0.15110 237065.440000
   4951   4963     1   0.15375 251793.120000
   4954   4966     1   0.15375 251793.120000
   4957   4960     1   0.15375 251793.120000
   4960   4969     1   0.15375 251793.120000
   4963   4975     1   0.15375 251793.120000
   4966   4972     1   0.15375 251793.120000
   4969   4978     1   0.14316 258236.480000
   4972   9988     1   0.14316 258236.480000
   4975  10018     1   0.14316 258236.480000
   4980   4981     1   0.15110 237065.440000
   4980   4984     1   0.15110 237065.440000
   4980   4987     1   0.15110 237065.440000
   4981   4993     1   0.15375 251793.120000
   4984   4996     1   0.15375 251793.120000
   4987   4990     1   0.15375 251793.120000
   4990   4999     1   0.15375 251793.120000
   4993   5005     1   0.15375 251793.120000
   4996   5002     1   0.15375 251793.120000
   4999   5008     1   0.14316 258236.480000
   5002  10048     1   0.14316 258236.480000
   5005  10078     1   0.14316 258236.480000
   5010   5011     1   0.15110 237065.440000
   5010   5014     1   0.15110 237065.440000
   5010   5017     1   0.15110 237065.440000
   5011   5023     1   0.15375 251793.120000
   5014   5026     1   0.15375 251793.120000
   5017   5020     1   0.15375 251793.120000
   5020   5029     1   0.15375 251793.120000
   5023   5035     1   0.15375 251793.120000
   5026   5032     1   0.15375 251793.120000
   5029   5038     1   0.14316 258236.480000
   5032  10108     1   0.14316 258236.480000
   5035  10138     1   0.14316 258236.480000
   5040   5041     1   0.15110 237065.440000
   5040   5044     1   0.15110 237065.440000
   5040   5047     1   0.15110 237065.440000
   5041   5053     1   0.15375 251793.120000
   5044   5056     1   0.15375 251793.120000
   5047   5050     1   0.15375 251793.120000
   5050   5059     1   0.15375 251793.120000
   5053   5065     1   0.15375 251793.120000
   5056   5062     1   0.15375 251793.120000
   5059   5068     1   0.14316 258236.480000
   5062  10168     1   0.14316 258236.480000
   5065  10198     1   0.14316 258236.480000
   5070   5071     1   0.15110 237065.440000
   5070   5074     1   0.15110 237065.440000
   5070   5077     1   0.15110 237065.440000
   5071   5083     1   0.15375 251793.120000
   5074   5086     1   0.15375 251793.120000
   5077   5080     1   0.15375 251793.120000
   5080   5089     1   0.15375 251793.120000
   5083   5095     1   0.15375 251793.120000
   5086   5092     1   0.15375 251793.120000
   5089   5098     1   0.14316 258236.480000
   5092  10228     1   0.14316 258236.480000
   5095  10258     1   0.14316 258236.480000
   5100   5101     1   0.15110 237065.440000
   5100   5104     1   0.15110 237065.440000
   5100   5107     1   0.15110 237065.440000
   5101   5113     1   0.15375 251793.120000
   5104   5116     1   0.15375 251793.120000
   5107   5110     1   0.15375 251793.120000
   5110   5119     1   0.15375 251793.120000
   5113   5125     1   0.15375 251793.120000
   5116   5122     1   0.15375 251793.120000
   5119   5128     1   0.14316 258236.480000
   5122  10288     1   0.14316 258236.480000
   5125  10318     1   0.14316 258236.480000
   5130   5131     1   0.15110 237065.440000
   5130   5134     1   0.15110 237065.440000
   5130   5137     1   0.15110 237065.440000
   5131   5143     1   0.15375 251793.120000
   5134   5146     1   0.15375 251793.120000
   5137   5140     1   0.15375 251793.120000
   5140   5149     1   0.15375 251793.120000
   5143   5155     1   0.15375 251793.120000
   5146   5152     1   0.15375 251793.120000
   5149   5158     1   0.14316 258236.480000
   5152  10348     1   0.14316 258236.480000
   5155  10378     1   0.14316 258236.480000
   5160   5161     1   0.15110 237065.440000
   5160   5164     1   0.15110 237065.440000
   5160   5167     1   0.15110 237065.440000
   5161   5173     1   0.15375 251793.120000
   5164   5176     1   0.15375 251793.120000
   5167   5170     1   0.15375 251793.120000
   5170   5179     1   0.15375 251793.120000
   5173   5185     1   0.15375 251793.120000
   5176   5182     1   0.15375 251793.120000
   5179   5188     1   0.14316 258236.480000
   5182  10408     1   0.14316 258236.480000
   5185  10438     1   0.14316 258236.480000
   5190   5191     1   0.15110 237065.440000
   5190   5194     1   0.15110 237065.440000
   5190   5197     1   0.15110 237065.440000
   5191   5203     1   0.15375 251793.120000
   5194   5206     1   0.15375 251793.120000
   5197   5200     1   0.15375 251793.120000
   5200   5209     1   0.15375 251793.120000
   5203   5215     1   0.15375 251793.120000
   5206   5212     1   0.15375 251793.120000
   5209   5218     1   0.14316 258236.480000
   5212  10468     1   0.14316 258236.480000
   5215  10498     1   0.14316 258236.480000
   5220   5221     1   0.15110 237065.440000
   5220   5224     1   0.15110 237065.440000
   5220   5227     1   0.15110 237065.440000
   5221   5233     1   0.15375 251793.120000
   5224   5236     1   0.15375 251793.120000
   5227   5230     1   0.15375 251793.120000
   5230   5239     1   0.15375 251793.120000
   5233   5245     1   0.15375 251793.120000
   5236   5242     1   0.15375 251793.120000
   5239   5248     1   0.14316 258236.480000
   5242  10528     1   0.14316 258236.480000
   5245  10558     1   0.14316 258236.480000
   5250   5251     1   0.15110 237065.440000
   5250   5254     1   0.15110 237065.440000
   5250   5257     1   0.15110 237065.440000
   5251   5263     1   0.15375 251793.120000
   5254   5266     1   0.15375 251793.120000
   5257   5260     1   0.15375 251793.120000
   5260   5269     1   0.15375 251793.120000
   5263   5275     1   0.15375 251793.120000
   5266   5272     1   0.15375 251793.120000
   5269   5278     1   0.14316 258236.480000
   5272  10588     1   0.14316 258236.480000
   5275  10618     1   0.14316 258236.480000
   5280   5281     1   0.15110 237065.440000
   5280   5284     1   0.15110 237065.440000
   5280   5287     1   0.15110 237065.440000
   5281   5293     1   0.15375 251793.120000
   5284   5296     1   0.15375 251793.120000
   5287   5290     1   0.15375 251793.120000
   5290   5299     1   0.15375 251793.120000
   5293   5305     1   0.15375 251793.120000
   5296   5302     1   0.15375 251793.120000
   5299   5308     1   0.14316 258236.480000
   5302  10648     1   0.14316 258236.480000
   5305  10678     1   0.14316 258236.480000
   5310   5311     1   0.15110 237065.440000
   5310   5314     1   0.15110 237065.440000
   5310   5317     1   0.15110 237065.440000
   5311   5323     1   0.15375 251793.120000
   5314   5326     1   0.15375 251793.120000
   5317   5320     1   0.15375 251793.120000
   5320   5329     1   0.15375 251793.120000
   5323   5335     1   0.15375 251793.120000
   5326   5332     1   0.15375 251793.120000
   5329   5338     1   0.14316 258236.480000
   5332  10708     1   0.14316 258236.480000
   5335  10738     1   0.14316 258236.480000
   5340   5341     1   0.15110 237065.440000
   5340   5344     1   0.15110 237065.440000
   5340   5347     1   0.15110 237065.440000
   5341   5353     1   0.15375 251793.120000
   5344   5356     1   0.15375 251793.120000
   5347   5350     1   0.15375 251793.120000
   5350   5359     1   0.15375 251793.120000
   5353   5365     1   0.15375 251793.120000
   5356   5362     1   0.15375 251793.120000
   5359   5368     1   0.14316 258236.480000
   5362  10768     1   0.14316 258236.480000
   5365  10798     1   0.14316 258236.480000
   5370   5371     1   0.15110 237065.440000
   5370   5374     1   0.15110 237065.440000
   5370   5377     1   0.15110 237065.440000
   5371   5383     1   0.15375 251793.120000
   5374   5386     1   0.15375 251793.120000
   5377   5380     1   0.15375 251793.120000
   5380   5389     1   0.15375 251793.120000
   5383   5395     1   0.15375 251793.120000
   5386   5392     1   0.15375 251793.120000
   5389   5398     1   0.14316 258236.480000
   5392  10828     1   0.14316 258236.480000
   5395  10858     1   0.14316 258236.480000
   5400   5401     1   0.15110 237065.440000
   5400   5404     1   0.15110 237065.440000
   5400   5407     1   0.15110 237065.440000
   5401   5413     1   0.15375 251793.120000
   5404   5416     1   0.15375 251793.120000
   5407   5410     1   0.15375 251793.120000
   5410   5419     1   0.15375 251793.120000
   5413   5425     1   0.15375 251793.120000
   5416   5422     1   0.15375 251793.120000
   5419   5428     1   0.14316 258236.480000
   5422  10888     1   0.14316 258236.480000
   5425  10918     1   0.14316 258236.480000
   5430   5431     1   0.15110 237065.440000
   5430   5434     1   0.15110 237065.440000
   5430   5437     1   0.15110 237065.440000
   5431   5443     1   0.15375 251793.120000
   5434   5446     1   0.15375 251793.120000
   5437   5440     1   0.15375 251793.120000
   5440   5449     1   0.15375 251793.120000
   5443   5455     1   0.15375 251793.120000
   5446   5452     1   0.15375 251793.120000
   5449   5458     1   0.14316 258236.480000
   5452  10948     1   0.14316 258236.480000
   5455  10978     1   0.14316 258236.480000
   5460   5461     1   0.15110 237065.440000
   5460   5464     1   0.15110 237065.440000
   5460   5467     1   0.15110 237065.440000
   5461   5473     1   0.15375 251793.120000
   5464   5476     1   0.15375 251793.120000
   5467   5470     1   0.15375 251793.120000
   5470   5479     1   0.15375 251793.120000
   5473   5485     1   0.15375 251793.120000
   5476   5482     1   0.15375 251793.120000
   5479   5488     1   0.14316 258236.480000
   5482  11008     1   0.14316 258236.480000
   5485  11038     1   0.14316 258236.480000
   5490   5491     1   0.15110 237065.440000
   5490   5494     1   0.15110 237065.440000
   5490   5497     1   0.15110 237065.440000
   5491   5503     1   0.15375 251793.120000
   5494   5506     1   0.15375 251793.120000
   5497   5500     1   0.15375 251793.120000
   5500   5509     1   0.15375 251793.120000
   5503   5515     1   0.15375 251793.120000
   5506   5512     1   0.15375 251793.120000
   5509   5518     1   0.14316 258236.480000
   5512  11068     1   0.14316 258236.480000
   5515  11098     1   0.14316 258236.480000
   5520   5521     1   0.15110 237065.440000
   5520   5524     1   0.15110 237065.440000
   5520   5527     1   0.15110 237065.440000
   5521   5533     1   0.15375 251793.120000
   5524   5536     1   0.15375 251793.120000
   5527   5530     1   0.15375 251793.120000
   5530   5539     1   0.15375 251793.120000
   5533   5545     1   0.15375 251793.120000
   5536   5542     1   0.15375 251793.120000
   5539   5548     1   0.14316 258236.480000
   5542  11128     1   0.14316 258236.480000
   5545  11158     1   0.14316 258236.480000
   5550   5551     1   0.15110 237065.440000
   5550   5554     1   0.15110 237065.440000
   5550   5557     1   0.15110 237065.440000
   5551   5563     1   0.15375 251793.120000
   5554   5566     1   0.15375 251793.120000
   5557   5560     1   0.15375 251793.120000
   5560   5569     1   0.15375 251793.120000
   5563   5575     1   0.15375 251793.120000
   5566   5572     1   0.15375 251793.120000
   5569   5578     1   0.14316 258236.480000
   5572  11188     1   0.14316 258236.480000
   5575  11218     1   0.14316 258236.480000
   5580   5581     1   0.15110 237065.440000
   5580   5584     1   0.15110 237065.440000
   5580   5587     1   0.15110 237065.440000
   5581   5593     1   0.15375 251793.120000
   5584   5596     1   0.15375 251793.120000
   5587   5590     1   0.15375 251793.120000
   5590   5599     1   0.15375 251793.120000
   5593   5605     1   0.15375 251793.120000
   5596   5602     1   0.15375 251793.120000
   5599   5608     1   0.14316 258236.480000
   5602  11248     1   0.14316 258236.480000
   5605  11278     1   0.14316 258236.480000
   5610   5611     1   0.15110 237065.440000
   5610   5614     1   0.15110 237065.440000
   5610   5617     1   0.15110 237065.440000
   5611   5623     1   0.15375 251793.120000
   5614   5626     1   0.15375 251793.120000
   5617   5620     1   0.15375 251793.120000
   5620   5629     1   0.15375 251793.120000
   5623   5635     1   0.15375 251793.120000
   5626   5632     1   0.15375 251793.120000
   5629   5638     1   0.14316 258236.480000
   5632  11308     1   0.14316 258236.480000
   5635  11338     1   0.14316 258236.480000
   5640   5641     1   0.15110 237065.440000
   5640   5644     1   0.15110 237065.440000
   5640   5647     1   0.15110 237065.440000
   5641   5653     1   0.15375 251793.120000
   5644   5656     1   0.15375 251793.120000
   5647   5650     1   0.15375 251793.120000
   5650   5659     1   0.15375 251793.120000
   5653   5665     1   0.15375 251793.120000
   5656   5662     1   0.15375 251793.120000
   5659   5668     1   0.14316 258236.480000
   5662  11368     1   0.14316 258236.480000
   5665  11398     1   0.14316 258236.480000
   5670   5671     1   0.15110 237065.440000
   5670   5674     1   0.15110 237065.440000
   5670   5677     1   0.15110 237065.440000
   5671   5683     1   0.15375 251793.120000
   5674   5686     1   0.15375 251793.120000
   5677   5680     1   0.15375 251793.120000
   5680   5689     1   0.15375 251793.120000
   5683   5695     1   0.15375 251793.120000
   5686   5692     1   0.15375 251793.120000
   5689   5698     1   0.14316 258236.480000
   5692  11428     1   0.14316 258236.480000
   5695  11458     1   0.14316 258236.480000
   5700   5701     1   0.15110 237065.440000
   5700   5704     1   0.15110 237065.440000
   5700   5707     1   0.15110 237065.440000
   5701   5713     1   0.15375 251793.120000
   5704   5716     1   0.15375 251793.120000
   5707   5710     1   0.15375 251793.120000
   5710   5719     1   0.15375 251793.120000
   5713   5725     1   0.15375 251793.120000
   5716   5722     1   0.15375 251793.120000
   5719   5728     1   0.14316 258236.480000
   5722  11470     1   0.14316 258236.480000
   5725  11493     1   0.14316 258236.480000
   5730   5731     1   0.15110 237065.440000
   5730   5734     1   0.15110 237065.440000
   5730   5737     1   0.15110 237065.440000
   5731   5743     1   0.15375 251793.120000
   5734   5746     1   0.15375 251793.120000
   5737   5740     1   0.15375 251793.120000
   5740   5749     1   0.15375 251793.120000
   5743   5755     1   0.15375 251793.120000
   5746   5752     1   0.15375 251793.120000
   5749   5758     1   0.14316 258236.480000
   5752  11516     1   0.14316 258236.480000
   5755  11539     1   0.14316 258236.480000
   5760   5761     1   0.15110 237065.440000
   5760   5764     1   0.15110 237065.440000
   5760   5767     1   0.15110 237065.440000
   5761   5773     1   0.15375 251793.120000
   5764   5776     1   0.15375 251793.120000
   5767   5770     1   0.15375 251793.120000
   5770   5779     1   0.15375 251793.120000
   5773   5785     1   0.15375 251793.120000
   5776   5782     1   0.15375 251793.120000
   5779   5788     1   0.14316 258236.480000
   5782  11562     1   0.14316 258236.480000
   5785  11585     1   0.14316 258236.480000
   5790   5791     1   0.15110 237065.440000
   5790   5794     1   0.15110 237065.440000
   5790   5797     1   0.15110 237065.440000
   5791   5803     1   0.15375 251793.120000
   5794   5806     1   0.15375 251793.120000
   5797   5800     1   0.15375 251793.120000
   5800   5809     1   0.15375 251793.120000
   5803   5815     1   0.15375 251793.120000
   5806   5812     1   0.15375 251793.120000
   5809   5818     1   0.14316 258236.480000
   5812  11608     1   0.14316 258236.480000
   5815  11631     1   0.14316 258236.480000
   5820   5821     1   0.15110 237065.440000
   5820   5824     1   0.15110 237065.440000
   5820   5827     1   0.15110 237065.440000
   5821   5833     1   0.15375 251793.120000
   5824   5836     1   0.15375 251793.120000
   5827   5830     1   0.15375 251793.120000
   5830   5839     1   0.15375 251793.120000
   5833   5845     1   0.15375 251793.120000
   5836   5842     1   0.15375 251793.120000
   5839   5848     1   0.14316 258236.480000
   5842  11654     1   0.14316 258236.480000
   5845  11677     1   0.14316 258236.480000
   5850   5851     1   0.15110 237065.440000
   5850   5854     1   0.15110 237065.440000
   5850   5857     1   0.15110 237065.440000
   5851   5863     1   0.15375 251793.120000
   5854   5866     1   0.15375 251793.120000
   5857   5860     1   0.15375 251793.120000
   5860   5869     1   0.15375 251793.120000
   5863   5875     1   0.15375 251793.120000
   5866   5872     1   0.15375 251793.120000
   5869   5878     1   0.14316 258236.480000
   5872  11700     1   0.14316 258236.480000
   5875  11723     1   0.14316 258236.480000
   5880   5881     1   0.15110 237065.440000
   5880   5884     1   0.15110 237065.440000
   5880   5887     1   0.15110 237065.440000
   5881   5893     1   0.15375 251793.120000
   5884   5896     1   0.15375 251793.120000
   5887   5890     1   0.15375 251793.120000
   5890   5899     1   0.15375 251793.120000
   5893   5905     1   0.15375 251793.120000
   5896   5902     1   0.15375 251793.120000
   5899   5908     1   0.14316 258236.480000
   5902  11746     1   0.14316 258236.480000
   5905  11769     1   0.14316 258236.480000
   5910   5911     1   0.15110 237065.440000
   5910   5914     1   0.15110 237065.440000
   5910   5917     1   0.15110 237065.440000
   5911   5923     1   0.15375 251793.120000
   5914   5926     1   0.15375 251793.120000
   5917   5920     1   0.15375 251793.120000
   5920   5929     1   0.15375 251793.120000
   5923   5935     1   0.15375 251793.120000
   5926   5932     1   0.15375 251793.120000
   5929   5938     1   0.14316 258236.480000
   5932  11792     1   0.14316 258236.480000
   5935  11815     1   0.14316 258236.480000
   5940   5941     1   0.15110 237065.440000
   5940   5944     1   0.15110 237065.440000
   5940   5947     1   0.15110 237065.440000
   5941   5953     1   0.15375 251793.120000
   5944   5956     1   0.15375 251793.120000
   5947   5950     1   0.15375 251793.120000
   5950   5959     1   0.15375 251793.120000
   5953   5965     1   0.15375 251793.120000
   5956   5962     1   0.15375 251793.120000
   5959   5968     1   0.14316 258236.480000
   5962  11838     1   0.14316 258236.480000
   5965  11861     1   0.14316 258236.480000
   5970   5971     1   0.15110 237065.440000
   5970   5974     1   0.15110 237065.440000
   5970   5977     1   0.15110 237065.440000
   5971   5983     1   0.15375 251793.120000
   5974   5986     1   0.15375 251793.120000
   5977   5980     1   0.15375 251793.120000
   5980   5989     1   0.15375 251793.120000
   5983   5995     1   0.15375 251793.120000
   5986   5992     1   0.15375 251793.120000
   5989   5998     1   0.14316 258236.480000
   5992  11884     1   0.14316 258236.480000
   5995  11907     1   0.14316 258236.480000
   6000   6001     1   0.15110 237065.440000
   6000   6004     1   0.15110 237065.440000
   6000   6007     1   0.15110 237065.440000
   6001   6013     1   0.15375 251793.120000
   6004   6016     1   0.15375 251793.120000
   6007   6010     1   0.15375 251793.120000
   6010   6019     1   0.15375 251793.120000
   6013   6025     1   0.15375 251793.120000
   6016   6022     1   0.15375 251793.120000
   6019   6028     1   0.14316 258236.480000
   6022  11930     1   0.14316 258236.480000
   6025  11953     1   0.14316 258236.480000
   6030   6031     1   0.15110 237065.440000
   6030   6034     1   0.15110 237065.440000
   6030   6037     1   0.15110 237065.440000
   6031   6043     1   0.15375 251793.120000
   6034   6046     1   0.15375 251793.120000
   6037   6040     1   0.15375 251793.120000
   6040   6049     1   0.15375 251793.120000
   6043   6055     1   0.15375 251793.120000
   6046   6052     1   0.15375 251793.120000
   6049   6058     1   0.14316 258236.480000
   6052  11976     1   0.14316 258236.480000
   6055  11999     1   0.14316 258236.480000
   6060   6061     1   0.15110 237065.440000
   6060   6064     1   0.15110 237065.440000
   6060   6067     1   0.15110 237065.440000
   6061   6073     1   0.15375 251793.120000
   6064   6076     1   0.15375 251793.120000
   6067   6070     1   0.15375 251793.120000
   6070   6079     1   0.15375 251793.120000
   6073   6085     1   0.15375 251793.120000
   6076   6082     1   0.15375 251793.120000
   6079   6088     1   0.14316 258236.480000
   6082  12022     1   0.14316 258236.480000
   6085  12045     1   0.14316 258236.480000
   6090   6091     1   0.15110 237065.440000
   6090   6094     1   0.15110 237065.440000
   6090   6097     1   0.15110 237065.440000
   6091   6103     1   0.15375 251793.120000
   6094   6106     1   0.15375 251793.120000
   6097   6100     1   0.15375 251793.120000
   6100   6109     1   0.15375 251793.120000
   6103   6115     1   0.15375 251793.120000
   6106   6112     1   0.15375 251793.120000
   6109   6118     1   0.14316 258236.480000
   6112  12068     1   0.14316 258236.480000
   6115  12091     1   0.14316 258236.480000
   6120   6121     1   0.15110 237065.440000
   6120   6124     1   0.15110 237065.440000
   6120   6127     1   0.15110 237065.440000
   6121   6133     1   0.15375 251793.120000
   6124   6136     1   0.15375 251793.120000
   6127   6130     1   0.15375 251793.120000
   6130   6139     1   0.15375 251793.120000
   6133   6145     1   0.15375 251793.120000
   6136   6142     1   0.15375 251793.120000
   6139   6148     1   0.14316 258236.480000
   6142  12114     1   0.14316 258236.480000
   6145  12137     1   0.14316 258236.480000
   6150   6151     1   0.15110 237065.440000
   6150   6154     1   0.15110 237065.440000
   6150   6157     1   0.15110 237065.440000
   6151   6163     1   0.15375 251793.120000
   6154   6166     1   0.15375 251793.120000
   6157   6160     1   0.15375 251793.120000
   6160   6169     1   0.15375 251793.120000
   6163   6175     1   0.15375 251793.120000
   6166   6172     1   0.15375 251793.120000
   6169   6178     1   0.14316 258236.480000
   6172  12160     1   0.14316 258236.480000
   6175  12183     1   0.14316 258236.480000
   6180   6181     1   0.15110 237065.440000
   6180   6184     1   0.15110 237065.440000
   6180   6187     1   0.15110 237065.440000
   6181   6193     1   0.15375 251793.120000
   6184   6196     1   0.15375 251793.120000
   6187   6190     1   0.15375 251793.120000
   6190   6199     1   0.15375 251793.120000
   6193   6205     1   0.15375 251793.120000
   6196   6202     1   0.15375 251793.120000
   6199   6208     1   0.14316 258236.480000
   6202  12206     1   0.14316 258236.480000
   6205  12229     1   0.14316 258236.480000
   6210   6211     1   0.15110 237065.440000
   6210   6214     1   0.15110 237065.440000
   6210   6217     1   0.15110 237065.440000
   6211   6223     1   0.15375 251793.120000
   6214   6226     1   0.15375 251793.120000
   6217   6220     1   0.15375 251793.120000
   6220   6229     1   0.15375 251793.120000
   6223   6235     1   0.15375 251793.120000
   6226   6232     1   0.15375 251793.120000
   6229   6238     1   0.14316 258236.480000
   6232  12252     1   0.14316 258236.480000
   6235  12275     1   0.14316 258236.480000
   6240   6241     1   0.15110 237065.440000
   6240   6244     1   0.15110 237065.440000
   6240   6247     1   0.15110 237065.440000
   6241   6253     1   0.15375 251793.120000
   6244   6256     1   0.15375 251793.120000
   6247   6250     1   0.15375 251793.120000
   6250   6259     1   0.15375 251793.120000
   6253   6265     1   0.15375 251793.120000
   6256   6262     1   0.15375 251793.120000
   6259   6268     1   0.14316 258236.480000
   6262  12298     1   0.14316 258236.480000
   6265  12321     1   0.14316 258236.480000
   6270   6271     1   0.15110 237065.440000
   6270   6274     1   0.15110 237065.440000
   6270   6277     1   0.15110 237065.440000
   6271   6283     1   0.15375 251793.120000
   6274   6286     1   0.15375 251793.120000
   6277   6280     1   0.15375 251793.120000
   6280   6289     1   0.15375 251793.120000
   6283   6295     1   0.15375 251793.120000
   6286   6292     1   0.15375 251793.120000
   6289   6298     1   0.14316 258236.480000
   6292  12344     1   0.14316 258236.480000
   6295  12367     1   0.14316 258236.480000
   6300   6301     1   0.15110 237065.440000
   6300   6304     1   0.15110 237065.440000
   6300   6307     1   0.15110 237065.440000
   6301   6313     1   0.15375 251793.120000
   6304   6316     1   0.15375 251793.120000
   6307   6310     1   0.15375 251793.120000
   6310   6319     1   0.15375 251793.120000
   6313   6325     1   0.15375 251793.120000
   6316   6322     1   0.15375 251793.120000
   6319   6328     1   0.14316 258236.480000
   6322  12390     1   0.14316 258236.480000
   6325  12413     1   0.14316 258236.480000
   6330   6331     1   0.15110 237065.440000
   6330   6334     1   0.15110 237065.440000
   6330   6337     1   0.15110 237065.440000
   6331   6343     1   0.15375 251793.120000
   6334   6346     1   0.15375 251793.120000
   6337   6340     1   0.15375 251793.120000
   6340   6349     1   0.15375 251793.120000
   6343   6355     1   0.15375 251793.120000
   6346   6352     1   0.15375 251793.120000
   6349   6358     1   0.14316 258236.480000
   6352  12436     1   0.14316 258236.480000
   6355  12459     1   0.14316 258236.480000
   6360   6361     1   0.15110 237065.440000
   6360   6364     1   0.15110 237065.440000
   6360   6367     1   0.15110 237065.440000
   6361   6373     1   0.15375 251793.120000
   6364   6376     1   0.15375 251793.120000
   6367   6370     1   0.15375 251793.120000
   6370   6379     1   0.15375 251793.120000
   6373   6385     1   0.15375 251793.120000
   6376   6382     1   0.15375 251793.120000
   6379   6388     1   0.14316 258236.480000
   6382  12482     1   0.14316 258236.480000
   6385  12505     1   0.14316 258236.480000
   6390   6391     1   0.15110 237065.440000
   6390   6394     1   0.15110 237065.440000
   6390   6397     1   0.15110 237065.440000
   6391   6403     1   0.15375 251793.120000
   6394   6406     1   0.15375 251793.120000
   6397   6400     1   0.15375 251793.120000
   6400   6409     1   0.15375 251793.120000
   6403   6415     1   0.15375 251793.120000
   6406   6412     1   0.15375 251793.120000
   6409   6418     1   0.14316 258236.480000
   6412  12528     1   0.14316 258236.480000
   6415  12551     1   0.14316 258236.480000
   6420   6421     1   0.15110 237065.440000
   6420   6424     1   0.15110 237065.440000
   6420   6427     1   0.15110 237065.440000
   6421   6433     1   0.15375 251793.120000
   6424   6436     1   0.15375 251793.120000
   6427   6430     1   0.15375 251793.120000
   6430   6439     1   0.15375 251793.120000
   6433   6445     1   0.15375 251793.120000
   6436   6442     1   0.15375 251793.120000
   6439   6448     1   0.14316 258236.480000
   6442  12574     1   0.14316 258236.480000
   6445  12597     1   0.14316 258236.480000
   6450   6451     1   0.15110 237065.440000
   6450   6454     1   0.15110 237065.440000
   6450   6457     1   0.15110 237065.440000
   6451   6463     1   0.15375 251793.120000
   6454   6466     1   0.15375 251793.120000
   6457   6460     1   0.15375 251793.120000
   6460   6469     1   0.15375 251793.120000
   6463   6475     1   0.15375 251793.120000
   6466   6472     1   0.15375 251793.120000
   6469   6478     1   0.14316 258236.480000
   6472  12620     1   0.14316 258236.480000
   6475  12643     1   0.14316 258236.480000
   6480   6481     1   0.15110 237065.440000
   6480   6484     1   0.15110 237065.440000
   6480   6487     1   0.15110 237065.440000
   6481   6493     1   0.15375 251793.120000
   6484   6496     1   0.15375 251793.120000
   6487   6490     1   0.15375 251793.120000
   6490   6499     1   0.15375 251793.120000
   6493   6505     1   0.15375 251793.120000
   6496   6502     1   0.15375 251793.120000
   6499   6508     1   0.14316 258236.480000
   6502  12666     1   0.14316 258236.480000
   6505  12689     1   0.14316 258236.480000
   6510   6511     1   0.15110 237065.440000
   6510   6514     1   0.15110 237065.440000
   6510   6517     1   0.15110 237065.440000
   6511   6523     1   0.15375 251793.120000
   6514   6526     1   0.15375 251793.120000
   6517   6520     1   0.15375 251793.120000
   6520   6529     1   0.15375 251793.120000
   6523   6535     1   0.15375 251793.120000
   6526   6532     1   0.15375 251793.120000
   6529   6538     1   0.14316 258236.480000
   6532  12712     1   0.14316 258236.480000
   6535  12735     1   0.14316 258236.480000
   6540   6541     1   0.15110 237065.440000
   6540   6544     1   0.15110 237065.440000
   6540   6547     1   0.15110 237065.440000
   6541   6553     1   0.15375 251793.120000
   6544   6556     1   0.15375 251793.120000
   6547   6550     1   0.15375 251793.120000
   6550   6559     1   0.15375 251793.120000
   6553   6565     1   0.15375 251793.120000
   6556   6562     1   0.15375 251793.120000
   6559   6568     1   0.14316 258236.480000
   6562  12758     1   0.14316 258236.480000
   6565  12781     1   0.14316 258236.480000
   6570   6571     1   0.15110 237065.440000
   6570   6574     1   0.15110 237065.440000
   6570   6577     1   0.15110 237065.440000
   6571   6583     1   0.15375 251793.120000
   6574   6586     1   0.15375 251793.120000
   6577   6580     1   0.15375 251793.120000
   6580   6589     1   0.15375 251793.120000
   6583   6595     1   0.15375 251793.120000
   6586   6592     1   0.15375 251793.120000
   6589   6598     1   0.14316 258236.480000
   6592  12804     1   0.14316 258236.480000
   6595  12827     1   0.14316 258236.480000
   6600   6601     1   0.15110 237065.440000
   6600   6604     1   0.15110 237065.440000
   6600   6607     1   0.15110 237065.440000
   6601   6613     1   0.15375 251793.120000
   6604   6616     1   0.15375 251793.120000
   6607   6610     1   0.15375 251793.120000
   6610   6619     1   0.15375 251793.120000
   6613   6625     1   0.15375 251793.120000
   6616   6622     1   0.15375 251793.120000
   6619   6628     1   0.14316 258236.480000
   6622  12850     1   0.14316 258236.480000
   6625  12873     1   0.14316 258236.480000
   6630   6631     1   0.15110 237065.440000
   6630   6634     1   0.15110 237065.440000
   6630   6637     1   0.15110 237065.440000
   6631   6643     1   0.15375 251793.120000
   6634   6646     1   0.15375 251793.120000
   6637   6640     1   0.15375 251793.120000
   6640   6649     1   0.15375 251793.120000
   6643   6655     1   0.15375 251793.120000
   6646   6652     1   0.15375 251793.120000
   6649   6658     1   0.14316 258236.480000
   6652  12896     1   0.14316 258236.480000
   6655  12919     1   0.14316 258236.480000
   6660   6661     1   0.15110 237065.440000
   6660   6664     1   0.15110 237065.440000
   6660   6667     1   0.15110 237065.440000
   6661   6673     1   0.15375 251793.120000
   6664   6676     1   0.15375 251793.120000
   6667   6670     1   0.15375 251793.120000
   6670   6679     1   0.15375 251793.120000
   6673   6685     1   0.15375 251793.120000
   6676   6682     1   0.15375 251793.120000
   6679   6688     1   0.14316 258236.480000
   6682  12942     1   0.14316 258236.480000
   6685  12965     1   0.14316 258236.480000
   6690   6691     1   0.15110 237065.440000
   6690   6694     1   0.15110 237065.440000
   6690   6697     1   0.15110 237065.440000
   6691   6703     1   0.15375 251793.120000
   6694   6706     1   0.15375 251793.120000
   6697   6700     1   0.15375 251793.120000
   6700   6709     1   0.15375 251793.120000
   6703   6715     1   0.15375 251793.120000
   6706   6712     1   0.15375 251793.120000
   6709   6718     1   0.14316 258236.480000
   6712  12988     1   0.14316 258236.480000
   6715  13011     1   0.14316 258236.480000
   6720   6721     1   0.15110 237065.440000
   6720   6724     1   0.15110 237065.440000
   6720   6727     1   0.15110 237065.440000
   6721   6733     1   0.15375 251793.120000
   6724   6736     1   0.15375 251793.120000
   6727   6730     1   0.15375 251793.120000
   6730   6739     1   0.15375 251793.120000
   6733   6745     1   0.15375 251793.120000
   6736   6742     1   0.15375 251793.120000
   6739   6748     1   0.14316 258236.480000
   6742  13034     1   0.14316 258236.480000
   6745  13057     1   0.14316 258236.480000
   6750   6751     1   0.15110 237065.440000
   6750   6754     1   0.15110 237065.440000
   6750   6757     1   0.15110 237065.440000
   6751   6763     1   0.15375 251793.120000
   6754   6766     1   0.15375 251793.120000
   6757   6760     1   0.15375 251793.120000
   6760   6769     1   0.15375 251793.120000
   6763   6775     1   0.15375 251793.120000
   6766   6772     1   0.15375 251793.120000
   6769   6778     1   0.14316 258236.480000
   6772  13080     1   0.14316 258236.480000
   6775  13103     1   0.14316 258236.480000
   6780   6781     1   0.15110 237065.440000
   6780   6784     1   0.15110 237065.440000
   6780   6787     1   0.15110 237065.440000
   6781   6793     1   0.15375 251793.120000
   6784   6796     1   0.15375 251793.120000
   6787   6790     1   0.15375 251793.120000
   6790   6799     1   0.15375 251793.120000
   6793   6805     1   0.15375 251793.120000
   6796   6802     1   0.15375 251793.120000
   6799   6808     1   0.14316 258236.480000
   6802  13126     1   0.14316 258236.480000
   6805  13149     1   0.14316 258236.480000
   6810   6811     1   0.15110 237065.440000
   6810   6814     1   0.15110 237065.440000
   6810   6817     1   0.15110 237065.440000
   6811   6823     1   0.15375 251793.120000
   6814   6826     1   0.15375 251793.120000
   6817   6820     1   0.15375 251793.120000
   6820   6829     1   0.15375 251793.120000
   6823   6835     1   0.15375 251793.120000
   6826   6832     1   0.15375 251793.120000
   6829   6838     1   0.14316 258236.480000
   6832  13172     1   0.14316 258236.480000
   6835  13195     1   0.14316 258236.480000
   6840   6841     1   0.15110 237065.440000
   6840   6844     1   0.15110 237065.440000
   6840   6847     1   0.15110 237065.440000
   6841   6853     1   0.15375 251793.120000
   6844   6856     1   0.15375 251793.120000
   6847   6850     1   0.15375 251793.120000
   6850   6859     1   0.15375 251793.120000
   6853   6865     1   0.15375 251793.120000
   6856   6862     1   0.15375 251793.120000
   6859   6868     1   0.14316 258236.480000
   6862  13218     1   0.14316 258236.480000
   6865  13241     1   0.14316 258236.480000
   6870   6871     1   0.15110 237065.440000
   6870   6874     1   0.15110 237065.440000
   6870   6877     1   0.15110 237065.440000
   6871   6883     1   0.15375 251793.120000
   6874   6886     1   0.15375 251793.120000
   6877   6880     1   0.15375 251793.120000
   6880   6889     1   0.15375 251793.120000
   6883   6895     1   0.15375 251793.120000
   6886   6892     1   0.15375 251793.120000
   6889   6898     1   0.14316 258236.480000
   6892  13264     1   0.14316 258236.480000
   6895  13287     1   0.14316 258236.480000
   6900   6901     1   0.15110 237065.440000
   6900   6904     1   0.15110 237065.440000
   6900   6907     1   0.15110 237065.440000
   6901   6913     1   0.15375 251793.120000
   6904   6916     1   0.15375 251793.120000
   6907   6910     1   0.15375 251793.120000
   6910   6919     1   0.15375 251793.120000
   6913   6925     1   0.15375 251793.120000
   6916   6922     1   0.15375 251793.120000
   6919   6928     1   0.14316 258236.480000
   6922  13310     1   0.14316 258236.480000
   6925  13333     1   0.14316 258236.480000
   6930   6931     1   0.15110 237065.440000
   6930   6934     1   0.15110 237065.440000
   6930   6937     1   0.15110 237065.440000
   6931   6943     1   0.15375 251793.120000
   6934   6946     1   0.15375 251793.120000
   6937   6940     1   0.15375 251793.120000
   6940   6949     1   0.15375 251793.120000
   6943   6955     1   0.15375 251793.120000
   6946   6952     1   0.15375 251793.120000
   6949   6958     1   0.14316 258236.480000
   6952  13356     1   0.14316 258236.480000
   6955  13379     1   0.14316 258236.480000
   6960   6961     1   0.15110 237065.440000
   6960   6964     1   0.15110 237065.440000
   6960   6967     1   0.15110 237065.440000
   6961   6973     1   0.15375 251793.120000
   6964   6976     1   0.15375 251793.120000
   6967   6970     1   0.15375 251793.120000
   6970   6979     1   0.15375 251793.120000
   6973   6985     1   0.15375 251793.120000
   6976   6982     1   0.15375 251793.120000
   6979   6988     1   0.14316 258236.480000
   6982  13402     1   0.14316 258236.480000
   6985  13425     1   0.14316 258236.480000
   6990   6991     1   0.15110 237065.440000
   6990   6994     1   0.15110 237065.440000
   6990   6997     1   0.15110 237065.440000
   6991   7003     1   0.15375 251793.120000
   6994   7006     1   0.15375 251793.120000
   6997   7000     1   0.15375 251793.120000
   7000   7009     1   0.15375 251793.120000
   7003   7015     1   0.15375 251793.120000
   7006   7012     1   0.15375 251793.120000
   7009   7018     1   0.14316 258236.480000
   7012  13448     1   0.14316 258236.480000
   7015  13471     1   0.14316 258236.480000
   7020   7021     1   0.15110 237065.440000
   7020   7024     1   0.15110 237065.440000
   7020   7027     1   0.15110 237065.440000
   7021   7033     1   0.15375 251793.120000
   7024   7036     1   0.15375 251793.120000
   7027   7030     1   0.15375 251793.120000
   7030   7039     1   0.15375 251793.120000
   7033   7045     1   0.15375 251793.120000
   7036   7042     1   0.15375 251793.120000
   7039   7048     1   0.14316 258236.480000
   7042  13494     1   0.14316 258236.480000
   7045  13517     1   0.14316 258236.480000
   7050   7051     1   0.15110 237065.440000
   7050   7054     1   0.15110 237065.440000
   7050   7057     1   0.15110 237065.440000
   7051   7063     1   0.15375 251793.120000
   7054   7066     1   0.15375 251793.120000
   7057   7060     1   0.15375 251793.120000
   7060   7069     1   0.15375 251793.120000
   7063   7075     1   0.15375 251793.120000
   7066   7072     1   0.15375 251793.120000
   7069   7078     1   0.14316 258236.480000
   7072  13540     1   0.14316 258236.480000
   7075  13563     1   0.14316 258236.480000
   7080   7081     1   0.15110 237065.440000
   7080   7084     1   0.15110 237065.440000
   7080   7087     1   0.15110 237065.440000
   7081   7093     1   0.15375 251793.120000
   7084   7096     1   0.15375 251793.120000
   7087   7090     1   0.15375 251793.120000
   7090   7099     1   0.15375 251793.120000
   7093   7105     1   0.15375 251793.120000
   7096   7102     1   0.15375 251793.120000
   7099   7108     1   0.14316 258236.480000
   7102  13586     1   0.14316 258236.480000
   7105  13609     1   0.14316 258236.480000
   7110   7111     1   0.15110 237065.440000
   7110   7114     1   0.15110 237065.440000
   7110   7117     1   0.15110 237065.440000
   7111   7123     1   0.15375 251793.120000
   7114   7126     1   0.15375 251793.120000
   7117   7120     1   0.15375 251793.120000
   7120   7129     1   0.15375 251793.120000
   7123   7135     1   0.15375 251793.120000
   7126   7132     1   0.15375 251793.120000
   7129   7138     1   0.14316 258236.480000
   7132  13632     1   0.14316 258236.480000
   7135  13655     1   0.14316 258236.480000
   7140   7141     1   0.15110 237065.440000
   7140   7144     1   0.15110 237065.440000
   7140   7147     1   0.15110 237065.440000
   7141   7153     1   0.15375 251793.120000
   7144   7156     1   0.15375 251793.120000
   7147   7150     1   0.15375 251793.120000
   7150   7159     1   0.15375 251793.120000
   7153   7165     1   0.15375 251793.120000
   7156   7162     1   0.15375 251793.120000
   7159   7168     1   0.14316 258236.480000
   7162  13678     1   0.14316 258236.480000
   7165  13701     1   0.14316 258236.480000
   7170   7171     1   0.15110 237065.440000
   7170   7174     1   0.15110 237065.440000
   7170   7177     1   0.15110 237065.440000
   7171   7183     1   0.15375 251793.120000
   7174   7186     1   0.15375 251793.120000
   7177   7180     1   0.15375 251793.120000
   7180   7189     1   0.15375 251793.120000
   7183   7195     1   0.15375 251793.120000
   7186   7192     1   0.15375 251793.120000
   7189   7198     1   0.14316 258236.480000
   7192  13724     1   0.14316 258236.480000
   7195  13747     1   0.14316 258236.480000
   7200   7201     1   0.15110 237065.440000
   7200   7204     1   0.15110 237065.440000
   7200   7207     1   0.15110 237065.440000
   7201   7213     1   0.15375 251793.120000
   7204   7216     1   0.15375 251793.120000
   7207   7210     1   0.15375 251793.120000
   7210   7219     1   0.15375 251793.120000
   7213   7225     1   0.15375 251793.120000
   7216   7222     1   0.15375 251793.120000
   7219   7228     1   0.14316 258236.480000
   7222  13770     1   0.14316 258236.480000
   7225  13793     1   0.14316 258236.480000
   7230   7231     1   0.15110 237065.440000
   7230   7234     1   0.15110 237065.440000
   7230   7237     1   0.15110 237065.440000
   7231   7243     1   0.15375 251793.120000
   7234   7246     1   0.15375 251793.120000
   7237   7240     1   0.15375 251793.120000
   7240   7249     1   0.15375 251793.120000
   7243   7255     1   0.15375 251793.120000
   7246   7252     1   0.15375 251793.120000
   7249   7258     1   0.14316 258236.480000
   7252  13816     1   0.14316 258236.480000
   7255  13839     1   0.14316 258236.480000
   7260   7261     1   0.15110 237065.440000
   7260   7264     1   0.15110 237065.440000
   7260   7267     1   0.15110 237065.440000
   7261   7273     1   0.15375 251793.120000
   7264   7276     1   0.15375 251793.120000
   7267   7270     1   0.15375 251793.120000
   7270   7279     1   0.15375 251793.120000
   7273   7285     1   0.15375 251793.120000
   7276   7282     1   0.15375 251793.120000
   7279   7288     1   0.14316 258236.480000
   7282  13862     1   0.14316 258236.480000
   7285  13885     1   0.14316 258236.480000
   7290   7291     1   0.15110 237065.440000
   7290   7294     1   0.15110 237065.440000
   7290   7297     1   0.15110 237065.440000
   7291   7303     1   0.15375 251793.120000
   7294   7306     1   0.15375 251793.120000
   7297   7300     1   0.15375 251793.120000
   7300   7309     1   0.15375 251793.120000
   7303   7315     1   0.15375 251793.120000
   7306   7312     1   0.15375 251793.120000
   7309   7318     1   0.14316 258236.480000
   7312  13908     1   0.14316 258236.480000
   7315  13931     1   0.14316 258236.480000
   7320   7321     1   0.15110 237065.440000
   7320   7324     1   0.15110 237065.440000
   7320   7327     1   0.15110 237065.440000
   7321   7333     1   0.15375 251793.120000
   7324   7336     1   0.15375 251793.120000
   7327   7330     1   0.15375 251793.120000
   7330   7339     1   0.15375 251793.120000
   7333   7345     1   0.15375 251793.120000
   7336   7342     1   0.15375 251793.120000
   7339   7348     1   0.14316 258236.480000
   7342  13954     1   0.14316 258236.480000
   7345  13977     1   0.14316 258236.480000
   7350   7351     1   0.15110 237065.440000
   7350   7354     1   0.15110 237065.440000
   7350   7357     1   0.15110 237065.440000
   7351   7363     1   0.15375 251793.120000
   7354   7366     1   0.15375 251793.120000
   7357   7360     1   0.15375 251793.120000
   7360   7369     1   0.15375 251793.120000
   7363   7375     1   0.15375 251793.120000
   7366   7372     1   0.15375 251793.120000
   7369   7378     1   0.14316 258236.480000
   7372  14000     1   0.14316 258236.480000
   7375  14023     1   0.14316 258236.480000
   7380   7381     1   0.15110 237065.440000
   7380   7384     1   0.15110 237065.440000
   7380   7387     1   0.15110 237065.440000
   7381   7393     1   0.15375 251793.120000
   7384   7396     1   0.15375 251793.120000
   7387   7390     1   0.15375 251793.120000
   7390   7399     1   0.15375 251793.120000
   7393   7405     1   0.15375 251793.120000
   7396   7402     1   0.15375 251793.120000
   7399   7408     1   0.14316 258236.480000
   7402  14046     1   0.14316 258236.480000
   7405  14069     1   0.14316 258236.480000
   7410   7411     1   0.15110 237065.440000
   7410   7414     1   0.15110 237065.440000
   7410   7417     1   0.15110 237065.440000
   7411   7423     1   0.15375 251793.120000
   7414   7426     1   0.15375 251793.120000
   7417   7420     1   0.15375 251793.120000
   7420   7429     1   0.15375 251793.120000
   7423   7435     1   0.15375 251793.120000
   7426   7432     1   0.15375 251793.120000
   7429   7438     1   0.14316 258236.480000
   7432  14092     1   0.14316 258236.480000
   7435  14115     1   0.14316 258236.480000
   7440   7441     1   0.15110 237065.440000
   7440   7444     1   0.15110 237065.440000
   7440   7447     1   0.15110 237065.440000
   7441   7453     1   0.15375 251793.120000
   7444   7456     1   0.15375 251793.120000
   7447   7450     1   0.15375 251793.120000
   7450   7459     1   0.15375 251793.120000
   7453   7465     1   0.15375 251793.120000
   7456   7462     1   0.15375 251793.120000
   7459   7468     1   0.14316 258236.480000
   7462  14138     1   0.14316 258236.480000
   7465  14161     1   0.14316 258236.480000
   7470   7471     1   0.15110 237065.440000
   7470   7474     1   0.15110 237065.440000
   7470   7477     1   0.15110 237065.440000
   7471   7483     1   0.15375 251793.120000
   7474   7486     1   0.15375 251793.120000
   7477   7480     1   0.15375 251793.120000
   7480   7489     1   0.15375 251793.120000
   7483   7495     1   0.15375 251793.120000
   7486   7492     1   0.15375 251793.120000
   7489   7498     1   0.14316 258236.480000
   7492  14184     1   0.14316 258236.480000
   7495  14207     1   0.14316 258236.480000
   7500   7501     1   0.15110 237065.440000
   7500   7504     1   0.15110 237065.440000
   7500   7507     1   0.15110 237065.440000
   7501   7513     1   0.15375 251793.120000
   7504   7516     1   0.15375 251793.120000
   7507   7510     1   0.15375 251793.120000
   7510   7519     1   0.15375 251793.120000
   7513   7525     1   0.15375 251793.120000
   7516   7522     1   0.15375 251793.120000
   7519   7528     1   0.14316 258236.480000
   7522  14230     1   0.14316 258236.480000
   7525  14253     1   0.14316 258236.480000
   7530   7531     1   0.15110 237065.440000
   7530   7534     1   0.15110 237065.440000
   7530   7537     1   0.15110 237065.440000
   7531   7543     1   0.15375 251793.120000
   7534   7546     1   0.15375 251793.120000
   7537   7540     1   0.15375 251793.120000
   7540   7549     1   0.15375 251793.120000
   7543   7555     1   0.15375 251793.120000
   7546   7552     1   0.15375 251793.120000
   7549   7558     1   0.14316 258236.480000
   7552  14276     1   0.14316 258236.480000
   7555  14299     1   0.14316 258236.480000
   7560   7561     1   0.15110 237065.440000
   7560   7564     1   0.15110 237065.440000
   7560   7567     1   0.15110 237065.440000
   7561   7573     1   0.15375 251793.120000
   7564   7576     1   0.15375 251793.120000
   7567   7570     1   0.15375 251793.120000
   7570   7579     1   0.15375 251793.120000
   7573   7585     1   0.15375 251793.120000
   7576   7582     1   0.15375 251793.120000
   7579   7588     1   0.14316 258236.480000
   7582  14322     1   0.14316 258236.480000
   7585  14345     1   0.14316 258236.480000
   7590   7591     1   0.15110 237065.440000
   7590   7594     1   0.15110 237065.440000
   7590   7597     1   0.15110 237065.440000
   7591   7603     1   0.15375 251793.120000
   7594   7606     1   0.15375 251793.120000
   7597   7600     1   0.15375 251793.120000
   7600   7609     1   0.15375 251793.120000
   7603   7615     1   0.15375 251793.120000
   7606   7612     1   0.15375 251793.120000
   7609   7618     1   0.14316 258236.480000
   7612  14368     1   0.14316 258236.480000
   7615  14391     1   0.14316 258236.480000
   7620   7621     1   0.15110 237065.440000
   7620   7624     1   0.15110 237065.440000
   7620   7627     1   0.15110 237065.440000
   7621   7633     1   0.15375 251793.120000
   7624   7636     1   0.15375 251793.120000
   7627   7630     1   0.15375 251793.120000
   7630   7639     1   0.15375 251793.120000
   7633   7645     1   0.15375 251793.120000
   7636   7642     1   0.15375 251793.120000
   7639   7648     1   0.14316 258236.480000
   7642  14414     1   0.14316 258236.480000
   7645  14437     1   0.14316 258236.480000
   7650   7651     1   0.15110 237065.440000
   7650   7654     1   0.15110 237065.440000
   7650   7657     1   0.15110 237065.440000
   7651   7663     1   0.15375 251793.120000
   7654   7666     1   0.15375 251793.120000
   7657   7660     1   0.15375 251793.120000
   7660   7669     1   0.15375 251793.120000
   7663   7675     1   0.15375 251793.120000
   7666   7672     1   0.15375 251793.120000
   7669   7678     1   0.14316 258236.480000
   7672  14460     1   0.14316 258236.480000
   7675  14483     1   0.14316 258236.480000
   7680   7681     1   0.15110 237065.440000
   7680   7684     1   0.15110 237065.440000
   7680   7687     1   0.15110 237065.440000
   7681   7693     1   0.15375 251793.120000
   7684   7696     1   0.15375 251793.120000
   7687   7690     1   0.15375 251793.120000
   7690   7699     1   0.15375 251793.120000
   7693   7705     1   0.15375 251793.120000
   7696   7702     1   0.15375 251793.120000
   7699   7708     1   0.14316 258236.480000
   7702  14506     1   0.14316 258236.480000
   7705  14529     1   0.14316 258236.480000
   7710   7711     1   0.15110 237065.440000
   7710   7714     1   0.15110 237065.440000
   7710   7717     1   0.15110 237065.440000
   7711   7723     1   0.15375 251793.120000
   7714   7726     1   0.15375 251793.120000
   7717   7720     1   0.15375 251793.120000
   7720   7729     1   0.15375 251793.120000
   7723   7735     1   0.15375 251793.120000
   7726   7732     1   0.15375 251793.120000
   7729   7738     1   0.14316 258236.480000
   7732  14552     1   0.14316 258236.480000
   7735  14575     1   0.14316 258236.480000
   7740   7741     1   0.15110 237065.440000
   7740   7744     1   0.15110 237065.440000
   7740   7747     1   0.15110 237065.440000
   7741   7753     1   0.15375 251793.120000
   7744   7756     1   0.15375 251793.120000
   7747   7750     1   0.15375 251793.120000
   7750   7759     1   0.15375 251793.120000
   7753   7765     1   0.15375 251793.120000
   7756   7762     1   0.15375 251793.120000
   7759   7768     1   0.14316 258236.480000
   7762  14598     1   0.14316 258236.480000
   7765  14621     1   0.14316 258236.480000
   7770   7771     1   0.15110 237065.440000
   7770   7774     1   0.15110 237065.440000
   7770   7777     1   0.15110 237065.440000
   7771   7783     1   0.15375 251793.120000
   7774   7786     1   0.15375 251793.120000
   7777   7780     1   0.15375 251793.120000
   7780   7789     1   0.15375 251793.120000
   7783   7795     1   0.15375 251793.120000
   7786   7792     1   0.15375 251793.120000
   7789   7798     1   0.14316 258236.480000
   7792  14644     1   0.14316 258236.480000
   7795  14667     1   0.14316 258236.480000
   7800   7801     1   0.15110 237065.440000
   7800   7804     1   0.15110 237065.440000
   7800   7807     1   0.15110 237065.440000
   7801   7813     1   0.15375 251793.120000
   7804   7816     1   0.15375 251793.120000
   7807   7810     1   0.15375 251793.120000
   7810   7819     1   0.15375 251793.120000
   7813   7825     1   0.15375 251793.120000
   7816   7822     1   0.15375 251793.120000
   7819   7828     1   0.14316 258236.480000
   7822  14690     1   0.14316 258236.480000
   7825  14713     1   0.14316 258236.480000
   7830   7831     1   0.15110 237065.440000
   7830   7834     1   0.15110 237065.440000
   7830   7837     1   0.15110 237065.440000
   7831   7843     1   0.15375 251793.120000
   7834   7846     1   0.15375 251793.120000
   7837   7840     1   0.15375 251793.120000
   7840   7849     1   0.15375 251793.120000
   7843   7855     1   0.15375 251793.120000
   7846   7852     1   0.15375 251793.120000
   7849   7858     1   0.14316 258236.480000
   7852  14736     1   0.14316 258236.480000
   7855  14759     1   0.14316 258236.480000
   7860   7861     1   0.15110 237065.440000
   7860   7864     1   0.15110 237065.440000
   7860   7867     1   0.15110 237065.440000
   7861   7873     1   0.15375 251793.120000
   7864   7876     1   0.15375 251793.120000
   7867   7870     1   0.15375 251793.120000
   7870   7879     1   0.15375 251793.120000
   7873   7885     1   0.15375 251793.120000
   7876   7882     1   0.15375 251793.120000
   7879   7888     1   0.14316 258236.480000
   7882  14782     1   0.14316 258236.480000
   7885  14805     1   0.14316 258236.480000
   7890   7891     1   0.15110 237065.440000
   7890   7894     1   0.15110 237065.440000
   7890   7897     1   0.15110 237065.440000
   7891   7903     1   0.15375 251793.120000
   7894   7906     1   0.15375 251793.120000
   7897   7900     1   0.15375 251793.120000
   7900   7909     1   0.15375 251793.120000
   7903   7915     1   0.15375 251793.120000
   7906   7912     1   0.15375 251793.120000
   7909   7918     1   0.14316 258236.480000
   7912  14828     1   0.14316 258236.480000
   7915  14851     1   0.14316 258236.480000
   7920   7921     1   0.15110 237065.440000
   7920   7924     1   0.15110 237065.440000
   7920   7927     1   0.15110 237065.440000
   7921   7933     1   0.15375 251793.120000
   7924   7936     1   0.15375 251793.120000
   7927   7930     1   0.15375 251793.120000
   7930   7939     1   0.15375 251793.120000
   7933   7945     1   0.15375 251793.120000
   7936   7942     1   0.15375 251793.120000
   7939   7948     1   0.14316 258236.480000
   7942  14874     1   0.14316 258236.480000
   7945  14897     1   0.14316 258236.480000
   7950   7951     1   0.15110 237065.440000
   7950   7954     1   0.15110 237065.440000
   7950   7957     1   0.15110 237065.440000
   7951   7963     1   0.15375 251793.120000
   7954   7966     1   0.15375 251793.120000
   7957   7960     1   0.15375 251793.120000
   7960   7969     1   0.15375 251793.120000
   7963   7975     1   0.15375 251793.120000
   7966   7972     1   0.15375 251793.120000
   7969   7978     1   0.14316 258236.480000
   7972  14920     1   0.14316 258236.480000
   7975  14943     1   0.14316 258236.480000
   7980   7981     1   0.15110 237065.440000
   7980   7984     1   0.15110 237065.440000
   7980   7987     1   0.15110 237065.440000
   7981   7993     1   0.15375 251793.120000
   7984   7996     1   0.15375 251793.120000
   7987   7990     1   0.15375 251793.120000
   7990   7999     1   0.15375 251793.120000
   7993   8005     1   0.15375 251793.120000
   7996   8002     1   0.15375 251793.120000
   7999   8008     1   0.14316 258236.480000
   8002  14966     1   0.14316 258236.480000
   8005  14989     1   0.14316 258236.480000
   8010   8011     1   0.15110 237065.440000
   8010   8014     1   0.15110 237065.440000
   8010   8017     1   0.15110 237065.440000
   8011   8023     1   0.15375 251793.120000
   8014   8026     1   0.15375 251793.120000
   8017   8020     1   0.15375 251793.120000
   8020   8029     1   0.15375 251793.120000
   8023   8035     1   0.15375 251793.120000
   8026   8032     1   0.15375 251793.120000
   8029   8038     1   0.14316 258236.480000
   8032  15012     1   0.14316 258236.480000
   8035  15035     1   0.14316 258236.480000
   8040   8041     1   0.15110 237065.440000
   8040   8044     1   0.15110 237065.440000
   8040   8047     1   0.15110 237065.440000
   8041   8053     1   0.15375 251793.120000
   8044   8056     1   0.15375 251793.120000
   8047   8050     1   0.15375 251793.120000
   8050   8059     1   0.15375 251793.120000
   8053   8065     1   0.15375 251793.120000
   8056   8062     1   0.15375 251793.120000
   8059   8068     1   0.14316 258236.480000
   8062  15058     1   0.14316 258236.480000
   8065  15081     1   0.14316 258236.480000
   8070   8071     1   0.15110 237065.440000
   8070   8074     1   0.15110 237065.440000
   8070   8077     1   0.15110 237065.440000
   8071   8083     1   0.15375 251793.120000
   8074   8086     1   0.15375 251793.120000
   8077   8080     1   0.15375 251793.120000
   8080   8089     1   0.15375 251793.120000
   8083   8095     1   0.15375 251793.120000
   8086   8092     1   0.15375 251793.120000
   8089   8098     1   0.14316 258236.480000
   8092  15104     1   0.14316 258236.480000
   8095  15127     1   0.14316 258236.480000
   8100   8101     1   0.15110 237065.440000
   8100   8104     1   0.15110 237065.440000
   8100   8107     1   0.15110 237065.440000
   8101   8113     1   0.15375 251793.120000
   8104   8116     1   0.15375 251793.120000
   8107   8110     1   0.15375 251793.120000
   8110   8119     1   0.15375 251793.120000
   8113   8125     1   0.15375 251793.120000
   8116   8122     1   0.15375 251793.120000
   8119   8128     1   0.14316 258236.480000
   8122  15150     1   0.14316 258236.480000
   8125  15173     1   0.14316 258236.480000
   8130   8131     1   0.15110 237065.440000
   8130   8134     1   0.15110 237065.440000
   8130   8137     1   0.15110 237065.440000
   8131   8143     1   0.15375 251793.120000
   8134   8146     1   0.15375 251793.120000
   8137   8140     1   0.15375 251793.120000
   8140   8149     1   0.15375 251793.120000
   8143   8155     1   0.15375 251793.120000
   8146   8152     1   0.15375 251793.120000
   8149   8158     1   0.14316 258236.480000
   8152  15196     1   0.14316 258236.480000
   8155  15219     1   0.14316 258236.480000
   8160   8161     1   0.15110 237065.440000
   8160   8164     1   0.15110 237065.440000
   8160   8167     1   0.15110 237065.440000
   8161   8173     1   0.15375 251793.120000
   8164   8176     1   0.15375 251793.120000
   8167   8170     1   0.15375 251793.120000
   8170   8179     1   0.15375 251793.120000
   8173   8185     1   0.15375 251793.120000
   8176   8182     1   0.15375 251793.120000
   8179   8188     1   0.14316 258236.480000
   8182  15242     1   0.14316 258236.480000
   8185  15265     1   0.14316 258236.480000
   8190   8191     1   0.15110 237065.440000
   8190   8194     1   0.15110 237065.440000
   8190   8197     1   0.15110 237065.440000
   8191   8203     1   0.15375 251793.120000
   8194   8206     1   0.15375 251793.120000
   8197   8200     1   0.15375 251793.120000
   8200   8209     1   0.15375 251793.120000
   8203   8215     1   0.15375 251793.120000
   8206   8212     1   0.15375 251793.120000
   8209   8218     1   0.14316 258236.480000
   8212  15288     1   0.14316 258236.480000
   8215  15311     1   0.14316 258236.480000
   8220   8221     1   0.15110 237065.440000
   8220   8224     1   0.15110 237065.440000
   8220   8227     1   0.15110 237065.440000
   8221   8233     1   0.15375 251793.120000
   8224   8236     1   0.15375 251793.120000
   8227   8230     1   0.15375 251793.120000
   8230   8239     1   0.15375 251793.120000
   8233   8245     1   0.15375 251793.120000
   8236   8242     1   0.15375 251793.120000
   8239   8248     1   0.14316 258236.480000
   8242  15334     1   0.14316 258236.480000
   8245  15357     1   0.14316 258236.480000
   8250   8251     1   0.15110 237065.440000
   8250   8254     1   0.15110 237065.440000
   8250   8257     1   0.15110 237065.440000
   8251   8263     1   0.15375 251793.120000
   8254   8266     1   0.15375 251793.120000
   8257   8260     1   0.15375 251793.120000
   8260   8269     1   0.15375 251793.120000
   8263   8275     1   0.15375 251793.120000
   8266   8272     1   0.15375 251793.120000
   8269   8278     1   0.14316 258236.480000
   8272  15380     1   0.14316 258236.480000
   8275  15403     1   0.14316 258236.480000
   8280   8281     1   0.15110 237065.440000
   8280   8284     1   0.15110 237065.440000
   8280   8287     1   0.15110 237065.440000
   8281   8293     1   0.15375 251793.120000
   8284   8296     1   0.15375 251793.120000
   8287   8290     1   0.15375 251793.120000
   8290   8299     1   0.15375 251793.120000
   8293   8305     1   0.15375 251793.120000
   8296   8302     1   0.15375 251793.120000
   8299   8308     1   0.14316 258236.480000
   8302  15426     1   0.14316 258236.480000
   8305  15449     1   0.14316 258236.480000
   8310   8311     1   0.15110 237065.440000
   8310   8314     1   0.15110 237065.440000
   8310   8317     1   0.15110 237065.440000
   8311   8323     1   0.15375 251793.120000
   8314   8326     1   0.15375 251793.120000
   8317   8320     1   0.15375 251793.120000
   8320   8329     1   0.15375 251793.120000
   8323   8335     1   0.15375 251793.120000
   8326   8332     1   0.15375 251793.120000
   8329   8338     1   0.14316 258236.480000
   8332  15472     1   0.14316 258236.480000
   8335  15495     1   0.14316 258236.480000
   8340   8341     1   0.15110 237065.440000
   8340   8344     1   0.15110 237065.440000
   8340   8347     1   0.15110 237065.440000
   8341   8353     1   0.15375 251793.120000
   8344   8356     1   0.15375 251793.120000
   8347   8350     1   0.15375 251793.120000
   8350   8359     1   0.15375 251793.120000
   8353   8365     1   0.15375 251793.120000
   8356   8362     1   0.15375 251793.120000
   8359   8368     1   0.14316 258236.480000
   8362  15518     1   0.14316 258236.480000
   8365  15541     1   0.14316 258236.480000
   8370   8371     1   0.15110 237065.440000
   8370   8374     1   0.15110 237065.440000
   8370   8377     1   0.15110 237065.440000
   8371   8383     1   0.15375 251793.120000
   8374   8386     1   0.15375 251793.120000
   8377   8380     1   0.15375 251793.120000
   8380   8389     1   0.15375 251793.120000
   8383   8395     1   0.15375 251793.120000
   8386   8392     1   0.15375 251793.120000
   8389   8398     1   0.14316 258236.480000
   8392  15564     1   0.14316 258236.480000
   8395  15587     1   0.14316 258236.480000
   8400   8401     1   0.15110 237065.440000
   8400   8404     1   0.15110 237065.440000
   8400   8407     1   0.15110 237065.440000
   8401   8413     1   0.15375 251793.120000
   8404   8416     1   0.15375 251793.120000
   8407   8410     1   0.15375 251793.120000
   8410   8419     1   0.15375 251793.120000
   8413   8425     1   0.15375 251793.120000
   8416   8422     1   0.15375 251793.120000
   8419   8428     1   0.14316 258236.480000
   8422  15610     1   0.14316 258236.480000
   8425  15633     1   0.14316 258236.480000
   8430   8431     1   0.15110 237065.440000
   8430   8434     1   0.15110 237065.440000
   8430   8437     1   0.15110 237065.440000
   8431   8443     1   0.15375 251793.120000
   8434   8446     1   0.15375 251793.120000
   8437   8440     1   0.15375 251793.120000
   8440   8449     1   0.15375 251793.120000
   8443   8455     1   0.15375 251793.120000
   8446   8452     1   0.15375 251793.120000
   8449   8458     1   0.14316 258236.480000
   8452  15656     1   0.14316 258236.480000
   8455  15679     1   0.14316 258236.480000
   8460   8461     1   0.15110 237065.440000
   8460   8464     1   0.15110 237065.440000
   8460   8467     1   0.15110 237065.440000
   8461   8473     1   0.15375 251793.120000
   8464   8476     1   0.15375 251793.120000
   8467   8470     1   0.15375 251793.120000
   8470   8479     1   0.15375 251793.120000
   8473   8485     1   0.15375 251793.120000
   8476   8482     1   0.15375 251793.120000
   8479   8488     1   0.14316 258236.480000
   8482  15702     1   0.14316 258236.480000
   8485  15725     1   0.14316 258236.480000
   8490   8491     1   0.15110 237065.440000
   8490   8494     1   0.15110 237065.440000
   8490   8497     1   0.15110 237065.440000
   8491   8503     1   0.15375 251793.120000
   8494   8506     1   0.15375 251793.120000
   8497   8500     1   0.15375 251793.120000
   8500   8509     1   0.15375 251793.120000
   8503   8515     1   0.15375 251793.120000
   8506   8512     1   0.15375 251793.120000
   8509   8518     1   0.14316 258236.480000
   8512  15748     1   0.14316 258236.480000
   8515  15771     1   0.14316 258236.480000
   8520   8521     1   0.15110 237065.440000
   8520   8524     1   0.15110 237065.440000
   8520   8527     1   0.15110 237065.440000
   8521   8533     1   0.15375 251793.120000
   8524   8536     1   0.15375 251793.120000
   8527   8530     1   0.15375 251793.120000
   8530   8539     1   0.15375 251793.120000
   8533   8545     1   0.15375 251793.120000
   8536   8542     1   0.15375 251793.120000
   8539   8548     1   0.14316 258236.480000
   8542  15794     1   0.14316 258236.480000
   8545  15817     1   0.14316 258236.480000
   8550   8551     1   0.15110 237065.440000
   8550   8554     1   0.15110 237065.440000
   8550   8557     1   0.15110 237065.440000
   8551   8563     1   0.15375 251793.120000
   8554   8566     1   0.15375 251793.120000
   8557   8560     1   0.15375 251793.120000
   8560   8569     1   0.15375 251793.120000
   8563   8575     1   0.15375 251793.120000
   8566   8572     1   0.15375 251793.120000
   8569   8578     1   0.14316 258236.480000
   8572  15840     1   0.14316 258236.480000
   8575  15863     1   0.14316 258236.480000
   8580   8581     1   0.15110 237065.440000
   8580   8584     1   0.15110 237065.440000
   8580   8587     1   0.15110 237065.440000
   8581   8593     1   0.15375 251793.120000
   8584   8596     1   0.15375 251793.120000
   8587   8590     1   0.15375 251793.120000
   8590   8599     1   0.15375 251793.120000
   8593   8605     1   0.15375 251793.120000
   8596   8602     1   0.15375 251793.120000
   8599   8608     1   0.14316 258236.480000
   8602  15886     1   0.14316 258236.480000
   8605  15909     1   0.14316 258236.480000
   8610   8611     1   0.15110 237065.440000
   8610   8614     1   0.15110 237065.440000
   8610   8617     1   0.15110 237065.440000
   8611   8623     1   0.15375 251793.120000
   8614   8626     1   0.15375 251793.120000
   8617   8620     1   0.15375 251793.120000
   8620   8629     1   0.15375 251793.120000
   8623   8635     1   0.15375 251793.120000
   8626   8632     1   0.15375 251793.120000
   8629   8638     1   0.14316 258236.480000
   8632  15932     1   0.14316 258236.480000
   8635  15955     1   0.14316 258236.480000
   8640   8641     1   0.15110 237065.440000
   8640   8644     1   0.15110 237065.440000
   8640   8647     1   0.15110 237065.440000
   8641   8653     1   0.15375 251793.120000
   8644   8656     1   0.15375 251793.120000
   8647   8650     1   0.15375 251793.120000
   8650   8659     1   0.15375 251793.120000
   8653   8665     1   0.15375 251793.120000
   8656   8662     1   0.15375 251793.120000
   8659   8668     1   0.14316 258236.480000
   8662  15978     1   0.14316 258236.480000
   8665  16001     1   0.14316 258236.480000
   8670   8671     1   0.15110 237065.440000
   8670   8674     1   0.15110 237065.440000
   8670   8677     1   0.15110 237065.440000
   8671   8683     1   0.15375 251793.120000
   8674   8686     1   0.15375 251793.120000
   8677   8680     1   0.15375 251793.120000
   8680   8689     1   0.15375 251793.120000
   8683   8695     1   0.15375 251793.120000
   8686   8692     1   0.15375 251793.120000
   8689   8698     1   0.14316 258236.480000
   8692  16024     1   0.14316 258236.480000
   8695  16047     1   0.14316 258236.480000
   8700   8701     1   0.15110 237065.440000
   8700   8704     1   0.15110 237065.440000
   8700   8707     1   0.15110 237065.440000
   8701   8713     1   0.15375 251793.120000
   8704   8716     1   0.15375 251793.120000
   8707   8710     1   0.15375 251793.120000
   8710   8719     1   0.15375 251793.120000
   8713   8725     1   0.15375 251793.120000
   8716   8722     1   0.15375 251793.120000
   8719   8728     1   0.14316 258236.480000
   8722  16070     1   0.14316 258236.480000
   8725  16093     1   0.14316 258236.480000
   8730   8731     1   0.15110 237065.440000
   8730   8734     1   0.15110 237065.440000
   8730   8737     1   0.15110 237065.440000
   8731   8743     1   0.15375 251793.120000
   8734   8746     1   0.15375 251793.120000
   8737   8740     1   0.15375 251793.120000
   8740   8749     1   0.15375 251793.120000
   8743   8755     1   0.15375 251793.120000
   8746   8752     1   0.15375 251793.120000
   8749   8758     1   0.14316 258236.480000
   8752  16116     1   0.14316 258236.480000
   8755  16139     1   0.14316 258236.480000
   8760   8761     1   0.15110 237065.440000
   8760   8764     1   0.15110 237065.440000
   8760   8767     1   0.15110 237065.440000
   8761   8773     1   0.15375 251793.120000
   8764   8776     1   0.15375 251793.120000
   8767   8770     1   0.15375 251793.120000
   8770   8779     1   0.15375 251793.120000
   8773   8785     1   0.15375 251793.120000
   8776   8782     1   0.15375 251793.120000
   8779   8788     1   0.14316 258236.480000
   8782  16162     1   0.14316 258236.480000
   8785  16185     1   0.14316 258236.480000
   8790   8791     1   0.15110 237065.440000
   8790   8794     1   0.15110 237065.440000
   8790   8797     1   0.15110 237065.440000
   8791   8803     1   0.15375 251793.120000
   8794   8806     1   0.15375 251793.120000
   8797   8800     1   0.15375 251793.120000
   8800   8809     1   0.15375 251793.120000
   8803   8815     1   0.15375 251793.120000
   8806   8812     1   0.15375 251793.120000
   8809   8818     1   0.14316 258236.480000
   8812  16208     1   0.14316 258236.480000
   8815  16231     1   0.14316 258236.480000
   8820   8821     1   0.15110 237065.440000
   8820   8824     1   0.15110 237065.440000
   8820   8827     1   0.15110 237065.440000
   8821   8833     1   0.15375 251793.120000
   8824   8836     1   0.15375 251793.120000
   8827   8830     1   0.15375 251793.120000
   8830   8839     1   0.15375 251793.120000
   8833   8845     1   0.15375 251793.120000
   8836   8842     1   0.15375 251793.120000
   8839   8848     1   0.14316 258236.480000
   8842  16254     1   0.14316 258236.480000
   8845  16277     1   0.14316 258236.480000
   8850   8851     1   0.15110 237065.440000
   8850   8854     1   0.15110 237065.440000
   8850   8857     1   0.15110 237065.440000
   8851   8863     1   0.15375 251793.120000
   8854   8866     1   0.15375 251793.120000
   8857   8860     1   0.15375 251793.120000
   8860   8869     1   0.15375 251793.120000
   8863   8875     1   0.15375 251793.120000
   8866   8872     1   0.15375 251793.120000
   8869   8878     1   0.14316 258236.480000
   8872  16300     1   0.14316 258236.480000
   8875  16323     1   0.14316 258236.480000
   8880   8881     1   0.15110 237065.440000
   8880   8884     1   0.15110 237065.440000
   8880   8887     1   0.15110 237065.440000
   8881   8893     1   0.15375 251793.120000
   8884   8896     1   0.15375 251793.120000
   8887   8890     1   0.15375 251793.120000
   8890   8899     1   0.15375 251793.120000
   8893   8905     1   0.15375 251793.120000
   8896   8902     1   0.15375 251793.120000
   8899   8908     1   0.14316 258236.480000
   8902  16346     1   0.14316 258236.480000
   8905  16369     1   0.14316 258236.480000
   8910   8911     1   0.15110 237065.440000
   8910   8914     1   0.15110 237065.440000
   8910   8917     1   0.15110 237065.440000
   8911   8923     1   0.15375 251793.120000
   8914   8926     1   0.15375 251793.120000
   8917   8920     1   0.15375 251793.120000
   8920   8929     1   0.15375 251793.120000
   8923   8935     1   0.15375 251793.120000
   8926   8932     1   0.15375 251793.120000
   8929   8938     1   0.14316 258236.480000
   8932  16392     1   0.14316 258236.480000
   8935  16415     1   0.14316 258236.480000
   8940   8941     1   0.15110 237065.440000
   8940   8944     1   0.15110 237065.440000
   8940   8947     1   0.15110 237065.440000
   8941   8953     1   0.15375 251793.120000
   8944   8956     1   0.15375 251793.120000
   8947   8950     1   0.15375 251793.120000
   8950   8959     1   0.15375 251793.120000
   8953   8965     1   0.15375 251793.120000
   8956   8962     1   0.15375 251793.120000
   8959   8968     1   0.14316 258236.480000
   8962  16438     1   0.14316 258236.480000
   8965  16461     1   0.14316 258236.480000
   8970   8971     1   0.15110 237065.440000
   8970   8974     1   0.15110 237065.440000
   8970   8977     1   0.15110 237065.440000
   8971   8983     1   0.15375 251793.120000
   8974   8986     1   0.15375 251793.120000
   8977   8980     1   0.15375 251793.120000
   8980   8989     1   0.15375 251793.120000
   8983   8995     1   0.15375 251793.120000
   8986   8992     1   0.15375 251793.120000
   8989   8998     1   0.14316 258236.480000
   8992  16484     1   0.14316 258236.480000
   8995  16507     1   0.14316 258236.480000
   9000   9001     1   0.15110 237065.440000
   9000   9004     1   0.15110 237065.440000
   9000   9007     1   0.15110 237065.440000
   9001   9013     1   0.15375 251793.120000
   9004   9016     1   0.15375 251793.120000
   9007   9010     1   0.15375 251793.120000
   9010   9019     1   0.15375 251793.120000
   9013   9025     1   0.15375 251793.120000
   9016   9022     1   0.15375 251793.120000
   9019   9028     1   0.14316 258236.480000
   9022  16530     1   0.14316 258236.480000
   9025  16553     1   0.14316 258236.480000
   9030   9031     1   0.15110 237065.440000
   9030   9034     1   0.15110 237065.440000
   9030   9037     1   0.15110 237065.440000
   9031   9043     1   0.15375 251793.120000
   9034   9046     1   0.15375 251793.120000
   9037   9040     1   0.15375 251793.120000
   9040   9049     1   0.15375 251793.120000
   9043   9055     1   0.15375 251793.120000
   9046   9052     1   0.15375 251793.120000
   9049   9058     1   0.14316 258236.480000
   9052  16576     1   0.14316 258236.480000
   9055  16599     1   0.14316 258236.480000
   9060   9061     1   0.15110 237065.440000
   9060   9064     1   0.15110 237065.440000
   9060   9067     1   0.15110 237065.440000
   9061   9073     1   0.15375 251793.120000
   9064   9076     1   0.15375 251793.120000
   9067   9070     1   0.15375 251793.120000
   9070   9079     1   0.15375 251793.120000
   9073   9085     1   0.15375 251793.120000
   9076   9082     1   0.15375 251793.120000
   9079   9088     1   0.14316 258236.480000
   9082  16622     1   0.14316 258236.480000
   9085  16645     1   0.14316 258236.480000
   9090   9091     1   0.15110 237065.440000
   9090   9094     1   0.15110 237065.440000
   9090   9097     1   0.15110 237065.440000
   9091   9103     1   0.15375 251793.120000
   9094   9106     1   0.15375 251793.120000
   9097   9100     1   0.15375 251793.120000
   9100   9109     1   0.15375 251793.120000
   9103   9115     1   0.15375 251793.120000
   9106   9112     1   0.15375 251793.120000
   9109   9118     1   0.14316 258236.480000
   9112  16668     1   0.14316 258236.480000
   9115  16691     1   0.14316 258236.480000
   9120   9121     1   0.15110 237065.440000
   9120   9124     1   0.15110 237065.440000
   9120   9127     1   0.15110 237065.440000
   9121   9133     1   0.15375 251793.120000
   9124   9136     1   0.15375 251793.120000
   9127   9130     1   0.15375 251793.120000
   9130   9139     1   0.15375 251793.120000
   9133   9145     1   0.15375 251793.120000
   9136   9142     1   0.15375 251793.120000
   9139   9148     1   0.14316 258236.480000
   9142  16714     1   0.14316 258236.480000
   9145  16737     1   0.14316 258236.480000
   9150   9151     1   0.15110 237065.440000
   9150   9154     1   0.15110 237065.440000
   9150   9157     1   0.15110 237065.440000
   9151   9163     1   0.15375 251793.120000
   9154   9166     1   0.15375 251793.120000
   9157   9160     1   0.15375 251793.120000
   9160   9169     1   0.15375 251793.120000
   9163   9175     1   0.15375 251793.120000
   9166   9172     1   0.15375 251793.120000
   9169   9178     1   0.14316 258236.480000
   9172  16760     1   0.14316 258236.480000
   9175  16783     1   0.14316 258236.480000
   9180   9181     1   0.15110 237065.440000
   9180   9184     1   0.15110 237065.440000
   9180   9187     1   0.15110 237065.440000
   9181   9193     1   0.15375 251793.120000
   9184   9196     1   0.15375 251793.120000
   9187   9190     1   0.15375 251793.120000
   9190   9199     1   0.15375 251793.120000
   9193   9205     1   0.15375 251793.120000
   9196   9202     1   0.15375 251793.120000
   9199   9208     1   0.14316 258236.480000
   9202  16806     1   0.14316 258236.480000
   9205  16829     1   0.14316 258236.480000
   9210   9211     1   0.15110 237065.440000
   9210   9214     1   0.15110 237065.440000
   9210   9217     1   0.15110 237065.440000
   9211   9223     1   0.15375 251793.120000
   9214   9226     1   0.15375 251793.120000
   9217   9220     1   0.15375 251793.120000
   9220   9229     1   0.15375 251793.120000
   9223   9235     1   0.15375 251793.120000
   9226   9232     1   0.15375 251793.120000
   9229   9238     1   0.14316 258236.480000
   9232  16852     1   0.14316 258236.480000
   9235  16875     1   0.14316 258236.480000
   9240   9241     1   0.15110 237065.440000
   9240   9244     1   0.15110 237065.440000
   9240   9247     1   0.15110 237065.440000
   9241   9253     1   0.15375 251793.120000
   9244   9256     1   0.15375 251793.120000
   9247   9250     1   0.15375 251793.120000
   9250   9259     1   0.15375 251793.120000
   9253   9265     1   0.15375 251793.120000
   9256   9262     1   0.15375 251793.120000
   9259   9268     1   0.14316 258236.480000
   9262  16898     1   0.14316 258236.480000
   9265  16921     1   0.14316 258236.480000
   9270   9271     1   0.15110 237065.440000
   9270   9274     1   0.15110 237065.440000
   9270   9277     1   0.15110 237065.440000
   9271   9283     1   0.15375 251793.120000
   9274   9286     1   0.15375 251793.120000
   9277   9280     1   0.15375 251793.120000
   9280   9289     1   0.15375 251793.120000
   9283   9295     1   0.15375 251793.120000
   9286   9292     1   0.15375 251793.120000
   9289   9298     1   0.14316 258236.480000
   9292  16944     1   0.14316 258236.480000
   9295  16967     1   0.14316 258236.480000
   9300   9301     1   0.15110 237065.440000
   9300   9304     1   0.15110 237065.440000
   9300   9307     1   0.15110 237065.440000
   9301   9313     1   0.15375 251793.120000
   9304   9316     1   0.15375 251793.120000
   9307   9310     1   0.15375 251793.120000
   9310   9319     1   0.15375 251793.120000
   9313   9325     1   0.15375 251793.120000
   9316   9322     1   0.15375 251793.120000
   9319   9328     1   0.14316 258236.480000
   9322  16990     1   0.14316 258236.480000
   9325  17013     1   0.14316 258236.480000
   9330   9331     1   0.15110 237065.440000
   9330   9334     1   0.15110 237065.440000
   9330   9337     1   0.15110 237065.440000
   9331   9343     1   0.15375 251793.120000
   9334   9346     1   0.15375 251793.120000
   9337   9340     1   0.15375 251793.120000
   9340   9349     1   0.15375 251793.120000
   9343   9355     1   0.15375 251793.120000
   9346   9352     1   0.15375 251793.120000
   9349   9358     1   0.14316 258236.480000
   9352  17036     1   0.14316 258236.480000
   9355  17059     1   0.14316 258236.480000
   9360   9361     1   0.15110 237065.440000
   9360   9364     1   0.15110 237065.440000
   9360   9367     1   0.15110 237065.440000
   9361   9373     1   0.15375 251793.120000
   9364   9376     1   0.15375 251793.120000
   9367   9370     1   0.15375 251793.120000
   9370   9379     1   0.15375 251793.120000
   9373   9385     1   0.15375 251793.120000
   9376   9382     1   0.15375 251793.120000
   9379   9388     1   0.14316 258236.480000
   9382  17082     1   0.14316 258236.480000
   9385  17105     1   0.14316 258236.480000
   9390   9391     1   0.15110 237065.440000
   9390   9394     1   0.15110 237065.440000
   9390   9397     1   0.15110 237065.440000
   9391   9403     1   0.15375 251793.120000
   9394   9406     1   0.15375 251793.120000
   9397   9400     1   0.15375 251793.120000
   9400   9409     1   0.15375 251793.120000
   9403   9415     1   0.15375 251793.120000
   9406   9412     1   0.15375 251793.120000
   9409   9418     1   0.14316 258236.480000
   9412  17128     1   0.14316 258236.480000
   9415  17151     1   0.14316 258236.480000
   9420   9421     1   0.15110 237065.440000
   9420   9424     1   0.15110 237065.440000
   9420   9427     1   0.15110 237065.440000
   9421   9433     1   0.15375 251793.120000
   9424   9436     1   0.15375 251793.120000
   9427   9430     1   0.15375 251793.120000
   9430   9439     1   0.15375 251793.120000
   9433   9445     1   0.15375 251793.120000
   9436   9442     1   0.15375 251793.120000
   9439   9448     1   0.14316 258236.480000
   9442  17174     1   0.14316 258236.480000
   9445  17197     1   0.14316 258236.480000
   9450   9451     1   0.15110 237065.440000
   9450   9454     1   0.15110 237065.440000
   9450   9457     1   0.15110 237065.440000
   9451   9463     1   0.15375 251793.120000
   9454   9466     1   0.15375 251793.120000
   9457   9460     1   0.15375 251793.120000
   9460   9469     1   0.15375 251793.120000
   9463   9475     1   0.15375 251793.120000
   9466   9472     1   0.15375 251793.120000
   9469   9478     1   0.14316 258236.480000
   9472  17220     1   0.14316 258236.480000
   9475  17243     1   0.14316 258236.480000
   9480   9481     1   0.15110 237065.440000
   9480   9484     1   0.15110 237065.440000
   9480   9487     1   0.15110 237065.440000
   9481   9493     1   0.15375 251793.120000
   9484   9496     1   0.15375 251793.120000
   9487   9490     1   0.15375 251793.120000
   9490   9499     1   0.15375 251793.120000
   9493   9505     1   0.15375 251793.120000
   9496   9502     1   0.15375 251793.120000
   9499   9508     1   0.14316 258236.480000
   9502  17266     1   0.14316 258236.480000
   9505  17289     1   0.14316 258236.480000
   9510   9511     1   0.15110 237065.440000
   9510   9514     1   0.15110 237065.440000
   9510   9517     1   0.15110 237065.440000
   9511   9523     1   0.15375 251793.120000
   9514   9526     1   0.15375 251793.120000
   9517   9520     1   0.15375 251793.120000
   9520   9529     1   0.15375 251793.120000
   9523   9535     1   0.15375 251793.120000
   9526   9532     1   0.15375 251793.120000
   9529   9538     1   0.14316 258236.480000
   9532  17312     1   0.14316 258236.480000
   9535  17335     1   0.14316 258236.480000
   9540   9541     1   0.15110 237065.440000
   9540   9544     1   0.15110 237065.440000
   9540   9547     1   0.15110 237065.440000
   9541   9553     1   0.15375 251793.120000
   9544   9556     1   0.15375 251793.120000
   9547   9550     1   0.15375 251793.120000
   9550   9559     1   0.15375 251793.120000
   9553   9565     1   0.15375 251793.120000
   9556   9562     1   0.15375 251793.120000
   9559   9568     1   0.14316 258236.480000
   9562  17358     1   0.14316 258236.480000
   9565  17381     1   0.14316 258236.480000
   9570   9571     1   0.15110 237065.440000
   9570   9574     1   0.15110 237065.440000
   9570   9577     1   0.15110 237065.440000
   9571   9583     1   0.15375 251793.120000
   9574   9586     1   0.15375 251793.120000
   9577   9580     1   0.15375 251793.120000
   9580   9589     1   0.15375 251793.120000
   9583   9595     1   0.15375 251793.120000
   9586   9592     1   0.15375 251793.120000
   9589   9598     1   0.14316 258236.480000
   9592  17404     1   0.14316 258236.480000
   9595  17427     1   0.14316 258236.480000
   9600   9601     1   0.15110 237065.440000
   9600   9604     1   0.15110 237065.440000
   9600   9607     1   0.15110 237065.440000
   9601   9613     1   0.15375 251793.120000
   9604   9616     1   0.15375 251793.120000
   9607   9610     1   0.15375 251793.120000
   9610   9619     1   0.15375 251793.120000
   9613   9625     1   0.15375 251793.120000
   9616   9622     1   0.15375 251793.120000
   9619   9628     1   0.14316 258236.480000
   9622  17450     1   0.14316 258236.480000
   9625  17473     1   0.14316 258236.480000
   9630   9631     1   0.15110 237065.440000
   9630   9634     1   0.15110 237065.440000
   9630   9637     1   0.15110 237065.440000
   9631   9643     1   0.15375 251793.120000
   9634   9646     1   0.15375 251793.120000
   9637   9640     1   0.15375 251793.120000
   9640   9649     1   0.15375 251793.120000
   9643   9655     1   0.15375 251793.120000
   9646   9652     1   0.15375 251793.120000
   9649   9658     1   0.14316 258236.480000
   9652  17496     1   0.14316 258236.480000
   9655  17519     1   0.14316 258236.480000
   9660   9661     1   0.15110 237065.440000
   9660   9664     1   0.15110 237065.440000
   9660   9667     1   0.15110 237065.440000
   9661   9673     1   0.15375 251793.120000
   9664   9676     1   0.15375 251793.120000
   9667   9670     1   0.15375 251793.120000
   9670   9679     1   0.15375 251793.120000
   9673   9685     1   0.15375 251793.120000
   9676   9682     1   0.15375 251793.120000
   9679   9688     1   0.14316 258236.480000
   9682  17542     1   0.14316 258236.480000
   9685  17565     1   0.14316 258236.480000
   9690   9691     1   0.15110 237065.440000
   9690   9694     1   0.15110 237065.440000
   9690   9697     1   0.15110 237065.440000
   9691   9703     1   0.15375 251793.120000
   9694   9706     1   0.15375 251793.120000
   9697   9700     1   0.15375 251793.120000
   9700   9709     1   0.15375 251793.120000
   9703   9715     1   0.15375 251793.120000
   9706   9712     1   0.15375 251793.120000
   9709   9718     1   0.14316 258236.480000
   9712  17588     1   0.14316 258236.480000
   9715  17611     1   0.14316 258236.480000
   9720   9721     1   0.15110 237065.440000
   9720   9724     1   0.15110 237065.440000
   9720   9727     1   0.15110 237065.440000
   9721   9733     1   0.15375 251793.120000
   9724   9736     1   0.15375 251793.120000
   9727   9730     1   0.15375 251793.120000
   9730   9739     1   0.15375 251793.120000
   9733   9745     1   0.15375 251793.120000
   9736   9742     1   0.15375 251793.120000
   9739   9748     1   0.14316 258236.480000
   9742  17634     1   0.14316 258236.480000
   9745  17657     1   0.14316 258236.480000
   9750   9751     1   0.15110 237065.440000
   9750   9754     1   0.15110 237065.440000
   9750   9757     1   0.15110 237065.440000
   9751   9763     1   0.15375 251793.120000
   9754   9766     1   0.15375 251793.120000
   9757   9760     1   0.15375 251793.120000
   9760   9769     1   0.15375 251793.120000
   9763   9775     1   0.15375 251793.120000
   9766   9772     1   0.15375 251793.120000
   9769   9778     1   0.14316 258236.480000
   9772  17680     1   0.14316 258236.480000
   9775  17703     1   0.14316 258236.480000
   9780   9781     1   0.15110 237065.440000
   9780   9784     1   0.15110 237065.440000
   9780   9787     1   0.15110 237065.440000
   9781   9793     1   0.15375 251793.120000
   9784   9796     1   0.15375 251793.120000
   9787   9790     1   0.15375 251793.120000
   9790   9799     1   0.15375 251793.120000
   9793   9805     1   0.15375 251793.120000
   9796   9802     1   0.15375 251793.120000
   9799   9808     1   0.14316 258236.480000
   9802  17726     1   0.14316 258236.480000
   9805  17749     1   0.14316 258236.480000
   9810   9811     1   0.15110 237065.440000
   9810   9814     1   0.15110 237065.440000
   9810   9817     1   0.15110 237065.440000
   9811   9823     1   0.15375 251793.120000
   9814   9826     1   0.15375 251793.120000
   9817   9820     1   0.15375 251793.120000
   9820   9829     1   0.15375 251793.120000
   9823   9835     1   0.15375 251793.120000
   9826   9832     1   0.15375 251793.120000
   9829   9838     1   0.14316 258236.480000
   9832  17772     1   0.14316 258236.480000
   9835  17795     1   0.14316 258236.480000
   9840   9841     1   0.15110 237065.440000
   9840   9844     1   0.15110 237065.440000
   9840   9847     1   0.15110 237065.440000
   9841   9853     1   0.15375 251793.120000
   9844   9856     1   0.15375 251793.120000
   9847   9850     1   0.15375 251793.120000
   9850   9859     1   0.15375 251793.120000
   9853   9865     1   0.15375 251793.120000
   9856   9862     1   0.15375 251793.120000
   9859   9868     1   0.14316 258236.480000
   9862  17818     1   0.14316 258236.480000
   9865  17841     1   0.14316 258236.480000
   9870   9871     1   0.15110 237065.440000
   9870   9874     1   0.15110 237065.440000
   9870   9877     1   0.15110 237065.440000
   9871   9883     1   0.15375 251793.120000
   9874   9886     1   0.15375 251793.120000
   9877   9880     1   0.15375 251793.120000
   9880   9889     1   0.15375 251793.120000
   9883   9895     1   0.15375 251793.120000
   9886   9892     1   0.15375 251793.120000
   9889   9898     1   0.14316 258236.480000
   9892  17864     1   0.14316 258236.480000
   9895  17887     1   0.14316 258236.480000
   9900   9901     1   0.15110 237065.440000
   9900   9904     1   0.15110 237065.440000
   9900   9907     1   0.15110 237065.440000
   9901   9913     1   0.15375 251793.120000
   9904   9916     1   0.15375 251793.120000
   9907   9910     1   0.15375 251793.120000
   9910   9919     1   0.15375 251793.120000
   9913   9925     1   0.15375 251793.120000
   9916   9922     1   0.15375 251793.120000
   9919   9928     1   0.14316 258236.480000
   9922  17910     1   0.14316 258236.480000
   9925  17933     1   0.14316 258236.480000
   9930   9931     1   0.15110 237065.440000
   9930   9934     1   0.15110 237065.440000
   9930   9937     1   0.15110 237065.440000
   9931   9943     1   0.15375 251793.120000
   9934   9946     1   0.15375 251793.120000
   9937   9940     1   0.15375 251793.120000
   9940   9949     1   0.15375 251793.120000
   9943   9955     1   0.15375 251793.120000
   9946   9952     1   0.15375 251793.120000
   9949   9958     1   0.14316 258236.480000
   9952  17956     1   0.14316 258236.480000
   9955  17979     1   0.14316 258236.480000
   9960   9961     1   0.15110 237065.440000
   9960   9964     1   0.15110 237065.440000
   9960   9967     1   0.15110 237065.440000
   9961   9973     1   0.15375 251793.120000
   9964   9976     1   0.15375 251793.120000
   9967   9970     1   0.15375 251793.120000
   9970   9979     1   0.15375 251793.120000
   9973   9985     1   0.15375 251793.120000
   9976   9982     1   0.15375 251793.120000
   9979   9988     1   0.14316 258236.480000
   9982  18002     1   0.14316 258236.480000
   9985  18025     1   0.14316 258236.480000
   9990   9991     1   0.15110 237065.440000
   9990   9994     1   0.15110 237065.440000
   9990   9997     1   0.15110 237065.440000
   9991  10003     1   0.15375 251793.120000
   9994  10006     1   0.15375 251793.120000
   9997  10000     1   0.15375 251793.120000
  10000  10009     1   0.15375 251793.120000
  10003  10015     1   0.15375 251793.120000
  10006  10012     1   0.15375 251793.120000
  10009  10018     1   0.14316 258236.480000
  10012  18048     1   0.14316 258236.480000
  10015  18071     1   0.14316 258236.480000
  10020  10021     1   0.15110 237065.440000
  10020  10024     1   0.15110 237065.440000
  10020  10027     1   0.15110 237065.440000
  10021  10033     1   0.15375 251793.120000
  10024  10036     1   0.15375 251793.120000
  10027  10030     1   0.15375 251793.120000
  10030  10039     1   0.15375 251793.120000
  10033  10045     1   0.15375 251793.120000
  10036  10042     1   0.15375 251793.120000
  10039  10048     1   0.14316 258236.480000
  10042  18094     1   0.14316 258236.480000
  10045  18117     1   0.14316 258236.480000
  10050  10051     1   0.15110 237065.440000
  10050  10054     1   0.15110 237065.440000
  10050  10057     1   0.15110 237065.440000
  10051  10063     1   0.15375 251793.120000
  10054  10066     1   0.15375 251793.120000
  10057  10060     1   0.15375 251793.120000
  10060  10069     1   0.15375 251793.120000
  10063  10075     1   0.15375 251793.120000
  10066  10072     1   0.15375 251793.120000
  10069  10078     1   0.14316 258236.480000
  10072  18140     1   0.14316 258236.480000
  10075  18163     1   0.14316 258236.480000
  10080  10081     1   0.15110 237065.440000
  10080  10084     1   0.15110 237065.440000
  10080  10087     1   0.15110 237065.440000
  10081  10093     1   0.15375 251793.120000
  10084  10096     1   0.15375 251793.120000
  10087  10090     1   0.15375 251793.120000
  10090  10099     1   0.15375 251793.120000
  10093  10105     1   0.15375 251793.120000
  10096  10102     1   0.15375 251793.120000
  10099  10108     1   0.14316 258236.480000
  10102  18186     1   0.14316 258236.480000
  10105  18209     1   0.14316 258236.480000
  10110  10111     1   0.15110 237065.440000
  10110  10114     1   0.15110 237065.440000
  10110  10117     1   0.15110 237065.440000
  10111  10123     1   0.15375 251793.120000
  10114  10126     1   0.15375 251793.120000
  10117  10120     1   0.15375 251793.120000
  10120  10129     1   0.15375 251793.120000
  10123  10135     1   0.15375 251793.120000
  10126  10132     1   0.15375 251793.120000
  10129  10138     1   0.14316 258236.480000
  10132  18232     1   0.14316 258236.480000
  10135  18255     1   0.14316 258236.480000
  10140  10141     1   0.15110 237065.440000
  10140  10144     1   0.15110 237065.440000
  10140  10147     1   0.15110 237065.440000
  10141  10153     1   0.15375 251793.120000
  10144  10156     1   0.15375 251793.120000
  10147  10150     1   0.15375 251793.120000
  10150  10159     1   0.15375 251793.120000
  10153  10165     1   0.15375 251793.120000
  10156  10162     1   0.15375 251793.120000
  10159  10168     1   0.14316 258236.480000
  10162  18278     1   0.14316 258236.480000
  10165  18301     1   0.14316 258236.480000
  10170  10171     1   0.15110 237065.440000
  10170  10174     1   0.15110 237065.440000
  10170  10177     1   0.15110 237065.440000
  10171  10183     1   0.15375 251793.120000
  10174  10186     1   0.15375 251793.120000
  10177  10180     1   0.15375 251793.120000
  10180  10189     1   0.15375 251793.120000
  10183  10195     1   0.15375 251793.120000
  10186  10192     1   0.15375 251793.120000
  10189  10198     1   0.14316 258236.480000
  10192  18324     1   0.14316 258236.480000
  10195  18347     1   0.14316 258236.480000
  10200  10201     1   0.15110 237065.440000
  10200  10204     1   0.15110 237065.440000
  10200  10207     1   0.15110 237065.440000
  10201  10213     1   0.15375 251793.120000
  10204  10216     1   0.15375 251793.120000
  10207  10210     1   0.15375 251793.120000
  10210  10219     1   0.15375 251793.120000
  10213  10225     1   0.15375 251793.120000
  10216  10222     1   0.15375 251793.120000
  10219  10228     1   0.14316 258236.480000
  10222  18370     1   0.14316 258236.480000
  10225  18393     1   0.14316 258236.480000
  10230  10231     1   0.15110 237065.440000
  10230  10234     1   0.15110 237065.440000
  10230  10237     1   0.15110 237065.440000
  10231  10243     1   0.15375 251793.120000
  10234  10246     1   0.15375 251793.120000
  10237  10240     1   0.15375 251793.120000
  10240  10249     1   0.15375 251793.120000
  10243  10255     1   0.15375 251793.120000
  10246  10252     1   0.15375 251793.120000
  10249  10258     1   0.14316 258236.480000
  10252  18416     1   0.14316 258236.480000
  10255  18439     1   0.14316 258236.480000
  10260  10261     1   0.15110 237065.440000
  10260  10264     1   0.15110 237065.440000
  10260  10267     1   0.15110 237065.440000
  10261  10273     1   0.15375 251793.120000
  10264  10276     1   0.15375 251793.120000
  10267  10270     1   0.15375 251793.120000
  10270  10279     1   0.15375 251793.120000
  10273  10285     1   0.15375 251793.120000
  10276  10282     1   0.15375 251793.120000
  10279  10288     1   0.14316 258236.480000
  10282  18462     1   0.14316 258236.480000
  10285  18485     1   0.14316 258236.480000
  10290  10291     1   0.15110 237065.440000
  10290  10294     1   0.15110 237065.440000
  10290  10297     1   0.15110 237065.440000
  10291  10303     1   0.15375 251793.120000
  10294  10306     1   0.15375 251793.120000
  10297  10300     1   0.15375 251793.120000
  10300  10309     1   0.15375 251793.120000
  10303  10315     1   0.15375 251793.120000
  10306  10312     1   0.15375 251793.120000
  10309  10318     1   0.14316 258236.480000
  10312  18508     1   0.14316 258236.480000
  10315  18531     1   0.14316 258236.480000
  10320  10321     1   0.15110 237065.440000
  10320  10324     1   0.15110 237065.440000
  10320  10327     1   0.15110 237065.440000
  10321  10333     1   0.15375 251793.120000
  10324  10336     1   0.15375 251793.120000
  10327  10330     1   0.15375 251793.120000
  10330  10339     1   0.15375 251793.120000
  10333  10345     1   0.15375 251793.120000
  10336  10342     1   0.15375 251793.120000
  10339  10348     1   0.14316 258236.480000
  10342  18554     1   0.14316 258236.480000
  10345  18577     1   0.14316 258236.480000
  10350  10351     1   0.15110 237065.440000
  10350  10354     1   0.15110 237065.440000
  10350  10357     1   0.15110 237065.440000
  10351  10363     1   0.15375 251793.120000
  10354  10366     1   0.15375 251793.120000
  10357  10360     1   0.15375 251793.120000
  10360  10369     1   0.15375 251793.120000
  10363  10375     1   0.15375 251793.120000
  10366  10372     1   0.15375 251793.120000
  10369  10378     1   0.14316 258236.480000
  10372  18600     1   0.14316 258236.480000
  10375  18623     1   0.14316 258236.480000
  10380  10381     1   0.15110 237065.440000
  10380  10384     1   0.15110 237065.440000
  10380  10387     1   0.15110 237065.440000
  10381  10393     1   0.15375 251793.120000
  10384  10396     1   0.15375 251793.120000
  10387  10390     1   0.15375 251793.120000
  10390  10399     1   0.15375 251793.120000
  10393  10405     1   0.15375 251793.120000
  10396  10402     1   0.15375 251793.120000
  10399  10408     1   0.14316 258236.480000
  10402  18646     1   0.14316 258236.480000
  10405  18669     1   0.14316 258236.480000
  10410  10411     1   0.15110 237065.440000
  10410  10414     1   0.15110 237065.440000
  10410  10417     1   0.15110 237065.440000
  10411  10423     1   0.15375 251793.120000
  10414  10426     1   0.15375 251793.120000
  10417  10420     1   0.15375 251793.120000
  10420  10429     1   0.15375 251793.120000
  10423  10435     1   0.15375 251793.120000
  10426  10432     1   0.15375 251793.120000
  10429  10438     1   0.14316 258236.480000
  10432  18692     1   0.14316 258236.480000
  10435  18715     1   0.14316 258236.480000
  10440  10441     1   0.15110 237065.440000
  10440  10444     1   0.15110 237065.440000
  10440  10447     1   0.15110 237065.440000
  10441  10453     1   0.15375 251793.120000
  10444  10456     1   0.15375 251793.120000
  10447  10450     1   0.15375 251793.120000
  10450  10459     1   0.15375 251793.120000
  10453  10465     1   0.15375 251793.120000
  10456  10462     1   0.15375 251793.120000
  10459  10468     1   0.14316 258236.480000
  10462  18738     1   0.14316 258236.480000
  10465  18761     1   0.14316 258236.480000
  10470  10471     1   0.15110 237065.440000
  10470  10474     1   0.15110 237065.440000
  10470  10477     1   0.15110 237065.440000
  10471  10483     1   0.15375 251793.120000
  10474  10486     1   0.15375 251793.120000
  10477  10480     1   0.15375 251793.120000
  10480  10489     1   0.15375 251793.120000
  10483  10495     1   0.15375 251793.120000
  10486  10492     1   0.15375 251793.120000
  10489  10498     1   0.14316 258236.480000
  10492  18784     1   0.14316 258236.480000
  10495  18807     1   0.14316 258236.480000
  10500  10501     1   0.15110 237065.440000
  10500  10504     1   0.15110 237065.440000
  10500  10507     1   0.15110 237065.440000
  10501  10513     1   0.15375 251793.120000
  10504  10516     1   0.15375 251793.120000
  10507  10510     1   0.15375 251793.120000
  10510  10519     1   0.15375 251793.120000
  10513  10525     1   0.15375 251793.120000
  10516  10522     1   0.15375 251793.120000
  10519  10528     1   0.14316 258236.480000
  10522  18830     1   0.14316 258236.480000
  10525  18853     1   0.14316 258236.480000
  10530  10531     1   0.15110 237065.440000
  10530  10534     1   0.15110 237065.440000
  10530  10537     1   0.15110 237065.440000
  10531  10543     1   0.15375 251793.120000
  10534  10546     1   0.15375 251793.120000
  10537  10540     1   0.15375 251793.120000
  10540  10549     1   0.15375 251793.120000
  10543  10555     1   0.15375 251793.120000
  10546  10552     1   0.15375 251793.120000
  10549  10558     1   0.14316 258236.480000
  10552  18876     1   0.14316 258236.480000
  10555  18899     1   0.14316 258236.480000
  10560  10561     1   0.15110 237065.440000
  10560  10564     1   0.15110 237065.440000
  10560  10567     1   0.15110 237065.440000
  10561  10573     1   0.15375 251793.120000
  10564  10576     1   0.15375 251793.120000
  10567  10570     1   0.15375 251793.120000
  10570  10579     1   0.15375 251793.120000
  10573  10585     1   0.15375 251793.120000
  10576  10582     1   0.15375 251793.120000
  10579  10588     1   0.14316 258236.480000
  10582  18922     1   0.14316 258236.480000
  10585  18945     1   0.14316 258236.480000
  10590  10591     1   0.15110 237065.440000
  10590  10594     1   0.15110 237065.440000
  10590  10597     1   0.15110 237065.440000
  10591  10603     1   0.15375 251793.120000
  10594  10606     1   0.15375 251793.120000
  10597  10600     1   0.15375 251793.120000
  10600  10609     1   0.15375 251793.120000
  10603  10615     1   0.15375 251793.120000
  10606  10612     1   0.15375 251793.120000
  10609  10618     1   0.14316 258236.480000
  10612  18968     1   0.14316 258236.480000
  10615  18991     1   0.14316 258236.480000
  10620  10621     1   0.15110 237065.440000
  10620  10624     1   0.15110 237065.440000
  10620  10627     1   0.15110 237065.440000
  10621  10633     1   0.15375 251793.120000
  10624  10636     1   0.15375 251793.120000
  10627  10630     1   0.15375 251793.120000
  10630  10639     1   0.15375 251793.120000
  10633  10645     1   0.15375 251793.120000
  10636  10642     1   0.15375 251793.120000
  10639  10648     1   0.14316 258236.480000
  10642  19014     1   0.14316 258236.480000
  10645  19037     1   0.14316 258236.480000
  10650  10651     1   0.15110 237065.440000
  10650  10654     1   0.15110 237065.440000
  10650  10657     1   0.15110 237065.440000
  10651  10663     1   0.15375 251793.120000
  10654  10666     1   0.15375 251793.120000
  10657  10660     1   0.15375 251793.120000
  10660  10669     1   0.15375 251793.120000
  10663  10675     1   0.15375 251793.120000
  10666  10672     1   0.15375 251793.120000
  10669  10678     1   0.14316 258236.480000
  10672  19060     1   0.14316 258236.480000
  10675  19083     1   0.14316 258236.480000
  10680  10681     1   0.15110 237065.440000
  10680  10684     1   0.15110 237065.440000
  10680  10687     1   0.15110 237065.440000
  10681  10693     1   0.15375 251793.120000
  10684  10696     1   0.15375 251793.120000
  10687  10690     1   0.15375 251793.120000
  10690  10699     1   0.15375 251793.120000
  10693  10705     1   0.15375 251793.120000
  10696  10702     1   0.15375 251793.120000
  10699  10708     1   0.14316 258236.480000
  10702  19106     1   0.14316 258236.480000
  10705  19129     1   0.14316 258236.480000
  10710  10711     1   0.15110 237065.440000
  10710  10714     1   0.15110 237065.440000
  10710  10717     1   0.15110 237065.440000
  10711  10723     1   0.15375 251793.120000
  10714  10726     1   0.15375 251793.120000
  10717  10720     1   0.15375 251793.120000
  10720  10729     1   0.15375 251793.120000
  10723  10735     1   0.15375 251793.120000
  10726  10732     1   0.15375 251793.120000
  10729  10738     1   0.14316 258236.480000
  10732  19152     1   0.14316 258236.480000
  10735  19175     1   0.14316 258236.480000
  10740  10741     1   0.15110 237065.440000
  10740  10744     1   0.15110 237065.440000
  10740  10747     1   0.15110 237065.440000
  10741  10753     1   0.15375 251793.120000
  10744  10756     1   0.15375 251793.120000
  10747  10750     1   0.15375 251793.120000
  10750  10759     1   0.15375 251793.120000
  10753  10765     1   0.15375 251793.120000
  10756  10762     1   0.15375 251793.120000
  10759  10768     1   0.14316 258236.480000
  10762  19198     1   0.14316 258236.480000
  10765  19221     1   0.14316 258236.480000
  10770  10771     1   0.15110 237065.440000
  10770  10774     1   0.15110 237065.440000
  10770  10777     1   0.15110 237065.440000
  10771  10783     1   0.15375 251793.120000
  10774  10786     1   0.15375 251793.120000
  10777  10780     1   0.15375 251793.120000
  10780  10789     1   0.15375 251793.120000
  10783  10795     1   0.15375 251793.120000
  10786  10792     1   0.15375 251793.120000
  10789  10798     1   0.14316 258236.480000
  10792  19244     1   0.14316 258236.480000
  10795  19267     1   0.14316 258236.480000
  10800  10801     1   0.15110 237065.440000
  10800  10804     1   0.15110 237065.440000
  10800  10807     1   0.15110 237065.440000
  10801  10813     1   0.15375 251793.120000
  10804  10816     1   0.15375 251793.120000
  10807  10810     1   0.15375 251793.120000
  10810  10819     1   0.15375 251793.120000
  10813  10825     1   0.15375 251793.120000
  10816  10822     1   0.15375 251793.120000
  10819  10828     1   0.14316 258236.480000
  10822  19290     1   0.14316 258236.480000
  10825  19313     1   0.14316 258236.480000
  10830  10831     1   0.15110 237065.440000
  10830  10834     1   0.15110 237065.440000
  10830  10837     1   0.15110 237065.440000
  10831  10843     1   0.15375 251793.120000
  10834  10846     1   0.15375 251793.120000
  10837  10840     1   0.15375 251793.120000
  10840  10849     1   0.15375 251793.120000
  10843  10855     1   0.15375 251793.120000
  10846  10852     1   0.15375 251793.120000
  10849  10858     1   0.14316 258236.480000
  10852  19336     1   0.14316 258236.480000
  10855  19359     1   0.14316 258236.480000
  10860  10861     1   0.15110 237065.440000
  10860  10864     1   0.15110 237065.440000
  10860  10867     1   0.15110 237065.440000
  10861  10873     1   0.15375 251793.120000
  10864  10876     1   0.15375 251793.120000
  10867  10870     1   0.15375 251793.120000
  10870  10879     1   0.15375 251793.120000
  10873  10885     1   0.15375 251793.120000
  10876  10882     1   0.15375 251793.120000
  10879  10888     1   0.14316 258236.480000
  10882  19382     1   0.14316 258236.480000
  10885  19405     1   0.14316 258236.480000
  10890  10891     1   0.15110 237065.440000
  10890  10894     1   0.15110 237065.440000
  10890  10897     1   0.15110 237065.440000
  10891  10903     1   0.15375 251793.120000
  10894  10906     1   0.15375 251793.120000
  10897  10900     1   0.15375 251793.120000
  10900  10909     1   0.15375 251793.120000
  10903  10915     1   0.15375 251793.120000
  10906  10912     1   0.15375 251793.120000
  10909  10918     1   0.14316 258236.480000
  10912  19428     1   0.14316 258236.480000
  10915  19451     1   0.14316 258236.480000
  10920  10921     1   0.15110 237065.440000
  10920  10924     1   0.15110 237065.440000
  10920  10927     1   0.15110 237065.440000
  10921  10933     1   0.15375 251793.120000
  10924  10936     1   0.15375 251793.120000
  10927  10930     1   0.15375 251793.120000
  10930  10939     1   0.15375 251793.120000
  10933  10945     1   0.15375 251793.120000
  10936  10942     1   0.15375 251793.120000
  10939  10948     1   0.14316 258236.480000
  10942  19474     1   0.14316 258236.480000
  10945  19497     1   0.14316 258236.480000
  10950  10951     1   0.15110 237065.440000
  10950  10954     1   0.15110 237065.440000
  10950  10957     1   0.15110 237065.440000
  10951  10963     1   0.15375 251793.120000
  10954  10966     1   0.15375 251793.120000
  10957  10960     1   0.15375 251793.120000
  10960  10969     1   0.15375 251793.120000
  10963  10975     1   0.15375 251793.120000
  10966  10972     1   0.15375 251793.120000
  10969  10978     1   0.14316 258236.480000
  10972  19520     1   0.14316 258236.480000
  10975  19543     1   0.14316 258236.480000
  10980  10981     1   0.15110 237065.440000
  10980  10984     1   0.15110 237065.440000
  10980  10987     1   0.15110 237065.440000
  10981  10993     1   0.15375 251793.120000
  10984  10996     1   0.15375 251793.120000
  10987  10990     1   0.15375 251793.120000
  10990  10999     1   0.15375 251793.120000
  10993  11005     1   0.15375 251793.120000
  10996  11002     1   0.15375 251793.120000
  10999  11008     1   0.14316 258236.480000
  11002  19566     1   0.14316 258236.480000
  11005  19589     1   0.14316 258236.480000
  11010  11011     1   0.15110 237065.440000
  11010  11014     1   0.15110 237065.440000
  11010  11017     1   0.15110 237065.440000
  11011  11023     1   0.15375 251793.120000
  11014  11026     1   0.15375 251793.120000
  11017  11020     1   0.15375 251793.120000
  11020  11029     1   0.15375 251793.120000
  11023  11035     1   0.15375 251793.120000
  11026  11032     1   0.15375 251793.120000
  11029  11038     1   0.14316 258236.480000
  11032  19612     1   0.14316 258236.480000
  11035  19635     1   0.14316 258236.480000
  11040  11041     1   0.15110 237065.440000
  11040  11044     1   0.15110 237065.440000
  11040  11047     1   0.15110 237065.440000
  11041  11053     1   0.15375 251793.120000
  11044  11056     1   0.15375 251793.120000
  11047  11050     1   0.15375 251793.120000
  11050  11059     1   0.15375 251793.120000
  11053  11065     1   0.15375 251793.120000
  11056  11062     1   0.15375 251793.120000
  11059  11068     1   0.14316 258236.480000
  11062  19658     1   0.14316 258236.480000
  11065  19681     1   0.14316 258236.480000
  11070  11071     1   0.15110 237065.440000
  11070  11074     1   0.15110 237065.440000
  11070  11077     1   0.15110 237065.440000
  11071  11083     1   0.15375 251793.120000
  11074  11086     1   0.15375 251793.120000
  11077  11080     1   0.15375 251793.120000
  11080  11089     1   0.15375 251793.120000
  11083  11095     1   0.15375 251793.120000
  11086  11092     1   0.15375 251793.120000
  11089  11098     1   0.14316 258236.480000
  11092  19704     1   0.14316 258236.480000
  11095  19727     1   0.14316 258236.480000
  11100  11101     1   0.15110 237065.440000
  11100  11104     1   0.15110 237065.440000
  11100  11107     1   0.15110 237065.440000
  11101  11113     1   0.15375 251793.120000
  11104  11116     1   0.15375 251793.120000
  11107  11110     1   0.15375 251793.120000
  11110  11119     1   0.15375 251793.120000
  11113  11125     1   0.15375 251793.120000
  11116  11122     1   0.15375 251793.120000
  11119  11128     1   0.14316 258236.480000
  11122  19750     1   0.14316 258236.480000
  11125  19773     1   0.14316 258236.480000
  11130  11131     1   0.15110 237065.440000
  11130  11134     1   0.15110 237065.440000
  11130  11137     1   0.15110 237065.440000
  11131  11143     1   0.15375 251793.120000
  11134  11146     1   0.15375 251793.120000
  11137  11140     1   0.15375 251793.120000
  11140  11149     1   0.15375 251793.120000
  11143  11155     1   0.15375 251793.120000
  11146  11152     1   0.15375 251793.120000
  11149  11158     1   0.14316 258236.480000
  11152  19796     1   0.14316 258236.480000
  11155  19819     1   0.14316 258236.480000
  11160  11161     1   0.15110 237065.440000
  11160  11164     1   0.15110 237065.440000
  11160  11167     1   0.15110 237065.440000
  11161  11173     1   0.15375 251793.120000
  11164  11176     1   0.15375 251793.120000
  11167  11170     1   0.15375 251793.120000
  11170  11179     1   0.15375 251793.120000
  11173  11185     1   0.15375 251793.120000
  11176  11182     1   0.15375 251793.120000
  11179  11188     1   0.14316 258236.480000
  11182  19842     1   0.14316 258236.480000
  11185  19865     1   0.14316 258236.480000
  11190  11191     1   0.15110 237065.440000
  11190  11194     1   0.15110 237065.440000
  11190  11197     1   0.15110 237065.440000
  11191  11203     1   0.15375 251793.120000
  11194  11206     1   0.15375 251793.120000
  11197  11200     1   0.15375 251793.120000
  11200  11209     1   0.15375 251793.120000
  11203  11215     1   0.15375 251793.120000
  11206  11212     1   0.15375 251793.120000
  11209  11218     1   0.14316 258236.480000
  11212  19888     1   0.14316 258236.480000
  11215  19911     1   0.14316 258236.480000
  11220  11221     1   0.15110 237065.440000
  11220  11224     1   0.15110 237065.440000
  11220  11227     1   0.15110 237065.440000
  11221  11233     1   0.15375 251793.120000
  11224  11236     1   0.15375 251793.120000
  11227  11230     1   0.15375 251793.120000
  11230  11239     1   0.15375 251793.120000
  11233  11245     1   0.15375 251793.120000
  11236  11242     1   0.15375 251793.120000
  11239  11248     1   0.14316 258236.480000
  11242  19934     1   0.14316 258236.480000
  11245  19957     1   0.14316 258236.480000
  11250  11251     1   0.15110 237065.440000
  11250  11254     1   0.15110 237065.440000
  11250  11257     1   0.15110 237065.440000
  11251  11263     1   0.15375 251793.120000
  11254  11266     1   0.15375 251793.120000
  11257  11260     1   0.15375 251793.120000
  11260  11269     1   0.15375 251793.120000
  11263  11275     1   0.15375 251793.120000
  11266  11272     1   0.15375 251793.120000
  11269  11278     1   0.14316 258236.480000
  11272  19980     1   0.14316 258236.480000
  11275  20003     1   0.14316 258236.480000
  11280  11281     1   0.15110 237065.440000
  11280  11284     1   0.15110 237065.440000
  11280  11287     1   0.15110 237065.440000
  11281  11293     1   0.15375 251793.120000
  11284  11296     1   0.15375 251793.120000
  11287  11290     1   0.15375 251793.120000
  11290  11299     1   0.15375 251793.120000
  11293  11305     1   0.15375 251793.120000
  11296  11302     1   0.15375 251793.120000
  11299  11308     1   0.14316 258236.480000
  11302  20026     1   0.14316 258236.480000
  11305  20049     1   0.14316 258236.480000
  11310  11311     1   0.15110 237065.440000
  11310  11314     1   0.15110 237065.440000
  11310  11317     1   0.15110 237065.440000
  11311  11323     1   0.15375 251793.120000
  11314  11326     1   0.15375 251793.120000
  11317  11320     1   0.15375 251793.120000
  11320  11329     1   0.15375 251793.120000
  11323  11335     1   0.15375 251793.120000
  11326  11332     1   0.15375 251793.120000
  11329  11338     1   0.14316 258236.480000
  11332  20072     1   0.14316 258236.480000
  11335  20095     1   0.14316 258236.480000
  11340  11341     1   0.15110 237065.440000
  11340  11344     1   0.15110 237065.440000
  11340  11347     1   0.15110 237065.440000
  11341  11353     1   0.15375 251793.120000
  11344  11356     1   0.15375 251793.120000
  11347  11350     1   0.15375 251793.120000
  11350  11359     1   0.15375 251793.120000
  11353  11365     1   0.15375 251793.120000
  11356  11362     1   0.15375 251793.120000
  11359  11368     1   0.14316 258236.480000
  11362  20118     1   0.14316 258236.480000
  11365  20141     1   0.14316 258236.480000
  11370  11371     1   0.15110 237065.440000
  11370  11374     1   0.15110 237065.440000
  11370  11377     1   0.15110 237065.440000
  11371  11383     1   0.15375 251793.120000
  11374  11386     1   0.15375 251793.120000
  11377  11380     1   0.15375 251793.120000
  11380  11389     1   0.15375 251793.120000
  11383  11395     1   0.15375 251793.120000
  11386  11392     1   0.15375 251793.120000
  11389  11398     1   0.14316 258236.480000
  11392  20164     1   0.14316 258236.480000
  11395  20187     1   0.14316 258236.480000
  11400  11401     1   0.15110 237065.440000
  11400  11404     1   0.15110 237065.440000
  11400  11407     1   0.15110 237065.440000
  11401  11413     1   0.15375 251793.120000
  11404  11416     1   0.15375 251793.120000
  11407  11410     1   0.15375 251793.120000
  11410  11419     1   0.15375 251793.120000
  11413  11425     1   0.15375 251793.120000
  11416  11422     1   0.15375 251793.120000
  11419  11428     1   0.14316 258236.480000
  11422  20210     1   0.14316 258236.480000
  11425  20233     1   0.14316 258236.480000
  11430  11431     1   0.15110 237065.440000
  11430  11434     1   0.15110 237065.440000
  11430  11437     1   0.15110 237065.440000
  11431  11443     1   0.15375 251793.120000
  11434  11446     1   0.15375 251793.120000
  11437  11440     1   0.15375 251793.120000
  11440  11449     1   0.15375 251793.120000
  11443  11455     1   0.15375 251793.120000
  11446  11452     1   0.15375 251793.120000
  11449  11458     1   0.14316 258236.480000
  11452  20256     1   0.14316 258236.480000
  11455  20279     1   0.14316 258236.480000
  11460  11461     1   0.15375 251793.120000
  11460  11474     1   0.15375 251793.120000
  11460  11482     1   0.14316 258236.480000
  11461  11464     1   0.15375 251793.120000
  11461  11473     1   0.14233 265014.560000
  11464  11465     1   0.15375 251793.120000
  11464  11472     1   0.14233 265014.560000
  11465  11466     1   0.15375 251793.120000
  11465  11471     1   0.14233 265014.560000
  11466  11470     1   0.14316 258236.480000
  11466  11482     1   0.14316 258236.480000
  11474  11480     1   0.14233 265014.560000
  11483  11484     1   0.15375 251793.120000
  11483  11497     1   0.15375 251793.120000
  11483  11505     1   0.14316 258236.480000
  11484  11487     1   0.15375 251793.120000
  11484  11496     1   0.14233 265014.560000
  11487  11488     1   0.15375 251793.120000
  11487  11495     1   0.14233 265014.560000
  11488  11489     1   0.15375 251793.120000
  11488  11494     1   0.14233 265014.560000
  11489  11493     1   0.14316 258236.480000
  11489  11505     1   0.14316 258236.480000
  11497  11503     1   0.14233 265014.560000
  11506  11507     1   0.15375 251793.120000
  11506  11520     1   0.15375 251793.120000
  11506  11528     1   0.14316 258236.480000
  11507  11510     1   0.15375 251793.120000
  11507  11519     1   0.14233 265014.560000
  11510  11511     1   0.15375 251793.120000
  11510  11518     1   0.14233 265014.560000
  11511  11512     1   0.15375 251793.120000
  11511  11517     1   0.14233 265014.560000
  11512  11516     1   0.14316 258236.480000
  11512  11528     1   0.14316 258236.480000
  11520  11526     1   0.14233 265014.560000
  11529  11530     1   0.15375 251793.120000
  11529  11543     1   0.15375 251793.120000
  11529  11551     1   0.14316 258236.480000
  11530  11533     1   0.15375 251793.120000
  11530  11542     1   0.14233 265014.560000
  11533  11534     1   0.15375 251793.120000
  11533  11541     1   0.14233 265014.560000
  11534  11535     1   0.15375 251793.120000
  11534  11540     1   0.14233 265014.560000
  11535  11539     1   0.14316 258236.480000
  11535  11551     1   0.14316 258236.480000
  11543  11549     1   0.14233 265014.560000
  11552  11553     1   0.15375 251793.120000
  11552  11566     1   0.15375 251793.120000
  11552  11574     1   0.14316 258236.480000
  11553  11556     1   0.15375 251793.120000
  11553  11565     1   0.14233 265014.560000
  11556  11557     1   0.15375 251793.120000
  11556  11564     1   0.14233 265014.560000
  11557  11558     1   0.15375 251793.120000
  11557  11563     1   0.14233 265014.560000
  11558  11562     1   0.14316 258236.480000
  11558  11574     1   0.14316 258236.480000
  11566  11572     1   0.14233 265014.560000
  11575  11576     1   0.15375 251793.120000
  11575  11589     1   0.15375 251793.120000
  11575  11597     1   0.14316 258236.480000
  11576  11579     1   0.15375 251793.120000
  11576  11588     1   0.14233 265014.560000
  11579  11580     1   0.15375 251793.120000
  11579  11587     1   0.14233 265014.560000
  11580  11581     1   0.15375 251793.120000
  11580  11586     1   0.14233 265014.560000
  11581  11585     1   0.14316 258236.480000
  11581  11597     1   0.14316 258236.480000
  11589  11595     1   0.14233 265014.560000
  11598  11599     1   0.15375 251793.120000
  11598  11612     1   0.15375 251793.120000
  11598  11620     1   0.14316 258236.480000
  11599  11602     1   0.15375 251793.120000
  11599  11611     1   0.14233 265014.560000
  11602  11603     1   0.15375 251793.120000
  11602  11610     1   0.14233 265014.560000
  11603  11604     1   0.15375 251793.120000
  11603  11609     1   0.14233 265014.560000
  11604  11608     1   0.14316 258236.480000
  11604  11620     1   0.14316 258236.480000
  11612  11618     1   0.14233 265014.560000
  11621  11622     1   0.15375 251793.120000
  11621  11635     1   0.15375 251793.120000
  11621  11643     1   0.14316 258236.480000
  11622  11625     1   0.15375 251793.120000
  11622  11634     1   0.14233 265014.560000
  11625  11626     1   0.15375 251793.120000
  11625  11633     1   0.14233 265014.560000
  11626  11627     1   0.15375 251793.120000
  11626  11632     1   0.14233 265014.560000
  11627  11631     1   0.14316 258236.480000
  11627  11643     1   0.14316 258236.480000
  11635  11641     1   0.14233 265014.560000
  11644  11645     1   0.15375 251793.120000
  11644  11658     1   0.15375 251793.120000
  11644  11666     1   0.14316 258236.480000
  11645  11648     1   0.15375 251793.120000
  11645  11657     1   0.14233 265014.560000
  11648  11649     1   0.15375 251793.120000
  11648  11656     1   0.14233 265014.560000
  11649  11650     1   0.15375 251793.120000
  11649  11655     1   0.14233 265014.560000
  11650  11654     1   0.14316 258236.480000
  11650  11666     1   0.14316 258236.480000
  11658  11664     1   0.14233 265014.560000
  11667  11668     1   0.15375 251793.120000
  11667  11681     1   0.15375 251793.120000
  11667  11689     1   0.14316 258236.480000
  11668  11671     1   0.15375 251793.120000
  11668  11680     1   0.14233 265014.560000
  11671  11672     1   0.15375 251793.120000
  11671  11679     1   0.14233 265014.560000
  11672  11673     1   0.15375 251793.120000
  11672  11678     1   0.14233 265014.560000
  11673  11677     1   0.14316 258236.480000
  11673  11689     1   0.14316 258236.480000
  11681  11687     1   0.14233 265014.560000
  11690  11691     1   0.15375 251793.120000
  11690  11704     1   0.15375 251793.120000
  11690  11712     1   0.14316 258236.480000
  11691  11694     1   0.15375 251793.120000
  11691  11703     1   0.14233 265014.560000
  11694  11695     1   0.15375 251793.120000
  11694  11702     1   0.14233 265014.560000
  11695  11696     1   0.15375 251793.120000
  11695  11701     1   0.14233 265014.560000
  11696  11700     1   0.14316 258236.480000
  11696  11712     1   0.14316 258236.480000
  11704  11710     1   0.14233 265014.560000
  11713  11714     1   0.15375 251793.120000
  11713  11727     1   0.15375 251793.120000
  11713  11735     1   0.14316 258236.480000
  11714  11717     1   0.15375 251793.120000
  11714  11726     1   0.14233 265014.560000
  11717  11718     1   0.15375 251793.120000
  11717  11725     1   0.14233 265014.560000
  11718  11719     1   0.15375 251793.120000
  11718  11724     1   0.14233 265014.560000
  11719  11723     1   0.14316 258236.480000
  11719  11735     1   0.14316 258236.480000
  11727  11733     1   0.14233 265014.560000
  11736  11737     1   0.15375 251793.120000
  11736  11750     1   0.15375 251793.120000
  11736  11758     1   0.14316 258236.480000
  11737  11740     1   0.15375 251793.120000
  11737  11749     1   0.14233 265014.560000
  11740  11741     1   0.15375 251793.120000
  11740  11748     1   0.14233 265014.560000
  11741  11742     1   0.15375 251793.120000
  11741  11747     1   0.14233 265014.560000
  11742  11746     1   0.14316 258236.480000
  11742  11758     1   0.14316 258236.480000
  11750  11756     1   0.14233 265014.560000
  11759  11760     1   0.15375 251793.120000
  11759  11773     1   0.15375 251793.120000
  11759  11781     1   0.14316 258236.480000
  11760  11763     1   0.15375 251793.120000
  11760  11772     1   0.14233 265014.560000
  11763  11764     1   0.15375 251793.120000
  11763  11771     1   0.14233 265014.560000
  11764  11765     1   0.15375 251793.120000
  11764  11770     1   0.14233 265014.560000
  11765  11769     1   0.14316 258236.480000
  11765  11781     1   0.14316 258236.480000
  11773  11779     1   0.14233 265014.560000
  11782  11783     1   0.15375 251793.120000
  11782  11796     1   0.15375 251793.120000
  11782  11804     1   0.14316 258236.480000
  11783  11786     1   0.15375 251793.120000
  11783  11795     1   0.14233 265014.560000
  11786  11787     1   0.15375 251793.120000
  11786  11794     1   0.14233 265014.560000
  11787  11788     1   0.15375 251793.120000
  11787  11793     1   0.14233 265014.560000
  11788  11792     1   0.14316 258236.480000
  11788  11804     1   0.14316 258236.480000
  11796  11802     1   0.14233 265014.560000
  11805  11806     1   0.15375 251793.120000
  11805  11819     1   0.15375 251793.120000
  11805  11827     1   0.14316 258236.480000
  11806  11809     1   0.15375 251793.120000
  11806  11818     1   0.14233 265014.560000
  11809  11810     1   0.15375 251793.120000
  11809  11817     1   0.14233 265014.560000
  11810  11811     1   0.15375 251793.120000
  11810  11816     1   0.14233 265014.560000
  11811  11815     1   0.14316 258236.480000
  11811  11827     1   0.14316 258236.480000
  11819  11825     1   0.14233 265014.560000
  11828  11829     1   0.15375 251793.120000
  11828  11842     1   0.15375 251793.120000
  11828  11850     1   0.14316 258236.480000
  11829  11832     1   0.15375 251793.120000
  11829  11841     1   0.14233 265014.560000
  11832  11833     1   0.15375 251793.120000
  11832  11840     1   0.14233 265014.560000
  11833  11834     1   0.15375 251793.120000
  11833  11839     1   0.14233 265014.560000
  11834  11838     1   0.14316 258236.480000
  11834  11850     1   0.14316 258236.480000
  11842  11848     1   0.14233 265014.560000
  11851  11852     1   0.15375 251793.120000
  11851  11865     1   0.15375 251793.120000
  11851  11873     1   0.14316 258236.480000
  11852  11855     1   0.15375 251793.120000
  11852  11864     1   0.14233 265014.560000
  11855  11856     1   0.15375 251793.120000
  11855  11863     1   0.14233 265014.560000
  11856  11857     1   0.15375 251793.120000
  11856  11862     1   0.14233 265014.560000
  11857  11861     1   0.14316 258236.480000
  11857  11873     1   0.14316 258236.480000
  11865  11871     1   0.14233 265014.560000
  11874  11875     1   0.15375 251793.120000
  11874  11888     1   0.15375 251793.120000
  11874  11896     1   0.14316 258236.480000
  11875  11878     1   0.15375 251793.120000
  11875  11887     1   0.14233 265014.560000
  11878  11879     1   0.15375 251793.120000
  11878  11886     1   0.14233 265014.560000
  11879  11880     1   0.15375 251793.120000
  11879  11885     1   0.14233 265014.560000
  11880  11884     1   0.14316 258236.480000
  11880  11896     1   0.14316 258236.480000
  11888  11894     1   0.14233 265014.560000
  11897  11898     1   0.15375 251793.120000
  11897  11911     1   0.15375 251793.120000
  11897  11919     1   0.14316 258236.480000
  11898  11901     1   0.15375 251793.120000
  11898  11910     1   0.14233 265014.560000
  11901  11902     1   0.15375 251793.120000
  11901  11909     1   0.14233 265014.560000
  11902  11903     1   0.15375 251793.120000
  11902  11908     1   0.14233 265014.560000
  11903  11907     1   0.14316 258236.480000
  11903  11919     1   0.14316 258236.480000
  11911  11917     1   0.14233 265014.560000
  11920  11921     1   0.15375 251793.120000
  11920  11934     1   0.15375 251793.120000
  11920  11942     1   0.14316 258236.480000
  11921  11924     1   0.15375 251793.120000
  11921  11933     1   0.14233 265014.560000
  11924  11925     1   0.15375 251793.120000
  11924  11932     1   0.14233 265014.560000
  11925  11926     1   0.15375 251793.120000
  11925  11931     1   0.14233 265014.560000
  11926  11930     1   0.14316 258236.480000
  11926  11942     1   0.14316 258236.480000
  11934  11940     1   0.14233 265014.560000
  11943  11944     1   0.15375 251793.120000
  11943  11957     1   0.15375 251793.120000
  11943  11965     1   0.14316 258236.480000
  11944  11947     1   0.15375 251793.120000
  11944  11956     1   0.14233 265014.560000
  11947  11948     1   0.15375 251793.120000
  11947  11955     1   0.14233 265014.560000
  11948  11949     1   0.15375 251793.120000
  11948  11954     1   0.14233 265014.560000
  11949  11953     1   0.14316 258236.480000
  11949  11965     1   0.14316 258236.480000
  11957  11963     1   0.14233 265014.560000
  11966  11967     1   0.15375 251793.120000
  11966  11980     1   0.15375 251793.120000
  11966  11988     1   0.14316 258236.480000
  11967  11970     1   0.15375 251793.120000
  11967  11979     1   0.14233 265014.560000
  11970  11971     1   0.15375 251793.120000
  11970  11978     1   0.14233 265014.560000
  11971  11972     1   0.15375 251793.120000
  11971  11977     1   0.14233 265014.560000
  11972  11976     1   0.14316 258236.480000
  11972  11988     1   0.14316 258236.480000
  11980  11986     1   0.14233 265014.560000
  11989  11990     1   0.15375 251793.120000
  11989  12003     1   0.15375 251793.120000
  11989  12011     1   0.14316 258236.480000
  11990  11993     1   0.15375 251793.120000
  11990  12002     1   0.14233 265014.560000
  11993  11994     1   0.15375 251793.120000
  11993  12001     1   0.14233 265014.560000
  11994  11995     1   0.15375 251793.120000
  11994  12000     1   0.14233 265014.560000
  11995  11999     1   0.14316 258236.480000
  11995  12011     1   0.14316 258236.480000
  12003  12009     1   0.14233 265014.560000
  12012  12013     1   0.15375 251793.120000
  12012  12026     1   0.15375 251793.120000
  12012  12034     1   0.14316 258236.480000
  12013  12016     1   0.15375 251793.120000
  12013  12025     1   0.14233 265014.560000
  12016  12017     1   0.15375 251793.120000
  12016  12024     1   0.14233 265014.560000
  12017  12018     1   0.15375 251793.120000
  12017  12023     1   0.14233 265014.560000
  12018  12022     1   0.14316 258236.480000
  12018  12034     1   0.14316 258236.480000
  12026  12032     1   0.14233 265014.560000
  12035  12036     1   0.15375 251793.120000
  12035  12049     1   0.15375 251793.120000
  12035  12057     1   0.14316 258236.480000
  12036  12039     1   0.15375 251793.120000
  12036  12048     1   0.14233 265014.560000
  12039  12040     1   0.15375 251793.120000
  12039  12047     1   0.14233 265014.560000
  12040  12041     1   0.15375 251793.120000
  12040  12046     1   0.14233 265014.560000
  12041  12045     1   0.14316 258236.480000
  12041  12057     1   0.14316 258236.480000
  12049  12055     1   0.14233 265014.560000
  12058  12059     1   0.15375 251793.120000
  12058  12072     1   0.15375 251793.120000
  12058  12080     1   0.14316 258236.480000
  12059  12062     1   0.15375 251793.120000
  12059  12071     1   0.14233 265014.560000
  12062  12063     1   0.15375 251793.120000
  12062  12070     1   0.14233 265014.560000
  12063  12064     1   0.15375 251793.120000
  12063  12069     1   0.14233 265014.560000
  12064  12068     1   0.14316 258236.480000
  12064  12080     1   0.14316 258236.480000
  12072  12078     1   0.14233 265014.560000
  12081  12082     1   0.15375 251793.120000
  12081  12095     1   0.15375 251793.120000
  12081  12103     1   0.14316 258236.480000
  12082  12085     1   0.15375 251793.120000
  12082  12094     1   0.14233 265014.560000
  12085  12086     1   0.15375 251793.120000
  12085  12093     1   0.14233 265014.560000
  12086  12087     1   0.15375 251793.120000
  12086  12092     1   0.14233 265014.560000
  12087  12091     1   0.14316 258236.480000
  12087  12103     1   0.14316 258236.480000
  12095  12101     1   0.14233 265014.560000
  12104  12105     1   0.15375 251793.120000
  12104  12118     1   0.15375 251793.120000
  12104  12126     1   0.14316 258236.480000
  12105  12108     1   0.15375 251793.120000
  12105  12117     1   0.14233 265014.560000
  12108  12109     1   0.15375 251793.120000
  12108  12116     1   0.14233 265014.560000
  12109  12110     1   0.15375 251793.120000
  12109  12115     1   0.14233 265014.560000
  12110  12114     1   0.14316 258236.480000
  12110  12126     1   0.14316 258236.480000
  12118  12124     1   0.14233 265014.560000
  12127  12128     1   0.15375 251793.120000
  12127  12141     1   0.15375 251793.120000
  12127  12149     1   0.14316 258236.480000
  12128  12131     1   0.15375 251793.120000
  12128  12140     1   0.14233 265014.560000
  12131  12132     1   0.15375 251793.120000
  12131  12139     1   0.14233 265014.560000
  12132  12133     1   0.15375 251793.120000
  12132  12138     1   0.14233 265014.560000
  12133  12137     1   0.14316 258236.480000
  12133  12149     1   0.14316 258236.480000
  12141  12147     1   0.14233 265014.560000
  12150  12151     1   0.15375 251793.120000
  12150  12164     1   0.15375 251793.120000
  12150  12172     1   0.14316 258236.480000
  12151  12154     1   0.15375 251793.120000
  12151  12163     1   0.14233 265014.560000
  12154  12155     1   0.15375 251793.120000
  12154  12162     1   0.14233 265014.560000
  12155  12156     1   0.15375 251793.120000
  12155  12161     1   0.14233 265014.560000
  12156  12160     1   0.14316 258236.480000
  12156  12172     1   0.14316 258236.480000
  12164  12170     1   0.14233 265014.560000
  12173  12174     1   0.15375 251793.120000
  12173  12187     1   0.15375 251793.120000
  12173  12195     1   0.14316 258236.480000
  12174  12177     1   0.15375 251793.120000
  12174  12186     1   0.14233 265014.560000
  12177  12178     1   0.15375 251793.120000
  12177  12185     1   0.14233 265014.560000
  12178  12179     1   0.15375 251793.120000
  12178  12184     1   0.14233 265014.560000
  12179  12183     1   0.14316 258236.480000
  12179  12195     1   0.14316 258236.480000
  12187  12193     1   0.14233 265014.560000
  12196  12197     1   0.15375 251793.120000
  12196  12210     1   0.15375 251793.120000
  12196  12218     1   0.14316 258236.480000
  12197  12200     1   0.15375 251793.120000
  12197  12209     1   0.14233 265014.560000
  12200  12201     1   0.15375 251793.120000
  12200  12208     1   0.14233 265014.560000
  12201  12202     1   0.15375 251793.120000
  12201  12207     1   0.14233 265014.560000
  12202  12206     1   0.14316 258236.480000
  12202  12218     1   0.14316 258236.480000
  12210  12216     1   0.14233 265014.560000
  12219  12220     1   0.15375 251793.120000
  12219  12233     1   0.15375 251793.120000
  12219  12241     1   0.14316 258236.480000
  12220  12223     1   0.15375 251793.120000
  12220  12232     1   0.14233 265014.560000
  12223  12224     1   0.15375 251793.120000
  12223  12231     1   0.14233 265014.560000
  12224  12225     1   0.15375 251793.120000
  12224  12230     1   0.14233 265014.560000
  12225  12229     1   0.14316 258236.480000
  12225  12241     1   0.14316 258236.480000
  12233  12239     1   0.14233 265014.560000
  12242  12243     1   0.15375 251793.120000
  12242  12256     1   0.15375 251793.120000
  12242  12264     1   0.14316 258236.480000
  12243  12246     1   0.15375 251793.120000
  12243  12255     1   0.14233 265014.560000
  12246  12247     1   0.15375 251793.120000
  12246  12254     1   0.14233 265014.560000
  12247  12248     1   0.15375 251793.120000
  12247  12253     1   0.14233 265014.560000
  12248  12252     1   0.14316 258236.480000
  12248  12264     1   0.14316 258236.480000
  12256  12262     1   0.14233 265014.560000
  12265  12266     1   0.15375 251793.120000
  12265  12279     1   0.15375 251793.120000
  12265  12287     1   0.14316 258236.480000
  12266  12269     1   0.15375 251793.120000
  12266  12278     1   0.14233 265014.560000
  12269  12270     1   0.15375 251793.120000
  12269  12277     1   0.14233 265014.560000
  12270  12271     1   0.15375 251793.120000
  12270  12276     1   0.14233 265014.560000
  12271  12275     1   0.14316 258236.480000
  12271  12287     1   0.14316 258236.480000
  12279  12285     1   0.14233 265014.560000
  12288  12289     1   0.15375 251793.120000
  12288  12302     1   0.15375 251793.120000
  12288  12310     1   0.14316 258236.480000
  12289  12292     1   0.15375 251793.120000
  12289  12301     1   0.14233 265014.560000
  12292  12293     1   0.15375 251793.120000
  12292  12300     1   0.14233 265014.560000
  12293  12294     1   0.15375 251793.120000
  12293  12299     1   0.14233 265014.560000
  12294  12298     1   0.14316 258236.480000
  12294  12310     1   0.14316 258236.480000
  12302  12308     1   0.14233 265014.560000
  12311  12312     1   0.15375 251793.120000
  12311  12325     1   0.15375 251793.120000
  12311  12333     1   0.14316 258236.480000
  12312  12315     1   0.15375 251793.120000
  12312  12324     1   0.14233 265014.560000
  12315  12316     1   0.15375 251793.120000
  12315  12323     1   0.14233 265014.560000
  12316  12317     1   0.15375 251793.120000
  12316  12322     1   0.14233 265014.560000
  12317  12321     1   0.14316 258236.480000
  12317  12333     1   0.14316 258236.480000
  12325  12331     1   0.14233 265014.560000
  12334  12335     1   0.15375 251793.120000
  12334  12348     1   0.15375 251793.120000
  12334  12356     1   0.14316 258236.480000
  12335  12338     1   0.15375 251793.120000
  12335  12347     1   0.14233 265014.560000
  12338  12339     1   0.15375 251793.120000
  12338  12346     1   0.14233 265014.560000
  12339  12340     1   0.15375 251793.120000
  12339  12345     1   0.14233 265014.560000
  12340  12344     1   0.14316 258236.480000
  12340  12356     1   0.14316 258236.480000
  12348  12354     1   0.14233 265014.560000
  12357  12358     1   0.15375 251793.120000
  12357  12371     1   0.15375 251793.120000
  12357  12379     1   0.14316 258236.480000
  12358  12361     1   0.15375 251793.120000
  12358  12370     1   0.14233 265014.560000
  12361  12362     1   0.15375 251793.120000
  12361  12369     1   0.14233 265014.560000
  12362  12363     1   0.15375 251793.120000
  12362  12368     1   0.14233 265014.560000
  12363  12367     1   0.14316 258236.480000
  12363  12379     1   0.14316 258236.480000
  12371  12377     1   0.14233 265014.560000
  12380  12381     1   0.15375 251793.120000
  12380  12394     1   0.15375 251793.120000
  12380  12402     1   0.14316 258236.480000
  12381  12384     1   0.15375 251793.120000
  12381  12393     1   0.14233 265014.560000
  12384  12385     1   0.15375 251793.120000
  12384  12392     1   0.14233 265014.560000
  12385  12386     1   0.15375 251793.120000
  12385  12391     1   0.14233 265014.560000
  12386  12390     1   0.14316 258236.480000
  12386  12402     1   0.14316 258236.480000
  12394  12400     1   0.14233 265014.560000
  12403  12404     1   0.15375 251793.120000
  12403  12417     1   0.15375 251793.120000
  12403  12425     1   0.14316 258236.480000
  12404  12407     1   0.15375 251793.120000
  12404  12416     1   0.14233 265014.560000
  12407  12408     1   0.15375 251793.120000
  12407  12415     1   0.14233 265014.560000
  12408  12409     1   0.15375 251793.120000
  12408  12414     1   0.14233 265014.560000
  12409  12413     1   0.14316 258236.480000
  12409  12425     1   0.14316 258236.480000
  12417  12423     1   0.14233 265014.560000
  12426  12427     1   0.15375 251793.120000
  12426  12440     1   0.15375 251793.120000
  12426  12448     1   0.14316 258236.480000
  12427  12430     1   0.15375 251793.120000
  12427  12439     1   0.14233 265014.560000
  12430  12431     1   0.15375 251793.120000
  12430  12438     1   0.14233 265014.560000
  12431  12432     1   0.15375 251793.120000
  12431  12437     1   0.14233 265014.560000
  12432  12436     1   0.14316 258236.480000
  12432  12448     1   0.14316 258236.480000
  12440  12446     1   0.14233 265014.560000
  12449  12450     1   0.15375 251793.120000
  12449  12463     1   0.15375 251793.120000
  12449  12471     1   0.14316 258236.480000
  12450  12453     1   0.15375 251793.120000
  12450  12462     1   0.14233 265014.560000
  12453  12454     1   0.15375 251793.120000
  12453  12461     1   0.14233 265014.560000
  12454  12455     1   0.15375 251793.120000
  12454  12460     1   0.14233 265014.560000
  12455  12459     1   0.14316 258236.480000
  12455  12471     1   0.14316 258236.480000
  12463  12469     1   0.14233 265014.560000
  12472  12473     1   0.15375 251793.120000
  12472  12486     1   0.15375 251793.120000
  12472  12494     1   0.14316 258236.480000
  12473  12476     1   0.15375 251793.120000
  12473  12485     1   0.14233 265014.560000
  12476  12477     1   0.15375 251793.120000
  12476  12484     1   0.14233 265014.560000
  12477  12478     1   0.15375 251793.120000
  12477  12483     1   0.14233 265014.560000
  12478  12482     1   0.14316 258236.480000
  12478  12494     1   0.14316 258236.480000
  12486  12492     1   0.14233 265014.560000
  12495  12496     1   0.15375 251793.120000
  12495  12509     1   0.15375 251793.120000
  12495  12517     1   0.14316 258236.480000
  12496  12499     1   0.15375 251793.120000
  12496  12508     1   0.14233 265014.560000
  12499  12500     1   0.15375 251793.120000
  12499  12507     1   0.14233 265014.560000
  12500  12501     1   0.15375 251793.120000
  12500  12506     1   0.14233 265014.560000
  12501  12505     1   0.14316 258236.480000
  12501  12517     1   0.14316 258236.480000
  12509  12515     1   0.14233 265014.560000
  12518  12519     1   0.15375 251793.120000
  12518  12532     1   0.15375 251793.120000
  12518  12540     1   0.14316 258236.480000
  12519  12522     1   0.15375 251793.120000
  12519  12531     1   0.14233 265014.560000
  12522  12523     1   0.15375 251793.120000
  12522  12530     1   0.14233 265014.560000
  12523  12524     1   0.15375 251793.120000
  12523  12529     1   0.14233 265014.560000
  12524  12528     1   0.14316 258236.480000
  12524  12540     1   0.14316 258236.480000
  12532  12538     1   0.14233 265014.560000
  12541  12542     1   0.15375 251793.120000
  12541  12555     1   0.15375 251793.120000
  12541  12563     1   0.14316 258236.480000
  12542  12545     1   0.15375 251793.120000
  12542  12554     1   0.14233 265014.560000
  12545  12546     1   0.15375 251793.120000
  12545  12553     1   0.14233 265014.560000
  12546  12547     1   0.15375 251793.120000
  12546  12552     1   0.14233 265014.560000
  12547  12551     1   0.14316 258236.480000
  12547  12563     1   0.14316 258236.480000
  12555  12561     1   0.14233 265014.560000
  12564  12565     1   0.15375 251793.120000
  12564  12578     1   0.15375 251793.120000
  12564  12586     1   0.14316 258236.480000
  12565  12568     1   0.15375 251793.120000
  12565  12577     1   0.14233 265014.560000
  12568  12569     1   0.15375 251793.120000
  12568  12576     1   0.14233 265014.560000
  12569  12570     1   0.15375 251793.120000
  12569  12575     1   0.14233 265014.560000
  12570  12574     1   0.14316 258236.480000
  12570  12586     1   0.14316 258236.480000
  12578  12584     1   0.14233 265014.560000
  12587  12588     1   0.15375 251793.120000
  12587  12601     1   0.15375 251793.120000
  12587  12609     1   0.14316 258236.480000
  12588  12591     1   0.15375 251793.120000
  12588  12600     1   0.14233 265014.560000
  12591  12592     1   0.15375 251793.120000
  12591  12599     1   0.14233 265014.560000
  12592  12593     1   0.15375 251793.120000
  12592  12598     1   0.14233 265014.560000
  12593  12597     1   0.14316 258236.480000
  12593  12609     1   0.14316 258236.480000
  12601  12607     1   0.14233 265014.560000
  12610  12611     1   0.15375 251793.120000
  12610  12624     1   0.15375 251793.120000
  12610  12632     1   0.14316 258236.480000
  12611  12614     1   0.15375 251793.120000
  12611  12623     1   0.14233 265014.560000
  12614  12615     1   0.15375 251793.120000
  12614  12622     1   0.14233 265014.560000
  12615  12616     1   0.15375 251793.120000
  12615  12621     1   0.14233 265014.560000
  12616  12620     1   0.14316 258236.480000
  12616  12632     1   0.14316 258236.480000
  12624  12630     1   0.14233 265014.560000
  12633  12634     1   0.15375 251793.120000
  12633  12647     1   0.15375 251793.120000
  12633  12655     1   0.14316 258236.480000
  12634  12637     1   0.15375 251793.120000
  12634  12646     1   0.14233 265014.560000
  12637  12638     1   0.15375 251793.120000
  12637  12645     1   0.14233 265014.560000
  12638  12639     1   0.15375 251793.120000
  12638  12644     1   0.14233 265014.560000
  12639  12643     1   0.14316 258236.480000
  12639  12655     1   0.14316 258236.480000
  12647  12653     1   0.14233 265014.560000
  12656  12657     1   0.15375 251793.120000
  12656  12670     1   0.15375 251793.120000
  12656  12678     1   0.14316 258236.480000
  12657  12660     1   0.15375 251793.120000
  12657  12669     1   0.14233 265014.560000
  12660  12661     1   0.15375 251793.120000
  12660  12668     1   0.14233 265014.560000
  12661  12662     1   0.15375 251793.120000
  12661  12667     1   0.14233 265014.560000
  12662  12666     1   0.14316 258236.480000
  12662  12678     1   0.14316 258236.480000
  12670  12676     1   0.14233 265014.560000
  12679  12680     1   0.15375 251793.120000
  12679  12693     1   0.15375 251793.120000
  12679  12701     1   0.14316 258236.480000
  12680  12683     1   0.15375 251793.120000
  12680  12692     1   0.14233 265014.560000
  12683  12684     1   0.15375 251793.120000
  12683  12691     1   0.14233 265014.560000
  12684  12685     1   0.15375 251793.120000
  12684  12690     1   0.14233 265014.560000
  12685  12689     1   0.14316 258236.480000
  12685  12701     1   0.14316 258236.480000
  12693  12699     1   0.14233 265014.560000
  12702  12703     1   0.15375 251793.120000
  12702  12716     1   0.15375 251793.120000
  12702  12724     1   0.14316 258236.480000
  12703  12706     1   0.15375 251793.120000
  12703  12715     1   0.14233 265014.560000
  12706  12707     1   0.15375 251793.120000
  12706  12714     1   0.14233 265014.560000
  12707  12708     1   0.15375 251793.120000
  12707  12713     1   0.14233 265014.560000
  12708  12712     1   0.14316 258236.480000
  12708  12724     1   0.14316 258236.480000
  12716  12722     1   0.14233 265014.560000
  12725  12726     1   0.15375 251793.120000
  12725  12739     1   0.15375 251793.120000
  12725  12747     1   0.14316 258236.480000
  12726  12729     1   0.15375 251793.120000
  12726  12738     1   0.14233 265014.560000
  12729  12730     1   0.15375 251793.120000
  12729  12737     1   0.14233 265014.560000
  12730  12731     1   0.15375 251793.120000
  12730  12736     1   0.14233 265014.560000
  12731  12735     1   0.14316 258236.480000
  12731  12747     1   0.14316 258236.480000
  12739  12745     1   0.14233 265014.560000
  12748  12749     1   0.15375 251793.120000
  12748  12762     1   0.15375 251793.120000
  12748  12770     1   0.14316 258236.480000
  12749  12752     1   0.15375 251793.120000
  12749  12761     1   0.14233 265014.560000
  12752  12753     1   0.15375 251793.120000
  12752  12760     1   0.14233 265014.560000
  12753  12754     1   0.15375 251793.120000
  12753  12759     1   0.14233 265014.560000
  12754  12758     1   0.14316 258236.480000
  12754  12770     1   0.14316 258236.480000
  12762  12768     1   0.14233 265014.560000
  12771  12772     1   0.15375 251793.120000
  12771  12785     1   0.15375 251793.120000
  12771  12793     1   0.14316 258236.480000
  12772  12775     1   0.15375 251793.120000
  12772  12784     1   0.14233 265014.560000
  12775  12776     1   0.15375 251793.120000
  12775  12783     1   0.14233 265014.560000
  12776  12777     1   0.15375 251793.120000
  12776  12782     1   0.14233 265014.560000
  12777  12781     1   0.14316 258236.480000
  12777  12793     1   0.14316 258236.480000
  12785  12791     1   0.14233 265014.560000
  12794  12795     1   0.15375 251793.120000
  12794  12808     1   0.15375 251793.120000
  12794  12816     1   0.14316 258236.480000
  12795  12798     1   0.15375 251793.120000
  12795  12807     1   0.14233 265014.560000
  12798  12799     1   0.15375 251793.120000
  12798  12806     1   0.14233 265014.560000
  12799  12800     1   0.15375 251793.120000
  12799  12805     1   0.14233 265014.560000
  12800  12804     1   0.14316 258236.480000
  12800  12816     1   0.14316 258236.480000
  12808  12814     1   0.14233 265014.560000
  12817  12818     1   0.15375 251793.120000
  12817  12831     1   0.15375 251793.120000
  12817  12839     1   0.14316 258236.480000
  12818  12821     1   0.15375 251793.120000
  12818  12830     1   0.14233 265014.560000
  12821  12822     1   0.15375 251793.120000
  12821  12829     1   0.14233 265014.560000
  12822  12823     1   0.15375 251793.120000
  12822  12828     1   0.14233 265014.560000
  12823  12827     1   0.14316 258236.480000
  12823  12839     1   0.14316 258236.480000
  12831  12837     1   0.14233 265014.560000
  12840  12841     1   0.15375 251793.120000
  12840  12854     1   0.15375 251793.120000
  12840  12862     1   0.14316 258236.480000
  12841  12844     1   0.15375 251793.120000
  12841  12853     1   0.14233 265014.560000
  12844  12845     1   0.15375 251793.120000
  12844  12852     1   0.14233 265014.560000
  12845  12846     1   0.15375 251793.120000
  12845  12851     1   0.14233 265014.560000
  12846  12850     1   0.14316 258236.480000
  12846  12862     1   0.14316 258236.480000
  12854  12860     1   0.14233 265014.560000
  12863  12864     1   0.15375 251793.120000
  12863  12877     1   0.15375 251793.120000
  12863  12885     1   0.14316 258236.480000
  12864  12867     1   0.15375 251793.120000
  12864  12876     1   0.14233 265014.560000
  12867  12868     1   0.15375 251793.120000
  12867  12875     1   0.14233 265014.560000
  12868  12869     1   0.15375 251793.120000
  12868  12874     1   0.14233 265014.560000
  12869  12873     1   0.14316 258236.480000
  12869  12885     1   0.14316 258236.480000
  12877  12883     1   0.14233 265014.560000
  12886  12887     1   0.15375 251793.120000
  12886  12900     1   0.15375 251793.120000
  12886  12908     1   0.14316 258236.480000
  12887  12890     1   0.15375 251793.120000
  12887  12899     1   0.14233 265014.560000
  12890  12891     1   0.15375 251793.120000
  12890  12898     1   0.14233 265014.560000
  12891  12892     1   0.15375 251793.120000
  12891  12897     1   0.14233 265014.560000
  12892  12896     1   0.14316 258236.480000
  12892  12908     1   0.14316 258236.480000
  12900  12906     1   0.14233 265014.560000
  12909  12910     1   0.15375 251793.120000
  12909  12923     1   0.15375 251793.120000
  12909  12931     1   0.14316 258236.480000
  12910  12913     1   0.15375 251793.120000
  12910  12922     1   0.14233 265014.560000
  12913  12914     1   0.15375 251793.120000
  12913  12921     1   0.14233 265014.560000
  12914  12915     1   0.15375 251793.120000
  12914  12920     1   0.14233 265014.560000
  12915  12919     1   0.14316 258236.480000
  12915  12931     1   0.14316 258236.480000
  12923  12929     1   0.14233 265014.560000
  12932  12933     1   0.15375 251793.120000
  12932  12946     1   0.15375 251793.120000
  12932  12954     1   0.14316 258236.480000
  12933  12936     1   0.15375 251793.120000
  12933  12945     1   0.14233 265014.560000
  12936  12937     1   0.15375 251793.120000
  12936  12944     1   0.14233 265014.560000
  12937  12938     1   0.15375 251793.120000
  12937  12943     1   0.14233 265014.560000
  12938  12942     1   0.14316 258236.480000
  12938  12954     1   0.14316 258236.480000
  12946  12952     1   0.14233 265014.560000
  12955  12956     1   0.15375 251793.120000
  12955  12969     1   0.15375 251793.120000
  12955  12977     1   0.14316 258236.480000
  12956  12959     1   0.15375 251793.120000
  12956  12968     1   0.14233 265014.560000
  12959  12960     1   0.15375 251793.120000
  12959  12967     1   0.14233 265014.560000
  12960  12961     1   0.15375 251793.120000
  12960  12966     1   0.14233 265014.560000
  12961  12965     1   0.14316 258236.480000
  12961  12977     1   0.14316 258236.480000
  12969  12975     1   0.14233 265014.560000
  12978  12979     1   0.15375 251793.120000
  12978  12992     1   0.15375 251793.120000
  12978  13000     1   0.14316 258236.480000
  12979  12982     1   0.15375 251793.120000
  12979  12991     1   0.14233 265014.560000
  12982  12983     1   0.15375 251793.120000
  12982  12990     1   0.14233 265014.560000
  12983  12984     1   0.15375 251793.120000
  12983  12989     1   0.14233 265014.560000
  12984  12988     1   0.14316 258236.480000
  12984  13000     1   0.14316 258236.480000
  12992  12998     1   0.14233 265014.560000
  13001  13002     1   0.15375 251793.120000
  13001  13015     1   0.15375 251793.120000
  13001  13023     1   0.14316 258236.480000
  13002  13005     1   0.15375 251793.120000
  13002  13014     1   0.14233 265014.560000
  13005  13006     1   0.15375 251793.120000
  13005  13013     1   0.14233 265014.560000
  13006  13007     1   0.15375 251793.120000
  13006  13012     1   0.14233 265014.560000
  13007  13011     1   0.14316 258236.480000
  13007  13023     1   0.14316 258236.480000
  13015  13021     1   0.14233 265014.560000
  13024  13025     1   0.15375 251793.120000
  13024  13038     1   0.15375 251793.120000
  13024  13046     1   0.14316 258236.480000
  13025  13028     1   0.15375 251793.120000
  13025  13037     1   0.14233 265014.560000
  13028  13029     1   0.15375 251793.120000
  13028  13036     1   0.14233 265014.560000
  13029  13030     1   0.15375 251793.120000
  13029  13035     1   0.14233 265014.560000
  13030  13034     1   0.14316 258236.480000
  13030  13046     1   0.14316 258236.480000
  13038  13044     1   0.14233 265014.560000
  13047  13048     1   0.15375 251793.120000
  13047  13061     1   0.15375 251793.120000
  13047  13069     1   0.14316 258236.480000
  13048  13051     1   0.15375 251793.120000
  13048  13060     1   0.14233 265014.560000
  13051  13052     1   0.15375 251793.120000
  13051  13059     1   0.14233 265014.560000
  13052  13053     1   0.15375 251793.120000
  13052  13058     1   0.14233 265014.560000
  13053  13057     1   0.14316 258236.480000
  13053  13069     1   0.14316 258236.480000
  13061  13067     1   0.14233 265014.560000
  13070  13071     1   0.15375 251793.120000
  13070  13084     1   0.15375 251793.120000
  13070  13092     1   0.14316 258236.480000
  13071  13074     1   0.15375 251793.120000
  13071  13083     1   0.14233 265014.560000
  13074  13075     1   0.15375 251793.120000
  13074  13082     1   0.14233 265014.560000
  13075  13076     1   0.15375 251793.120000
  13075  13081     1   0.14233 265014.560000
  13076  13080     1   0.14316 258236.480000
  13076  13092     1   0.14316 258236.480000
  13084  13090     1   0.14233 265014.560000
  13093  13094     1   0.15375 251793.120000
  13093  13107     1   0.15375 251793.120000
  13093  13115     1   0.14316 258236.480000
  13094  13097     1   0.15375 251793.120000
  13094  13106     1   0.14233 265014.560000
  13097  13098     1   0.15375 251793.120000
  13097  13105     1   0.14233 265014.560000
  13098  13099     1   0.15375 251793.120000
  13098  13104     1   0.14233 265014.560000
  13099  13103     1   0.14316 258236.480000
  13099  13115     1   0.14316 258236.480000
  13107  13113     1   0.14233 265014.560000
  13116  13117     1   0.15375 251793.120000
  13116  13130     1   0.15375 251793.120000
  13116  13138     1   0.14316 258236.480000
  13117  13120     1   0.15375 251793.120000
  13117  13129     1   0.14233 265014.560000
  13120  13121     1   0.15375 251793.120000
  13120  13128     1   0.14233 265014.560000
  13121  13122     1   0.15375 251793.120000
  13121  13127     1   0.14233 265014.560000
  13122  13126     1   0.14316 258236.480000
  13122  13138     1   0.14316 258236.480000
  13130  13136     1   0.14233 265014.560000
  13139  13140     1   0.15375 251793.120000
  13139  13153     1   0.15375 251793.120000
  13139  13161     1   0.14316 258236.480000
  13140  13143     1   0.15375 251793.120000
  13140  13152     1   0.14233 265014.560000
  13143  13144     1   0.15375 251793.120000
  13143  13151     1   0.14233 265014.560000
  13144  13145     1   0.15375 251793.120000
  13144  13150     1   0.14233 265014.560000
  13145  13149     1   0.14316 258236.480000
  13145  13161     1   0.14316 258236.480000
  13153  13159     1   0.14233 265014.560000
  13162  13163     1   0.15375 251793.120000
  13162  13176     1   0.15375 251793.120000
  13162  13184     1   0.14316 258236.480000
  13163  13166     1   0.15375 251793.120000
  13163  13175     1   0.14233 265014.560000
  13166  13167     1   0.15375 251793.120000
  13166  13174     1   0.14233 265014.560000
  13167  13168     1   0.15375 251793.120000
  13167  13173     1   0.14233 265014.560000
  13168  13172     1   0.14316 258236.480000
  13168  13184     1   0.14316 258236.480000
  13176  13182     1   0.14233 265014.560000
  13185  13186     1   0.15375 251793.120000
  13185  13199     1   0.15375 251793.120000
  13185  13207     1   0.14316 258236.480000
  13186  13189     1   0.15375 251793.120000
  13186  13198     1   0.14233 265014.560000
  13189  13190     1   0.15375 251793.120000
  13189  13197     1   0.14233 265014.560000
  13190  13191     1   0.15375 251793.120000
  13190  13196     1   0.14233 265014.560000
  13191  13195     1   0.14316 258236.480000
  13191  13207     1   0.14316 258236.480000
  13199  13205     1   0.14233 265014.560000
  13208  13209     1   0.15375 251793.120000
  13208  13222     1   0.15375 251793.120000
  13208  13230     1   0.14316 258236.480000
  13209  13212     1   0.15375 251793.120000
  13209  13221     1   0.14233 265014.560000
  13212  13213     1   0.15375 251793.120000
  13212  13220     1   0.14233 265014.560000
  13213  13214     1   0.15375 251793.120000
  13213  13219     1   0.14233 265014.560000
  13214  13218     1   0.14316 258236.480000
  13214  13230     1   0.14316 258236.480000
  13222  13228     1   0.14233 265014.560000
  13231  13232     1   0.15375 251793.120000
  13231  13245     1   0.15375 251793.120000
  13231  13253     1   0.14316 258236.480000
  13232  13235     1   0.15375 251793.120000
  13232  13244     1   0.14233 265014.560000
  13235  13236     1   0.15375 251793.120000
  13235  13243     1   0.14233 265014.560000
  13236  13237     1   0.15375 251793.120000
  13236  13242     1   0.14233 265014.560000
  13237  13241     1   0.14316 258236.480000
  13237  13253     1   0.14316 258236.480000
  13245  13251     1   0.14233 265014.560000
  13254  13255     1   0.15375 251793.120000
  13254  13268     1   0.15375 251793.120000
  13254  13276     1   0.14316 258236.480000
  13255  13258     1   0.15375 251793.120000
  13255  13267     1   0.14233 265014.560000
  13258  13259     1   0.15375 251793.120000
  13258  13266     1   0.14233 265014.560000
  13259  13260     1   0.15375 251793.120000
  13259  13265     1   0.14233 265014.560000
  13260  13264     1   0.14316 258236.480000
  13260  13276     1   0.14316 258236.480000
  13268  13274     1   0.14233 265014.560000
  13277  13278     1   0.15375 251793.120000
  13277  13291     1   0.15375 251793.120000
  13277  13299     1   0.14316 258236.480000
  13278  13281     1   0.15375 251793.120000
  13278  13290     1   0.14233 265014.560000
  13281  13282     1   0.15375 251793.120000
  13281  13289     1   0.14233 265014.560000
  13282  13283     1   0.15375 251793.120000
  13282  13288     1   0.14233 265014.560000
  13283  13287     1   0.14316 258236.480000
  13283  13299     1   0.14316 258236.480000
  13291  13297     1   0.14233 265014.560000
  13300  13301     1   0.15375 251793.120000
  13300  13314     1   0.15375 251793.120000
  13300  13322     1   0.14316 258236.480000
  13301  13304     1   0.15375 251793.120000
  13301  13313     1   0.14233 265014.560000
  13304  13305     1   0.15375 251793.120000
  13304  13312     1   0.14233 265014.560000
  13305  13306     1   0.15375 251793.120000
  13305  13311     1   0.14233 265014.560000
  13306  13310     1   0.14316 258236.480000
  13306  13322     1   0.14316 258236.480000
  13314  13320     1   0.14233 265014.560000
  13323  13324     1   0.15375 251793.120000
  13323  13337     1   0.15375 251793.120000
  13323  13345     1   0.14316 258236.480000
  13324  13327     1   0.15375 251793.120000
  13324  13336     1   0.14233 265014.560000
  13327  13328     1   0.15375 251793.120000
  13327  13335     1   0.14233 265014.560000
  13328  13329     1   0.15375 251793.120000
  13328  13334     1   0.14233 265014.560000
  13329  13333     1   0.14316 258236.480000
  13329  13345     1   0.14316 258236.480000
  13337  13343     1   0.14233 265014.560000
  13346  13347     1   0.15375 251793.120000
  13346  13360     1   0.15375 251793.120000
  13346  13368     1   0.14316 258236.480000
  13347  13350     1   0.15375 251793.120000
  13347  13359     1   0.14233 265014.560000
  13350  13351     1   0.15375 251793.120000
  13350  13358     1   0.14233 265014.560000
  13351  13352     1   0.15375 251793.120000
  13351  13357     1   0.14233 265014.560000
  13352  13356     1   0.14316 258236.480000
  13352  13368     1   0.14316 258236.480000
  13360  13366     1   0.14233 265014.560000
  13369  13370     1   0.15375 251793.120000
  13369  13383     1   0.15375 251793.120000
  13369  13391     1   0.14316 258236.480000
  13370  13373     1   0.15375 251793.120000
  13370  13382     1   0.14233 265014.560000
  13373  13374     1   0.15375 251793.120000
  13373  13381     1   0.14233 265014.560000
  13374  13375     1   0.15375 251793.120000
  13374  13380     1   0.14233 265014.560000
  13375  13379     1   0.14316 258236.480000
  13375  13391     1   0.14316 258236.480000
  13383  13389     1   0.14233 265014.560000
  13392  13393     1   0.15375 251793.120000
  13392  13406     1   0.15375 251793.120000
  13392  13414     1   0.14316 258236.480000
  13393  13396     1   0.15375 251793.120000
  13393  13405     1   0.14233 265014.560000
  13396  13397     1   0.15375 251793.120000
  13396  13404     1   0.14233 265014.560000
  13397  13398     1   0.15375 251793.120000
  13397  13403     1   0.14233 265014.560000
  13398  13402     1   0.14316 258236.480000
  13398  13414     1   0.14316 258236.480000
  13406  13412     1   0.14233 265014.560000
  13415  13416     1   0.15375 251793.120000
  13415  13429     1   0.15375 251793.120000
  13415  13437     1   0.14316 258236.480000
  13416  13419     1   0.15375 251793.120000
  13416  13428     1   0.14233 265014.560000
  13419  13420     1   0.15375 251793.120000
  13419  13427     1   0.14233 265014.560000
  13420  13421     1   0.15375 251793.120000
  13420  13426     1   0.14233 265014.560000
  13421  13425     1   0.14316 258236.480000
  13421  13437     1   0.14316 258236.480000
  13429  13435     1   0.14233 265014.560000
  13438  13439     1   0.15375 251793.120000
  13438  13452     1   0.15375 251793.120000
  13438  13460     1   0.14316 258236.480000
  13439  13442     1   0.15375 251793.120000
  13439  13451     1   0.14233 265014.560000
  13442  13443     1   0.15375 251793.120000
  13442  13450     1   0.14233 265014.560000
  13443  13444     1   0.15375 251793.120000
  13443  13449     1   0.14233 265014.560000
  13444  13448     1   0.14316 258236.480000
  13444  13460     1   0.14316 258236.480000
  13452  13458     1   0.14233 265014.560000
  13461  13462     1   0.15375 251793.120000
  13461  13475     1   0.15375 251793.120000
  13461  13483     1   0.14316 258236.480000
  13462  13465     1   0.15375 251793.120000
  13462  13474     1   0.14233 265014.560000
  13465  13466     1   0.15375 251793.120000
  13465  13473     1   0.14233 265014.560000
  13466  13467     1   0.15375 251793.120000
  13466  13472     1   0.14233 265014.560000
  13467  13471     1   0.14316 258236.480000
  13467  13483     1   0.14316 258236.480000
  13475  13481     1   0.14233 265014.560000
  13484  13485     1   0.15375 251793.120000
  13484  13498     1   0.15375 251793.120000
  13484  13506     1   0.14316 258236.480000
  13485  13488     1   0.15375 251793.120000
  13485  13497     1   0.14233 265014.560000
  13488  13489     1   0.15375 251793.120000
  13488  13496     1   0.14233 265014.560000
  13489  13490     1   0.15375 251793.120000
  13489  13495     1   0.14233 265014.560000
  13490  13494     1   0.14316 258236.480000
  13490  13506     1   0.14316 258236.480000
  13498  13504     1   0.14233 265014.560000
  13507  13508     1   0.15375 251793.120000
  13507  13521     1   0.15375 251793.120000
  13507  13529     1   0.14316 258236.480000
  13508  13511     1   0.15375 251793.120000
  13508  13520     1   0.14233 265014.560000
  13511  13512     1   0.15375 251793.120000
  13511  13519     1   0.14233 265014.560000
  13512  13513     1   0.15375 251793.120000
  13512  13518     1   0.14233 265014.560000
  13513  13517     1   0.14316 258236.480000
  13513  13529     1   0.14316 258236.480000
  13521  13527     1   0.14233 265014.560000
  13530  13531     1   0.15375 251793.120000
  13530  13544     1   0.15375 251793.120000
  13530  13552     1   0.14316 258236.480000
  13531  13534     1   0.15375 251793.120000
  13531  13543     1   0.14233 265014.560000
  13534  13535     1   0.15375 251793.120000
  13534  13542     1   0.14233 265014.560000
  13535  13536     1   0.15375 251793.120000
  13535  13541     1   0.14233 265014.560000
  13536  13540     1   0.14316 258236.480000
  13536  13552     1   0.14316 258236.480000
  13544  13550     1   0.14233 265014.560000
  13553  13554     1   0.15375 251793.120000
  13553  13567     1   0.15375 251793.120000
  13553  13575     1   0.14316 258236.480000
  13554  13557     1   0.15375 251793.120000
  13554  13566     1   0.14233 265014.560000
  13557  13558     1   0.15375 251793.120000
  13557  13565     1   0.14233 265014.560000
  13558  13559     1   0.15375 251793.120000
  13558  13564     1   0.14233 265014.560000
  13559  13563     1   0.14316 258236.480000
  13559  13575     1   0.14316 258236.480000
  13567  13573     1   0.14233 265014.560000
  13576  13577     1   0.15375 251793.120000
  13576  13590     1   0.15375 251793.120000
  13576  13598     1   0.14316 258236.480000
  13577  13580     1   0.15375 251793.120000
  13577  13589     1   0.14233 265014.560000
  13580  13581     1   0.15375 251793.120000
  13580  13588     1   0.14233 265014.560000
  13581  13582     1   0.15375 251793.120000
  13581  13587     1   0.14233 265014.560000
  13582  13586     1   0.14316 258236.480000
  13582  13598     1   0.14316 258236.480000
  13590  13596     1   0.14233 265014.560000
  13599  13600     1   0.15375 251793.120000
  13599  13613     1   0.15375 251793.120000
  13599  13621     1   0.14316 258236.480000
  13600  13603     1   0.15375 251793.120000
  13600  13612     1   0.14233 265014.560000
  13603  13604     1   0.15375 251793.120000
  13603  13611     1   0.14233 265014.560000
  13604  13605     1   0.15375 251793.120000
  13604  13610     1   0.14233 265014.560000
  13605  13609     1   0.14316 258236.480000
  13605  13621     1   0.14316 258236.480000
  13613  13619     1   0.14233 265014.560000
  13622  13623     1   0.15375 251793.120000
  13622  13636     1   0.15375 251793.120000
  13622  13644     1   0.14316 258236.480000
  13623  13626     1   0.15375 251793.120000
  13623  13635     1   0.14233 265014.560000
  13626  13627     1   0.15375 251793.120000
  13626  13634     1   0.14233 265014.560000
  13627  13628     1   0.15375 251793.120000
  13627  13633     1   0.14233 265014.560000
  13628  13632     1   0.14316 258236.480000
  13628  13644     1   0.14316 258236.480000
  13636  13642     1   0.14233 265014.560000
  13645  13646     1   0.15375 251793.120000
  13645  13659     1   0.15375 251793.120000
  13645  13667     1   0.14316 258236.480000
  13646  13649     1   0.15375 251793.120000
  13646  13658     1   0.14233 265014.560000
  13649  13650     1   0.15375 251793.120000
  13649  13657     1   0.14233 265014.560000
  13650  13651     1   0.15375 251793.120000
  13650  13656     1   0.14233 265014.560000
  13651  13655     1   0.14316 258236.480000
  13651  13667     1   0.14316 258236.480000
  13659  13665     1   0.14233 265014.560000
  13668  13669     1   0.15375 251793.120000
  13668  13682     1   0.15375 251793.120000
  13668  13690     1   0.14316 258236.480000
  13669  13672     1   0.15375 251793.120000
  13669  13681     1   0.14233 265014.560000
  13672  13673     1   0.15375 251793.120000
  13672  13680     1   0.14233 265014.560000
  13673  13674     1   0.15375 251793.120000
  13673  13679     1   0.14233 265014.560000
  13674  13678     1   0.14316 258236.480000
  13674  13690     1   0.14316 258236.480000
  13682  13688     1   0.14233 265014.560000
  13691  13692     1   0.15375 251793.120000
  13691  13705     1   0.15375 251793.120000
  13691  13713     1   0.14316 258236.480000
  13692  13695     1   0.15375 251793.120000
  13692  13704     1   0.14233 265014.560000
  13695  13696     1   0.15375 251793.120000
  13695  13703     1   0.14233 265014.560000
  13696  13697     1   0.15375 251793.120000
  13696  13702     1   0.14233 265014.560000
  13697  13701     1   0.14316 258236.480000
  13697  13713     1   0.14316 258236.480000
  13705  13711     1   0.14233 265014.560000
  13714  13715     1   0.15375 251793.120000
  13714  13728     1   0.15375 251793.120000
  13714  13736     1   0.14316 258236.480000
  13715  13718     1   0.15375 251793.120000
  13715  13727     1   0.14233 265014.560000
  13718  13719     1   0.15375 251793.120000
  13718  13726     1   0.14233 265014.560000
  13719  13720     1   0.15375 251793.120000
  13719  13725     1   0.14233 265014.560000
  13720  13724     1   0.14316 258236.480000
  13720  13736     1   0.14316 258236.480000
  13728  13734     1   0.14233 265014.560000
  13737  13738     1   0.15375 251793.120000
  13737  13751     1   0.15375 251793.120000
  13737  13759     1   0.14316 258236.480000
  13738  13741     1   0.15375 251793.120000
  13738  13750     1   0.14233 265014.560000
  13741  13742     1   0.15375 251793.120000
  13741  13749     1   0.14233 265014.560000
  13742  13743     1   0.15375 251793.120000
  13742  13748     1   0.14233 265014.560000
  13743  13747     1   0.14316 258236.480000
  13743  13759     1   0.14316 258236.480000
  13751  13757     1   0.14233 265014.560000
  13760  13761     1   0.15375 251793.120000
  13760  13774     1   0.15375 251793.120000
  13760  13782     1   0.14316 258236.480000
  13761  13764     1   0.15375 251793.120000
  13761  13773     1   0.14233 265014.560000
  13764  13765     1   0.15375 251793.120000
  13764  13772     1   0.14233 265014.560000
  13765  13766     1   0.15375 251793.120000
  13765  13771     1   0.14233 265014.560000
  13766  13770     1   0.14316 258236.480000
  13766  13782     1   0.14316 258236.480000
  13774  13780     1   0.14233 265014.560000
  13783  13784     1   0.15375 251793.120000
  13783  13797     1   0.15375 251793.120000
  13783  13805     1   0.14316 258236.480000
  13784  13787     1   0.15375 251793.120000
  13784  13796     1   0.14233 265014.560000
  13787  13788     1   0.15375 251793.120000
  13787  13795     1   0.14233 265014.560000
  13788  13789     1   0.15375 251793.120000
  13788  13794     1   0.14233 265014.560000
  13789  13793     1   0.14316 258236.480000
  13789  13805     1   0.14316 258236.480000
  13797  13803     1   0.14233 265014.560000
  13806  13807     1   0.15375 251793.120000
  13806  13820     1   0.15375 251793.120000
  13806  13828     1   0.14316 258236.480000
  13807  13810     1   0.15375 251793.120000
  13807  13819     1   0.14233 265014.560000
  13810  13811     1   0.15375 251793.120000
  13810  13818     1   0.14233 265014.560000
  13811  13812     1   0.15375 251793.120000
  13811  13817     1   0.14233 265014.560000
  13812  13816     1   0.14316 258236.480000
  13812  13828     1   0.14316 258236.480000
  13820  13826     1   0.14233 265014.560000
  13829  13830     1   0.15375 251793.120000
  13829  13843     1   0.15375 251793.120000
  13829  13851     1   0.14316 258236.480000
  13830  13833     1   0.15375 251793.120000
  13830  13842     1   0.14233 265014.560000
  13833  13834     1   0.15375 251793.120000
  13833  13841     1   0.14233 265014.560000
  13834  13835     1   0.15375 251793.120000
  13834  13840     1   0.14233 265014.560000
  13835  13839     1   0.14316 258236.480000
  13835  13851     1   0.14316 258236.480000
  13843  13849     1   0.14233 265014.560000
  13852  13853     1   0.15375 251793.120000
  13852  13866     1   0.15375 251793.120000
  13852  13874     1   0.14316 258236.480000
  13853  13856     1   0.15375 251793.120000
  13853  13865     1   0.14233 265014.560000
  13856  13857     1   0.15375 251793.120000
  13856  13864     1   0.14233 265014.560000
  13857  13858     1   0.15375 251793.120000
  13857  13863     1   0.14233 265014.560000
  13858  13862     1   0.14316 258236.480000
  13858  13874     1   0.14316 258236.480000
  13866  13872     1   0.14233 265014.560000
  13875  13876     1   0.15375 251793.120000
  13875  13889     1   0.15375 251793.120000
  13875  13897     1   0.14316 258236.480000
  13876  13879     1   0.15375 251793.120000
  13876  13888     1   0.14233 265014.560000
  13879  13880     1   0.15375 251793.120000
  13879  13887     1   0.14233 265014.560000
  13880  13881     1   0.15375 251793.120000
  13880  13886     1   0.14233 265014.560000
  13881  13885     1   0.14316 258236.480000
  13881  13897     1   0.14316 258236.480000
  13889  13895     1   0.14233 265014.560000
  13898  13899     1   0.15375 251793.120000
  13898  13912     1   0.15375 251793.120000
  13898  13920     1   0.14316 258236.480000
  13899  13902     1   0.15375 251793.120000
  13899  13911     1   0.14233 265014.560000
  13902  13903     1   0.15375 251793.120000
  13902  13910     1   0.14233 265014.560000
  13903  13904     1   0.15375 251793.120000
  13903  13909     1   0.14233 265014.560000
  13904  13908     1   0.14316 258236.480000
  13904  13920     1   0.14316 258236.480000
  13912  13918     1   0.14233 265014.560000
  13921  13922     1   0.15375 251793.120000
  13921  13935     1   0.15375 251793.120000
  13921  13943     1   0.14316 258236.480000
  13922  13925     1   0.15375 251793.120000
  13922  13934     1   0.14233 265014.560000
  13925  13926     1   0.15375 251793.120000
  13925  13933     1   0.14233 265014.560000
  13926  13927     1   0.15375 251793.120000
  13926  13932     1   0.14233 265014.560000
  13927  13931     1   0.14316 258236.480000
  13927  13943     1   0.14316 258236.480000
  13935  13941     1   0.14233 265014.560000
  13944  13945     1   0.15375 251793.120000
  13944  13958     1   0.15375 251793.120000
  13944  13966     1   0.14316 258236.480000
  13945  13948     1   0.15375 251793.120000
  13945  13957     1   0.14233 265014.560000
  13948  13949     1   0.15375 251793.120000
  13948  13956     1   0.14233 265014.560000
  13949  13950     1   0.15375 251793.120000
  13949  13955     1   0.14233 265014.560000
  13950  13954     1   0.14316 258236.480000
  13950  13966     1   0.14316 258236.480000
  13958  13964     1   0.14233 265014.560000
  13967  13968     1   0.15375 251793.120000
  13967  13981     1   0.15375 251793.120000
  13967  13989     1   0.14316 258236.480000
  13968  13971     1   0.15375 251793.120000
  13968  13980     1   0.14233 265014.560000
  13971  13972     1   0.15375 251793.120000
  13971  13979     1   0.14233 265014.560000
  13972  13973     1   0.15375 251793.120000
  13972  13978     1   0.14233 265014.560000
  13973  13977     1   0.14316 258236.480000
  13973  13989     1   0.14316 258236.480000
  13981  13987     1   0.14233 265014.560000
  13990  13991     1   0.15375 251793.120000
  13990  14004     1   0.15375 251793.120000
  13990  14012     1   0.14316 258236.480000
  13991  13994     1   0.15375 251793.120000
  13991  14003     1   0.14233 265014.560000
  13994  13995     1   0.15375 251793.120000
  13994  14002     1   0.14233 265014.560000
  13995  13996     1   0.15375 251793.120000
  13995  14001     1   0.14233 265014.560000
  13996  14000     1   0.14316 258236.480000
  13996  14012     1   0.14316 258236.480000
  14004  14010     1   0.14233 265014.560000
  14013  14014     1   0.15375 251793.120000
  14013  14027     1   0.15375 251793.120000
  14013  14035     1   0.14316 258236.480000
  14014  14017     1   0.15375 251793.120000
  14014  14026     1   0.14233 265014.560000
  14017  14018     1   0.15375 251793.120000
  14017  14025     1   0.14233 265014.560000
  14018  14019     1   0.15375 251793.120000
  14018  14024     1   0.14233 265014.560000
  14019  14023     1   0.14316 258236.480000
  14019  14035     1   0.14316 258236.480000
  14027  14033     1   0.14233 265014.560000
  14036  14037     1   0.15375 251793.120000
  14036  14050     1   0.15375 251793.120000
  14036  14058     1   0.14316 258236.480000
  14037  14040     1   0.15375 251793.120000
  14037  14049     1   0.14233 265014.560000
  14040  14041     1   0.15375 251793.120000
  14040  14048     1   0.14233 265014.560000
  14041  14042     1   0.15375 251793.120000
  14041  14047     1   0.14233 265014.560000
  14042  14046     1   0.14316 258236.480000
  14042  14058     1   0.14316 258236.480000
  14050  14056     1   0.14233 265014.560000
  14059  14060     1   0.15375 251793.120000
  14059  14073     1   0.15375 251793.120000
  14059  14081     1   0.14316 258236.480000
  14060  14063     1   0.15375 251793.120000
  14060  14072     1   0.14233 265014.560000
  14063  14064     1   0.15375 251793.120000
  14063  14071     1   0.14233 265014.560000
  14064  14065     1   0.15375 251793.120000
  14064  14070     1   0.14233 265014.560000
  14065  14069     1   0.14316 258236.480000
  14065  14081     1   0.14316 258236.480000
  14073  14079     1   0.14233 265014.560000
  14082  14083     1   0.15375 251793.120000
  14082  14096     1   0.15375 251793.120000
  14082  14104     1   0.14316 258236.480000
  14083  14086     1   0.15375 251793.120000
  14083  14095     1   0.14233 265014.560000
  14086  14087     1   0.15375 251793.120000
  14086  14094     1   0.14233 265014.560000
  14087  14088     1   0.15375 251793.120000
  14087  14093     1   0.14233 265014.560000
  14088  14092     1   0.14316 258236.480000
  14088  14104     1   0.14316 258236.480000
  14096  14102     1   0.14233 265014.560000
  14105  14106     1   0.15375 251793.120000
  14105  14119     1   0.15375 251793.120000
  14105  14127     1   0.14316 258236.480000
  14106  14109     1   0.15375 251793.120000
  14106  14118     1   0.14233 265014.560000
  14109  14110     1   0.15375 251793.120000
  14109  14117     1   0.14233 265014.560000
  14110  14111     1   0.15375 251793.120000
  14110  14116     1   0.14233 265014.560000
  14111  14115     1   0.14316 258236.480000
  14111  14127     1   0.14316 258236.480000
  14119  14125     1   0.14233 265014.560000
  14128  14129     1   0.15375 251793.120000
  14128  14142     1   0.15375 251793.120000
  14128  14150     1   0.14316 258236.480000
  14129  14132     1   0.15375 251793.120000
  14129  14141     1   0.14233 265014.560000
  14132  14133     1   0.15375 251793.120000
  14132  14140     1   0.14233 265014.560000
  14133  14134     1   0.15375 251793.120000
  14133  14139     1   0.14233 265014.560000
  14134  14138     1   0.14316 258236.480000
  14134  14150     1   0.14316 258236.480000
  14142  14148     1   0.14233 265014.560000
  14151  14152     1   0.15375 251793.120000
  14151  14165     1   0.15375 251793.120000
  14151  14173     1   0.14316 258236.480000
  14152  14155     1   0.15375 251793.120000
  14152  14164     1   0.14233 265014.560000
  14155  14156     1   0.15375 251793.120000
  14155  14163     1   0.14233 265014.560000
  14156  14157     1   0.15375 251793.120000
  14156  14162     1   0.14233 265014.560000
  14157  14161     1   0.14316 258236.480000
  14157  14173     1   0.14316 258236.480000
  14165  14171     1   0.14233 265014.560000
  14174  14175     1   0.15375 251793.120000
  14174  14188     1   0.15375 251793.120000
  14174  14196     1   0.14316 258236.480000
  14175  14178     1   0.15375 251793.120000
  14175  14187     1   0.14233 265014.560000
  14178  14179     1   0.15375 251793.120000
  14178  14186     1   0.14233 265014.560000
  14179  14180     1   0.15375 251793.120000
  14179  14185     1   0.14233 265014.560000
  14180  14184     1   0.14316 258236.480000
  14180  14196     1   0.14316 258236.480000
  14188  14194     1   0.14233 265014.560000
  14197  14198     1   0.15375 251793.120000
  14197  14211     1   0.15375 251793.120000
  14197  14219     1   0.14316 258236.480000
  14198  14201     1   0.15375 251793.120000
  14198  14210     1   0.14233 265014.560000
  14201  14202     1   0.15375 251793.120000
  14201  14209     1   0.14233 265014.560000
  14202  14203     1   0.15375 251793.120000
  14202  14208     1   0.14233 265014.560000
  14203  14207     1   0.14316 258236.480000
  14203  14219     1   0.14316 258236.480000
  14211  14217     1   0.14233 265014.560000
  14220  14221     1   0.15375 251793.120000
  14220  14234     1   0.15375 251793.120000
  14220  14242     1   0.14316 258236.480000
  14221  14224     1   0.15375 251793.120000
  14221  14233     1   0.14233 265014.560000
  14224  14225     1   0.15375 251793.120000
  14224  14232     1   0.14233 265014.560000
  14225  14226     1   0.15375 251793.120000
  14225  14231     1   0.14233 265014.560000
  14226  14230     1   0.14316 258236.480000
  14226  14242     1   0.14316 258236.480000
  14234  14240     1   0.14233 265014.560000
  14243  14244     1   0.15375 251793.120000
  14243  14257     1   0.15375 251793.120000
  14243  14265     1   0.14316 258236.480000
  14244  14247     1   0.15375 251793.120000
  14244  14256     1   0.14233 265014.560000
  14247  14248     1   0.15375 251793.120000
  14247  14255     1   0.14233 265014.560000
  14248  14249     1   0.15375 251793.120000
  14248  14254     1   0.14233 265014.560000
  14249  14253     1   0.14316 258236.480000
  14249  14265     1   0.14316 258236.480000
  14257  14263     1   0.14233 265014.560000
  14266  14267     1   0.15375 251793.120000
  14266  14280     1   0.15375 251793.120000
  14266  14288     1   0.14316 258236.480000
  14267  14270     1   0.15375 251793.120000
  14267  14279     1   0.14233 265014.560000
  14270  14271     1   0.15375 251793.120000
  14270  14278     1   0.14233 265014.560000
  14271  14272     1   0.15375 251793.120000
  14271  14277     1   0.14233 265014.560000
  14272  14276     1   0.14316 258236.480000
  14272  14288     1   0.14316 258236.480000
  14280  14286     1   0.14233 265014.560000
  14289  14290     1   0.15375 251793.120000
  14289  14303     1   0.15375 251793.120000
  14289  14311     1   0.14316 258236.480000
  14290  14293     1   0.15375 251793.120000
  14290  14302     1   0.14233 265014.560000
  14293  14294     1   0.15375 251793.120000
  14293  14301     1   0.14233 265014.560000
  14294  14295     1   0.15375 251793.120000
  14294  14300     1   0.14233 265014.560000
  14295  14299     1   0.14316 258236.480000
  14295  14311     1   0.14316 258236.480000
  14303  14309     1   0.14233 265014.560000
  14312  14313     1   0.15375 251793.120000
  14312  14326     1   0.15375 251793.120000
  14312  14334     1   0.14316 258236.480000
  14313  14316     1   0.15375 251793.120000
  14313  14325     1   0.14233 265014.560000
  14316  14317     1   0.15375 251793.120000
  14316  14324     1   0.14233 265014.560000
  14317  14318     1   0.15375 251793.120000
  14317  14323     1   0.14233 265014.560000
  14318  14322     1   0.14316 258236.480000
  14318  14334     1   0.14316 258236.480000
  14326  14332     1   0.14233 265014.560000
  14335  14336     1   0.15375 251793.120000
  14335  14349     1   0.15375 251793.120000
  14335  14357     1   0.14316 258236.480000
  14336  14339     1   0.15375 251793.120000
  14336  14348     1   0.14233 265014.560000
  14339  14340     1   0.15375 251793.120000
  14339  14347     1   0.14233 265014.560000
  14340  14341     1   0.15375 251793.120000
  14340  14346     1   0.14233 265014.560000
  14341  14345     1   0.14316 258236.480000
  14341  14357     1   0.14316 258236.480000
  14349  14355     1   0.14233 265014.560000
  14358  14359     1   0.15375 251793.120000
  14358  14372     1   0.15375 251793.120000
  14358  14380     1   0.14316 258236.480000
  14359  14362     1   0.15375 251793.120000
  14359  14371     1   0.14233 265014.560000
  14362  14363     1   0.15375 251793.120000
  14362  14370     1   0.14233 265014.560000
  14363  14364     1   0.15375 251793.120000
  14363  14369     1   0.14233 265014.560000
  14364  14368     1   0.14316 258236.480000
  14364  14380     1   0.14316 258236.480000
  14372  14378     1   0.14233 265014.560000
  14381  14382     1   0.15375 251793.120000
  14381  14395     1   0.15375 251793.120000
  14381  14403     1   0.14316 258236.480000
  14382  14385     1   0.15375 251793.120000
  14382  14394     1   0.14233 265014.560000
  14385  14386     1   0.15375 251793.120000
  14385  14393     1   0.14233 265014.560000
  14386  14387     1   0.15375 251793.120000
  14386  14392     1   0.14233 265014.560000
  14387  14391     1   0.14316 258236.480000
  14387  14403     1   0.14316 258236.480000
  14395  14401     1   0.14233 265014.560000
  14404  14405     1   0.15375 251793.120000
  14404  14418     1   0.15375 251793.120000
  14404  14426     1   0.14316 258236.480000
  14405  14408     1   0.15375 251793.120000
  14405  14417     1   0.14233 265014.560000
  14408  14409     1   0.15375 251793.120000
  14408  14416     1   0.14233 265014.560000
  14409  14410     1   0.15375 251793.120000
  14409  14415     1   0.14233 265014.560000
  14410  14414     1   0.14316 258236.480000
  14410  14426     1   0.14316 258236.480000
  14418  14424     1   0.14233 265014.560000
  14427  14428     1   0.15375 251793.120000
  14427  14441     1   0.15375 251793.120000
  14427  14449     1   0.14316 258236.480000
  14428  14431     1   0.15375 251793.120000
  14428  14440     1   0.14233 265014.560000
  14431  14432     1   0.15375 251793.120000
  14431  14439     1   0.14233 265014.560000
  14432  14433     1   0.15375 251793.120000
  14432  14438     1   0.14233 265014.560000
  14433  14437     1   0.14316 258236.480000
  14433  14449     1   0.14316 258236.480000
  14441  14447     1   0.14233 265014.560000
  14450  14451     1   0.15375 251793.120000
  14450  14464     1   0.15375 251793.120000
  14450  14472     1   0.14316 258236.480000
  14451  14454     1   0.15375 251793.120000
  14451  14463     1   0.14233 265014.560000
  14454  14455     1   0.15375 251793.120000
  14454  14462     1   0.14233 265014.560000
  14455  14456     1   0.15375 251793.120000
  14455  14461     1   0.14233 265014.560000
  14456  14460     1   0.14316 258236.480000
  14456  14472     1   0.14316 258236.480000
  14464  14470     1   0.14233 265014.560000
  14473  14474     1   0.15375 251793.120000
  14473  14487     1   0.15375 251793.120000
  14473  14495     1   0.14316 258236.480000
  14474  14477     1   0.15375 251793.120000
  14474  14486     1   0.14233 265014.560000
  14477  14478     1   0.15375 251793.120000
  14477  14485     1   0.14233 265014.560000
  14478  14479     1   0.15375 251793.120000
  14478  14484     1   0.14233 265014.560000
  14479  14483     1   0.14316 258236.480000
  14479  14495     1   0.14316 258236.480000
  14487  14493     1   0.14233 265014.560000
  14496  14497     1   0.15375 251793.120000
  14496  14510     1   0.15375 251793.120000
  14496  14518     1   0.14316 258236.480000
  14497  14500     1   0.15375 251793.120000
  14497  14509     1   0.14233 265014.560000
  14500  14501     1   0.15375 251793.120000
  14500  14508     1   0.14233 265014.560000
  14501  14502     1   0.15375 251793.120000
  14501  14507     1   0.14233 265014.560000
  14502  14506     1   0.14316 258236.480000
  14502  14518     1   0.14316 258236.480000
  14510  14516     1   0.14233 265014.560000
  14519  14520     1   0.15375 251793.120000
  14519  14533     1   0.15375 251793.120000
  14519  14541     1   0.14316 258236.480000
  14520  14523     1   0.15375 251793.120000
  14520  14532     1   0.14233 265014.560000
  14523  14524     1   0.15375 251793.120000
  14523  14531     1   0.14233 265014.560000
  14524  14525     1   0.15375 251793.120000
  14524  14530     1   0.14233 265014.560000
  14525  14529     1   0.14316 258236.480000
  14525  14541     1   0.14316 258236.480000
  14533  14539     1   0.14233 265014.560000
  14542  14543     1   0.15375 251793.120000
  14542  14556     1   0.15375 251793.120000
  14542  14564     1   0.14316 258236.480000
  14543  14546     1   0.15375 251793.120000
  14543  14555     1   0.14233 265014.560000
  14546  14547     1   0.15375 251793.120000
  14546  14554     1   0.14233 265014.560000
  14547  14548     1   0.15375 251793.120000
  14547  14553     1   0.14233 265014.560000
  14548  14552     1   0.14316 258236.480000
  14548  14564     1   0.14316 258236.480000
  14556  14562     1   0.14233 265014.560000
  14565  14566     1   0.15375 251793.120000
  14565  14579     1   0.15375 251793.120000
  14565  14587     1   0.14316 258236.480000
  14566  14569     1   0.15375 251793.120000
  14566  14578     1   0.14233 265014.560000
  14569  14570     1   0.15375 251793.120000
  14569  14577     1   0.14233 265014.560000
  14570  14571     1   0.15375 251793.120000
  14570  14576     1   0.14233 265014.560000
  14571  14575     1   0.14316 258236.480000
  14571  14587     1   0.14316 258236.480000
  14579  14585     1   0.14233 265014.560000
  14588  14589     1   0.15375 251793.120000
  14588  14602     1   0.15375 251793.120000
  14588  14610     1   0.14316 258236.480000
  14589  14592     1   0.15375 251793.120000
  14589  14601     1   0.14233 265014.560000
  14592  14593     1   0.15375 251793.120000
  14592  14600     1   0.14233 265014.560000
  14593  14594     1   0.15375 251793.120000
  14593  14599     1   0.14233 265014.560000
  14594  14598     1   0.14316 258236.480000
  14594  14610     1   0.14316 258236.480000
  14602  14608     1   0.14233 265014.560000
  14611  14612     1   0.15375 251793.120000
  14611  14625     1   0.15375 251793.120000
  14611  14633     1   0.14316 258236.480000
  14612  14615     1   0.15375 251793.120000
  14612  14624     1   0.14233 265014.560000
  14615  14616     1   0.15375 251793.120000
  14615  14623     1   0.14233 265014.560000
  14616  14617     1   0.15375 251793.120000
  14616  14622     1   0.14233 265014.560000
  14617  14621     1   0.14316 258236.480000
  14617  14633     1   0.14316 258236.480000
  14625  14631     1   0.14233 265014.560000
  14634  14635     1   0.15375 251793.120000
  14634  14648     1   0.15375 251793.120000
  14634  14656     1   0.14316 258236.480000
  14635  14638     1   0.15375 251793.120000
  14635  14647     1   0.14233 265014.560000
  14638  14639     1   0.15375 251793.120000
  14638  14646     1   0.14233 265014.560000
  14639  14640     1   0.15375 251793.120000
  14639  14645     1   0.14233 265014.560000
  14640  14644     1   0.14316 258236.480000
  14640  14656     1   0.14316 258236.480000
  14648  14654     1   0.14233 265014.560000
  14657  14658     1   0.15375 251793.120000
  14657  14671     1   0.15375 251793.120000
  14657  14679     1   0.14316 258236.480000
  14658  14661     1   0.15375 251793.120000
  14658  14670     1   0.14233 265014.560000
  14661  14662     1   0.15375 251793.120000
  14661  14669     1   0.14233 265014.560000
  14662  14663     1   0.15375 251793.120000
  14662  14668     1   0.14233 265014.560000
  14663  14667     1   0.14316 258236.480000
  14663  14679     1   0.14316 258236.480000
  14671  14677     1   0.14233 265014.560000
  14680  14681     1   0.15375 251793.120000
  14680  14694     1   0.15375 251793.120000
  14680  14702     1   0.14316 258236.480000
  14681  14684     1   0.15375 251793.120000
  14681  14693     1   0.14233 265014.560000
  14684  14685     1   0.15375 251793.120000
  14684  14692     1   0.14233 265014.560000
  14685  14686     1   0.15375 251793.120000
  14685  14691     1   0.14233 265014.560000
  14686  14690     1   0.14316 258236.480000
  14686  14702     1   0.14316 258236.480000
  14694  14700     1   0.14233 265014.560000
  14703  14704     1   0.15375 251793.120000
  14703  14717     1   0.15375 251793.120000
  14703  14725     1   0.14316 258236.480000
  14704  14707     1   0.15375 251793.120000
  14704  14716     1   0.14233 265014.560000
  14707  14708     1   0.15375 251793.120000
  14707  14715     1   0.14233 265014.560000
  14708  14709     1   0.15375 251793.120000
  14708  14714     1   0.14233 265014.560000
  14709  14713     1   0.14316 258236.480000
  14709  14725     1   0.14316 258236.480000
  14717  14723     1   0.14233 265014.560000
  14726  14727     1   0.15375 251793.120000
  14726  14740     1   0.15375 251793.120000
  14726  14748     1   0.14316 258236.480000
  14727  14730     1   0.15375 251793.120000
  14727  14739     1   0.14233 265014.560000
  14730  14731     1   0.15375 251793.120000
  14730  14738     1   0.14233 265014.560000
  14731  14732     1   0.15375 251793.120000
  14731  14737     1   0.14233 265014.560000
  14732  14736     1   0.14316 258236.480000
  14732  14748     1   0.14316 258236.480000
  14740  14746     1   0.14233 265014.560000
  14749  14750     1   0.15375 251793.120000
  14749  14763     1   0.15375 251793.120000
  14749  14771     1   0.14316 258236.480000
  14750  14753     1   0.15375 251793.120000
  14750  14762     1   0.14233 265014.560000
  14753  14754     1   0.15375 251793.120000
  14753  14761     1   0.14233 265014.560000
  14754  14755     1   0.15375 251793.120000
  14754  14760     1   0.14233 265014.560000
  14755  14759     1   0.14316 258236.480000
  14755  14771     1   0.14316 258236.480000
  14763  14769     1   0.14233 265014.560000
  14772  14773     1   0.15375 251793.120000
  14772  14786     1   0.15375 251793.120000
  14772  14794     1   0.14316 258236.480000
  14773  14776     1   0.15375 251793.120000
  14773  14785     1   0.14233 265014.560000
  14776  14777     1   0.15375 251793.120000
  14776  14784     1   0.14233 265014.560000
  14777  14778     1   0.15375 251793.120000
  14777  14783     1   0.14233 265014.560000
  14778  14782     1   0.14316 258236.480000
  14778  14794     1   0.14316 258236.480000
  14786  14792     1   0.14233 265014.560000
  14795  14796     1   0.15375 251793.120000
  14795  14809     1   0.15375 251793.120000
  14795  14817     1   0.14316 258236.480000
  14796  14799     1   0.15375 251793.120000
  14796  14808     1   0.14233 265014.560000
  14799  14800     1   0.15375 251793.120000
  14799  14807     1   0.14233 265014.560000
  14800  14801     1   0.15375 251793.120000
  14800  14806     1   0.14233 265014.560000
  14801  14805     1   0.14316 258236.480000
  14801  14817     1   0.14316 258236.480000
  14809  14815     1   0.14233 265014.560000
  14818  14819     1   0.15375 251793.120000
  14818  14832     1   0.15375 251793.120000
  14818  14840     1   0.14316 258236.480000
  14819  14822     1   0.15375 251793.120000
  14819  14831     1   0.14233 265014.560000
  14822  14823     1   0.15375 251793.120000
  14822  14830     1   0.14233 265014.560000
  14823  14824     1   0.15375 251793.120000
  14823  14829     1   0.14233 265014.560000
  14824  14828     1   0.14316 258236.480000
  14824  14840     1   0.14316 258236.480000
  14832  14838     1   0.14233 265014.560000
  14841  14842     1   0.15375 251793.120000
  14841  14855     1   0.15375 251793.120000
  14841  14863     1   0.14316 258236.480000
  14842  14845     1   0.15375 251793.120000
  14842  14854     1   0.14233 265014.560000
  14845  14846     1   0.15375 251793.120000
  14845  14853     1   0.14233 265014.560000
  14846  14847     1   0.15375 251793.120000
  14846  14852     1   0.14233 265014.560000
  14847  14851     1   0.14316 258236.480000
  14847  14863     1   0.14316 258236.480000
  14855  14861     1   0.14233 265014.560000
  14864  14865     1   0.15375 251793.120000
  14864  14878     1   0.15375 251793.120000
  14864  14886     1   0.14316 258236.480000
  14865  14868     1   0.15375 251793.120000
  14865  14877     1   0.14233 265014.560000
  14868  14869     1   0.15375 251793.120000
  14868  14876     1   0.14233 265014.560000
  14869  14870     1   0.15375 251793.120000
  14869  14875     1   0.14233 265014.560000
  14870  14874     1   0.14316 258236.480000
  14870  14886     1   0.14316 258236.480000
  14878  14884     1   0.14233 265014.560000
  14887  14888     1   0.15375 251793.120000
  14887  14901     1   0.15375 251793.120000
  14887  14909     1   0.14316 258236.480000
  14888  14891     1   0.15375 251793.120000
  14888  14900     1   0.14233 265014.560000
  14891  14892     1   0.15375 251793.120000
  14891  14899     1   0.14233 265014.560000
  14892  14893     1   0.15375 251793.120000
  14892  14898     1   0.14233 265014.560000
  14893  14897     1   0.14316 258236.480000
  14893  14909     1   0.14316 258236.480000
  14901  14907     1   0.14233 265014.560000
  14910  14911     1   0.15375 251793.120000
  14910  14924     1   0.15375 251793.120000
  14910  14932     1   0.14316 258236.480000
  14911  14914     1   0.15375 251793.120000
  14911  14923     1   0.14233 265014.560000
  14914  14915     1   0.15375 251793.120000
  14914  14922     1   0.14233 265014.560000
  14915  14916     1   0.15375 251793.120000
  14915  14921     1   0.14233 265014.560000
  14916  14920     1   0.14316 258236.480000
  14916  14932     1   0.14316 258236.480000
  14924  14930     1   0.14233 265014.560000
  14933  14934     1   0.15375 251793.120000
  14933  14947     1   0.15375 251793.120000
  14933  14955     1   0.14316 258236.480000
  14934  14937     1   0.15375 251793.120000
  14934  14946     1   0.14233 265014.560000
  14937  14938     1   0.15375 251793.120000
  14937  14945     1   0.14233 265014.560000
  14938  14939     1   0.15375 251793.120000
  14938  14944     1   0.14233 265014.560000
  14939  14943     1   0.14316 258236.480000
  14939  14955     1   0.14316 258236.480000
  14947  14953     1   0.14233 265014.560000
  14956  14957     1   0.15375 251793.120000
  14956  14970     1   0.15375 251793.120000
  14956  14978     1   0.14316 258236.480000
  14957  14960     1   0.15375 251793.120000
  14957  14969     1   0.14233 265014.560000
  14960  14961     1   0.15375 251793.120000
  14960  14968     1   0.14233 265014.560000
  14961  14962     1   0.15375 251793.120000
  14961  14967     1   0.14233 265014.560000
  14962  14966     1   0.14316 258236.480000
  14962  14978     1   0.14316 258236.480000
  14970  14976     1   0.14233 265014.560000
  14979  14980     1   0.15375 251793.120000
  14979  14993     1   0.15375 251793.120000
  14979  15001     1   0.14316 258236.480000
  14980  14983     1   0.15375 251793.120000
  14980  14992     1   0.14233 265014.560000
  14983  14984     1   0.15375 251793.120000
  14983  14991     1   0.14233 265014.560000
  14984  14985     1   0.15375 251793.120000
  14984  14990     1   0.14233 265014.560000
  14985  14989     1   0.14316 258236.480000
  14985  15001     1   0.14316 258236.480000
  14993  14999     1   0.14233 265014.560000
  15002  15003     1   0.15375 251793.120000
  15002  15016     1   0.15375 251793.120000
  15002  15024     1   0.14316 258236.480000
  15003  15006     1   0.15375 251793.120000
  15003  15015     1   0.14233 265014.560000
  15006  15007     1   0.15375 251793.120000
  15006  15014     1   0.14233 265014.560000
  15007  15008     1   0.15375 251793.120000
  15007  15013     1   0.14233 265014.560000
  15008  15012     1   0.14316 258236.480000
  15008  15024     1   0.14316 258236.480000
  15016  15022     1   0.14233 265014.560000
  15025  15026     1   0.15375 251793.120000
  15025  15039     1   0.15375 251793.120000
  15025  15047     1   0.14316 258236.480000
  15026  15029     1   0.15375 251793.120000
  15026  15038     1   0.14233 265014.560000
  15029  15030     1   0.15375 251793.120000
  15029  15037     1   0.14233 265014.560000
  15030  15031     1   0.15375 251793.120000
  15030  15036     1   0.14233 265014.560000
  15031  15035     1   0.14316 258236.480000
  15031  15047     1   0.14316 258236.480000
  15039  15045     1   0.14233 265014.560000
  15048  15049     1   0.15375 251793.120000
  15048  15062     1   0.15375 251793.120000
  15048  15070     1   0.14316 258236.480000
  15049  15052     1   0.15375 251793.120000
  15049  15061     1   0.14233 265014.560000
  15052  15053     1   0.15375 251793.120000
  15052  15060     1   0.14233 265014.560000
  15053  15054     1   0.15375 251793.120000
  15053  15059     1   0.14233 265014.560000
  15054  15058     1   0.14316 258236.480000
  15054  15070     1   0.14316 258236.480000
  15062  15068     1   0.14233 265014.560000
  15071  15072     1   0.15375 251793.120000
  15071  15085     1   0.15375 251793.120000
  15071  15093     1   0.14316 258236.480000
  15072  15075     1   0.15375 251793.120000
  15072  15084     1   0.14233 265014.560000
  15075  15076     1   0.15375 251793.120000
  15075  15083     1   0.14233 265014.560000
  15076  15077     1   0.15375 251793.120000
  15076  15082     1   0.14233 265014.560000
  15077  15081     1   0.14316 258236.480000
  15077  15093     1   0.14316 258236.480000
  15085  15091     1   0.14233 265014.560000
  15094  15095     1   0.15375 251793.120000
  15094  15108     1   0.15375 251793.120000
  15094  15116     1   0.14316 258236.480000
  15095  15098     1   0.15375 251793.120000
  15095  15107     1   0.14233 265014.560000
  15098  15099     1   0.15375 251793.120000
  15098  15106     1   0.14233 265014.560000
  15099  15100     1   0.15375 251793.120000
  15099  15105     1   0.14233 265014.560000
  15100  15104     1   0.14316 258236.480000
  15100  15116     1   0.14316 258236.480000
  15108  15114     1   0.14233 265014.560000
  15117  15118     1   0.15375 251793.120000
  15117  15131     1   0.15375 251793.120000
  15117  15139     1   0.14316 258236.480000
  15118  15121     1   0.15375 251793.120000
  15118  15130     1   0.14233 265014.560000
  15121  15122     1   0.15375 251793.120000
  15121  15129     1   0.14233 265014.560000
  15122  15123     1   0.15375 251793.120000
  15122  15128     1   0.14233 265014.560000
  15123  15127     1   0.14316 258236.480000
  15123  15139     1   0.14316 258236.480000
  15131  15137     1   0.14233 265014.560000
  15140  15141     1   0.15375 251793.120000
  15140  15154     1   0.15375 251793.120000
  15140  15162     1   0.14316 258236.480000
  15141  15144     1   0.15375 251793.120000
  15141  15153     1   0.14233 265014.560000
  15144  15145     1   0.15375 251793.120000
  15144  15152     1   0.14233 265014.560000
  15145  15146     1   0.15375 251793.120000
  15145  15151     1   0.14233 265014.560000
  15146  15150     1   0.14316 258236.480000
  15146  15162     1   0.14316 258236.480000
  15154  15160     1   0.14233 265014.560000
  15163  15164     1   0.15375 251793.120000
  15163  15177     1   0.15375 251793.120000
  15163  15185     1   0.14316 258236.480000
  15164  15167     1   0.15375 251793.120000
  15164  15176     1   0.14233 265014.560000
  15167  15168     1   0.15375 251793.120000
  15167  15175     1   0.14233 265014.560000
  15168  15169     1   0.15375 251793.120000
  15168  15174     1   0.14233 265014.560000
  15169  15173     1   0.14316 258236.480000
  15169  15185     1   0.14316 258236.480000
  15177  15183     1   0.14233 265014.560000
  15186  15187     1   0.15375 251793.120000
  15186  15200     1   0.15375 251793.120000
  15186  15208     1   0.14316 258236.480000
  15187  15190     1   0.15375 251793.120000
  15187  15199     1   0.14233 265014.560000
  15190  15191     1   0.15375 251793.120000
  15190  15198     1   0.14233 265014.560000
  15191  15192     1   0.15375 251793.120000
  15191  15197     1   0.14233 265014.560000
  15192  15196     1   0.14316 258236.480000
  15192  15208     1   0.14316 258236.480000
  15200  15206     1   0.14233 265014.560000
  15209  15210     1   0.15375 251793.120000
  15209  15223     1   0.15375 251793.120000
  15209  15231     1   0.14316 258236.480000
  15210  15213     1   0.15375 251793.120000
  15210  15222     1   0.14233 265014.560000
  15213  15214     1   0.15375 251793.120000
  15213  15221     1   0.14233 265014.560000
  15214  15215     1   0.15375 251793.120000
  15214  15220     1   0.14233 265014.560000
  15215  15219     1   0.14316 258236.480000
  15215  15231     1   0.14316 258236.480000
  15223  15229     1   0.14233 265014.560000
  15232  15233     1   0.15375 251793.120000
  15232  15246     1   0.15375 251793.120000
  15232  15254     1   0.14316 258236.480000
  15233  15236     1   0.15375 251793.120000
  15233  15245     1   0.14233 265014.560000
  15236  15237     1   0.15375 251793.120000
  15236  15244     1   0.14233 265014.560000
  15237  15238     1   0.15375 251793.120000
  15237  15243     1   0.14233 265014.560000
  15238  15242     1   0.14316 258236.480000
  15238  15254     1   0.14316 258236.480000
  15246  15252     1   0.14233 265014.560000
  15255  15256     1   0.15375 251793.120000
  15255  15269     1   0.15375 251793.120000
  15255  15277     1   0.14316 258236.480000
  15256  15259     1   0.15375 251793.120000
  15256  15268     1   0.14233 265014.560000
  15259  15260     1   0.15375 251793.120000
  15259  15267     1   0.14233 265014.560000
  15260  15261     1   0.15375 251793.120000
  15260  15266     1   0.14233 265014.560000
  15261  15265     1   0.14316 258236.480000
  15261  15277     1   0.14316 258236.480000
  15269  15275     1   0.14233 265014.560000
  15278  15279     1   0.15375 251793.120000
  15278  15292     1   0.15375 251793.120000
  15278  15300     1   0.14316 258236.480000
  15279  15282     1   0.15375 251793.120000
  15279  15291     1   0.14233 265014.560000
  15282  15283     1   0.15375 251793.120000
  15282  15290     1   0.14233 265014.560000
  15283  15284     1   0.15375 251793.120000
  15283  15289     1   0.14233 265014.560000
  15284  15288     1   0.14316 258236.480000
  15284  15300     1   0.14316 258236.480000
  15292  15298     1   0.14233 265014.560000
  15301  15302     1   0.15375 251793.120000
  15301  15315     1   0.15375 251793.120000
  15301  15323     1   0.14316 258236.480000
  15302  15305     1   0.15375 251793.120000
  15302  15314     1   0.14233 265014.560000
  15305  15306     1   0.15375 251793.120000
  15305  15313     1   0.14233 265014.560000
  15306  15307     1   0.15375 251793.120000
  15306  15312     1   0.14233 265014.560000
  15307  15311     1   0.14316 258236.480000
  15307  15323     1   0.14316 258236.480000
  15315  15321     1   0.14233 265014.560000
  15324  15325     1   0.15375 251793.120000
  15324  15338     1   0.15375 251793.120000
  15324  15346     1   0.14316 258236.480000
  15325  15328     1   0.15375 251793.120000
  15325  15337     1   0.14233 265014.560000
  15328  15329     1   0.15375 251793.120000
  15328  15336     1   0.14233 265014.560000
  15329  15330     1   0.15375 251793.120000
  15329  15335     1   0.14233 265014.560000
  15330  15334     1   0.14316 258236.480000
  15330  15346     1   0.14316 258236.480000
  15338  15344     1   0.14233 265014.560000
  15347  15348     1   0.15375 251793.120000
  15347  15361     1   0.15375 251793.120000
  15347  15369     1   0.14316 258236.480000
  15348  15351     1   0.15375 251793.120000
  15348  15360     1   0.14233 265014.560000
  15351  15352     1   0.15375 251793.120000
  15351  15359     1   0.14233 265014.560000
  15352  15353     1   0.15375 251793.120000
  15352  15358     1   0.14233 265014.560000
  15353  15357     1   0.14316 258236.480000
  15353  15369     1   0.14316 258236.480000
  15361  15367     1   0.14233 265014.560000
  15370  15371     1   0.15375 251793.120000
  15370  15384     1   0.15375 251793.120000
  15370  15392     1   0.14316 258236.480000
  15371  15374     1   0.15375 251793.120000
  15371  15383     1   0.14233 265014.560000
  15374  15375     1   0.15375 251793.120000
  15374  15382     1   0.14233 265014.560000
  15375  15376     1   0.15375 251793.120000
  15375  15381     1   0.14233 265014.560000
  15376  15380     1   0.14316 258236.480000
  15376  15392     1   0.14316 258236.480000
  15384  15390     1   0.14233 265014.560000
  15393  15394     1   0.15375 251793.120000
  15393  15407     1   0.15375 251793.120000
  15393  15415     1   0.14316 258236.480000
  15394  15397     1   0.15375 251793.120000
  15394  15406     1   0.14233 265014.560000
  15397  15398     1   0.15375 251793.120000
  15397  15405     1   0.14233 265014.560000
  15398  15399     1   0.15375 251793.120000
  15398  15404     1   0.14233 265014.560000
  15399  15403     1   0.14316 258236.480000
  15399  15415     1   0.14316 258236.480000
  15407  15413     1   0.14233 265014.560000
  15416  15417     1   0.15375 251793.120000
  15416  15430     1   0.15375 251793.120000
  15416  15438     1   0.14316 258236.480000
  15417  15420     1   0.15375 251793.120000
  15417  15429     1   0.14233 265014.560000
  15420  15421     1   0.15375 251793.120000
  15420  15428     1   0.14233 265014.560000
  15421  15422     1   0.15375 251793.120000
  15421  15427     1   0.14233 265014.560000
  15422  15426     1   0.14316 258236.480000
  15422  15438     1   0.14316 258236.480000
  15430  15436     1   0.14233 265014.560000
  15439  15440     1   0.15375 251793.120000
  15439  15453     1   0.15375 251793.120000
  15439  15461     1   0.14316 258236.480000
  15440  15443     1   0.15375 251793.120000
  15440  15452     1   0.14233 265014.560000
  15443  15444     1   0.15375 251793.120000
  15443  15451     1   0.14233 265014.560000
  15444  15445     1   0.15375 251793.120000
  15444  15450     1   0.14233 265014.560000
  15445  15449     1   0.14316 258236.480000
  15445  15461     1   0.14316 258236.480000
  15453  15459     1   0.14233 265014.560000
  15462  15463     1   0.15375 251793.120000
  15462  15476     1   0.15375 251793.120000
  15462  15484     1   0.14316 258236.480000
  15463  15466     1   0.15375 251793.120000
  15463  15475     1   0.14233 265014.560000
  15466  15467     1   0.15375 251793.120000
  15466  15474     1   0.14233 265014.560000
  15467  15468     1   0.15375 251793.120000
  15467  15473     1   0.14233 265014.560000
  15468  15472     1   0.14316 258236.480000
  15468  15484     1   0.14316 258236.480000
  15476  15482     1   0.14233 265014.560000
  15485  15486     1   0.15375 251793.120000
  15485  15499     1   0.15375 251793.120000
  15485  15507     1   0.14316 258236.480000
  15486  15489     1   0.15375 251793.120000
  15486  15498     1   0.14233 265014.560000
  15489  15490     1   0.15375 251793.120000
  15489  15497     1   0.14233 265014.560000
  15490  15491     1   0.15375 251793.120000
  15490  15496     1   0.14233 265014.560000
  15491  15495     1   0.14316 258236.480000
  15491  15507     1   0.14316 258236.480000
  15499  15505     1   0.14233 265014.560000
  15508  15509     1   0.15375 251793.120000
  15508  15522     1   0.15375 251793.120000
  15508  15530     1   0.14316 258236.480000
  15509  15512     1   0.15375 251793.120000
  15509  15521     1   0.14233 265014.560000
  15512  15513     1   0.15375 251793.120000
  15512  15520     1   0.14233 265014.560000
  15513  15514     1   0.15375 251793.120000
  15513  15519     1   0.14233 265014.560000
  15514  15518     1   0.14316 258236.480000
  15514  15530     1   0.14316 258236.480000
  15522  15528     1   0.14233 265014.560000
  15531  15532     1   0.15375 251793.120000
  15531  15545     1   0.15375 251793.120000
  15531  15553     1   0.14316 258236.480000
  15532  15535     1   0.15375 251793.120000
  15532  15544     1   0.14233 265014.560000
  15535  15536     1   0.15375 251793.120000
  15535  15543     1   0.14233 265014.560000
  15536  15537     1   0.15375 251793.120000
  15536  15542     1   0.14233 265014.560000
  15537  15541     1   0.14316 258236.480000
  15537  15553     1   0.14316 258236.480000
  15545  15551     1   0.14233 265014.560000
  15554  15555     1   0.15375 251793.120000
  15554  15568     1   0.15375 251793.120000
  15554  15576     1   0.14316 258236.480000
  15555  15558     1   0.15375 251793.120000
  15555  15567     1   0.14233 265014.560000
  15558  15559     1   0.15375 251793.120000
  15558  15566     1   0.14233 265014.560000
  15559  15560     1   0.15375 251793.120000
  15559  15565     1   0.14233 265014.560000
  15560  15564     1   0.14316 258236.480000
  15560  15576     1   0.14316 258236.480000
  15568  15574     1   0.14233 265014.560000
  15577  15578     1   0.15375 251793.120000
  15577  15591     1   0.15375 251793.120000
  15577  15599     1   0.14316 258236.480000
  15578  15581     1   0.15375 251793.120000
  15578  15590     1   0.14233 265014.560000
  15581  15582     1   0.15375 251793.120000
  15581  15589     1   0.14233 265014.560000
  15582  15583     1   0.15375 251793.120000
  15582  15588     1   0.14233 265014.560000
  15583  15587     1   0.14316 258236.480000
  15583  15599     1   0.14316 258236.480000
  15591  15597     1   0.14233 265014.560000
  15600  15601     1   0.15375 251793.120000
  15600  15614     1   0.15375 251793.120000
  15600  15622     1   0.14316 258236.480000
  15601  15604     1   0.15375 251793.120000
  15601  15613     1   0.14233 265014.560000
  15604  15605     1   0.15375 251793.120000
  15604  15612     1   0.14233 265014.560000
  15605  15606     1   0.15375 251793.120000
  15605  15611     1   0.14233 265014.560000
  15606  15610     1   0.14316 258236.480000
  15606  15622     1   0.14316 258236.480000
  15614  15620     1   0.14233 265014.560000
  15623  15624     1   0.15375 251793.120000
  15623  15637     1   0.15375 251793.120000
  15623  15645     1   0.14316 258236.480000
  15624  15627     1   0.15375 251793.120000
  15624  15636     1   0.14233 265014.560000
  15627  15628     1   0.15375 251793.120000
  15627  15635     1   0.14233 265014.560000
  15628  15629     1   0.15375 251793.120000
  15628  15634     1   0.14233 265014.560000
  15629  15633     1   0.14316 258236.480000
  15629  15645     1   0.14316 258236.480000
  15637  15643     1   0.14233 265014.560000
  15646  15647     1   0.15375 251793.120000
  15646  15660     1   0.15375 251793.120000
  15646  15668     1   0.14316 258236.480000
  15647  15650     1   0.15375 251793.120000
  15647  15659     1   0.14233 265014.560000
  15650  15651     1   0.15375 251793.120000
  15650  15658     1   0.14233 265014.560000
  15651  15652     1   0.15375 251793.120000
  15651  15657     1   0.14233 265014.560000
  15652  15656     1   0.14316 258236.480000
  15652  15668     1   0.14316 258236.480000
  15660  15666     1   0.14233 265014.560000
  15669  15670     1   0.15375 251793.120000
  15669  15683     1   0.15375 251793.120000
  15669  15691     1   0.14316 258236.480000
  15670  15673     1   0.15375 251793.120000
  15670  15682     1   0.14233 265014.560000
  15673  15674     1   0.15375 251793.120000
  15673  15681     1   0.14233 265014.560000
  15674  15675     1   0.15375 251793.120000
  15674  15680     1   0.14233 265014.560000
  15675  15679     1   0.14316 258236.480000
  15675  15691     1   0.14316 258236.480000
  15683  15689     1   0.14233 265014.560000
  15692  15693     1   0.15375 251793.120000
  15692  15706     1   0.15375 251793.120000
  15692  15714     1   0.14316 258236.480000
  15693  15696     1   0.15375 251793.120000
  15693  15705     1   0.14233 265014.560000
  15696  15697     1   0.15375 251793.120000
  15696  15704     1   0.14233 265014.560000
  15697  15698     1   0.15375 251793.120000
  15697  15703     1   0.14233 265014.560000
  15698  15702     1   0.14316 258236.480000
  15698  15714     1   0.14316 258236.480000
  15706  15712     1   0.14233 265014.560000
  15715  15716     1   0.15375 251793.120000
  15715  15729     1   0.15375 251793.120000
  15715  15737     1   0.14316 258236.480000
  15716  15719     1   0.15375 251793.120000
  15716  15728     1   0.14233 265014.560000
  15719  15720     1   0.15375 251793.120000
  15719  15727     1   0.14233 265014.560000
  15720  15721     1   0.15375 251793.120000
  15720  15726     1   0.14233 265014.560000
  15721  15725     1   0.14316 258236.480000
  15721  15737     1   0.14316 258236.480000
  15729  15735     1   0.14233 265014.560000
  15738  15739     1   0.15375 251793.120000
  15738  15752     1   0.15375 251793.120000
  15738  15760     1   0.14316 258236.480000
  15739  15742     1   0.15375 251793.120000
  15739  15751     1   0.14233 265014.560000
  15742  15743     1   0.15375 251793.120000
  15742  15750     1   0.14233 265014.560000
  15743  15744     1   0.15375 251793.120000
  15743  15749     1   0.14233 265014.560000
  15744  15748     1   0.14316 258236.480000
  15744  15760     1   0.14316 258236.480000
  15752  15758     1   0.14233 265014.560000
  15761  15762     1   0.15375 251793.120000
  15761  15775     1   0.15375 251793.120000
  15761  15783     1   0.14316 258236.480000
  15762  15765     1   0.15375 251793.120000
  15762  15774     1   0.14233 265014.560000
  15765  15766     1   0.15375 251793.120000
  15765  15773     1   0.14233 265014.560000
  15766  15767     1   0.15375 251793.120000
  15766  15772     1   0.14233 265014.560000
  15767  15771     1   0.14316 258236.480000
  15767  15783     1   0.14316 258236.480000
  15775  15781     1   0.14233 265014.560000
  15784  15785     1   0.15375 251793.120000
  15784  15798     1   0.15375 251793.120000
  15784  15806     1   0.14316 258236.480000
  15785  15788     1   0.15375 251793.120000
  15785  15797     1   0.14233 265014.560000
  15788  15789     1   0.15375 251793.120000
  15788  15796     1   0.14233 265014.560000
  15789  15790     1   0.15375 251793.120000
  15789  15795     1   0.14233 265014.560000
  15790  15794     1   0.14316 258236.480000
  15790  15806     1   0.14316 258236.480000
  15798  15804     1   0.14233 265014.560000
  15807  15808     1   0.15375 251793.120000
  15807  15821     1   0.15375 251793.120000
  15807  15829     1   0.14316 258236.480000
  15808  15811     1   0.15375 251793.120000
  15808  15820     1   0.14233 265014.560000
  15811  15812     1   0.15375 251793.120000
  15811  15819     1   0.14233 265014.560000
  15812  15813     1   0.15375 251793.120000
  15812  15818     1   0.14233 265014.560000
  15813  15817     1   0.14316 258236.480000
  15813  15829     1   0.14316 258236.480000
  15821  15827     1   0.14233 265014.560000
  15830  15831     1   0.15375 251793.120000
  15830  15844     1   0.15375 251793.120000
  15830  15852     1   0.14316 258236.480000
  15831  15834     1   0.15375 251793.120000
  15831  15843     1   0.14233 265014.560000
  15834  15835     1   0.15375 251793.120000
  15834  15842     1   0.14233 265014.560000
  15835  15836     1   0.15375 251793.120000
  15835  15841     1   0.14233 265014.560000
  15836  15840     1   0.14316 258236.480000
  15836  15852     1   0.14316 258236.480000
  15844  15850     1   0.14233 265014.560000
  15853  15854     1   0.15375 251793.120000
  15853  15867     1   0.15375 251793.120000
  15853  15875     1   0.14316 258236.480000
  15854  15857     1   0.15375 251793.120000
  15854  15866     1   0.14233 265014.560000
  15857  15858     1   0.15375 251793.120000
  15857  15865     1   0.14233 265014.560000
  15858  15859     1   0.15375 251793.120000
  15858  15864     1   0.14233 265014.560000
  15859  15863     1   0.14316 258236.480000
  15859  15875     1   0.14316 258236.480000
  15867  15873     1   0.14233 265014.560000
  15876  15877     1   0.15375 251793.120000
  15876  15890     1   0.15375 251793.120000
  15876  15898     1   0.14316 258236.480000
  15877  15880     1   0.15375 251793.120000
  15877  15889     1   0.14233 265014.560000
  15880  15881     1   0.15375 251793.120000
  15880  15888     1   0.14233 265014.560000
  15881  15882     1   0.15375 251793.120000
  15881  15887     1   0.14233 265014.560000
  15882  15886     1   0.14316 258236.480000
  15882  15898     1   0.14316 258236.480000
  15890  15896     1   0.14233 265014.560000
  15899  15900     1   0.15375 251793.120000
  15899  15913     1   0.15375 251793.120000
  15899  15921     1   0.14316 258236.480000
  15900  15903     1   0.15375 251793.120000
  15900  15912     1   0.14233 265014.560000
  15903  15904     1   0.15375 251793.120000
  15903  15911     1   0.14233 265014.560000
  15904  15905     1   0.15375 251793.120000
  15904  15910     1   0.14233 265014.560000
  15905  15909     1   0.14316 258236.480000
  15905  15921     1   0.14316 258236.480000
  15913  15919     1   0.14233 265014.560000
  15922  15923     1   0.15375 251793.120000
  15922  15936     1   0.15375 251793.120000
  15922  15944     1   0.14316 258236.480000
  15923  15926     1   0.15375 251793.120000
  15923  15935     1   0.14233 265014.560000
  15926  15927     1   0.15375 251793.120000
  15926  15934     1   0.14233 265014.560000
  15927  15928     1   0.15375 251793.120000
  15927  15933     1   0.14233 265014.560000
  15928  15932     1   0.14316 258236.480000
  15928  15944     1   0.14316 258236.480000
  15936  15942     1   0.14233 265014.560000
  15945  15946     1   0.15375 251793.120000
  15945  15959     1   0.15375 251793.120000
  15945  15967     1   0.14316 258236.480000
  15946  15949     1   0.15375 251793.120000
  15946  15958     1   0.14233 265014.560000
  15949  15950     1   0.15375 251793.120000
  15949  15957     1   0.14233 265014.560000
  15950  15951     1   0.15375 251793.120000
  15950  15956     1   0.14233 265014.560000
  15951  15955     1   0.14316 258236.480000
  15951  15967     1   0.14316 258236.480000
  15959  15965     1   0.14233 265014.560000
  15968  15969     1   0.15375 251793.120000
  15968  15982     1   0.15375 251793.120000
  15968  15990     1   0.14316 258236.480000
  15969  15972     1   0.15375 251793.120000
  15969  15981     1   0.14233 265014.560000
  15972  15973     1   0.15375 251793.120000
  15972  15980     1   0.14233 265014.560000
  15973  15974     1   0.15375 251793.120000
  15973  15979     1   0.14233 265014.560000
  15974  15978     1   0.14316 258236.480000
  15974  15990     1   0.14316 258236.480000
  15982  15988     1   0.14233 265014.560000
  15991  15992     1   0.15375 251793.120000
  15991  16005     1   0.15375 251793.120000
  15991  16013     1   0.14316 258236.480000
  15992  15995     1   0.15375 251793.120000
  15992  16004     1   0.14233 265014.560000
  15995  15996     1   0.15375 251793.120000
  15995  16003     1   0.14233 265014.560000
  15996  15997     1   0.15375 251793.120000
  15996  16002     1   0.14233 265014.560000
  15997  16001     1   0.14316 258236.480000
  15997  16013     1   0.14316 258236.480000
  16005  16011     1   0.14233 265014.560000
  16014  16015     1   0.15375 251793.120000
  16014  16028     1   0.15375 251793.120000
  16014  16036     1   0.14316 258236.480000
  16015  16018     1   0.15375 251793.120000
  16015  16027     1   0.14233 265014.560000
  16018  16019     1   0.15375 251793.120000
  16018  16026     1   0.14233 265014.560000
  16019  16020     1   0.15375 251793.120000
  16019  16025     1   0.14233 265014.560000
  16020  16024     1   0.14316 258236.480000
  16020  16036     1   0.14316 258236.480000
  16028  16034     1   0.14233 265014.560000
  16037  16038     1   0.15375 251793.120000
  16037  16051     1   0.15375 251793.120000
  16037  16059     1   0.14316 258236.480000
  16038  16041     1   0.15375 251793.120000
  16038  16050     1   0.14233 265014.560000
  16041  16042     1   0.15375 251793.120000
  16041  16049     1   0.14233 265014.560000
  16042  16043     1   0.15375 251793.120000
  16042  16048     1   0.14233 265014.560000
  16043  16047     1   0.14316 258236.480000
  16043  16059     1   0.14316 258236.480000
  16051  16057     1   0.14233 265014.560000
  16060  16061     1   0.15375 251793.120000
  16060  16074     1   0.15375 251793.120000
  16060  16082     1   0.14316 258236.480000
  16061  16064     1   0.15375 251793.120000
  16061  16073     1   0.14233 265014.560000
  16064  16065     1   0.15375 251793.120000
  16064  16072     1   0.14233 265014.560000
  16065  16066     1   0.15375 251793.120000
  16065  16071     1   0.14233 265014.560000
  16066  16070     1   0.14316 258236.480000
  16066  16082     1   0.14316 258236.480000
  16074  16080     1   0.14233 265014.560000
  16083  16084     1   0.15375 251793.120000
  16083  16097     1   0.15375 251793.120000
  16083  16105     1   0.14316 258236.480000
  16084  16087     1   0.15375 251793.120000
  16084  16096     1   0.14233 265014.560000
  16087  16088     1   0.15375 251793.120000
  16087  16095     1   0.14233 265014.560000
  16088  16089     1   0.15375 251793.120000
  16088  16094     1   0.14233 265014.560000
  16089  16093     1   0.14316 258236.480000
  16089  16105     1   0.14316 258236.480000
  16097  16103     1   0.14233 265014.560000
  16106  16107     1   0.15375 251793.120000
  16106  16120     1   0.15375 251793.120000
  16106  16128     1   0.14316 258236.480000
  16107  16110     1   0.15375 251793.120000
  16107  16119     1   0.14233 265014.560000
  16110  16111     1   0.15375 251793.120000
  16110  16118     1   0.14233 265014.560000
  16111  16112     1   0.15375 251793.120000
  16111  16117     1   0.14233 265014.560000
  16112  16116     1   0.14316 258236.480000
  16112  16128     1   0.14316 258236.480000
  16120  16126     1   0.14233 265014.560000
  16129  16130     1   0.15375 251793.120000
  16129  16143     1   0.15375 251793.120000
  16129  16151     1   0.14316 258236.480000
  16130  16133     1   0.15375 251793.120000
  16130  16142     1   0.14233 265014.560000
  16133  16134     1   0.15375 251793.120000
  16133  16141     1   0.14233 265014.560000
  16134  16135     1   0.15375 251793.120000
  16134  16140     1   0.14233 265014.560000
  16135  16139     1   0.14316 258236.480000
  16135  16151     1   0.14316 258236.480000
  16143  16149     1   0.14233 265014.560000
  16152  16153     1   0.15375 251793.120000
  16152  16166     1   0.15375 251793.120000
  16152  16174     1   0.14316 258236.480000
  16153  16156     1   0.15375 251793.120000
  16153  16165     1   0.14233 265014.560000
  16156  16157     1   0.15375 251793.120000
  16156  16164     1   0.14233 265014.560000
  16157  16158     1   0.15375 251793.120000
  16157  16163     1   0.14233 265014.560000
  16158  16162     1   0.14316 258236.480000
  16158  16174     1   0.14316 258236.480000
  16166  16172     1   0.14233 265014.560000
  16175  16176     1   0.15375 251793.120000
  16175  16189     1   0.15375 251793.120000
  16175  16197     1   0.14316 258236.480000
  16176  16179     1   0.15375 251793.120000
  16176  16188     1   0.14233 265014.560000
  16179  16180     1   0.15375 251793.120000
  16179  16187     1   0.14233 265014.560000
  16180  16181     1   0.15375 251793.120000
  16180  16186     1   0.14233 265014.560000
  16181  16185     1   0.14316 258236.480000
  16181  16197     1   0.14316 258236.480000
  16189  16195     1   0.14233 265014.560000
  16198  16199     1   0.15375 251793.120000
  16198  16212     1   0.15375 251793.120000
  16198  16220     1   0.14316 258236.480000
  16199  16202     1   0.15375 251793.120000
  16199  16211     1   0.14233 265014.560000
  16202  16203     1   0.15375 251793.120000
  16202  16210     1   0.14233 265014.560000
  16203  16204     1   0.15375 251793.120000
  16203  16209     1   0.14233 265014.560000
  16204  16208     1   0.14316 258236.480000
  16204  16220     1   0.14316 258236.480000
  16212  16218     1   0.14233 265014.560000
  16221  16222     1   0.15375 251793.120000
  16221  16235     1   0.15375 251793.120000
  16221  16243     1   0.14316 258236.480000
  16222  16225     1   0.15375 251793.120000
  16222  16234     1   0.14233 265014.560000
  16225  16226     1   0.15375 251793.120000
  16225  16233     1   0.14233 265014.560000
  16226  16227     1   0.15375 251793.120000
  16226  16232     1   0.14233 265014.560000
  16227  16231     1   0.14316 258236.480000
  16227  16243     1   0.14316 258236.480000
  16235  16241     1   0.14233 265014.560000
  16244  16245     1   0.15375 251793.120000
  16244  16258     1   0.15375 251793.120000
  16244  16266     1   0.14316 258236.480000
  16245  16248     1   0.15375 251793.120000
  16245  16257     1   0.14233 265014.560000
  16248  16249     1   0.15375 251793.120000
  16248  16256     1   0.14233 265014.560000
  16249  16250     1   0.15375 251793.120000
  16249  16255     1   0.14233 265014.560000
  16250  16254     1   0.14316 258236.480000
  16250  16266     1   0.14316 258236.480000
  16258  16264     1   0.14233 265014.560000
  16267  16268     1   0.15375 251793.120000
  16267  16281     1   0.15375 251793.120000
  16267  16289     1   0.14316 258236.480000
  16268  16271     1   0.15375 251793.120000
  16268  16280     1   0.14233 265014.560000
  16271  16272     1   0.15375 251793.120000
  16271  16279     1   0.14233 265014.560000
  16272  16273     1   0.15375 251793.120000
  16272  16278     1   0.14233 265014.560000
  16273  16277     1   0.14316 258236.480000
  16273  16289     1   0.14316 258236.480000
  16281  16287     1   0.14233 265014.560000
  16290  16291     1   0.15375 251793.120000
  16290  16304     1   0.15375 251793.120000
  16290  16312     1   0.14316 258236.480000
  16291  16294     1   0.15375 251793.120000
  16291  16303     1   0.14233 265014.560000
  16294  16295     1   0.15375 251793.120000
  16294  16302     1   0.14233 265014.560000
  16295  16296     1   0.15375 251793.120000
  16295  16301     1   0.14233 265014.560000
  16296  16300     1   0.14316 258236.480000
  16296  16312     1   0.14316 258236.480000
  16304  16310     1   0.14233 265014.560000
  16313  16314     1   0.15375 251793.120000
  16313  16327     1   0.15375 251793.120000
  16313  16335     1   0.14316 258236.480000
  16314  16317     1   0.15375 251793.120000
  16314  16326     1   0.14233 265014.560000
  16317  16318     1   0.15375 251793.120000
  16317  16325     1   0.14233 265014.560000
  16318  16319     1   0.15375 251793.120000
  16318  16324     1   0.14233 265014.560000
  16319  16323     1   0.14316 258236.480000
  16319  16335     1   0.14316 258236.480000
  16327  16333     1   0.14233 265014.560000
  16336  16337     1   0.15375 251793.120000
  16336  16350     1   0.15375 251793.120000
  16336  16358     1   0.14316 258236.480000
  16337  16340     1   0.15375 251793.120000
  16337  16349     1   0.14233 265014.560000
  16340  16341     1   0.15375 251793.120000
  16340  16348     1   0.14233 265014.560000
  16341  16342     1   0.15375 251793.120000
  16341  16347     1   0.14233 265014.560000
  16342  16346     1   0.14316 258236.480000
  16342  16358     1   0.14316 258236.480000
  16350  16356     1   0.14233 265014.560000
  16359  16360     1   0.15375 251793.120000
  16359  16373     1   0.15375 251793.120000
  16359  16381     1   0.14316 258236.480000
  16360  16363     1   0.15375 251793.120000
  16360  16372     1   0.14233 265014.560000
  16363  16364     1   0.15375 251793.120000
  16363  16371     1   0.14233 265014.560000
  16364  16365     1   0.15375 251793.120000
  16364  16370     1   0.14233 265014.560000
  16365  16369     1   0.14316 258236.480000
  16365  16381     1   0.14316 258236.480000
  16373  16379     1   0.14233 265014.560000
  16382  16383     1   0.15375 251793.120000
  16382  16396     1   0.15375 251793.120000
  16382  16404     1   0.14316 258236.480000
  16383  16386     1   0.15375 251793.120000
  16383  16395     1   0.14233 265014.560000
  16386  16387     1   0.15375 251793.120000
  16386  16394     1   0.14233 265014.560000
  16387  16388     1   0.15375 251793.120000
  16387  16393     1   0.14233 265014.560000
  16388  16392     1   0.14316 258236.480000
  16388  16404     1   0.14316 258236.480000
  16396  16402     1   0.14233 265014.560000
  16405  16406     1   0.15375 251793.120000
  16405  16419     1   0.15375 251793.120000
  16405  16427     1   0.14316 258236.480000
  16406  16409     1   0.15375 251793.120000
  16406  16418     1   0.14233 265014.560000
  16409  16410     1   0.15375 251793.120000
  16409  16417     1   0.14233 265014.560000
  16410  16411     1   0.15375 251793.120000
  16410  16416     1   0.14233 265014.560000
  16411  16415     1   0.14316 258236.480000
  16411  16427     1   0.14316 258236.480000
  16419  16425     1   0.14233 265014.560000
  16428  16429     1   0.15375 251793.120000
  16428  16442     1   0.15375 251793.120000
  16428  16450     1   0.14316 258236.480000
  16429  16432     1   0.15375 251793.120000
  16429  16441     1   0.14233 265014.560000
  16432  16433     1   0.15375 251793.120000
  16432  16440     1   0.14233 265014.560000
  16433  16434     1   0.15375 251793.120000
  16433  16439     1   0.14233 265014.560000
  16434  16438     1   0.14316 258236.480000
  16434  16450     1   0.14316 258236.480000
  16442  16448     1   0.14233 265014.560000
  16451  16452     1   0.15375 251793.120000
  16451  16465     1   0.15375 251793.120000
  16451  16473     1   0.14316 258236.480000
  16452  16455     1   0.15375 251793.120000
  16452  16464     1   0.14233 265014.560000
  16455  16456     1   0.15375 251793.120000
  16455  16463     1   0.14233 265014.560000
  16456  16457     1   0.15375 251793.120000
  16456  16462     1   0.14233 265014.560000
  16457  16461     1   0.14316 258236.480000
  16457  16473     1   0.14316 258236.480000
  16465  16471     1   0.14233 265014.560000
  16474  16475     1   0.15375 251793.120000
  16474  16488     1   0.15375 251793.120000
  16474  16496     1   0.14316 258236.480000
  16475  16478     1   0.15375 251793.120000
  16475  16487     1   0.14233 265014.560000
  16478  16479     1   0.15375 251793.120000
  16478  16486     1   0.14233 265014.560000
  16479  16480     1   0.15375 251793.120000
  16479  16485     1   0.14233 265014.560000
  16480  16484     1   0.14316 258236.480000
  16480  16496     1   0.14316 258236.480000
  16488  16494     1   0.14233 265014.560000
  16497  16498     1   0.15375 251793.120000
  16497  16511     1   0.15375 251793.120000
  16497  16519     1   0.14316 258236.480000
  16498  16501     1   0.15375 251793.120000
  16498  16510     1   0.14233 265014.560000
  16501  16502     1   0.15375 251793.120000
  16501  16509     1   0.14233 265014.560000
  16502  16503     1   0.15375 251793.120000
  16502  16508     1   0.14233 265014.560000
  16503  16507     1   0.14316 258236.480000
  16503  16519     1   0.14316 258236.480000
  16511  16517     1   0.14233 265014.560000
  16520  16521     1   0.15375 251793.120000
  16520  16534     1   0.15375 251793.120000
  16520  16542     1   0.14316 258236.480000
  16521  16524     1   0.15375 251793.120000
  16521  16533     1   0.14233 265014.560000
  16524  16525     1   0.15375 251793.120000
  16524  16532     1   0.14233 265014.560000
  16525  16526     1   0.15375 251793.120000
  16525  16531     1   0.14233 265014.560000
  16526  16530     1   0.14316 258236.480000
  16526  16542     1   0.14316 258236.480000
  16534  16540     1   0.14233 265014.560000
  16543  16544     1   0.15375 251793.120000
  16543  16557     1   0.15375 251793.120000
  16543  16565     1   0.14316 258236.480000
  16544  16547     1   0.15375 251793.120000
  16544  16556     1   0.14233 265014.560000
  16547  16548     1   0.15375 251793.120000
  16547  16555     1   0.14233 265014.560000
  16548  16549     1   0.15375 251793.120000
  16548  16554     1   0.14233 265014.560000
  16549  16553     1   0.14316 258236.480000
  16549  16565     1   0.14316 258236.480000
  16557  16563     1   0.14233 265014.560000
  16566  16567     1   0.15375 251793.120000
  16566  16580     1   0.15375 251793.120000
  16566  16588     1   0.14316 258236.480000
  16567  16570     1   0.15375 251793.120000
  16567  16579     1   0.14233 265014.560000
  16570  16571     1   0.15375 251793.120000
  16570  16578     1   0.14233 265014.560000
  16571  16572     1   0.15375 251793.120000
  16571  16577     1   0.14233 265014.560000
  16572  16576     1   0.14316 258236.480000
  16572  16588     1   0.14316 258236.480000
  16580  16586     1   0.14233 265014.560000
  16589  16590     1   0.15375 251793.120000
  16589  16603     1   0.15375 251793.120000
  16589  16611     1   0.14316 258236.480000
  16590  16593     1   0.15375 251793.120000
  16590  16602     1   0.14233 265014.560000
  16593  16594     1   0.15375 251793.120000
  16593  16601     1   0.14233 265014.560000
  16594  16595     1   0.15375 251793.120000
  16594  16600     1   0.14233 265014.560000
  16595  16599     1   0.14316 258236.480000
  16595  16611     1   0.14316 258236.480000
  16603  16609     1   0.14233 265014.560000
  16612  16613     1   0.15375 251793.120000
  16612  16626     1   0.15375 251793.120000
  16612  16634     1   0.14316 258236.480000
  16613  16616     1   0.15375 251793.120000
  16613  16625     1   0.14233 265014.560000
  16616  16617     1   0.15375 251793.120000
  16616  16624     1   0.14233 265014.560000
  16617  16618     1   0.15375 251793.120000
  16617  16623     1   0.14233 265014.560000
  16618  16622     1   0.14316 258236.480000
  16618  16634     1   0.14316 258236.480000
  16626  16632     1   0.14233 265014.560000
  16635  16636     1   0.15375 251793.120000
  16635  16649     1   0.15375 251793.120000
  16635  16657     1   0.14316 258236.480000
  16636  16639     1   0.15375 251793.120000
  16636  16648     1   0.14233 265014.560000
  16639  16640     1   0.15375 251793.120000
  16639  16647     1   0.14233 265014.560000
  16640  16641     1   0.15375 251793.120000
  16640  16646     1   0.14233 265014.560000
  16641  16645     1   0.14316 258236.480000
  16641  16657     1   0.14316 258236.480000
  16649  16655     1   0.14233 265014.560000
  16658  16659     1   0.15375 251793.120000
  16658  16672     1   0.15375 251793.120000
  16658  16680     1   0.14316 258236.480000
  16659  16662     1   0.15375 251793.120000
  16659  16671     1   0.14233 265014.560000
  16662  16663     1   0.15375 251793.120000
  16662  16670     1   0.14233 265014.560000
  16663  16664     1   0.15375 251793.120000
  16663  16669     1   0.14233 265014.560000
  16664  16668     1   0.14316 258236.480000
  16664  16680     1   0.14316 258236.480000
  16672  16678     1   0.14233 265014.560000
  16681  16682     1   0.15375 251793.120000
  16681  16695     1   0.15375 251793.120000
  16681  16703     1   0.14316 258236.480000
  16682  16685     1   0.15375 251793.120000
  16682  16694     1   0.14233 265014.560000
  16685  16686     1   0.15375 251793.120000
  16685  16693     1   0.14233 265014.560000
  16686  16687     1   0.15375 251793.120000
  16686  16692     1   0.14233 265014.560000
  16687  16691     1   0.14316 258236.480000
  16687  16703     1   0.14316 258236.480000
  16695  16701     1   0.14233 265014.560000
  16704  16705     1   0.15375 251793.120000
  16704  16718     1   0.15375 251793.120000
  16704  16726     1   0.14316 258236.480000
  16705  16708     1   0.15375 251793.120000
  16705  16717     1   0.14233 265014.560000
  16708  16709     1   0.15375 251793.120000
  16708  16716     1   0.14233 265014.560000
  16709  16710     1   0.15375 251793.120000
  16709  16715     1   0.14233 265014.560000
  16710  16714     1   0.14316 258236.480000
  16710  16726     1   0.14316 258236.480000
  16718  16724     1   0.14233 265014.560000
  16727  16728     1   0.15375 251793.120000
  16727  16741     1   0.15375 251793.120000
  16727  16749     1   0.14316 258236.480000
  16728  16731     1   0.15375 251793.120000
  16728  16740     1   0.14233 265014.560000
  16731  16732     1   0.15375 251793.120000
  16731  16739     1   0.14233 265014.560000
  16732  16733     1   0.15375 251793.120000
  16732  16738     1   0.14233 265014.560000
  16733  16737     1   0.14316 258236.480000
  16733  16749     1   0.14316 258236.480000
  16741  16747     1   0.14233 265014.560000
  16750  16751     1   0.15375 251793.120000
  16750  16764     1   0.15375 251793.120000
  16750  16772     1   0.14316 258236.480000
  16751  16754     1   0.15375 251793.120000
  16751  16763     1   0.14233 265014.560000
  16754  16755     1   0.15375 251793.120000
  16754  16762     1   0.14233 265014.560000
  16755  16756     1   0.15375 251793.120000
  16755  16761     1   0.14233 265014.560000
  16756  16760     1   0.14316 258236.480000
  16756  16772     1   0.14316 258236.480000
  16764  16770     1   0.14233 265014.560000
  16773  16774     1   0.15375 251793.120000
  16773  16787     1   0.15375 251793.120000
  16773  16795     1   0.14316 258236.480000
  16774  16777     1   0.15375 251793.120000
  16774  16786     1   0.14233 265014.560000
  16777  16778     1   0.15375 251793.120000
  16777  16785     1   0.14233 265014.560000
  16778  16779     1   0.15375 251793.120000
  16778  16784     1   0.14233 265014.560000
  16779  16783     1   0.14316 258236.480000
  16779  16795     1   0.14316 258236.480000
  16787  16793     1   0.14233 265014.560000
  16796  16797     1   0.15375 251793.120000
  16796  16810     1   0.15375 251793.120000
  16796  16818     1   0.14316 258236.480000
  16797  16800     1   0.15375 251793.120000
  16797  16809     1   0.14233 265014.560000
  16800  16801     1   0.15375 251793.120000
  16800  16808     1   0.14233 265014.560000
  16801  16802     1   0.15375 251793.120000
  16801  16807     1   0.14233 265014.560000
  16802  16806     1   0.14316 258236.480000
  16802  16818     1   0.14316 258236.480000
  16810  16816     1   0.14233 265014.560000
  16819  16820     1   0.15375 251793.120000
  16819  16833     1   0.15375 251793.120000
  16819  16841     1   0.14316 258236.480000
  16820  16823     1   0.15375 251793.120000
  16820  16832     1   0.14233 265014.560000
  16823  16824     1   0.15375 251793.120000
  16823  16831     1   0.14233 265014.560000
  16824  16825     1   0.15375 251793.120000
  16824  16830     1   0.14233 265014.560000
  16825  16829     1   0.14316 258236.480000
  16825  16841     1   0.14316 258236.480000
  16833  16839     1   0.14233 265014.560000
  16842  16843     1   0.15375 251793.120000
  16842  16856     1   0.15375 251793.120000
  16842  16864     1   0.14316 258236.480000
  16843  16846     1   0.15375 251793.120000
  16843  16855     1   0.14233 265014.560000
  16846  16847     1   0.15375 251793.120000
  16846  16854     1   0.14233 265014.560000
  16847  16848     1   0.15375 251793.120000
  16847  16853     1   0.14233 265014.560000
  16848  16852     1   0.14316 258236.480000
  16848  16864     1   0.14316 258236.480000
  16856  16862     1   0.14233 265014.560000
  16865  16866     1   0.15375 251793.120000
  16865  16879     1   0.15375 251793.120000
  16865  16887     1   0.14316 258236.480000
  16866  16869     1   0.15375 251793.120000
  16866  16878     1   0.14233 265014.560000
  16869  16870     1   0.15375 251793.120000
  16869  16877     1   0.14233 265014.560000
  16870  16871     1   0.15375 251793.120000
  16870  16876     1   0.14233 265014.560000
  16871  16875     1   0.14316 258236.480000
  16871  16887     1   0.14316 258236.480000
  16879  16885     1   0.14233 265014.560000
  16888  16889     1   0.15375 251793.120000
  16888  16902     1   0.15375 251793.120000
  16888  16910     1   0.14316 258236.480000
  16889  16892     1   0.15375 251793.120000
  16889  16901     1   0.14233 265014.560000
  16892  16893     1   0.15375 251793.120000
  16892  16900     1   0.14233 265014.560000
  16893  16894     1   0.15375 251793.120000
  16893  16899     1   0.14233 265014.560000
  16894  16898     1   0.14316 258236.480000
  16894  16910     1   0.14316 258236.480000
  16902  16908     1   0.14233 265014.560000
  16911  16912     1   0.15375 251793.120000
  16911  16925     1   0.15375 251793.120000
  16911  16933     1   0.14316 258236.480000
  16912  16915     1   0.15375 251793.120000
  16912  16924     1   0.14233 265014.560000
  16915  16916     1   0.15375 251793.120000
  16915  16923     1   0.14233 265014.560000
  16916  16917     1   0.15375 251793.120000
  16916  16922     1   0.14233 265014.560000
  16917  16921     1   0.14316 258236.480000
  16917  16933     1   0.14316 258236.480000
  16925  16931     1   0.14233 265014.560000
  16934  16935     1   0.15375 251793.120000
  16934  16948     1   0.15375 251793.120000
  16934  16956     1   0.14316 258236.480000
  16935  16938     1   0.15375 251793.120000
  16935  16947     1   0.14233 265014.560000
  16938  16939     1   0.15375 251793.120000
  16938  16946     1   0.14233 265014.560000
  16939  16940     1   0.15375 251793.120000
  16939  16945     1   0.14233 265014.560000
  16940  16944     1   0.14316 258236.480000
  16940  16956     1   0.14316 258236.480000
  16948  16954     1   0.14233 265014.560000
  16957  16958     1   0.15375 251793.120000
  16957  16971     1   0.15375 251793.120000
  16957  16979     1   0.14316 258236.480000
  16958  16961     1   0.15375 251793.120000
  16958  16970     1   0.14233 265014.560000
  16961  16962     1   0.15375 251793.120000
  16961  16969     1   0.14233 265014.560000
  16962  16963     1   0.15375 251793.120000
  16962  16968     1   0.14233 265014.560000
  16963  16967     1   0.14316 258236.480000
  16963  16979     1   0.14316 258236.480000
  16971  16977     1   0.14233 265014.560000
  16980  16981     1   0.15375 251793.120000
  16980  16994     1   0.15375 251793.120000
  16980  17002     1   0.14316 258236.480000
  16981  16984     1   0.15375 251793.120000
  16981  16993     1   0.14233 265014.560000
  16984  16985     1   0.15375 251793.120000
  16984  16992     1   0.14233 265014.560000
  16985  16986     1   0.15375 251793.120000
  16985  16991     1   0.14233 265014.560000
  16986  16990     1   0.14316 258236.480000
  16986  17002     1   0.14316 258236.480000
  16994  17000     1   0.14233 265014.560000
  17003  17004     1   0.15375 251793.120000
  17003  17017     1   0.15375 251793.120000
  17003  17025     1   0.14316 258236.480000
  17004  17007     1   0.15375 251793.120000
  17004  17016     1   0.14233 265014.560000
  17007  17008     1   0.15375 251793.120000
  17007  17015     1   0.14233 265014.560000
  17008  17009     1   0.15375 251793.120000
  17008  17014     1   0.14233 265014.560000
  17009  17013     1   0.14316 258236.480000
  17009  17025     1   0.14316 258236.480000
  17017  17023     1   0.14233 265014.560000
  17026  17027     1   0.15375 251793.120000
  17026  17040     1   0.15375 251793.120000
  17026  17048     1   0.14316 258236.480000
  17027  17030     1   0.15375 251793.120000
  17027  17039     1   0.14233 265014.560000
  17030  17031     1   0.15375 251793.120000
  17030  17038     1   0.14233 265014.560000
  17031  17032     1   0.15375 251793.120000
  17031  17037     1   0.14233 265014.560000
  17032  17036     1   0.14316 258236.480000
  17032  17048     1   0.14316 258236.480000
  17040  17046     1   0.14233 265014.560000
  17049  17050     1   0.15375 251793.120000
  17049  17063     1   0.15375 251793.120000
  17049  17071     1   0.14316 258236.480000
  17050  17053     1   0.15375 251793.120000
  17050  17062     1   0.14233 265014.560000
  17053  17054     1   0.15375 251793.120000
  17053  17061     1   0.14233 265014.560000
  17054  17055     1   0.15375 251793.120000
  17054  17060     1   0.14233 265014.560000
  17055  17059     1   0.14316 258236.480000
  17055  17071     1   0.14316 258236.480000
  17063  17069     1   0.14233 265014.560000
  17072  17073     1   0.15375 251793.120000
  17072  17086     1   0.15375 251793.120000
  17072  17094     1   0.14316 258236.480000
  17073  17076     1   0.15375 251793.120000
  17073  17085     1   0.14233 265014.560000
  17076  17077     1   0.15375 251793.120000
  17076  17084     1   0.14233 265014.560000
  17077  17078     1   0.15375 251793.120000
  17077  17083     1   0.14233 265014.560000
  17078  17082     1   0.14316 258236.480000
  17078  17094     1   0.14316 258236.480000
  17086  17092     1   0.14233 265014.560000
  17095  17096     1   0.15375 251793.120000
  17095  17109     1   0.15375 251793.120000
  17095  17117     1   0.14316 258236.480000
  17096  17099     1   0.15375 251793.120000
  17096  17108     1   0.14233 265014.560000
  17099  17100     1   0.15375 251793.120000
  17099  17107     1   0.14233 265014.560000
  17100  17101     1   0.15375 251793.120000
  17100  17106     1   0.14233 265014.560000
  17101  17105     1   0.14316 258236.480000
  17101  17117     1   0.14316 258236.480000
  17109  17115     1   0.14233 265014.560000
  17118  17119     1   0.15375 251793.120000
  17118  17132     1   0.15375 251793.120000
  17118  17140     1   0.14316 258236.480000
  17119  17122     1   0.15375 251793.120000
  17119  17131     1   0.14233 265014.560000
  17122  17123     1   0.15375 251793.120000
  17122  17130     1   0.14233 265014.560000
  17123  17124     1   0.15375 251793.120000
  17123  17129     1   0.14233 265014.560000
  17124  17128     1   0.14316 258236.480000
  17124  17140     1   0.14316 258236.480000
  17132  17138     1   0.14233 265014.560000
  17141  17142     1   0.15375 251793.120000
  17141  17155     1   0.15375 251793.120000
  17141  17163     1   0.14316 258236.480000
  17142  17145     1   0.15375 251793.120000
  17142  17154     1   0.14233 265014.560000
  17145  17146     1   0.15375 251793.120000
  17145  17153     1   0.14233 265014.560000
  17146  17147     1   0.15375 251793.120000
  17146  17152     1   0.14233 265014.560000
  17147  17151     1   0.14316 258236.480000
  17147  17163     1   0.14316 258236.480000
  17155  17161     1   0.14233 265014.560000
  17164  17165     1   0.15375 251793.120000
  17164  17178     1   0.15375 251793.120000
  17164  17186     1   0.14316 258236.480000
  17165  17168     1   0.15375 251793.120000
  17165  17177     1   0.14233 265014.560000
  17168  17169     1   0.15375 251793.120000
  17168  17176     1   0.14233 265014.560000
  17169  17170     1   0.15375 251793.120000
  17169  17175     1   0.14233 265014.560000
  17170  17174     1   0.14316 258236.480000
  17170  17186     1   0.14316 258236.480000
  17178  17184     1   0.14233 265014.560000
  17187  17188     1   0.15375 251793.120000
  17187  17201     1   0.15375 251793.120000
  17187  17209     1   0.14316 258236.480000
  17188  17191     1   0.15375 251793.120000
  17188  17200     1   0.14233 265014.560000
  17191  17192     1   0.15375 251793.120000
  17191  17199     1   0.14233 265014.560000
  17192  17193     1   0.15375 251793.120000
  17192  17198     1   0.14233 265014.560000
  17193  17197     1   0.14316 258236.480000
  17193  17209     1   0.14316 258236.480000
  17201  17207     1   0.14233 265014.560000
  17210  17211     1   0.15375 251793.120000
  17210  17224     1   0.15375 251793.120000
  17210  17232     1   0.14316 258236.480000
  17211  17214     1   0.15375 251793.120000
  17211  17223     1   0.14233 265014.560000
  17214  17215     1   0.15375 251793.120000
  17214  17222     1   0.14233 265014.560000
  17215  17216     1   0.15375 251793.120000
  17215  17221     1   0.14233 265014.560000
  17216  17220     1   0.14316 258236.480000
  17216  17232     1   0.14316 258236.480000
  17224  17230     1   0.14233 265014.560000
  17233  17234     1   0.15375 251793.120000
  17233  17247     1   0.15375 251793.120000
  17233  17255     1   0.14316 258236.480000
  17234  17237     1   0.15375 251793.120000
  17234  17246     1   0.14233 265014.560000
  17237  17238     1   0.15375 251793.120000
  17237  17245     1   0.14233 265014.560000
  17238  17239     1   0.15375 251793.120000
  17238  17244     1   0.14233 265014.560000
  17239  17243     1   0.14316 258236.480000
  17239  17255     1   0.14316 258236.480000
  17247  17253     1   0.14233 265014.560000
  17256  17257     1   0.15375 251793.120000
  17256  17270     1   0.15375 251793.120000
  17256  17278     1   0.14316 258236.480000
  17257  17260     1   0.15375 251793.120000
  17257  17269     1   0.14233 265014.560000
  17260  17261     1   0.15375 251793.120000
  17260  17268     1   0.14233 265014.560000
  17261  17262     1   0.15375 251793.120000
  17261  17267     1   0.14233 265014.560000
  17262  17266     1   0.14316 258236.480000
  17262  17278     1   0.14316 258236.480000
  17270  17276     1   0.14233 265014.560000
  17279  17280     1   0.15375 251793.120000
  17279  17293     1   0.15375 251793.120000
  17279  17301     1   0.14316 258236.480000
  17280  17283     1   0.15375 251793.120000
  17280  17292     1   0.14233 265014.560000
  17283  17284     1   0.15375 251793.120000
  17283  17291     1   0.14233 265014.560000
  17284  17285     1   0.15375 251793.120000
  17284  17290     1   0.14233 265014.560000
  17285  17289     1   0.14316 258236.480000
  17285  17301     1   0.14316 258236.480000
  17293  17299     1   0.14233 265014.560000
  17302  17303     1   0.15375 251793.120000
  17302  17316     1   0.15375 251793.120000
  17302  17324     1   0.14316 258236.480000
  17303  17306     1   0.15375 251793.120000
  17303  17315     1   0.14233 265014.560000
  17306  17307     1   0.15375 251793.120000
  17306  17314     1   0.14233 265014.560000
  17307  17308     1   0.15375 251793.120000
  17307  17313     1   0.14233 265014.560000
  17308  17312     1   0.14316 258236.480000
  17308  17324     1   0.14316 258236.480000
  17316  17322     1   0.14233 265014.560000
  17325  17326     1   0.15375 251793.120000
  17325  17339     1   0.15375 251793.120000
  17325  17347     1   0.14316 258236.480000
  17326  17329     1   0.15375 251793.120000
  17326  17338     1   0.14233 265014.560000
  17329  17330     1   0.15375 251793.120000
  17329  17337     1   0.14233 265014.560000
  17330  17331     1   0.15375 251793.120000
  17330  17336     1   0.14233 265014.560000
  17331  17335     1   0.14316 258236.480000
  17331  17347     1   0.14316 258236.480000
  17339  17345     1   0.14233 265014.560000
  17348  17349     1   0.15375 251793.120000
  17348  17362     1   0.15375 251793.120000
  17348  17370     1   0.14316 258236.480000
  17349  17352     1   0.15375 251793.120000
  17349  17361     1   0.14233 265014.560000
  17352  17353     1   0.15375 251793.120000
  17352  17360     1   0.14233 265014.560000
  17353  17354     1   0.15375 251793.120000
  17353  17359     1   0.14233 265014.560000
  17354  17358     1   0.14316 258236.480000
  17354  17370     1   0.14316 258236.480000
  17362  17368     1   0.14233 265014.560000
  17371  17372     1   0.15375 251793.120000
  17371  17385     1   0.15375 251793.120000
  17371  17393     1   0.14316 258236.480000
  17372  17375     1   0.15375 251793.120000
  17372  17384     1   0.14233 265014.560000
  17375  17376     1   0.15375 251793.120000
  17375  17383     1   0.14233 265014.560000
  17376  17377     1   0.15375 251793.120000
  17376  17382     1   0.14233 265014.560000
  17377  17381     1   0.14316 258236.480000
  17377  17393     1   0.14316 258236.480000
  17385  17391     1   0.14233 265014.560000
  17394  17395     1   0.15375 251793.120000
  17394  17408     1   0.15375 251793.120000
  17394  17416     1   0.14316 258236.480000
  17395  17398     1   0.15375 251793.120000
  17395  17407     1   0.14233 265014.560000
  17398  17399     1   0.15375 251793.120000
  17398  17406     1   0.14233 265014.560000
  17399  17400     1   0.15375 251793.120000
  17399  17405     1   0.14233 265014.560000
  17400  17404     1   0.14316 258236.480000
  17400  17416     1   0.14316 258236.480000
  17408  17414     1   0.14233 265014.560000
  17417  17418     1   0.15375 251793.120000
  17417  17431     1   0.15375 251793.120000
  17417  17439     1   0.14316 258236.480000
  17418  17421     1   0.15375 251793.120000
  17418  17430     1   0.14233 265014.560000
  17421  17422     1   0.15375 251793.120000
  17421  17429     1   0.14233 265014.560000
  17422  17423     1   0.15375 251793.120000
  17422  17428     1   0.14233 265014.560000
  17423  17427     1   0.14316 258236.480000
  17423  17439     1   0.14316 258236.480000
  17431  17437     1   0.14233 265014.560000
  17440  17441     1   0.15375 251793.120000
  17440  17454     1   0.15375 251793.120000
  17440  17462     1   0.14316 258236.480000
  17441  17444     1   0.15375 251793.120000
  17441  17453     1   0.14233 265014.560000
  17444  17445     1   0.15375 251793.120000
  17444  17452     1   0.14233 265014.560000
  17445  17446     1   0.15375 251793.120000
  17445  17451     1   0.14233 265014.560000
  17446  17450     1   0.14316 258236.480000
  17446  17462     1   0.14316 258236.480000
  17454  17460     1   0.14233 265014.560000
  17463  17464     1   0.15375 251793.120000
  17463  17477     1   0.15375 251793.120000
  17463  17485     1   0.14316 258236.480000
  17464  17467     1   0.15375 251793.120000
  17464  17476     1   0.14233 265014.560000
  17467  17468     1   0.15375 251793.120000
  17467  17475     1   0.14233 265014.560000
  17468  17469     1   0.15375 251793.120000
  17468  17474     1   0.14233 265014.560000
  17469  17473     1   0.14316 258236.480000
  17469  17485     1   0.14316 258236.480000
  17477  17483     1   0.14233 265014.560000
  17486  17487     1   0.15375 251793.120000
  17486  17500     1   0.15375 251793.120000
  17486  17508     1   0.14316 258236.480000
  17487  17490     1   0.15375 251793.120000
  17487  17499     1   0.14233 265014.560000
  17490  17491     1   0.15375 251793.120000
  17490  17498     1   0.14233 265014.560000
  17491  17492     1   0.15375 251793.120000
  17491  17497     1   0.14233 265014.560000
  17492  17496     1   0.14316 258236.480000
  17492  17508     1   0.14316 258236.480000
  17500  17506     1   0.14233 265014.560000
  17509  17510     1   0.15375 251793.120000
  17509  17523     1   0.15375 251793.120000
  17509  17531     1   0.14316 258236.480000
  17510  17513     1   0.15375 251793.120000
  17510  17522     1   0.14233 265014.560000
  17513  17514     1   0.15375 251793.120000
  17513  17521     1   0.14233 265014.560000
  17514  17515     1   0.15375 251793.120000
  17514  17520     1   0.14233 265014.560000
  17515  17519     1   0.14316 258236.480000
  17515  17531     1   0.14316 258236.480000
  17523  17529     1   0.14233 265014.560000
  17532  17533     1   0.15375 251793.120000
  17532  17546     1   0.15375 251793.120000
  17532  17554     1   0.14316 258236.480000
  17533  17536     1   0.15375 251793.120000
  17533  17545     1   0.14233 265014.560000
  17536  17537     1   0.15375 251793.120000
  17536  17544     1   0.14233 265014.560000
  17537  17538     1   0.15375 251793.120000
  17537  17543     1   0.14233 265014.560000
  17538  17542     1   0.14316 258236.480000
  17538  17554     1   0.14316 258236.480000
  17546  17552     1   0.14233 265014.560000
  17555  17556     1   0.15375 251793.120000
  17555  17569     1   0.15375 251793.120000
  17555  17577     1   0.14316 258236.480000
  17556  17559     1   0.15375 251793.120000
  17556  17568     1   0.14233 265014.560000
  17559  17560     1   0.15375 251793.120000
  17559  17567     1   0.14233 265014.560000
  17560  17561     1   0.15375 251793.120000
  17560  17566     1   0.14233 265014.560000
  17561  17565     1   0.14316 258236.480000
  17561  17577     1   0.14316 258236.480000
  17569  17575     1   0.14233 265014.560000
  17578  17579     1   0.15375 251793.120000
  17578  17592     1   0.15375 251793.120000
  17578  17600     1   0.14316 258236.480000
  17579  17582     1   0.15375 251793.120000
  17579  17591     1   0.14233 265014.560000
  17582  17583     1   0.15375 251793.120000
  17582  17590     1   0.14233 265014.560000
  17583  17584     1   0.15375 251793.120000
  17583  17589     1   0.14233 265014.560000
  17584  17588     1   0.14316 258236.480000
  17584  17600     1   0.14316 258236.480000
  17592  17598     1   0.14233 265014.560000
  17601  17602     1   0.15375 251793.120000
  17601  17615     1   0.15375 251793.120000
  17601  17623     1   0.14316 258236.480000
  17602  17605     1   0.15375 251793.120000
  17602  17614     1   0.14233 265014.560000
  17605  17606     1   0.15375 251793.120000
  17605  17613     1   0.14233 265014.560000
  17606  17607     1   0.15375 251793.120000
  17606  17612     1   0.14233 265014.560000
  17607  17611     1   0.14316 258236.480000
  17607  17623     1   0.14316 258236.480000
  17615  17621     1   0.14233 265014.560000
  17624  17625     1   0.15375 251793.120000
  17624  17638     1   0.15375 251793.120000
  17624  17646     1   0.14316 258236.480000
  17625  17628     1   0.15375 251793.120000
  17625  17637     1   0.14233 265014.560000
  17628  17629     1   0.15375 251793.120000
  17628  17636     1   0.14233 265014.560000
  17629  17630     1   0.15375 251793.120000
  17629  17635     1   0.14233 265014.560000
  17630  17634     1   0.14316 258236.480000
  17630  17646     1   0.14316 258236.480000
  17638  17644     1   0.14233 265014.560000
  17647  17648     1   0.15375 251793.120000
  17647  17661     1   0.15375 251793.120000
  17647  17669     1   0.14316 258236.480000
  17648  17651     1   0.15375 251793.120000
  17648  17660     1   0.14233 265014.560000
  17651  17652     1   0.15375 251793.120000
  17651  17659     1   0.14233 265014.560000
  17652  17653     1   0.15375 251793.120000
  17652  17658     1   0.14233 265014.560000
  17653  17657     1   0.14316 258236.480000
  17653  17669     1   0.14316 258236.480000
  17661  17667     1   0.14233 265014.560000
  17670  17671     1   0.15375 251793.120000
  17670  17684     1   0.15375 251793.120000
  17670  17692     1   0.14316 258236.480000
  17671  17674     1   0.15375 251793.120000
  17671  17683     1   0.14233 265014.560000
  17674  17675     1   0.15375 251793.120000
  17674  17682     1   0.14233 265014.560000
  17675  17676     1   0.15375 251793.120000
  17675  17681     1   0.14233 265014.560000
  17676  17680     1   0.14316 258236.480000
  17676  17692     1   0.14316 258236.480000
  17684  17690     1   0.14233 265014.560000
  17693  17694     1   0.15375 251793.120000
  17693  17707     1   0.15375 251793.120000
  17693  17715     1   0.14316 258236.480000
  17694  17697     1   0.15375 251793.120000
  17694  17706     1   0.14233 265014.560000
  17697  17698     1   0.15375 251793.120000
  17697  17705     1   0.14233 265014.560000
  17698  17699     1   0.15375 251793.120000
  17698  17704     1   0.14233 265014.560000
  17699  17703     1   0.14316 258236.480000
  17699  17715     1   0.14316 258236.480000
  17707  17713     1   0.14233 265014.560000
  17716  17717     1   0.15375 251793.120000
  17716  17730     1   0.15375 251793.120000
  17716  17738     1   0.14316 258236.480000
  17717  17720     1   0.15375 251793.120000
  17717  17729     1   0.14233 265014.560000
  17720  17721     1   0.15375 251793.120000
  17720  17728     1   0.14233 265014.560000
  17721  17722     1   0.15375 251793.120000
  17721  17727     1   0.14233 265014.560000
  17722  17726     1   0.14316 258236.480000
  17722  17738     1   0.14316 258236.480000
  17730  17736     1   0.14233 265014.560000
  17739  17740     1   0.15375 251793.120000
  17739  17753     1   0.15375 251793.120000
  17739  17761     1   0.14316 258236.480000
  17740  17743     1   0.15375 251793.120000
  17740  17752     1   0.14233 265014.560000
  17743  17744     1   0.15375 251793.120000
  17743  17751     1   0.14233 265014.560000
  17744  17745     1   0.15375 251793.120000
  17744  17750     1   0.14233 265014.560000
  17745  17749     1   0.14316 258236.480000
  17745  17761     1   0.14316 258236.480000
  17753  17759     1   0.14233 265014.560000
  17762  17763     1   0.15375 251793.120000
  17762  17776     1   0.15375 251793.120000
  17762  17784     1   0.14316 258236.480000
  17763  17766     1   0.15375 251793.120000
  17763  17775     1   0.14233 265014.560000
  17766  17767     1   0.15375 251793.120000
  17766  17774     1   0.14233 265014.560000
  17767  17768     1   0.15375 251793.120000
  17767  17773     1   0.14233 265014.560000
  17768  17772     1   0.14316 258236.480000
  17768  17784     1   0.14316 258236.480000
  17776  17782     1   0.14233 265014.560000
  17785  17786     1   0.15375 251793.120000
  17785  17799     1   0.15375 251793.120000
  17785  17807     1   0.14316 258236.480000
  17786  17789     1   0.15375 251793.120000
  17786  17798     1   0.14233 265014.560000
  17789  17790     1   0.15375 251793.120000
  17789  17797     1   0.14233 265014.560000
  17790  17791     1   0.15375 251793.120000
  17790  17796     1   0.14233 265014.560000
  17791  17795     1   0.14316 258236.480000
  17791  17807     1   0.14316 258236.480000
  17799  17805     1   0.14233 265014.560000
  17808  17809     1   0.15375 251793.120000
  17808  17822     1   0.15375 251793.120000
  17808  17830     1   0.14316 258236.480000
  17809  17812     1   0.15375 251793.120000
  17809  17821     1   0.14233 265014.560000
  17812  17813     1   0.15375 251793.120000
  17812  17820     1   0.14233 265014.560000
  17813  17814     1   0.15375 251793.120000
  17813  17819     1   0.14233 265014.560000
  17814  17818     1   0.14316 258236.480000
  17814  17830     1   0.14316 258236.480000
  17822  17828     1   0.14233 265014.560000
  17831  17832     1   0.15375 251793.120000
  17831  17845     1   0.15375 251793.120000
  17831  17853     1   0.14316 258236.480000
  17832  17835     1   0.15375 251793.120000
  17832  17844     1   0.14233 265014.560000
  17835  17836     1   0.15375 251793.120000
  17835  17843     1   0.14233 265014.560000
  17836  17837     1   0.15375 251793.120000
  17836  17842     1   0.14233 265014.560000
  17837  17841     1   0.14316 258236.480000
  17837  17853     1   0.14316 258236.480000
  17845  17851     1   0.14233 265014.560000
  17854  17855     1   0.15375 251793.120000
  17854  17868     1   0.15375 251793.120000
  17854  17876     1   0.14316 258236.480000
  17855  17858     1   0.15375 251793.120000
  17855  17867     1   0.14233 265014.560000
  17858  17859     1   0.15375 251793.120000
  17858  17866     1   0.14233 265014.560000
  17859  17860     1   0.15375 251793.120000
  17859  17865     1   0.14233 265014.560000
  17860  17864     1   0.14316 258236.480000
  17860  17876     1   0.14316 258236.480000
  17868  17874     1   0.14233 265014.560000
  17877  17878     1   0.15375 251793.120000
  17877  17891     1   0.15375 251793.120000
  17877  17899     1   0.14316 258236.480000
  17878  17881     1   0.15375 251793.120000
  17878  17890     1   0.14233 265014.560000
  17881  17882     1   0.15375 251793.120000
  17881  17889     1   0.14233 265014.560000
  17882  17883     1   0.15375 251793.120000
  17882  17888     1   0.14233 265014.560000
  17883  17887     1   0.14316 258236.480000
  17883  17899     1   0.14316 258236.480000
  17891  17897     1   0.14233 265014.560000
  17900  17901     1   0.15375 251793.120000
  17900  17914     1   0.15375 251793.120000
  17900  17922     1   0.14316 258236.480000
  17901  17904     1   0.15375 251793.120000
  17901  17913     1   0.14233 265014.560000
  17904  17905     1   0.15375 251793.120000
  17904  17912     1   0.14233 265014.560000
  17905  17906     1   0.15375 251793.120000
  17905  17911     1   0.14233 265014.560000
  17906  17910     1   0.14316 258236.480000
  17906  17922     1   0.14316 258236.480000
  17914  17920     1   0.14233 265014.560000
  17923  17924     1   0.15375 251793.120000
  17923  17937     1   0.15375 251793.120000
  17923  17945     1   0.14316 258236.480000
  17924  17927     1   0.15375 251793.120000
  17924  17936     1   0.14233 265014.560000
  17927  17928     1   0.15375 251793.120000
  17927  17935     1   0.14233 265014.560000
  17928  17929     1   0.15375 251793.120000
  17928  17934     1   0.14233 265014.560000
  17929  17933     1   0.14316 258236.480000
  17929  17945     1   0.14316 258236.480000
  17937  17943     1   0.14233 265014.560000
  17946  17947     1   0.15375 251793.120000
  17946  17960     1   0.15375 251793.120000
  17946  17968     1   0.14316 258236.480000
  17947  17950     1   0.15375 251793.120000
  17947  17959     1   0.14233 265014.560000
  17950  17951     1   0.15375 251793.120000
  17950  17958     1   0.14233 265014.560000
  17951  17952     1   0.15375 251793.120000
  17951  17957     1   0.14233 265014.560000
  17952  17956     1   0.14316 258236.480000
  17952  17968     1   0.14316 258236.480000
  17960  17966     1   0.14233 265014.560000
  17969  17970     1   0.15375 251793.120000
  17969  17983     1   0.15375 251793.120000
  17969  17991     1   0.14316 258236.480000
  17970  17973     1   0.15375 251793.120000
  17970  17982     1   0.14233 265014.560000
  17973  17974     1   0.15375 251793.120000
  17973  17981     1   0.14233 265014.560000
  17974  17975     1   0.15375 251793.120000
  17974  17980     1   0.14233 265014.560000
  17975  17979     1   0.14316 258236.480000
  17975  17991     1   0.14316 258236.480000
  17983  17989     1   0.14233 265014.560000
  17992  17993     1   0.15375 251793.120000
  17992  18006     1   0.15375 251793.120000
  17992  18014     1   0.14316 258236.480000
  17993  17996     1   0.15375 251793.120000
  17993  18005     1   0.14233 265014.560000
  17996  17997     1   0.15375 251793.120000
  17996  18004     1   0.14233 265014.560000
  17997  17998     1   0.15375 251793.120000
  17997  18003     1   0.14233 265014.560000
  17998  18002     1   0.14316 258236.480000
  17998  18014     1   0.14316 258236.480000
  18006  18012     1   0.14233 265014.560000
  18015  18016     1   0.15375 251793.120000
  18015  18029     1   0.15375 251793.120000
  18015  18037     1   0.14316 258236.480000
  18016  18019     1   0.15375 251793.120000
  18016  18028     1   0.14233 265014.560000
  18019  18020     1   0.15375 251793.120000
  18019  18027     1   0.14233 265014.560000
  18020  18021     1   0.15375 251793.120000
  18020  18026     1   0.14233 265014.560000
  18021  18025     1   0.14316 258236.480000
  18021  18037     1   0.14316 258236.480000
  18029  18035     1   0.14233 265014.560000
  18038  18039     1   0.15375 251793.120000
  18038  18052     1   0.15375 251793.120000
  18038  18060     1   0.14316 258236.480000
  18039  18042     1   0.15375 251793.120000
  18039  18051     1   0.14233 265014.560000
  18042  18043     1   0.15375 251793.120000
  18042  18050     1   0.14233 265014.560000
  18043  18044     1   0.15375 251793.120000
  18043  18049     1   0.14233 265014.560000
  18044  18048     1   0.14316 258236.480000
  18044  18060     1   0.14316 258236.480000
  18052  18058     1   0.14233 265014.560000
  18061  18062     1   0.15375 251793.120000
  18061  18075     1   0.15375 251793.120000
  18061  18083     1   0.14316 258236.480000
  18062  18065     1   0.15375 251793.120000
  18062  18074     1   0.14233 265014.560000
  18065  18066     1   0.15375 251793.120000
  18065  18073     1   0.14233 265014.560000
  18066  18067     1   0.15375 251793.120000
  18066  18072     1   0.14233 265014.560000
  18067  18071     1   0.14316 258236.480000
  18067  18083     1   0.14316 258236.480000
  18075  18081     1   0.14233 265014.560000
  18084  18085     1   0.15375 251793.120000
  18084  18098     1   0.15375 251793.120000
  18084  18106     1   0.14316 258236.480000
  18085  18088     1   0.15375 251793.120000
  18085  18097     1   0.14233 265014.560000
  18088  18089     1   0.15375 251793.120000
  18088  18096     1   0.14233 265014.560000
  18089  18090     1   0.15375 251793.120000
  18089  18095     1   0.14233 265014.560000
  18090  18094     1   0.14316 258236.480000
  18090  18106     1   0.14316 258236.480000
  18098  18104     1   0.14233 265014.560000
  18107  18108     1   0.15375 251793.120000
  18107  18121     1   0.15375 251793.120000
  18107  18129     1   0.14316 258236.480000
  18108  18111     1   0.15375 251793.120000
  18108  18120     1   0.14233 265014.560000
  18111  18112     1   0.15375 251793.120000
  18111  18119     1   0.14233 265014.560000
  18112  18113     1   0.15375 251793.120000
  18112  18118     1   0.14233 265014.560000
  18113  18117     1   0.14316 258236.480000
  18113  18129     1   0.14316 258236.480000
  18121  18127     1   0.14233 265014.560000
  18130  18131     1   0.15375 251793.120000
  18130  18144     1   0.15375 251793.120000
  18130  18152     1   0.14316 258236.480000
  18131  18134     1   0.15375 251793.120000
  18131  18143     1   0.14233 265014.560000
  18134  18135     1   0.15375 251793.120000
  18134  18142     1   0.14233 265014.560000
  18135  18136     1   0.15375 251793.120000
  18135  18141     1   0.14233 265014.560000
  18136  18140     1   0.14316 258236.480000
  18136  18152     1   0.14316 258236.480000
  18144  18150     1   0.14233 265014.560000
  18153  18154     1   0.15375 251793.120000
  18153  18167     1   0.15375 251793.120000
  18153  18175     1   0.14316 258236.480000
  18154  18157     1   0.15375 251793.120000
  18154  18166     1   0.14233 265014.560000
  18157  18158     1   0.15375 251793.120000
  18157  18165     1   0.14233 265014.560000
  18158  18159     1   0.15375 251793.120000
  18158  18164     1   0.14233 265014.560000
  18159  18163     1   0.14316 258236.480000
  18159  18175     1   0.14316 258236.480000
  18167  18173     1   0.14233 265014.560000
  18176  18177     1   0.15375 251793.120000
  18176  18190     1   0.15375 251793.120000
  18176  18198     1   0.14316 258236.480000
  18177  18180     1   0.15375 251793.120000
  18177  18189     1   0.14233 265014.560000
  18180  18181     1   0.15375 251793.120000
  18180  18188     1   0.14233 265014.560000
  18181  18182     1   0.15375 251793.120000
  18181  18187     1   0.14233 265014.560000
  18182  18186     1   0.14316 258236.480000
  18182  18198     1   0.14316 258236.480000
  18190  18196     1   0.14233 265014.560000
  18199  18200     1   0.15375 251793.120000
  18199  18213     1   0.15375 251793.120000
  18199  18221     1   0.14316 258236.480000
  18200  18203     1   0.15375 251793.120000
  18200  18212     1   0.14233 265014.560000
  18203  18204     1   0.15375 251793.120000
  18203  18211     1   0.14233 265014.560000
  18204  18205     1   0.15375 251793.120000
  18204  18210     1   0.14233 265014.560000
  18205  18209     1   0.14316 258236.480000
  18205  18221     1   0.14316 258236.480000
  18213  18219     1   0.14233 265014.560000
  18222  18223     1   0.15375 251793.120000
  18222  18236     1   0.15375 251793.120000
  18222  18244     1   0.14316 258236.480000
  18223  18226     1   0.15375 251793.120000
  18223  18235     1   0.14233 265014.560000
  18226  18227     1   0.15375 251793.120000
  18226  18234     1   0.14233 265014.560000
  18227  18228     1   0.15375 251793.120000
  18227  18233     1   0.14233 265014.560000
  18228  18232     1   0.14316 258236.480000
  18228  18244     1   0.14316 258236.480000
  18236  18242     1   0.14233 265014.560000
  18245  18246     1   0.15375 251793.120000
  18245  18259     1   0.15375 251793.120000
  18245  18267     1   0.14316 258236.480000
  18246  18249     1   0.15375 251793.120000
  18246  18258     1   0.14233 265014.560000
  18249  18250     1   0.15375 251793.120000
  18249  18257     1   0.14233 265014.560000
  18250  18251     1   0.15375 251793.120000
  18250  18256     1   0.14233 265014.560000
  18251  18255     1   0.14316 258236.480000
  18251  18267     1   0.14316 258236.480000
  18259  18265     1   0.14233 265014.560000
  18268  18269     1   0.15375 251793.120000
  18268  18282     1   0.15375 251793.120000
  18268  18290     1   0.14316 258236.480000
  18269  18272     1   0.15375 251793.120000
  18269  18281     1   0.14233 265014.560000
  18272  18273     1   0.15375 251793.120000
  18272  18280     1   0.14233 265014.560000
  18273  18274     1   0.15375 251793.120000
  18273  18279     1   0.14233 265014.560000
  18274  18278     1   0.14316 258236.480000
  18274  18290     1   0.14316 258236.480000
  18282  18288     1   0.14233 265014.560000
  18291  18292     1   0.15375 251793.120000
  18291  18305     1   0.15375 251793.120000
  18291  18313     1   0.14316 258236.480000
  18292  18295     1   0.15375 251793.120000
  18292  18304     1   0.14233 265014.560000
  18295  18296     1   0.15375 251793.120000
  18295  18303     1   0.14233 265014.560000
  18296  18297     1   0.15375 251793.120000
  18296  18302     1   0.14233 265014.560000
  18297  18301     1   0.14316 258236.480000
  18297  18313     1   0.14316 258236.480000
  18305  18311     1   0.14233 265014.560000
  18314  18315     1   0.15375 251793.120000
  18314  18328     1   0.15375 251793.120000
  18314  18336     1   0.14316 258236.480000
  18315  18318     1   0.15375 251793.120000
  18315  18327     1   0.14233 265014.560000
  18318  18319     1   0.15375 251793.120000
  18318  18326     1   0.14233 265014.560000
  18319  18320     1   0.15375 251793.120000
  18319  18325     1   0.14233 265014.560000
  18320  18324     1   0.14316 258236.480000
  18320  18336     1   0.14316 258236.480000
  18328  18334     1   0.14233 265014.560000
  18337  18338     1   0.15375 251793.120000
  18337  18351     1   0.15375 251793.120000
  18337  18359     1   0.14316 258236.480000
  18338  18341     1   0.15375 251793.120000
  18338  18350     1   0.14233 265014.560000
  18341  18342     1   0.15375 251793.120000
  18341  18349     1   0.14233 265014.560000
  18342  18343     1   0.15375 251793.120000
  18342  18348     1   0.14233 265014.560000
  18343  18347     1   0.14316 258236.480000
  18343  18359     1   0.14316 258236.480000
  18351  18357     1   0.14233 265014.560000
  18360  18361     1   0.15375 251793.120000
  18360  18374     1   0.15375 251793.120000
  18360  18382     1   0.14316 258236.480000
  18361  18364     1   0.15375 251793.120000
  18361  18373     1   0.14233 265014.560000
  18364  18365     1   0.15375 251793.120000
  18364  18372     1   0.14233 265014.560000
  18365  18366     1   0.15375 251793.120000
  18365  18371     1   0.14233 265014.560000
  18366  18370     1   0.14316 258236.480000
  18366  18382     1   0.14316 258236.480000
  18374  18380     1   0.14233 265014.560000
  18383  18384     1   0.15375 251793.120000
  18383  18397     1   0.15375 251793.120000
  18383  18405     1   0.14316 258236.480000
  18384  18387     1   0.15375 251793.120000
  18384  18396     1   0.14233 265014.560000
  18387  18388     1   0.15375 251793.120000
  18387  18395     1   0.14233 265014.560000
  18388  18389     1   0.15375 251793.120000
  18388  18394     1   0.14233 265014.560000
  18389  18393     1   0.14316 258236.480000
  18389  18405     1   0.14316 258236.480000
  18397  18403     1   0.14233 265014.560000
  18406  18407     1   0.15375 251793.120000
  18406  18420     1   0.15375 251793.120000
  18406  18428     1   0.14316 258236.480000
  18407  18410     1   0.15375 251793.120000
  18407  18419     1   0.14233 265014.560000
  18410  18411     1   0.15375 251793.120000
  18410  18418     1   0.14233 265014.560000
  18411  18412     1   0.15375 251793.120000
  18411  18417     1   0.14233 265014.560000
  18412  18416     1   0.14316 258236.480000
  18412  18428     1   0.14316 258236.480000
  18420  18426     1   0.14233 265014.560000
  18429  18430     1   0.15375 251793.120000
  18429  18443     1   0.15375 251793.120000
  18429  18451     1   0.14316 258236.480000
  18430  18433     1   0.15375 251793.120000
  18430  18442     1   0.14233 265014.560000
  18433  18434     1   0.15375 251793.120000
  18433  18441     1   0.14233 265014.560000
  18434  18435     1   0.15375 251793.120000
  18434  18440     1   0.14233 265014.560000
  18435  18439     1   0.14316 258236.480000
  18435  18451     1   0.14316 258236.480000
  18443  18449     1   0.14233 265014.560000
  18452  18453     1   0.15375 251793.120000
  18452  18466     1   0.15375 251793.120000
  18452  18474     1   0.14316 258236.480000
  18453  18456     1   0.15375 251793.120000
  18453  18465     1   0.14233 265014.560000
  18456  18457     1   0.15375 251793.120000
  18456  18464     1   0.14233 265014.560000
  18457  18458     1   0.15375 251793.120000
  18457  18463     1   0.14233 265014.560000
  18458  18462     1   0.14316 258236.480000
  18458  18474     1   0.14316 258236.480000
  18466  18472     1   0.14233 265014.560000
  18475  18476     1   0.15375 251793.120000
  18475  18489     1   0.15375 251793.120000
  18475  18497     1   0.14316 258236.480000
  18476  18479     1   0.15375 251793.120000
  18476  18488     1   0.14233 265014.560000
  18479  18480     1   0.15375 251793.120000
  18479  18487     1   0.14233 265014.560000
  18480  18481     1   0.15375 251793.120000
  18480  18486     1   0.14233 265014.560000
  18481  18485     1   0.14316 258236.480000
  18481  18497     1   0.14316 258236.480000
  18489  18495     1   0.14233 265014.560000
  18498  18499     1   0.15375 251793.120000
  18498  18512     1   0.15375 251793.120000
  18498  18520     1   0.14316 258236.480000
  18499  18502     1   0.15375 251793.120000
  18499  18511     1   0.14233 265014.560000
  18502  18503     1   0.15375 251793.120000
  18502  18510     1   0.14233 265014.560000
  18503  18504     1   0.15375 251793.120000
  18503  18509     1   0.14233 265014.560000
  18504  18508     1   0.14316 258236.480000
  18504  18520     1   0.14316 258236.480000
  18512  18518     1   0.14233 265014.560000
  18521  18522     1   0.15375 251793.120000
  18521  18535     1   0.15375 251793.120000
  18521  18543     1   0.14316 258236.480000
  18522  18525     1   0.15375 251793.120000
  18522  18534     1   0.14233 265014.560000
  18525  18526     1   0.15375 251793.120000
  18525  18533     1   0.14233 265014.560000
  18526  18527     1   0.15375 251793.120000
  18526  18532     1   0.14233 265014.560000
  18527  18531     1   0.14316 258236.480000
  18527  18543     1   0.14316 258236.480000
  18535  18541     1   0.14233 265014.560000
  18544  18545     1   0.15375 251793.120000
  18544  18558     1   0.15375 251793.120000
  18544  18566     1   0.14316 258236.480000
  18545  18548     1   0.15375 251793.120000
  18545  18557     1   0.14233 265014.560000
  18548  18549     1   0.15375 251793.120000
  18548  18556     1   0.14233 265014.560000
  18549  18550     1   0.15375 251793.120000
  18549  18555     1   0.14233 265014.560000
  18550  18554     1   0.14316 258236.480000
  18550  18566     1   0.14316 258236.480000
  18558  18564     1   0.14233 265014.560000
  18567  18568     1   0.15375 251793.120000
  18567  18581     1   0.15375 251793.120000
  18567  18589     1   0.14316 258236.480000
  18568  18571     1   0.15375 251793.120000
  18568  18580     1   0.14233 265014.560000
  18571  18572     1   0.15375 251793.120000
  18571  18579     1   0.14233 265014.560000
  18572  18573     1   0.15375 251793.120000
  18572  18578     1   0.14233 265014.560000
  18573  18577     1   0.14316 258236.480000
  18573  18589     1   0.14316 258236.480000
  18581  18587     1   0.14233 265014.560000
  18590  18591     1   0.15375 251793.120000
  18590  18604     1   0.15375 251793.120000
  18590  18612     1   0.14316 258236.480000
  18591  18594     1   0.15375 251793.120000
  18591  18603     1   0.14233 265014.560000
  18594  18595     1   0.15375 251793.120000
  18594  18602     1   0.14233 265014.560000
  18595  18596     1   0.15375 251793.120000
  18595  18601     1   0.14233 265014.560000
  18596  18600     1   0.14316 258236.480000
  18596  18612     1   0.14316 258236.480000
  18604  18610     1   0.14233 265014.560000
  18613  18614     1   0.15375 251793.120000
  18613  18627     1   0.15375 251793.120000
  18613  18635     1   0.14316 258236.480000
  18614  18617     1   0.15375 251793.120000
  18614  18626     1   0.14233 265014.560000
  18617  18618     1   0.15375 251793.120000
  18617  18625     1   0.14233 265014.560000
  18618  18619     1   0.15375 251793.120000
  18618  18624     1   0.14233 265014.560000
  18619  18623     1   0.14316 258236.480000
  18619  18635     1   0.14316 258236.480000
  18627  18633     1   0.14233 265014.560000
  18636  18637     1   0.15375 251793.120000
  18636  18650     1   0.15375 251793.120000
  18636  18658     1   0.14316 258236.480000
  18637  18640     1   0.15375 251793.120000
  18637  18649     1   0.14233 265014.560000
  18640  18641     1   0.15375 251793.120000
  18640  18648     1   0.14233 265014.560000
  18641  18642     1   0.15375 251793.120000
  18641  18647     1   0.14233 265014.560000
  18642  18646     1   0.14316 258236.480000
  18642  18658     1   0.14316 258236.480000
  18650  18656     1   0.14233 265014.560000
  18659  18660     1   0.15375 251793.120000
  18659  18673     1   0.15375 251793.120000
  18659  18681     1   0.14316 258236.480000
  18660  18663     1   0.15375 251793.120000
  18660  18672     1   0.14233 265014.560000
  18663  18664     1   0.15375 251793.120000
  18663  18671     1   0.14233 265014.560000
  18664  18665     1   0.15375 251793.120000
  18664  18670     1   0.14233 265014.560000
  18665  18669     1   0.14316 258236.480000
  18665  18681     1   0.14316 258236.480000
  18673  18679     1   0.14233 265014.560000
  18682  18683     1   0.15375 251793.120000
  18682  18696     1   0.15375 251793.120000
  18682  18704     1   0.14316 258236.480000
  18683  18686     1   0.15375 251793.120000
  18683  18695     1   0.14233 265014.560000
  18686  18687     1   0.15375 251793.120000
  18686  18694     1   0.14233 265014.560000
  18687  18688     1   0.15375 251793.120000
  18687  18693     1   0.14233 265014.560000
  18688  18692     1   0.14316 258236.480000
  18688  18704     1   0.14316 258236.480000
  18696  18702     1   0.14233 265014.560000
  18705  18706     1   0.15375 251793.120000
  18705  18719     1   0.15375 251793.120000
  18705  18727     1   0.14316 258236.480000
  18706  18709     1   0.15375 251793.120000
  18706  18718     1   0.14233 265014.560000
  18709  18710     1   0.15375 251793.120000
  18709  18717     1   0.14233 265014.560000
  18710  18711     1   0.15375 251793.120000
  18710  18716     1   0.14233 265014.560000
  18711  18715     1   0.14316 258236.480000
  18711  18727     1   0.14316 258236.480000
  18719  18725     1   0.14233 265014.560000
  18728  18729     1   0.15375 251793.120000
  18728  18742     1   0.15375 251793.120000
  18728  18750     1   0.14316 258236.480000
  18729  18732     1   0.15375 251793.120000
  18729  18741     1   0.14233 265014.560000
  18732  18733     1   0.15375 251793.120000
  18732  18740     1   0.14233 265014.560000
  18733  18734     1   0.15375 251793.120000
  18733  18739     1   0.14233 265014.560000
  18734  18738     1   0.14316 258236.480000
  18734  18750     1   0.14316 258236.480000
  18742  18748     1   0.14233 265014.560000
  18751  18752     1   0.15375 251793.120000
  18751  18765     1   0.15375 251793.120000
  18751  18773     1   0.14316 258236.480000
  18752  18755     1   0.15375 251793.120000
  18752  18764     1   0.14233 265014.560000
  18755  18756     1   0.15375 251793.120000
  18755  18763     1   0.14233 265014.560000
  18756  18757     1   0.15375 251793.120000
  18756  18762     1   0.14233 265014.560000
  18757  18761     1   0.14316 258236.480000
  18757  18773     1   0.14316 258236.480000
  18765  18771     1   0.14233 265014.560000
  18774  18775     1   0.15375 251793.120000
  18774  18788     1   0.15375 251793.120000
  18774  18796     1   0.14316 258236.480000
  18775  18778     1   0.15375 251793.120000
  18775  18787     1   0.14233 265014.560000
  18778  18779     1   0.15375 251793.120000
  18778  18786     1   0.14233 265014.560000
  18779  18780     1   0.15375 251793.120000
  18779  18785     1   0.14233 265014.560000
  18780  18784     1   0.14316 258236.480000
  18780  18796     1   0.14316 258236.480000
  18788  18794     1   0.14233 265014.560000
  18797  18798     1   0.15375 251793.120000
  18797  18811     1   0.15375 251793.120000
  18797  18819     1   0.14316 258236.480000
  18798  18801     1   0.15375 251793.120000
  18798  18810     1   0.14233 265014.560000
  18801  18802     1   0.15375 251793.120000
  18801  18809     1   0.14233 265014.560000
  18802  18803     1   0.15375 251793.120000
  18802  18808     1   0.14233 265014.560000
  18803  18807     1   0.14316 258236.480000
  18803  18819     1   0.14316 258236.480000
  18811  18817     1   0.14233 265014.560000
  18820  18821     1   0.15375 251793.120000
  18820  18834     1   0.15375 251793.120000
  18820  18842     1   0.14316 258236.480000
  18821  18824     1   0.15375 251793.120000
  18821  18833     1   0.14233 265014.560000
  18824  18825     1   0.15375 251793.120000
  18824  18832     1   0.14233 265014.560000
  18825  18826     1   0.15375 251793.120000
  18825  18831     1   0.14233 265014.560000
  18826  18830     1   0.14316 258236.480000
  18826  18842     1   0.14316 258236.480000
  18834  18840     1   0.14233 265014.560000
  18843  18844     1   0.15375 251793.120000
  18843  18857     1   0.15375 251793.120000
  18843  18865     1   0.14316 258236.480000
  18844  18847     1   0.15375 251793.120000
  18844  18856     1   0.14233 265014.560000
  18847  18848     1   0.15375 251793.120000
  18847  18855     1   0.14233 265014.560000
  18848  18849     1   0.15375 251793.120000
  18848  18854     1   0.14233 265014.560000
  18849  18853     1   0.14316 258236.480000
  18849  18865     1   0.14316 258236.480000
  18857  18863     1   0.14233 265014.560000
  18866  18867     1   0.15375 251793.120000
  18866  18880     1   0.15375 251793.120000
  18866  18888     1   0.14316 258236.480000
  18867  18870     1   0.15375 251793.120000
  18867  18879     1   0.14233 265014.560000
  18870  18871     1   0.15375 251793.120000
  18870  18878     1   0.14233 265014.560000
  18871  18872     1   0.15375 251793.120000
  18871  18877     1   0.14233 265014.560000
  18872  18876     1   0.14316 258236.480000
  18872  18888     1   0.14316 258236.480000
  18880  18886     1   0.14233 265014.560000
  18889  18890     1   0.15375 251793.120000
  18889  18903     1   0.15375 251793.120000
  18889  18911     1   0.14316 258236.480000
  18890  18893     1   0.15375 251793.120000
  18890  18902     1   0.14233 265014.560000
  18893  18894     1   0.15375 251793.120000
  18893  18901     1   0.14233 265014.560000
  18894  18895     1   0.15375 251793.120000
  18894  18900     1   0.14233 265014.560000
  18895  18899     1   0.14316 258236.480000
  18895  18911     1   0.14316 258236.480000
  18903  18909     1   0.14233 265014.560000
  18912  18913     1   0.15375 251793.120000
  18912  18926     1   0.15375 251793.120000
  18912  18934     1   0.14316 258236.480000
  18913  18916     1   0.15375 251793.120000
  18913  18925     1   0.14233 265014.560000
  18916  18917     1   0.15375 251793.120000
  18916  18924     1   0.14233 265014.560000
  18917  18918     1   0.15375 251793.120000
  18917  18923     1   0.14233 265014.560000
  18918  18922     1   0.14316 258236.480000
  18918  18934     1   0.14316 258236.480000
  18926  18932     1   0.14233 265014.560000
  18935  18936     1   0.15375 251793.120000
  18935  18949     1   0.15375 251793.120000
  18935  18957     1   0.14316 258236.480000
  18936  18939     1   0.15375 251793.120000
  18936  18948     1   0.14233 265014.560000
  18939  18940     1   0.15375 251793.120000
  18939  18947     1   0.14233 265014.560000
  18940  18941     1   0.15375 251793.120000
  18940  18946     1   0.14233 265014.560000
  18941  18945     1   0.14316 258236.480000
  18941  18957     1   0.14316 258236.480000
  18949  18955     1   0.14233 265014.560000
  18958  18959     1   0.15375 251793.120000
  18958  18972     1   0.15375 251793.120000
  18958  18980     1   0.14316 258236.480000
  18959  18962     1   0.15375 251793.120000
  18959  18971     1   0.14233 265014.560000
  18962  18963     1   0.15375 251793.120000
  18962  18970     1   0.14233 265014.560000
  18963  18964     1   0.15375 251793.120000
  18963  18969     1   0.14233 265014.560000
  18964  18968     1   0.14316 258236.480000
  18964  18980     1   0.14316 258236.480000
  18972  18978     1   0.14233 265014.560000
  18981  18982     1   0.15375 251793.120000
  18981  18995     1   0.15375 251793.120000
  18981  19003     1   0.14316 258236.480000
  18982  18985     1   0.15375 251793.120000
  18982  18994     1   0.14233 265014.560000
  18985  18986     1   0.15375 251793.120000
  18985  18993     1   0.14233 265014.560000
  18986  18987     1   0.15375 251793.120000
  18986  18992     1   0.14233 265014.560000
  18987  18991     1   0.14316 258236.480000
  18987  19003     1   0.14316 258236.480000
  18995  19001     1   0.14233 265014.560000
  19004  19005     1   0.15375 251793.120000
  19004  19018     1   0.15375 251793.120000
  19004  19026     1   0.14316 258236.480000
  19005  19008     1   0.15375 251793.120000
  19005  19017     1   0.14233 265014.560000
  19008  19009     1   0.15375 251793.120000
  19008  19016     1   0.14233 265014.560000
  19009  19010     1   0.15375 251793.120000
  19009  19015     1   0.14233 265014.560000
  19010  19014     1   0.14316 258236.480000
  19010  19026     1   0.14316 258236.480000
  19018  19024     1   0.14233 265014.560000
  19027  19028     1   0.15375 251793.120000
  19027  19041     1   0.15375 251793.120000
  19027  19049     1   0.14316 258236.480000
  19028  19031     1   0.15375 251793.120000
  19028  19040     1   0.14233 265014.560000
  19031  19032     1   0.15375 251793.120000
  19031  19039     1   0.14233 265014.560000
  19032  19033     1   0.15375 251793.120000
  19032  19038     1   0.14233 265014.560000
  19033  19037     1   0.14316 258236.480000
  19033  19049     1   0.14316 258236.480000
  19041  19047     1   0.14233 265014.560000
  19050  19051     1   0.15375 251793.120000
  19050  19064     1   0.15375 251793.120000
  19050  19072     1   0.14316 258236.480000
  19051  19054     1   0.15375 251793.120000
  19051  19063     1   0.14233 265014.560000
  19054  19055     1   0.15375 251793.120000
  19054  19062     1   0.14233 265014.560000
  19055  19056     1   0.15375 251793.120000
  19055  19061     1   0.14233 265014.560000
  19056  19060     1   0.14316 258236.480000
  19056  19072     1   0.14316 258236.480000
  19064  19070     1   0.14233 265014.560000
  19073  19074     1   0.15375 251793.120000
  19073  19087     1   0.15375 251793.120000
  19073  19095     1   0.14316 258236.480000
  19074  19077     1   0.15375 251793.120000
  19074  19086     1   0.14233 265014.560000
  19077  19078     1   0.15375 251793.120000
  19077  19085     1   0.14233 265014.560000
  19078  19079     1   0.15375 251793.120000
  19078  19084     1   0.14233 265014.560000
  19079  19083     1   0.14316 258236.480000
  19079  19095     1   0.14316 258236.480000
  19087  19093     1   0.14233 265014.560000
  19096  19097     1   0.15375 251793.120000
  19096  19110     1   0.15375 251793.120000
  19096  19118     1   0.14316 258236.480000
  19097  19100     1   0.15375 251793.120000
  19097  19109     1   0.14233 265014.560000
  19100  19101     1   0.15375 251793.120000
  19100  19108     1   0.14233 265014.560000
  19101  19102     1   0.15375 251793.120000
  19101  19107     1   0.14233 265014.560000
  19102  19106     1   0.14316 258236.480000
  19102  19118     1   0.14316 258236.480000
  19110  19116     1   0.14233 265014.560000
  19119  19120     1   0.15375 251793.120000
  19119  19133     1   0.15375 251793.120000
  19119  19141     1   0.14316 258236.480000
  19120  19123     1   0.15375 251793.120000
  19120  19132     1   0.14233 265014.560000
  19123  19124     1   0.15375 251793.120000
  19123  19131     1   0.14233 265014.560000
  19124  19125     1   0.15375 251793.120000
  19124  19130     1   0.14233 265014.560000
  19125  19129     1   0.14316 258236.480000
  19125  19141     1   0.14316 258236.480000
  19133  19139     1   0.14233 265014.560000
  19142  19143     1   0.15375 251793.120000
  19142  19156     1   0.15375 251793.120000
  19142  19164     1   0.14316 258236.480000
  19143  19146     1   0.15375 251793.120000
  19143  19155     1   0.14233 265014.560000
  19146  19147     1   0.15375 251793.120000
  19146  19154     1   0.14233 265014.560000
  19147  19148     1   0.15375 251793.120000
  19147  19153     1   0.14233 265014.560000
  19148  19152     1   0.14316 258236.480000
  19148  19164     1   0.14316 258236.480000
  19156  19162     1   0.14233 265014.560000
  19165  19166     1   0.15375 251793.120000
  19165  19179     1   0.15375 251793.120000
  19165  19187     1   0.14316 258236.480000
  19166  19169     1   0.15375 251793.120000
  19166  19178     1   0.14233 265014.560000
  19169  19170     1   0.15375 251793.120000
  19169  19177     1   0.14233 265014.560000
  19170  19171     1   0.15375 251793.120000
  19170  19176     1   0.14233 265014.560000
  19171  19175     1   0.14316 258236.480000
  19171  19187     1   0.14316 258236.480000
  19179  19185     1   0.14233 265014.560000
  19188  19189     1   0.15375 251793.120000
  19188  19202     1   0.15375 251793.120000
  19188  19210     1   0.14316 258236.480000
  19189  19192     1   0.15375 251793.120000
  19189  19201     1   0.14233 265014.560000
  19192  19193     1   0.15375 251793.120000
  19192  19200     1   0.14233 265014.560000
  19193  19194     1   0.15375 251793.120000
  19193  19199     1   0.14233 265014.560000
  19194  19198     1   0.14316 258236.480000
  19194  19210     1   0.14316 258236.480000
  19202  19208     1   0.14233 265014.560000
  19211  19212     1   0.15375 251793.120000
  19211  19225     1   0.15375 251793.120000
  19211  19233     1   0.14316 258236.480000
  19212  19215     1   0.15375 251793.120000
  19212  19224     1   0.14233 265014.560000
  19215  19216     1   0.15375 251793.120000
  19215  19223     1   0.14233 265014.560000
  19216  19217     1   0.15375 251793.120000
  19216  19222     1   0.14233 265014.560000
  19217  19221     1   0.14316 258236.480000
  19217  19233     1   0.14316 258236.480000
  19225  19231     1   0.14233 265014.560000
  19234  19235     1   0.15375 251793.120000
  19234  19248     1   0.15375 251793.120000
  19234  19256     1   0.14316 258236.480000
  19235  19238     1   0.15375 251793.120000
  19235  19247     1   0.14233 265014.560000
  19238  19239     1   0.15375 251793.120000
  19238  19246     1   0.14233 265014.560000
  19239  19240     1   0.15375 251793.120000
  19239  19245     1   0.14233 265014.560000
  19240  19244     1   0.14316 258236.480000
  19240  19256     1   0.14316 258236.480000
  19248  19254     1   0.14233 265014.560000
  19257  19258     1   0.15375 251793.120000
  19257  19271     1   0.15375 251793.120000
  19257  19279     1   0.14316 258236.480000
  19258  19261     1   0.15375 251793.120000
  19258  19270     1   0.14233 265014.560000
  19261  19262     1   0.15375 251793.120000
  19261  19269     1   0.14233 265014.560000
  19262  19263     1   0.15375 251793.120000
  19262  19268     1   0.14233 265014.560000
  19263  19267     1   0.14316 258236.480000
  19263  19279     1   0.14316 258236.480000
  19271  19277     1   0.14233 265014.560000
  19280  19281     1   0.15375 251793.120000
  19280  19294     1   0.15375 251793.120000
  19280  19302     1   0.14316 258236.480000
  19281  19284     1   0.15375 251793.120000
  19281  19293     1   0.14233 265014.560000
  19284  19285     1   0.15375 251793.120000
  19284  19292     1   0.14233 265014.560000
  19285  19286     1   0.15375 251793.120000
  19285  19291     1   0.14233 265014.560000
  19286  19290     1   0.14316 258236.480000
  19286  19302     1   0.14316 258236.480000
  19294  19300     1   0.14233 265014.560000
  19303  19304     1   0.15375 251793.120000
  19303  19317     1   0.15375 251793.120000
  19303  19325     1   0.14316 258236.480000
  19304  19307     1   0.15375 251793.120000
  19304  19316     1   0.14233 265014.560000
  19307  19308     1   0.15375 251793.120000
  19307  19315     1   0.14233 265014.560000
  19308  19309     1   0.15375 251793.120000
  19308  19314     1   0.14233 265014.560000
  19309  19313     1   0.14316 258236.480000
  19309  19325     1   0.14316 258236.480000
  19317  19323     1   0.14233 265014.560000
  19326  19327     1   0.15375 251793.120000
  19326  19340     1   0.15375 251793.120000
  19326  19348     1   0.14316 258236.480000
  19327  19330     1   0.15375 251793.120000
  19327  19339     1   0.14233 265014.560000
  19330  19331     1   0.15375 251793.120000
  19330  19338     1   0.14233 265014.560000
  19331  19332     1   0.15375 251793.120000
  19331  19337     1   0.14233 265014.560000
  19332  19336     1   0.14316 258236.480000
  19332  19348     1   0.14316 258236.480000
  19340  19346     1   0.14233 265014.560000
  19349  19350     1   0.15375 251793.120000
  19349  19363     1   0.15375 251793.120000
  19349  19371     1   0.14316 258236.480000
  19350  19353     1   0.15375 251793.120000
  19350  19362     1   0.14233 265014.560000
  19353  19354     1   0.15375 251793.120000
  19353  19361     1   0.14233 265014.560000
  19354  19355     1   0.15375 251793.120000
  19354  19360     1   0.14233 265014.560000
  19355  19359     1   0.14316 258236.480000
  19355  19371     1   0.14316 258236.480000
  19363  19369     1   0.14233 265014.560000
  19372  19373     1   0.15375 251793.120000
  19372  19386     1   0.15375 251793.120000
  19372  19394     1   0.14316 258236.480000
  19373  19376     1   0.15375 251793.120000
  19373  19385     1   0.14233 265014.560000
  19376  19377     1   0.15375 251793.120000
  19376  19384     1   0.14233 265014.560000
  19377  19378     1   0.15375 251793.120000
  19377  19383     1   0.14233 265014.560000
  19378  19382     1   0.14316 258236.480000
  19378  19394     1   0.14316 258236.480000
  19386  19392     1   0.14233 265014.560000
  19395  19396     1   0.15375 251793.120000
  19395  19409     1   0.15375 251793.120000
  19395  19417     1   0.14316 258236.480000
  19396  19399     1   0.15375 251793.120000
  19396  19408     1   0.14233 265014.560000
  19399  19400     1   0.15375 251793.120000
  19399  19407     1   0.14233 265014.560000
  19400  19401     1   0.15375 251793.120000
  19400  19406     1   0.14233 265014.560000
  19401  19405     1   0.14316 258236.480000
  19401  19417     1   0.14316 258236.480000
  19409  19415     1   0.14233 265014.560000
  19418  19419     1   0.15375 251793.120000
  19418  19432     1   0.15375 251793.120000
  19418  19440     1   0.14316 258236.480000
  19419  19422     1   0.15375 251793.120000
  19419  19431     1   0.14233 265014.560000
  19422  19423     1   0.15375 251793.120000
  19422  19430     1   0.14233 265014.560000
  19423  19424     1   0.15375 251793.120000
  19423  19429     1   0.14233 265014.560000
  19424  19428     1   0.14316 258236.480000
  19424  19440     1   0.14316 258236.480000
  19432  19438     1   0.14233 265014.560000
  19441  19442     1   0.15375 251793.120000
  19441  19455     1   0.15375 251793.120000
  19441  19463     1   0.14316 258236.480000
  19442  19445     1   0.15375 251793.120000
  19442  19454     1   0.14233 265014.560000
  19445  19446     1   0.15375 251793.120000
  19445  19453     1   0.14233 265014.560000
  19446  19447     1   0.15375 251793.120000
  19446  19452     1   0.14233 265014.560000
  19447  19451     1   0.14316 258236.480000
  19447  19463     1   0.14316 258236.480000
  19455  19461     1   0.14233 265014.560000
  19464  19465     1   0.15375 251793.120000
  19464  19478     1   0.15375 251793.120000
  19464  19486     1   0.14316 258236.480000
  19465  19468     1   0.15375 251793.120000
  19465  19477     1   0.14233 265014.560000
  19468  19469     1   0.15375 251793.120000
  19468  19476     1   0.14233 265014.560000
  19469  19470     1   0.15375 251793.120000
  19469  19475     1   0.14233 265014.560000
  19470  19474     1   0.14316 258236.480000
  19470  19486     1   0.14316 258236.480000
  19478  19484     1   0.14233 265014.560000
  19487  19488     1   0.15375 251793.120000
  19487  19501     1   0.15375 251793.120000
  19487  19509     1   0.14316 258236.480000
  19488  19491     1   0.15375 251793.120000
  19488  19500     1   0.14233 265014.560000
  19491  19492     1   0.15375 251793.120000
  19491  19499     1   0.14233 265014.560000
  19492  19493     1   0.15375 251793.120000
  19492  19498     1   0.14233 265014.560000
  19493  19497     1   0.14316 258236.480000
  19493  19509     1   0.14316 258236.480000
  19501  19507     1   0.14233 265014.560000
  19510  19511     1   0.15375 251793.120000
  19510  19524     1   0.15375 251793.120000
  19510  19532     1   0.14316 258236.480000
  19511  19514     1   0.15375 251793.120000
  19511  19523     1   0.14233 265014.560000
  19514  19515     1   0.15375 251793.120000
  19514  19522     1   0.14233 265014.560000
  19515  19516     1   0.15375 251793.120000
  19515  19521     1   0.14233 265014.560000
  19516  19520     1   0.14316 258236.480000
  19516  19532     1   0.14316 258236.480000
  19524  19530     1   0.14233 265014.560000
  19533  19534     1   0.15375 251793.120000
  19533  19547     1   0.15375 251793.120000
  19533  19555     1   0.14316 258236.480000
  19534  19537     1   0.15375 251793.120000
  19534  19546     1   0.14233 265014.560000
  19537  19538     1   0.15375 251793.120000
  19537  19545     1   0.14233 265014.560000
  19538  19539     1   0.15375 251793.120000
  19538  19544     1   0.14233 265014.560000
  19539  19543     1   0.14316 258236.480000
  19539  19555     1   0.14316 258236.480000
  19547  19553     1   0.14233 265014.560000
  19556  19557     1   0.15375 251793.120000
  19556  19570     1   0.15375 251793.120000
  19556  19578     1   0.14316 258236.480000
  19557  19560     1   0.15375 251793.120000
  19557  19569     1   0.14233 265014.560000
  19560  19561     1   0.15375 251793.120000
  19560  19568     1   0.14233 265014.560000
  19561  19562     1   0.15375 251793.120000
  19561  19567     1   0.14233 265014.560000
  19562  19566     1   0.14316 258236.480000
  19562  19578     1   0.14316 258236.480000
  19570  19576     1   0.14233 265014.560000
  19579  19580     1   0.15375 251793.120000
  19579  19593     1   0.15375 251793.120000
  19579  19601     1   0.14316 258236.480000
  19580  19583     1   0.15375 251793.120000
  19580  19592     1   0.14233 265014.560000
  19583  19584     1   0.15375 251793.120000
  19583  19591     1   0.14233 265014.560000
  19584  19585     1   0.15375 251793.120000
  19584  19590     1   0.14233 265014.560000
  19585  19589     1   0.14316 258236.480000
  19585  19601     1   0.14316 258236.480000
  19593  19599     1   0.14233 265014.560000
  19602  19603     1   0.15375 251793.120000
  19602  19616     1   0.15375 251793.120000
  19602  19624     1   0.14316 258236.480000
  19603  19606     1   0.15375 251793.120000
  19603  19615     1   0.14233 265014.560000
  19606  19607     1   0.15375 251793.120000
  19606  19614     1   0.14233 265014.560000
  19607  19608     1   0.15375 251793.120000
  19607  19613     1   0.14233 265014.560000
  19608  19612     1   0.14316 258236.480000
  19608  19624     1   0.14316 258236.480000
  19616  19622     1   0.14233 265014.560000
  19625  19626     1   0.15375 251793.120000
  19625  19639     1   0.15375 251793.120000
  19625  19647     1   0.14316 258236.480000
  19626  19629     1   0.15375 251793.120000
  19626  19638     1   0.14233 265014.560000
  19629  19630     1   0.15375 251793.120000
  19629  19637     1   0.14233 265014.560000
  19630  19631     1   0.15375 251793.120000
  19630  19636     1   0.14233 265014.560000
  19631  19635     1   0.14316 258236.480000
  19631  19647     1   0.14316 258236.480000
  19639  19645     1   0.14233 265014.560000
  19648  19649     1   0.15375 251793.120000
  19648  19662     1   0.15375 251793.120000
  19648  19670     1   0.14316 258236.480000
  19649  19652     1   0.15375 251793.120000
  19649  19661     1   0.14233 265014.560000
  19652  19653     1   0.15375 251793.120000
  19652  19660     1   0.14233 265014.560000
  19653  19654     1   0.15375 251793.120000
  19653  19659     1   0.14233 265014.560000
  19654  19658     1   0.14316 258236.480000
  19654  19670     1   0.14316 258236.480000
  19662  19668     1   0.14233 265014.560000
  19671  19672     1   0.15375 251793.120000
  19671  19685     1   0.15375 251793.120000
  19671  19693     1   0.14316 258236.480000
  19672  19675     1   0.15375 251793.120000
  19672  19684     1   0.14233 265014.560000
  19675  19676     1   0.15375 251793.120000
  19675  19683     1   0.14233 265014.560000
  19676  19677     1   0.15375 251793.120000
  19676  19682     1   0.14233 265014.560000
  19677  19681     1   0.14316 258236.480000
  19677  19693     1   0.14316 258236.480000
  19685  19691     1   0.14233 265014.560000
  19694  19695     1   0.15375 251793.120000
  19694  19708     1   0.15375 251793.120000
  19694  19716     1   0.14316 258236.480000
  19695  19698     1   0.15375 251793.120000
  19695  19707     1   0.14233 265014.560000
  19698  19699     1   0.15375 251793.120000
  19698  19706     1   0.14233 265014.560000
  19699  19700     1   0.15375 251793.120000
  19699  19705     1   0.14233 265014.560000
  19700  19704     1   0.14316 258236.480000
  19700  19716     1   0.14316 258236.480000
  19708  19714     1   0.14233 265014.560000
  19717  19718     1   0.15375 251793.120000
  19717  19731     1   0.15375 251793.120000
  19717  19739     1   0.14316 258236.480000
  19718  19721     1   0.15375 251793.120000
  19718  19730     1   0.14233 265014.560000
  19721  19722     1   0.15375 251793.120000
  19721  19729     1   0.14233 265014.560000
  19722  19723     1   0.15375 251793.120000
  19722  19728     1   0.14233 265014.560000
  19723  19727     1   0.14316 258236.480000
  19723  19739     1   0.14316 258236.480000
  19731  19737     1   0.14233 265014.560000
  19740  19741     1   0.15375 251793.120000
  19740  19754     1   0.15375 251793.120000
  19740  19762     1   0.14316 258236.480000
  19741  19744     1   0.15375 251793.120000
  19741  19753     1   0.14233 265014.560000
  19744  19745     1   0.15375 251793.120000
  19744  19752     1   0.14233 265014.560000
  19745  19746     1   0.15375 251793.120000
  19745  19751     1   0.14233 265014.560000
  19746  19750     1   0.14316 258236.480000
  19746  19762     1   0.14316 258236.480000
  19754  19760     1   0.14233 265014.560000
  19763  19764     1   0.15375 251793.120000
  19763  19777     1   0.15375 251793.120000
  19763  19785     1   0.14316 258236.480000
  19764  19767     1   0.15375 251793.120000
  19764  19776     1   0.14233 265014.560000
  19767  19768     1   0.15375 251793.120000
  19767  19775     1   0.14233 265014.560000
  19768  19769     1   0.15375 251793.120000
  19768  19774     1   0.14233 265014.560000
  19769  19773     1   0.14316 258236.480000
  19769  19785     1   0.14316 258236.480000
  19777  19783     1   0.14233 265014.560000
  19786  19787     1   0.15375 251793.120000
  19786  19800     1   0.15375 251793.120000
  19786  19808     1   0.14316 258236.480000
  19787  19790     1   0.15375 251793.120000
  19787  19799     1   0.14233 265014.560000
  19790  19791     1   0.15375 251793.120000
  19790  19798     1   0.14233 265014.560000
  19791  19792     1   0.15375 251793.120000
  19791  19797     1   0.14233 265014.560000
  19792  19796     1   0.14316 258236.480000
  19792  19808     1   0.14316 258236.480000
  19800  19806     1   0.14233 265014.560000
  19809  19810     1   0.15375 251793.120000
  19809  19823     1   0.15375 251793.120000
  19809  19831     1   0.14316 258236.480000
  19810  19813     1   0.15375 251793.120000
  19810  19822     1   0.14233 265014.560000
  19813  19814     1   0.15375 251793.120000
  19813  19821     1   0.14233 265014.560000
  19814  19815     1   0.15375 251793.120000
  19814  19820     1   0.14233 265014.560000
  19815  19819     1   0.14316 258236.480000
  19815  19831     1   0.14316 258236.480000
  19823  19829     1   0.14233 265014.560000
  19832  19833     1   0.15375 251793.120000
  19832  19846     1   0.15375 251793.120000
  19832  19854     1   0.14316 258236.480000
  19833  19836     1   0.15375 251793.120000
  19833  19845     1   0.14233 265014.560000
  19836  19837     1   0.15375 251793.120000
  19836  19844     1   0.14233 265014.560000
  19837  19838     1   0.15375 251793.120000
  19837  19843     1   0.14233 265014.560000
  19838  19842     1   0.14316 258236.480000
  19838  19854     1   0.14316 258236.480000
  19846  19852     1   0.14233 265014.560000
  19855  19856     1   0.15375 251793.120000
  19855  19869     1   0.15375 251793.120000
  19855  19877     1   0.14316 258236.480000
  19856  19859     1   0.15375 251793.120000
  19856  19868     1   0.14233 265014.560000
  19859  19860     1   0.15375 251793.120000
  19859  19867     1   0.14233 265014.560000
  19860  19861     1   0.15375 251793.120000
  19860  19866     1   0.14233 265014.560000
  19861  19865     1   0.14316 258236.480000
  19861  19877     1   0.14316 258236.480000
  19869  19875     1   0.14233 265014.560000
  19878  19879     1   0.15375 251793.120000
  19878  19892     1   0.15375 251793.120000
  19878  19900     1   0.14316 258236.480000
  19879  19882     1   0.15375 251793.120000
  19879  19891     1   0.14233 265014.560000
  19882  19883     1   0.15375 251793.120000
  19882  19890     1   0.14233 265014.560000
  19883  19884     1   0.15375 251793.120000
  19883  19889     1   0.14233 265014.560000
  19884  19888     1   0.14316 258236.480000
  19884  19900     1   0.14316 258236.480000
  19892  19898     1   0.14233 265014.560000
  19901  19902     1   0.15375 251793.120000
  19901  19915     1   0.15375 251793.120000
  19901  19923     1   0.14316 258236.480000
  19902  19905     1   0.15375 251793.120000
  19902  19914     1   0.14233 265014.560000
  19905  19906     1   0.15375 251793.120000
  19905  19913     1   0.14233 265014.560000
  19906  19907     1   0.15375 251793.120000
  19906  19912     1   0.14233 265014.560000
  19907  19911     1   0.14316 258236.480000
  19907  19923     1   0.14316 258236.480000
  19915  19921     1   0.14233 265014.560000
  19924  19925     1   0.15375 251793.120000
  19924  19938     1   0.15375 251793.120000
  19924  19946     1   0.14316 258236.480000
  19925  19928     1   0.15375 251793.120000
  19925  19937     1   0.14233 265014.560000
  19928  19929     1   0.15375 251793.120000
  19928  19936     1   0.14233 265014.560000
  19929  19930     1   0.15375 251793.120000
  19929  19935     1   0.14233 265014.560000
  19930  19934     1   0.14316 258236.480000
  19930  19946     1   0.14316 258236.480000
  19938  19944     1   0.14233 265014.560000
  19947  19948     1   0.15375 251793.120000
  19947  19961     1   0.15375 251793.120000
  19947  19969     1   0.14316 258236.480000
  19948  19951     1   0.15375 251793.120000
  19948  19960     1   0.14233 265014.560000
  19951  19952     1   0.15375 251793.120000
  19951  19959     1   0.14233 265014.560000
  19952  19953     1   0.15375 251793.120000
  19952  19958     1   0.14233 265014.560000
  19953  19957     1   0.14316 258236.480000
  19953  19969     1   0.14316 258236.480000
  19961  19967     1   0.14233 265014.560000
  19970  19971     1   0.15375 251793.120000
  19970  19984     1   0.15375 251793.120000
  19970  19992     1   0.14316 258236.480000
  19971  19974     1   0.15375 251793.120000
  19971  19983     1   0.14233 265014.560000
  19974  19975     1   0.15375 251793.120000
  19974  19982     1   0.14233 265014.560000
  19975  19976     1   0.15375 251793.120000
  19975  19981     1   0.14233 265014.560000
  19976  19980     1   0.14316 258236.480000
  19976  19992     1   0.14316 258236.480000
  19984  19990     1   0.14233 265014.560000
  19993  19994     1   0.15375 251793.120000
  19993  20007     1   0.15375 251793.120000
  19993  20015     1   0.14316 258236.480000
  19994  19997     1   0.15375 251793.120000
  19994  20006     1   0.14233 265014.560000
  19997  19998     1   0.15375 251793.120000
  19997  20005     1   0.14233 265014.560000
  19998  19999     1   0.15375 251793.120000
  19998  20004     1   0.14233 265014.560000
  19999  20003     1   0.14316 258236.480000
  19999  20015     1   0.14316 258236.480000
  20007  20013     1   0.14233 265014.560000
  20016  20017     1   0.15375 251793.120000
  20016  20030     1   0.15375 251793.120000
  20016  20038     1   0.14316 258236.480000
  20017  20020     1   0.15375 251793.120000
  20017  20029     1   0.14233 265014.560000
  20020  20021     1   0.15375 251793.120000
  20020  20028     1   0.14233 265014.560000
  20021  20022     1   0.15375 251793.120000
  20021  20027     1   0.14233 265014.560000
  20022  20026     1   0.14316 258236.480000
  20022  20038     1   0.14316 258236.480000
  20030  20036     1   0.14233 265014.560000
  20039  20040     1   0.15375 251793.120000
  20039  20053     1   0.15375 251793.120000
  20039  20061     1   0.14316 258236.480000
  20040  20043     1   0.15375 251793.120000
  20040  20052     1   0.14233 265014.560000
  20043  20044     1   0.15375 251793.120000
  20043  20051     1   0.14233 265014.560000
  20044  20045     1   0.15375 251793.120000
  20044  20050     1   0.14233 265014.560000
  20045  20049     1   0.14316 258236.480000
  20045  20061     1   0.14316 258236.480000
  20053  20059     1   0.14233 265014.560000
  20062  20063     1   0.15375 251793.120000
  20062  20076     1   0.15375 251793.120000
  20062  20084     1   0.14316 258236.480000
  20063  20066     1   0.15375 251793.120000
  20063  20075     1   0.14233 265014.560000
  20066  20067     1   0.15375 251793.120000
  20066  20074     1   0.14233 265014.560000
  20067  20068     1   0.15375 251793.120000
  20067  20073     1   0.14233 265014.560000
  20068  20072     1   0.14316 258236.480000
  20068  20084     1   0.14316 258236.480000
  20076  20082     1   0.14233 265014.560000
  20085  20086     1   0.15375 251793.120000
  20085  20099     1   0.15375 251793.120000
  20085  20107     1   0.14316 258236.480000
  20086  20089     1   0.15375 251793.120000
  20086  20098     1   0.14233 265014.560000
  20089  20090     1   0.15375 251793.120000
  20089  20097     1   0.14233 265014.560000
  20090  20091     1   0.15375 251793.120000
  20090  20096     1   0.14233 265014.560000
  20091  20095     1   0.14316 258236.480000
  20091  20107     1   0.14316 258236.480000
  20099  20105     1   0.14233 265014.560000
  20108  20109     1   0.15375 251793.120000
  20108  20122     1   0.15375 251793.120000
  20108  20130     1   0.14316 258236.480000
  20109  20112     1   0.15375 251793.120000
  20109  20121     1   0.14233 265014.560000
  20112  20113     1   0.15375 251793.120000
  20112  20120     1   0.14233 265014.560000
  20113  20114     1   0.15375 251793.120000
  20113  20119     1   0.14233 265014.560000
  20114  20118     1   0.14316 258236.480000
  20114  20130     1   0.14316 258236.480000
  20122  20128     1   0.14233 265014.560000
  20131  20132     1   0.15375 251793.120000
  20131  20145     1   0.15375 251793.120000
  20131  20153     1   0.14316 258236.480000
  20132  20135     1   0.15375 251793.120000
  20132  20144     1   0.14233 265014.560000
  20135  20136     1   0.15375 251793.120000
  20135  20143     1   0.14233 265014.560000
  20136  20137     1   0.15375 251793.120000
  20136  20142     1   0.14233 265014.560000
  20137  20141     1   0.14316 258236.480000
  20137  20153     1   0.14316 258236.480000
  20145  20151     1   0.14233 265014.560000
  20154  20155     1   0.15375 251793.120000
  20154  20168     1   0.15375 251793.120000
  20154  20176     1   0.14316 258236.480000
  20155  20158     1   0.15375 251793.120000
  20155  20167     1   0.14233 265014.560000
  20158  20159     1   0.15375 251793.120000
  20158  20166     1   0.14233 265014.560000
  20159  20160     1   0.15375 251793.120000
  20159  20165     1   0.14233 265014.560000
  20160  20164     1   0.14316 258236.480000
  20160  20176     1   0.14316 258236.480000
  20168  20174     1   0.14233 265014.560000
  20177  20178     1   0.15375 251793.120000
  20177  20191     1   0.15375 251793.120000
  20177  20199     1   0.14316 258236.480000
  20178  20181     1   0.15375 251793.120000
  20178  20190     1   0.14233 265014.560000
  20181  20182     1   0.15375 251793.120000
  20181  20189     1   0.14233 265014.560000
  20182  20183     1   0.15375 251793.120000
  20182  20188     1   0.14233 265014.560000
  20183  20187     1   0.14316 258236.480000
  20183  20199     1   0.14316 258236.480000
  20191  20197     1   0.14233 265014.560000
  20200  20201     1   0.15375 251793.120000
  20200  20214     1   0.15375 251793.120000
  20200  20222     1   0.14316 258236.480000
  20201  20204     1   0.15375 251793.120000
  20201  20213     1   0.14233 265014.560000
  20204  20205     1   0.15375 251793.120000
  20204  20212     1   0.14233 265014.560000
  20205  20206     1   0.15375 251793.120000
  20205  20211     1   0.14233 265014.560000
  20206  20210     1   0.14316 258236.480000
  20206  20222     1   0.14316 258236.480000
  20214  20220     1   0.14233 265014.560000
  20223  20224     1   0.15375 251793.120000
  20223  20237     1   0.15375 251793.120000
  20223  20245     1   0.14316 258236.480000
  20224  20227     1   0.15375 251793.120000
  20224  20236     1   0.14233 265014.560000
  20227  20228     1   0.15375 251793.120000
  20227  20235     1   0.14233 265014.560000
  20228  20229     1   0.15375 251793.120000
  20228  20234     1   0.14233 265014.560000
  20229  20233     1   0.14316 258236.480000
  20229  20245     1   0.14316 258236.480000
  20237  20243     1   0.14233 265014.560000
  20246  20247     1   0.15375 251793.120000
  20246  20260     1   0.15375 251793.120000
  20246  20268     1   0.14316 258236.480000
  20247  20250     1   0.15375 251793.120000
  20247  20259     1   0.14233 265014.560000
  20250  20251     1   0.15375 251793.120000
  20250  20258     1   0.14233 265014.560000
  20251  20252     1   0.15375 251793.120000
  20251  20257     1   0.14233 265014.560000
  20252  20256     1   0.14316 258236.480000
  20252  20268     1   0.14316 258236.480000
  20260  20266     1   0.14233 265014.560000
  20269  20270     1   0.15375 251793.120000
  20269  20283     1   0.15375 251793.120000
  20269  20291     1   0.14316 258236.480000
  20270  20273     1   0.15375 251793.120000
  20270  20282     1   0.14233 265014.560000
  20273  20274     1   0.15375 251793.120000
  20273  20281     1   0.14233 265014.560000
  20274  20275     1   0.15375 251793.120000
  20274  20280     1   0.14233 265014.560000
  20275  20279     1   0.14316 258236.480000
  20275  20291     1   0.14316 258236.480000
  20283  20289     1   0.14233 265014.560000
      1     29     1   0.10304 312293.760000
      2      3     1   0.10910 283424.160000
      2      4     1   0.10910 283424.160000
      5      6     1   0.10910 283424.160000
      5      7     1   0.10910 283424.160000
      8      9     1   0.10910 283424.160000
      8     10     1   0.10910 283424.160000
     11     12     1   0.10969 276646.080000
     11     13     1   0.10969 276646.080000
     14     15     1   0.10969 276646.080000
     14     16     1   0.10969 276646.080000
     17     18     1   0.10969 276646.080000
     17     19     1   0.10969 276646.080000
     20     21     1   0.10969 276646.080000
     20     22     1   0.10969 276646.080000
     23     24     1   0.10969 276646.080000
     23     25     1   0.10969 276646.080000
     26     27     1   0.10969 276646.080000
     26     28     1   0.10969 276646.080000
     30     59     1   0.10304 312293.760000
     31     32     1   0.10910 283424.160000
     31     33     1   0.10910 283424.160000
     34     35     1   0.10910 283424.160000
     34     36     1   0.10910 283424.160000
     37     38     1   0.10910 283424.160000
     37     39     1   0.10910 283424.160000
     40     41     1   0.10969 276646.080000
     40     42     1   0.10969 276646.080000
     43     44     1   0.10969 276646.080000
     43     45     1   0.10969 276646.080000
     46     47     1   0.10969 276646.080000
     46     48     1   0.10969 276646.080000
     49     50     1   0.10969 276646.080000
     49     51     1   0.10969 276646.080000
     52     53     1   0.10969 276646.080000
     52     54     1   0.10969 276646.080000
     55     56     1   0.10969 276646.080000
     55     57     1   0.10969 276646.080000
     60     89     1   0.10304 312293.760000
     61     62     1   0.10910 283424.160000
     61     63     1   0.10910 283424.160000
     64     65     1   0.10910 283424.160000
     64     66     1   0.10910 283424.160000
     67     68     1   0.10910 283424.160000
     67     69     1   0.10910 283424.160000
     70     71     1   0.10969 276646.080000
     70     72     1   0.10969 276646.080000
     73     74     1   0.10969 276646.080000
     73     75     1   0.10969 276646.080000
     76     77     1   0.10969 276646.080000
     76     78     1   0.10969 276646.080000
     79     80     1   0.10969 276646.080000
     79     81     1   0.10969 276646.080000
     82     83     1   0.10969 276646.080000
     82     84     1   0.10969 276646.080000
     85     86     1   0.10969 276646.080000
     85     87     1   0.10969 276646.080000
     90    119     1   0.10304 312293.760000
     91     92     1   0.10910 283424.160000
     91     93     1   0.10910 283424.160000
     94     95     1   0.10910 283424.160000
     94     96     1   0.10910 283424.160000
     97     98     1   0.10910 283424.160000
     97     99     1   0.10910 283424.160000
    100    101     1   0.10969 276646.080000
    100    102     1   0.10969 276646.080000
    103    104     1   0.10969 276646.080000
    103    105     1   0.10969 276646.080000
    106    107     1   0.10969 276646.080000
    106    108     1   0.10969 276646.080000
    109    110     1   0.10969 276646.080000
    109    111     1   0.10969 276646.080000
    112    113     1   0.10969 276646.080000
    112    114     1   0.10969 276646.080000
    115    116     1   0.10969 276646.080000
    115    117     1   0.10969 276646.080000
    120    149     1   0.10304 312293.760000
    121    122     1   0.10910 283424.160000
    121    123     1   0.10910 283424.160000
    124    125     1   0.10910 283424.160000
    124    126     1   0.10910 283424.160000
    127    128     1   0.10910 283424.160000
    127    129     1   0.10910 283424.160000
    130    131     1   0.10969 276646.080000
    130    132     1   0.10969 276646.080000
    133    134     1   0.10969 276646.080000
    133    135     1   0.10969 276646.080000
    136    137     1   0.10969 276646.080000
    136    138     1   0.10969 276646.080000
    139    140     1   0.10969 276646.080000
    139    141     1   0.10969 276646.080000
    142    143     1   0.10969 276646.080000
    142    144     1   0.10969 276646.080000
    145    146     1   0.10969 276646.080000
    145    147     1   0.10969 276646.080000
    150    179     1   0.10304 312293.760000
    151    152     1   0.10910 283424.160000
    151    153     1   0.10910 283424.160000
    154    155     1   0.10910 283424.160000
    154    156     1   0.10910 283424.160000
    157    158     1   0.10910 283424.160000
    157    159     1   0.10910 283424.160000
    160    161     1   0.10969 276646.080000
    160    162     1   0.10969 276646.080000
    163    164     1   0.10969 276646.080000
    163    165     1   0.10969 276646.080000
    166    167     1   0.10969 276646.080000
    166    168     1   0.10969 276646.080000
    169    170     1   0.10969 276646.080000
    169    171     1   0.10969 276646.080000
    172    173     1   0.10969 276646.080000
    172    174     1   0.10969 276646.080000
    175    176     1   0.10969 276646.080000
    175    177     1   0.10969 276646.080000
    180    209     1   0.10304 312293.760000
    181    182     1   0.10910 283424.160000
    181    183     1   0.10910 283424.160000
    184    185     1   0.10910 283424.160000
    184    186     1   0.10910 283424.160000
    187    188     1   0.10910 283424.160000
    187    189     1   0.10910 283424.160000
    190    191     1   0.10969 276646.080000
    190    192     1   0.10969 276646.080000
    193    194     1   0.10969 276646.080000
    193    195     1   0.10969 276646.080000
    196    197     1   0.10969 276646.080000
    196    198     1   0.10969 276646.080000
    199    200     1   0.10969 276646.080000
    199    201     1   0.10969 276646.080000
    202    203     1   0.10969 276646.080000
    202    204     1   0.10969 276646.080000
    205    206     1   0.10969 276646.080000
    205    207     1   0.10969 276646.080000
    210    239     1   0.10304 312293.760000
    211    212     1   0.10910 283424.160000
    211    213     1   0.10910 283424.160000
    214    215     1   0.10910 283424.160000
    214    216     1   0.10910 283424.160000
    217    218     1   0.10910 283424.160000
    217    219     1   0.10910 283424.160000
    220    221     1   0.10969 276646.080000
    220    222     1   0.10969 276646.080000
    223    224     1   0.10969 276646.080000
    223    225     1   0.10969 276646.080000
    226    227     1   0.10969 276646.080000
    226    228     1   0.10969 276646.080000
    229    230     1   0.10969 276646.080000
    229    231     1   0.10969 276646.080000
    232    233     1   0.10969 276646.080000
    232    234     1   0.10969 276646.080000
    235    236     1   0.10969 276646.080000
    235    237     1   0.10969 276646.080000
    240    269     1   0.10304 312293.760000
    241    242     1   0.10910 283424.160000
    241    243     1   0.10910 283424.160000
    244    245     1   0.10910 283424.160000
    244    246     1   0.10910 283424.160000
    247    248     1   0.10910 283424.160000
    247    249     1   0.10910 283424.160000
    250    251     1   0.10969 276646.080000
    250    252     1   0.10969 276646.080000
    253    254     1   0.10969 276646.080000
    253    255     1   0.10969 276646.080000
    256    257     1   0.10969 276646.080000
    256    258     1   0.10969 276646.080000
    259    260     1   0.10969 276646.080000
    259    261     1   0.10969 276646.080000
    262    263     1   0.10969 276646.080000
    262    264     1   0.10969 276646.080000
    265    266     1   0.10969 276646.080000
    265    267     1   0.10969 276646.080000
    270    299     1   0.10304 312293.760000
    271    272     1   0.10910 283424.160000
    271    273     1   0.10910 283424.160000
    274    275     1   0.10910 283424.160000
    274    276     1   0.10910 283424.160000
    277    278     1   0.10910 283424.160000
    277    279     1   0.10910 283424.160000
    280    281     1   0.10969 276646.080000
    280    282     1   0.10969 276646.080000
    283    284     1   0.10969 276646.080000
    283    285     1   0.10969 276646.080000
    286    287     1   0.10969 276646.080000
    286    288     1   0.10969 276646.080000
    289    290     1   0.10969 276646.080000
    289    291     1   0.10969 276646.080000
    292    293     1   0.10969 276646.080000
    292    294     1   0.10969 276646.080000
    295    296     1   0.10969 276646.080000
    295    297     1   0.10969 276646.080000
    300    329     1   0.10304 312293.760000
    301    302     1   0.10910 283424.160000
    301    303     1   0.10910 283424.160000
    304    305     1   0.10910 283424.160000
    304    306     1   0.10910 283424.160000
    307    308     1   0.10910 283424.160000
    307    309     1   0.10910 283424.160000
    310    311     1   0.10969 276646.080000
    310    312     1   0.10969 276646.080000
    313    314     1   0.10969 276646.080000
    313    315     1   0.10969 276646.080000
    316    317     1   0.10969 276646.080000
    316    318     1   0.10969 276646.080000
    319    320     1   0.10969 276646.080000
    319    321     1   0.10969 276646.080000
    322    323     1   0.10969 276646.080000
    322    324     1   0.10969 276646.080000
    325    326     1   0.10969 276646.080000
    325    327     1   0.10969 276646.080000
    330    359     1   0.10304 312293.760000
    331    332     1   0.10910 283424.160000
    331    333     1   0.10910 283424.160000
    334    335     1   0.10910 283424.160000
    334    336     1   0.10910 283424.160000
    337    338     1   0.10910 283424.160000
    337    339     1   0.10910 283424.160000
    340    341     1   0.10969 276646.080000
    340    342     1   0.10969 276646.080000
    343    344     1   0.10969 276646.080000
    343    345     1   0.10969 276646.080000
    346    347     1   0.10969 276646.080000
    346    348     1   0.10969 276646.080000
    349    350     1   0.10969 276646.080000
    349    351     1   0.10969 276646.080000
    352    353     1   0.10969 276646.080000
    352    354     1   0.10969 276646.080000
    355    356     1   0.10969 276646.080000
    355    357     1   0.10969 276646.080000
    360    389     1   0.10304 312293.760000
    361    362     1   0.10910 283424.160000
    361    363     1   0.10910 283424.160000
    364    365     1   0.10910 283424.160000
    364    366     1   0.10910 283424.160000
    367    368     1   0.10910 283424.160000
    367    369     1   0.10910 283424.160000
    370    371     1   0.10969 276646.080000
    370    372     1   0.10969 276646.080000
    373    374     1   0.10969 276646.080000
    373    375     1   0.10969 276646.080000
    376    377     1   0.10969 276646.080000
    376    378     1   0.10969 276646.080000
    379    380     1   0.10969 276646.080000
    379    381     1   0.10969 276646.080000
    382    383     1   0.10969 276646.080000
    382    384     1   0.10969 276646.080000
    385    386     1   0.10969 276646.080000
    385    387     1   0.10969 276646.080000
    390    419     1   0.10304 312293.760000
    391    392     1   0.10910 283424.160000
    391    393     1   0.10910 283424.160000
    394    395     1   0.10910 283424.160000
    394    396     1   0.10910 283424.160000
    397    398     1   0.10910 283424.160000
    397    399     1   0.10910 283424.160000
    400    401     1   0.10969 276646.080000
    400    402     1   0.10969 276646.080000
    403    404     1   0.10969 276646.080000
    403    405     1   0.10969 276646.080000
    406    407     1   0.10969 276646.080000
    406    408     1   0.10969 276646.080000
    409    410     1   0.10969 276646.080000
    409    411     1   0.10969 276646.080000
    412    413     1   0.10969 276646.080000
    412    414     1   0.10969 276646.080000
    415    416     1   0.10969 276646.080000
    415    417     1   0.10969 276646.080000
    420    449     1   0.10304 312293.760000
    421    422     1   0.10910 283424.160000
    421    423     1   0.10910 283424.160000
    424    425     1   0.10910 283424.160000
    424    426     1   0.10910 283424.160000
    427    428     1   0.10910 283424.160000
    427    429     1   0.10910 283424.160000
    430    431     1   0.10969 276646.080000
    430    432     1   0.10969 276646.080000
    433    434     1   0.10969 276646.080000
    433    435     1   0.10969 276646.080000
    436    437     1   0.10969 276646.080000
    436    438     1   0.10969 276646.080000
    439    440     1   0.10969 276646.080000
    439    441     1   0.10969 276646.080000
    442    443     1   0.10969 276646.080000
    442    444     1   0.10969 276646.080000
    445    446     1   0.10969 276646.080000
    445    447     1   0.10969 276646.080000
    450    479     1   0.10304 312293.760000
    451    452     1   0.10910 283424.160000
    451    453     1   0.10910 283424.160000
    454    455     1   0.10910 283424.160000
    454    456     1   0.10910 283424.160000
    457    458     1   0.10910 283424.160000
    457    459     1   0.10910 283424.160000
    460    461     1   0.10969 276646.080000
    460    462     1   0.10969 276646.080000
    463    464     1   0.10969 276646.080000
    463    465     1   0.10969 276646.080000
    466    467     1   0.10969 276646.080000
    466    468     1   0.10969 276646.080000
    469    470     1   0.10969 276646.080000
    469    471     1   0.10969 276646.080000
    472    473     1   0.10969 276646.080000
    472    474     1   0.10969 276646.080000
    475    476     1   0.10969 276646.080000
    475    477     1   0.10969 276646.080000
    480    509     1   0.10304 312293.760000
    481    482     1   0.10910 283424.160000
    481    483     1   0.10910 283424.160000
    484    485     1   0.10910 283424.160000
    484    486     1   0.10910 283424.160000
    487    488     1   0.10910 283424.160000
    487    489     1   0.10910 283424.160000
    490    491     1   0.10969 276646.080000
    490    492     1   0.10969 276646.080000
    493    494     1   0.10969 276646.080000
    493    495     1   0.10969 276646.080000
    496    497     1   0.10969 276646.080000
    496    498     1   0.10969 276646.080000
    499    500     1   0.10969 276646.080000
    499    501     1   0.10969 276646.080000
    502    503     1   0.10969 276646.080000
    502    504     1   0.10969 276646.080000
    505    506     1   0.10969 276646.080000
    505    507     1   0.10969 276646.080000
    510    539     1   0.10304 312293.760000
    511    512     1   0.10910 283424.160000
    511    513     1   0.10910 283424.160000
    514    515     1   0.10910 283424.160000
    514    516     1   0.10910 283424.160000
    517    518     1   0.10910 283424.160000
    517    519     1   0.10910 283424.160000
    520    521     1   0.10969 276646.080000
    520    522     1   0.10969 276646.080000
    523    524     1   0.10969 276646.080000
    523    525     1   0.10969 276646.080000
    526    527     1   0.10969 276646.080000
    526    528     1   0.10969 276646.080000
    529    530     1   0.10969 276646.080000
    529    531     1   0.10969 276646.080000
    532    533     1   0.10969 276646.080000
    532    534     1   0.10969 276646.080000
    535    536     1   0.10969 276646.080000
    535    537     1   0.10969 276646.080000
    540    569     1   0.10304 312293.760000
    541    542     1   0.10910 283424.160000
    541    543     1   0.10910 283424.160000
    544    545     1   0.10910 283424.160000
    544    546     1   0.10910 283424.160000
    547    548     1   0.10910 283424.160000
    547    549     1   0.10910 283424.160000
    550    551     1   0.10969 276646.080000
    550    552     1   0.10969 276646.080000
    553    554     1   0.10969 276646.080000
    553    555     1   0.10969 276646.080000
    556    557     1   0.10969 276646.080000
    556    558     1   0.10969 276646.080000
    559    560     1   0.10969 276646.080000
    559    561     1   0.10969 276646.080000
    562    563     1   0.10969 276646.080000
    562    564     1   0.10969 276646.080000
    565    566     1   0.10969 276646.080000
    565    567     1   0.10969 276646.080000
    570    599     1   0.10304 312293.760000
    571    572     1   0.10910 283424.160000
    571    573     1   0.10910 283424.160000
    574    575     1   0.10910 283424.160000
    574    576     1   0.10910 283424.160000
    577    578     1   0.10910 283424.160000
    577    579     1   0.10910 283424.160000
    580    581     1   0.10969 276646.080000
    580    582     1   0.10969 276646.080000
    583    584     1   0.10969 276646.080000
    583    585     1   0.10969 276646.080000
    586    587     1   0.10969 276646.080000
    586    588     1   0.10969 276646.080000
    589    590     1   0.10969 276646.080000
    589    591     1   0.10969 276646.080000
    592    593     1   0.10969 276646.080000
    592    594     1   0.10969 276646.080000
    595    596     1   0.10969 276646.080000
    595    597     1   0.10969 276646.080000
    600    629     1   0.10304 312293.760000
    601    602     1   0.10910 283424.160000
    601    603     1   0.10910 283424.160000
    604    605     1   0.10910 283424.160000
    604    606     1   0.10910 283424.160000
    607    608     1   0.10910 283424.160000
    607    609     1   0.10910 283424.160000
    610    611     1   0.10969 276646.080000
    610    612     1   0.10969 276646.080000
    613    614     1   0.10969 276646.080000
    613    615     1   0.10969 276646.080000
    616    617     1   0.10969 276646.080000
    616    618     1   0.10969 276646.080000
    619    620     1   0.10969 276646.080000
    619    621     1   0.10969 276646.080000
    622    623     1   0.10969 276646.080000
    622    624     1   0.10969 276646.080000
    625    626     1   0.10969 276646.080000
    625    627     1   0.10969 276646.080000
    630    659     1   0.10304 312293.760000
    631    632     1   0.10910 283424.160000
    631    633     1   0.10910 283424.160000
    634    635     1   0.10910 283424.160000
    634    636     1   0.10910 283424.160000
    637    638     1   0.10910 283424.160000
    637    639     1   0.10910 283424.160000
    640    641     1   0.10969 276646.080000
    640    642     1   0.10969 276646.080000
    643    644     1   0.10969 276646.080000
    643    645     1   0.10969 276646.080000
    646    647     1   0.10969 276646.080000
    646    648     1   0.10969 276646.080000
    649    650     1   0.10969 276646.080000
    649    651     1   0.10969 276646.080000
    652    653     1   0.10969 276646.080000
    652    654     1   0.10969 276646.080000
    655    656     1   0.10969 276646.080000
    655    657     1   0.10969 276646.080000
    660    689     1   0.10304 312293.760000
    661    662     1   0.10910 283424.160000
    661    663     1   0.10910 283424.160000
    664    665     1   0.10910 283424.160000
    664    666     1   0.10910 283424.160000
    667    668     1   0.10910 283424.160000
    667    669     1   0.10910 283424.160000
    670    671     1   0.10969 276646.080000
    670    672     1   0.10969 276646.080000
    673    674     1   0.10969 276646.080000
    673    675     1   0.10969 276646.080000
    676    677     1   0.10969 276646.080000
    676    678     1   0.10969 276646.080000
    679    680     1   0.10969 276646.080000
    679    681     1   0.10969 276646.080000
    682    683     1   0.10969 276646.080000
    682    684     1   0.10969 276646.080000
    685    686     1   0.10969 276646.080000
    685    687     1   0.10969 276646.080000
    690    719     1   0.10304 312293.760000
    691    692     1   0.10910 283424.160000
    691    693     1   0.10910 283424.160000
    694    695     1   0.10910 283424.160000
    694    696     1   0.10910 283424.160000
    697    698     1   0.10910 283424.160000
    697    699     1   0.10910 283424.160000
    700    701     1   0.10969 276646.080000
    700    702     1   0.10969 276646.080000
    703    704     1   0.10969 276646.080000
    703    705     1   0.10969 276646.080000
    706    707     1   0.10969 276646.080000
    706    708     1   0.10969 276646.080000
    709    710     1   0.10969 276646.080000
    709    711     1   0.10969 276646.080000
    712    713     1   0.10969 276646.080000
    712    714     1   0.10969 276646.080000
    715    716     1   0.10969 276646.080000
    715    717     1   0.10969 276646.080000
    720    749     1   0.10304 312293.760000
    721    722     1   0.10910 283424.160000
    721    723     1   0.10910 283424.160000
    724    725     1   0.10910 283424.160000
    724    726     1   0.10910 283424.160000
    727    728     1   0.10910 283424.160000
    727    729     1   0.10910 283424.160000
    730    731     1   0.10969 276646.080000
    730    732     1   0.10969 276646.080000
    733    734     1   0.10969 276646.080000
    733    735     1   0.10969 276646.080000
    736    737     1   0.10969 276646.080000
    736    738     1   0.10969 276646.080000
    739    740     1   0.10969 276646.080000
    739    741     1   0.10969 276646.080000
    742    743     1   0.10969 276646.080000
    742    744     1   0.10969 276646.080000
    745    746     1   0.10969 276646.080000
    745    747     1   0.10969 276646.080000
    750    779     1   0.10304 312293.760000
    751    752     1   0.10910 283424.160000
    751    753     1   0.10910 283424.160000
    754    755     1   0.10910 283424.160000
    754    756     1   0.10910 283424.160000
    757    758     1   0.10910 283424.160000
    757    759     1   0.10910 283424.160000
    760    761     1   0.10969 276646.080000
    760    762     1   0.10969 276646.080000
    763    764     1   0.10969 276646.080000
    763    765     1   0.10969 276646.080000
    766    767     1   0.10969 276646.080000
    766    768     1   0.10969 276646.080000
    769    770     1   0.10969 276646.080000
    769    771     1   0.10969 276646.080000
    772    773     1   0.10969 276646.080000
    772    774     1   0.10969 276646.080000
    775    776     1   0.10969 276646.080000
    775    777     1   0.10969 276646.080000
    780    809     1   0.10304 312293.760000
    781    782     1   0.10910 283424.160000
    781    783     1   0.10910 283424.160000
    784    785     1   0.10910 283424.160000
    784    786     1   0.10910 283424.160000
    787    788     1   0.10910 283424.160000
    787    789     1   0.10910 283424.160000
    790    791     1   0.10969 276646.080000
    790    792     1   0.10969 276646.080000
    793    794     1   0.10969 276646.080000
    793    795     1   0.10969 276646.080000
    796    797     1   0.10969 276646.080000
    796    798     1   0.10969 276646.080000
    799    800     1   0.10969 276646.080000
    799    801     1   0.10969 276646.080000
    802    803     1   0.10969 276646.080000
    802    804     1   0.10969 276646.080000
    805    806     1   0.10969 276646.080000
    805    807     1   0.10969 276646.080000
    810    839     1   0.10304 312293.760000
    811    812     1   0.10910 283424.160000
    811    813     1   0.10910 283424.160000
    814    815     1   0.10910 283424.160000
    814    816     1   0.10910 283424.160000
    817    818     1   0.10910 283424.160000
    817    819     1   0.10910 283424.160000
    820    821     1   0.10969 276646.080000
    820    822     1   0.10969 276646.080000
    823    824     1   0.10969 276646.080000
    823    825     1   0.10969 276646.080000
    826    827     1   0.10969 276646.080000
    826    828     1   0.10969 276646.080000
    829    830     1   0.10969 276646.080000
    829    831     1   0.10969 276646.080000
    832    833     1   0.10969 276646.080000
    832    834     1   0.10969 276646.080000
    835    836     1   0.10969 276646.080000
    835    837     1   0.10969 276646.080000
    840    869     1   0.10304 312293.760000
    841    842     1   0.10910 283424.160000
    841    843     1   0.10910 283424.160000
    844    845     1   0.10910 283424.160000
    844    846     1   0.10910 283424.160000
    847    848     1   0.10910 283424.160000
    847    849     1   0.10910 283424.160000
    850    851     1   0.10969 276646.080000
    850    852     1   0.10969 276646.080000
    853    854     1   0.10969 276646.080000
    853    855     1   0.10969 276646.080000
    856    857     1   0.10969 276646.080000
    856    858     1   0.10969 276646.080000
    859    860     1   0.10969 276646.080000
    859    861     1   0.10969 276646.080000
    862    863     1   0.10969 276646.080000
    862    864     1   0.10969 276646.080000
    865    866     1   0.10969 276646.080000
    865    867     1   0.10969 276646.080000
    870    899     1   0.10304 312293.760000
    871    872     1   0.10910 283424.160000
    871    873     1   0.10910 283424.160000
    874    875     1   0.10910 283424.160000
    874    876     1   0.10910 283424.160000
    877    878     1   0.10910 283424.160000
    877    879     1   0.10910 283424.160000
    880    881     1   0.10969 276646.080000
    880    882     1   0.10969 276646.080000
    883    884     1   0.10969 276646.080000
    883    885     1   0.10969 276646.080000
    886    887     1   0.10969 276646.080000
    886    888     1   0.10969 276646.080000
    889    890     1   0.10969 276646.080000
    889    891     1   0.10969 276646.080000
    892    893     1   0.10969 276646.080000
    892    894     1   0.10969 276646.080000
    895    896     1   0.10969 276646.080000
    895    897     1   0.10969 276646.080000
    900    929     1   0.10304 312293.760000
    901    902     1   0.10910 283424.160000
    901    903     1   0.10910 283424.160000
    904    905     1   0.10910 283424.160000
    904    906     1   0.10910 283424.160000
    907    908     1   0.10910 283424.160000
    907    909     1   0.10910 283424.160000
    910    911     1   0.10969 276646.080000
    910    912     1   0.10969 276646.080000
    913    914     1   0.10969 276646.080000
    913    915     1   0.10969 276646.080000
    916    917     1   0.10969 276646.080000
    916    918     1   0.10969 276646.080000
    919    920     1   0.10969 276646.080000
    919    921     1   0.10969 276646.080000
    922    923     1   0.10969 276646.080000
    922    924     1   0.10969 276646.080000
    925    926     1   0.10969 276646.080000
    925    927     1   0.10969 276646.080000
    930    959     1   0.10304 312293.760000
    931    932     1   0.10910 283424.160000
    931    933     1   0.10910 283424.160000
    934    935     1   0.10910 283424.160000
    934    936     1   0.10910 283424.160000
    937    938     1   0.10910 283424.160000
    937    939     1   0.10910 283424.160000
    940    941     1   0.10969 276646.080000
    940    942     1   0.10969 276646.080000
    943    944     1   0.10969 276646.080000
    943    945     1   0.10969 276646.080000
    946    947     1   0.10969 276646.080000
    946    948     1   0.10969 276646.080000
    949    950     1   0.10969 276646.080000
    949    951     1   0.10969 276646.080000
    952    953     1   0.10969 276646.080000
    952    954     1   0.10969 276646.080000
    955    956     1   0.10969 276646.080000
    955    957     1   0.10969 276646.080000
    960    989     1   0.10304 312293.760000
    961    962     1   0.10910 283424.160000
    961    963     1   0.10910 283424.160000
    964    965     1   0.10910 283424.160000
    964    966     1   0.10910 283424.160000
    967    968     1   0.10910 283424.160000
    967    969     1   0.10910 283424.160000
    970    971     1   0.10969 276646.080000
    970    972     1   0.10969 276646.080000
    973    974     1   0.10969 276646.080000
    973    975     1   0.10969 276646.080000
    976    977     1   0.10969 276646.080000
    976    978     1   0.10969 276646.080000
    979    980     1   0.10969 276646.080000
    979    981     1   0.10969 276646.080000
    982    983     1   0.10969 276646.080000
    982    984     1   0.10969 276646.080000
    985    986     1   0.10969 276646.080000
    985    987     1   0.10969 276646.080000
    990   1019     1   0.10304 312293.760000
    991    992     1   0.10910 283424.160000
    991    993     1   0.10910 283424.160000
    994    995     1   0.10910 283424.160000
    994    996     1   0.10910 283424.160000
    997    998     1   0.10910 283424.160000
    997    999     1   0.10910 283424.160000
   1000   1001     1   0.10969 276646.080000
   1000   1002     1   0.10969 276646.080000
   1003   1004     1   0.10969 276646.080000
   1003   1005     1   0.10969 276646.080000
   1006   1007     1   0.10969 276646.080000
   1006   1008     1   0.10969 276646.080000
   1009   1010     1   0.10969 276646.080000
   1009   1011     1   0.10969 276646.080000
   1012   1013     1   0.10969 276646.080000
   1012   1014     1   0.10969 276646.080000
   1015   1016     1   0.10969 276646.080000
   1015   1017     1   0.10969 276646.080000
   1020   1049     1   0.10304 312293.760000
   1021   1022     1   0.10910 283424.160000
   1021   1023     1   0.10910 283424.160000
   1024   1025     1   0.10910 283424.160000
   1024   1026     1   0.10910 283424.160000
   1027   1028     1   0.10910 283424.160000
   1027   1029     1   0.10910 283424.160000
   1030   1031     1   0.10969 276646.080000
   1030   1032     1   0.10969 276646.080000
   1033   1034     1   0.10969 276646.080000
   1033   1035     1   0.10969 276646.080000
   1036   1037     1   0.10969 276646.080000
   1036   1038     1   0.10969 276646.080000
   1039   1040     1   0.10969 276646.080000
   1039   1041     1   0.10969 276646.080000
   1042   1043     1   0.10969 276646.080000
   1042   1044     1   0.10969 276646.080000
   1045   1046     1   0.10969 276646.080000
   1045   1047     1   0.10969 276646.080000
   1050   1079     1   0.10304 312293.760000
   1051   1052     1   0.10910 283424.160000
   1051   1053     1   0.10910 283424.160000
   1054   1055     1   0.10910 283424.160000
   1054   1056     1   0.10910 283424.160000
   1057   1058     1   0.10910 283424.160000
   1057   1059     1   0.10910 283424.160000
   1060   1061     1   0.10969 276646.080000
   1060   1062     1   0.10969 276646.080000
   1063   1064     1   0.10969 276646.080000
   1063   1065     1   0.10969 276646.080000
   1066   1067     1   0.10969 276646.080000
   1066   1068     1   0.10969 276646.080000
   1069   1070     1   0.10969 276646.080000
   1069   1071     1   0.10969 276646.080000
   1072   1073     1   0.10969 276646.080000
   1072   1074     1   0.10969 276646.080000
   1075   1076     1   0.10969 276646.080000
   1075   1077     1   0.10969 276646.080000
   1080   1109     1   0.10304 312293.760000
   1081   1082     1   0.10910 283424.160000
   1081   1083     1   0.10910 283424.160000
   1084   1085     1   0.10910 283424.160000
   1084   1086     1   0.10910 283424.160000
   1087   1088     1   0.10910 283424.160000
   1087   1089     1   0.10910 283424.160000
   1090   1091     1   0.10969 276646.080000
   1090   1092     1   0.10969 276646.080000
   1093   1094     1   0.10969 276646.080000
   1093   1095     1   0.10969 276646.080000
   1096   1097     1   0.10969 276646.080000
   1096   1098     1   0.10969 276646.080000
   1099   1100     1   0.10969 276646.080000
   1099   1101     1   0.10969 276646.080000
   1102   1103     1   0.10969 276646.080000
   1102   1104     1   0.10969 276646.080000
   1105   1106     1   0.10969 276646.080000
   1105   1107     1   0.10969 276646.080000
   1110   1139     1   0.10304 312293.760000
   1111   1112     1   0.10910 283424.160000
   1111   1113     1   0.10910 283424.160000
   1114   1115     1   0.10910 283424.160000
   1114   1116     1   0.10910 283424.160000
   1117   1118     1   0.10910 283424.160000
   1117   1119     1   0.10910 283424.160000
   1120   1121     1   0.10969 276646.080000
   1120   1122     1   0.10969 276646.080000
   1123   1124     1   0.10969 276646.080000
   1123   1125     1   0.10969 276646.080000
   1126   1127     1   0.10969 276646.080000
   1126   1128     1   0.10969 276646.080000
   1129   1130     1   0.10969 276646.080000
   1129   1131     1   0.10969 276646.080000
   1132   1133     1   0.10969 276646.080000
   1132   1134     1   0.10969 276646.080000
   1135   1136     1   0.10969 276646.080000
   1135   1137     1   0.10969 276646.080000
   1140   1169     1   0.10304 312293.760000
   1141   1142     1   0.10910 283424.160000
   1141   1143     1   0.10910 283424.160000
   1144   1145     1   0.10910 283424.160000
   1144   1146     1   0.10910 283424.160000
   1147   1148     1   0.10910 283424.160000
   1147   1149     1   0.10910 283424.160000
   1150   1151     1   0.10969 276646.080000
   1150   1152     1   0.10969 276646.080000
   1153   1154     1   0.10969 276646.080000
   1153   1155     1   0.10969 276646.080000
   1156   1157     1   0.10969 276646.080000
   1156   1158     1   0.10969 276646.080000
   1159   1160     1   0.10969 276646.080000
   1159   1161     1   0.10969 276646.080000
   1162   1163     1   0.10969 276646.080000
   1162   1164     1   0.10969 276646.080000
   1165   1166     1   0.10969 276646.080000
   1165   1167     1   0.10969 276646.080000
   1170   1199     1   0.10304 312293.760000
   1171   1172     1   0.10910 283424.160000
   1171   1173     1   0.10910 283424.160000
   1174   1175     1   0.10910 283424.160000
   1174   1176     1   0.10910 283424.160000
   1177   1178     1   0.10910 283424.160000
   1177   1179     1   0.10910 283424.160000
   1180   1181     1   0.10969 276646.080000
   1180   1182     1   0.10969 276646.080000
   1183   1184     1   0.10969 276646.080000
   1183   1185     1   0.10969 276646.080000
   1186   1187     1   0.10969 276646.080000
   1186   1188     1   0.10969 276646.080000
   1189   1190     1   0.10969 276646.080000
   1189   1191     1   0.10969 276646.080000
   1192   1193     1   0.10969 276646.080000
   1192   1194     1   0.10969 276646.080000
   1195   1196     1   0.10969 276646.080000
   1195   1197     1   0.10969 276646.080000
   1200   1229     1   0.10304 312293.760000
   1201   1202     1   0.10910 283424.160000
   1201   1203     1   0.10910 283424.160000
   1204   1205     1   0.10910 283424.160000
   1204   1206     1   0.10910 283424.160000
   1207   1208     1   0.10910 283424.160000
   1207   1209     1   0.10910 283424.160000
   1210   1211     1   0.10969 276646.080000
   1210   1212     1   0.10969 276646.080000
   1213   1214     1   0.10969 276646.080000
   1213   1215     1   0.10969 276646.080000
   1216   1217     1   0.10969 276646.080000
   1216   1218     1   0.10969 276646.080000
   1219   1220     1   0.10969 276646.080000
   1219   1221     1   0.10969 276646.080000
   1222   1223     1   0.10969 276646.080000
   1222   1224     1   0.10969 276646.080000
   1225   1226     1   0.10969 276646.080000
   1225   1227     1   0.10969 276646.080000
   1230   1259     1   0.10304 312293.760000
   1231   1232     1   0.10910 283424.160000
   1231   1233     1   0.10910 283424.160000
   1234   1235     1   0.10910 283424.160000
   1234   1236     1   0.10910 283424.160000
   1237   1238     1   0.10910 283424.160000
   1237   1239     1   0.10910 283424.160000
   1240   1241     1   0.10969 276646.080000
   1240   1242     1   0.10969 276646.080000
   1243   1244     1   0.10969 276646.080000
   1243   1245     1   0.10969 276646.080000
   1246   1247     1   0.10969 276646.080000
   1246   1248     1   0.10969 276646.080000
   1249   1250     1   0.10969 276646.080000
   1249   1251     1   0.10969 276646.080000
   1252   1253     1   0.10969 276646.080000
   1252   1254     1   0.10969 276646.080000
   1255   1256     1   0.10969 276646.080000
   1255   1257     1   0.10969 276646.080000
   1260   1289     1   0.10304 312293.760000
   1261   1262     1   0.10910 283424.160000
   1261   1263     1   0.10910 283424.160000
   1264   1265     1   0.10910 283424.160000
   1264   1266     1   0.10910 283424.160000
   1267   1268     1   0.10910 283424.160000
   1267   1269     1   0.10910 283424.160000
   1270   1271     1   0.10969 276646.080000
   1270   1272     1   0.10969 276646.080000
   1273   1274     1   0.10969 276646.080000
   1273   1275     1   0.10969 276646.080000
   1276   1277     1   0.10969 276646.080000
   1276   1278     1   0.10969 276646.080000
   1279   1280     1   0.10969 276646.080000
   1279   1281     1   0.10969 276646.080000
   1282   1283     1   0.10969 276646.080000
   1282   1284     1   0.10969 276646.080000
   1285   1286     1   0.10969 276646.080000
   1285   1287     1   0.10969 276646.080000
   1290   1319     1   0.10304 312293.760000
   1291   1292     1   0.10910 283424.160000
   1291   1293     1   0.10910 283424.160000
   1294   1295     1   0.10910 283424.160000
   1294   1296     1   0.10910 283424.160000
   1297   1298     1   0.10910 283424.160000
   1297   1299     1   0.10910 283424.160000
   1300   1301     1   0.10969 276646.080000
   1300   1302     1   0.10969 276646.080000
   1303   1304     1   0.10969 276646.080000
   1303   1305     1   0.10969 276646.080000
   1306   1307     1   0.10969 276646.080000
   1306   1308     1   0.10969 276646.080000
   1309   1310     1   0.10969 276646.080000
   1309   1311     1   0.10969 276646.080000
   1312   1313     1   0.10969 276646.080000
   1312   1314     1   0.10969 276646.080000
   1315   1316     1   0.10969 276646.080000
   1315   1317     1   0.10969 276646.080000
   1320   1349     1   0.10304 312293.760000
   1321   1322     1   0.10910 283424.160000
   1321   1323     1   0.10910 283424.160000
   1324   1325     1   0.10910 283424.160000
   1324   1326     1   0.10910 283424.160000
   1327   1328     1   0.10910 283424.160000
   1327   1329     1   0.10910 283424.160000
   1330   1331     1   0.10969 276646.080000
   1330   1332     1   0.10969 276646.080000
   1333   1334     1   0.10969 276646.080000
   1333   1335     1   0.10969 276646.080000
   1336   1337     1   0.10969 276646.080000
   1336   1338     1   0.10969 276646.080000
   1339   1340     1   0.10969 276646.080000
   1339   1341     1   0.10969 276646.080000
   1342   1343     1   0.10969 276646.080000
   1342   1344     1   0.10969 276646.080000
   1345   1346     1   0.10969 276646.080000
   1345   1347     1   0.10969 276646.080000
   1350   1379     1   0.10304 312293.760000
   1351   1352     1   0.10910 283424.160000
   1351   1353     1   0.10910 283424.160000
   1354   1355     1   0.10910 283424.160000
   1354   1356     1   0.10910 283424.160000
   1357   1358     1   0.10910 283424.160000
   1357   1359     1   0.10910 283424.160000
   1360   1361     1   0.10969 276646.080000
   1360   1362     1   0.10969 276646.080000
   1363   1364     1   0.10969 276646.080000
   1363   1365     1   0.10969 276646.080000
   1366   1367     1   0.10969 276646.080000
   1366   1368     1   0.10969 276646.080000
   1369   1370     1   0.10969 276646.080000
   1369   1371     1   0.10969 276646.080000
   1372   1373     1   0.10969 276646.080000
   1372   1374     1   0.10969 276646.080000
   1375   1376     1   0.10969 276646.080000
   1375   1377     1   0.10969 276646.080000
   1380   1409     1   0.10304 312293.760000
   1381   1382     1   0.10910 283424.160000
   1381   1383     1   0.10910 283424.160000
   1384   1385     1   0.10910 283424.160000
   1384   1386     1   0.10910 283424.160000
   1387   1388     1   0.10910 283424.160000
   1387   1389     1   0.10910 283424.160000
   1390   1391     1   0.10969 276646.080000
   1390   1392     1   0.10969 276646.080000
   1393   1394     1   0.10969 276646.080000
   1393   1395     1   0.10969 276646.080000
   1396   1397     1   0.10969 276646.080000
   1396   1398     1   0.10969 276646.080000
   1399   1400     1   0.10969 276646.080000
   1399   1401     1   0.10969 276646.080000
   1402   1403     1   0.10969 276646.080000
   1402   1404     1   0.10969 276646.080000
   1405   1406     1   0.10969 276646.080000
   1405   1407     1   0.10969 276646.080000
   1410   1439     1   0.10304 312293.760000
   1411   1412     1   0.10910 283424.160000
   1411   1413     1   0.10910 283424.160000
   1414   1415     1   0.10910 283424.160000
   1414   1416     1   0.10910 283424.160000
   1417   1418     1   0.10910 283424.160000
   1417   1419     1   0.10910 283424.160000
   1420   1421     1   0.10969 276646.080000
   1420   1422     1   0.10969 276646.080000
   1423   1424     1   0.10969 276646.080000
   1423   1425     1   0.10969 276646.080000
   1426   1427     1   0.10969 276646.080000
   1426   1428     1   0.10969 276646.080000
   1429   1430     1   0.10969 276646.080000
   1429   1431     1   0.10969 276646.080000
   1432   1433     1   0.10969 276646.080000
   1432   1434     1   0.10969 276646.080000
   1435   1436     1   0.10969 276646.080000
   1435   1437     1   0.10969 276646.080000
   1440   1469     1   0.10304 312293.760000
   1441   1442     1   0.10910 283424.160000
   1441   1443     1   0.10910 283424.160000
   1444   1445     1   0.10910 283424.160000
   1444   1446     1   0.10910 283424.160000
   1447   1448     1   0.10910 283424.160000
   1447   1449     1   0.10910 283424.160000
   1450   1451     1   0.10969 276646.080000
   1450   1452     1   0.10969 276646.080000
   1453   1454     1   0.10969 276646.080000
   1453   1455     1   0.10969 276646.080000
   1456   1457     1   0.10969 276646.080000
   1456   1458     1   0.10969 276646.080000
   1459   1460     1   0.10969 276646.080000
   1459   1461     1   0.10969 276646.080000
   1462   1463     1   0.10969 276646.080000
   1462   1464     1   0.10969 276646.080000
   1465   1466     1   0.10969 276646.080000
   1465   1467     1   0.10969 276646.080000
   1470   1499     1   0.10304 312293.760000
   1471   1472     1   0.10910 283424.160000
   1471   1473     1   0.10910 283424.160000
   1474   1475     1   0.10910 283424.160000
   1474   1476     1   0.10910 283424.160000
   1477   1478     1   0.10910 283424.160000
   1477   1479     1   0.10910 283424.160000
   1480   1481     1   0.10969 276646.080000
   1480   1482     1   0.10969 276646.080000
   1483   1484     1   0.10969 276646.080000
   1483   1485     1   0.10969 276646.080000
   1486   1487     1   0.10969 276646.080000
   1486   1488     1   0.10969 276646.080000
   1489   1490     1   0.10969 276646.080000
   1489   1491     1   0.10969 276646.080000
   1492   1493     1   0.10969 276646.080000
   1492   1494     1   0.10969 276646.080000
   1495   1496     1   0.10969 276646.080000
   1495   1497     1   0.10969 276646.080000
   1500   1529     1   0.10304 312293.760000
   1501   1502     1   0.10910 283424.160000
   1501   1503     1   0.10910 283424.160000
   1504   1505     1   0.10910 283424.160000
   1504   1506     1   0.10910 283424.160000
   1507   1508     1   0.10910 283424.160000
   1507   1509     1   0.10910 283424.160000
   1510   1511     1   0.10969 276646.080000
   1510   1512     1   0.10969 276646.080000
   1513   1514     1   0.10969 276646.080000
   1513   1515     1   0.10969 276646.080000
   1516   1517     1   0.10969 276646.080000
   1516   1518     1   0.10969 276646.080000
   1519   1520     1   0.10969 276646.080000
   1519   1521     1   0.10969 276646.080000
   1522   1523     1   0.10969 276646.080000
   1522   1524     1   0.10969 276646.080000
   1525   1526     1   0.10969 276646.080000
   1525   1527     1   0.10969 276646.080000
   1530   1559     1   0.10304 312293.760000
   1531   1532     1   0.10910 283424.160000
   1531   1533     1   0.10910 283424.160000
   1534   1535     1   0.10910 283424.160000
   1534   1536     1   0.10910 283424.160000
   1537   1538     1   0.10910 283424.160000
   1537   1539     1   0.10910 283424.160000
   1540   1541     1   0.10969 276646.080000
   1540   1542     1   0.10969 276646.080000
   1543   1544     1   0.10969 276646.080000
   1543   1545     1   0.10969 276646.080000
   1546   1547     1   0.10969 276646.080000
   1546   1548     1   0.10969 276646.080000
   1549   1550     1   0.10969 276646.080000
   1549   1551     1   0.10969 276646.080000
   1552   1553     1   0.10969 276646.080000
   1552   1554     1   0.10969 276646.080000
   1555   1556     1   0.10969 276646.080000
   1555   1557     1   0.10969 276646.080000
   1560   1589     1   0.10304 312293.760000
   1561   1562     1   0.10910 283424.160000
   1561   1563     1   0.10910 283424.160000
   1564   1565     1   0.10910 283424.160000
   1564   1566     1   0.10910 283424.160000
   1567   1568     1   0.10910 283424.160000
   1567   1569     1   0.10910 283424.160000
   1570   1571     1   0.10969 276646.080000
   1570   1572     1   0.10969 276646.080000
   1573   1574     1   0.10969 276646.080000
   1573   1575     1   0.10969 276646.080000
   1576   1577     1   0.10969 276646.080000
   1576   1578     1   0.10969 276646.080000
   1579   1580     1   0.10969 276646.080000
   1579   1581     1   0.10969 276646.080000
   1582   1583     1   0.10969 276646.080000
   1582   1584     1   0.10969 276646.080000
   1585   1586     1   0.10969 276646.080000
   1585   1587     1   0.10969 276646.080000
   1590   1619     1   0.10304 312293.760000
   1591   1592     1   0.10910 283424.160000
   1591   1593     1   0.10910 283424.160000
   1594   1595     1   0.10910 283424.160000
   1594   1596     1   0.10910 283424.160000
   1597   1598     1   0.10910 283424.160000
   1597   1599     1   0.10910 283424.160000
   1600   1601     1   0.10969 276646.080000
   1600   1602     1   0.10969 276646.080000
   1603   1604     1   0.10969 276646.080000
   1603   1605     1   0.10969 276646.080000
   1606   1607     1   0.10969 276646.080000
   1606   1608     1   0.10969 276646.080000
   1609   1610     1   0.10969 276646.080000
   1609   1611     1   0.10969 276646.080000
   1612   1613     1   0.10969 276646.080000
   1612   1614     1   0.10969 276646.080000
   1615   1616     1   0.10969 276646.080000
   1615   1617     1   0.10969 276646.080000
   1620   1649     1   0.10304 312293.760000
   1621   1622     1   0.10910 283424.160000
   1621   1623     1   0.10910 283424.160000
   1624   1625     1   0.10910 283424.160000
   1624   1626     1   0.10910 283424.160000
   1627   1628     1   0.10910 283424.160000
   1627   1629     1   0.10910 283424.160000
   1630   1631     1   0.10969 276646.080000
   1630   1632     1   0.10969 276646.080000
   1633   1634     1   0.10969 276646.080000
   1633   1635     1   0.10969 276646.080000
   1636   1637     1   0.10969 276646.080000
   1636   1638     1   0.10969 276646.080000
   1639   1640     1   0.10969 276646.080000
   1639   1641     1   0.10969 276646.080000
   1642   1643     1   0.10969 276646.080000
   1642   1644     1   0.10969 276646.080000
   1645   1646     1   0.10969 276646.080000
   1645   1647     1   0.10969 276646.080000
   1650   1679     1   0.10304 312293.760000
   1651   1652     1   0.10910 283424.160000
   1651   1653     1   0.10910 283424.160000
   1654   1655     1   0.10910 283424.160000
   1654   1656     1   0.10910 283424.160000
   1657   1658     1   0.10910 283424.160000
   1657   1659     1   0.10910 283424.160000
   1660   1661     1   0.10969 276646.080000
   1660   1662     1   0.10969 276646.080000
   1663   1664     1   0.10969 276646.080000
   1663   1665     1   0.10969 276646.080000
   1666   1667     1   0.10969 276646.080000
   1666   1668     1   0.10969 276646.080000
   1669   1670     1   0.10969 276646.080000
   1669   1671     1   0.10969 276646.080000
   1672   1673     1   0.10969 276646.080000
   1672   1674     1   0.10969 276646.080000
   1675   1676     1   0.10969 276646.080000
   1675   1677     1   0.10969 276646.080000
   1680   1709     1   0.10304 312293.760000
   1681   1682     1   0.10910 283424.160000
   1681   1683     1   0.10910 283424.160000
   1684   1685     1   0.10910 283424.160000
   1684   1686     1   0.10910 283424.160000
   1687   1688     1   0.10910 283424.160000
   1687   1689     1   0.10910 283424.160000
   1690   1691     1   0.10969 276646.080000
   1690   1692     1   0.10969 276646.080000
   1693   1694     1   0.10969 276646.080000
   1693   1695     1   0.10969 276646.080000
   1696   1697     1   0.10969 276646.080000
   1696   1698     1   0.10969 276646.080000
   1699   1700     1   0.10969 276646.080000
   1699   1701     1   0.10969 276646.080000
   1702   1703     1   0.10969 276646.080000
   1702   1704     1   0.10969 276646.080000
   1705   1706     1   0.10969 276646.080000
   1705   1707     1   0.10969 276646.080000
   1710   1739     1   0.10304 312293.760000
   1711   1712     1   0.10910 283424.160000
   1711   1713     1   0.10910 283424.160000
   1714   1715     1   0.10910 283424.160000
   1714   1716     1   0.10910 283424.160000
   1717   1718     1   0.10910 283424.160000
   1717   1719     1   0.10910 283424.160000
   1720   1721     1   0.10969 276646.080000
   1720   1722     1   0.10969 276646.080000
   1723   1724     1   0.10969 276646.080000
   1723   1725     1   0.10969 276646.080000
   1726   1727     1   0.10969 276646.080000
   1726   1728     1   0.10969 276646.080000
   1729   1730     1   0.10969 276646.080000
   1729   1731     1   0.10969 276646.080000
   1732   1733     1   0.10969 276646.080000
   1732   1734     1   0.10969 276646.080000
   1735   1736     1   0.10969 276646.080000
   1735   1737     1   0.10969 276646.080000
   1740   1769     1   0.10304 312293.760000
   1741   1742     1   0.10910 283424.160000
   1741   1743     1   0.10910 283424.160000
   1744   1745     1   0.10910 283424.160000
   1744   1746     1   0.10910 283424.160000
   1747   1748     1   0.10910 283424.160000
   1747   1749     1   0.10910 283424.160000
   1750   1751     1   0.10969 276646.080000
   1750   1752     1   0.10969 276646.080000
   1753   1754     1   0.10969 276646.080000
   1753   1755     1   0.10969 276646.080000
   1756   1757     1   0.10969 276646.080000
   1756   1758     1   0.10969 276646.080000
   1759   1760     1   0.10969 276646.080000
   1759   1761     1   0.10969 276646.080000
   1762   1763     1   0.10969 276646.080000
   1762   1764     1   0.10969 276646.080000
   1765   1766     1   0.10969 276646.080000
   1765   1767     1   0.10969 276646.080000
   1770   1799     1   0.10304 312293.760000
   1771   1772     1   0.10910 283424.160000
   1771   1773     1   0.10910 283424.160000
   1774   1775     1   0.10910 283424.160000
   1774   1776     1   0.10910 283424.160000
   1777   1778     1   0.10910 283424.160000
   1777   1779     1   0.10910 283424.160000
   1780   1781     1   0.10969 276646.080000
   1780   1782     1   0.10969 276646.080000
   1783   1784     1   0.10969 276646.080000
   1783   1785     1   0.10969 276646.080000
   1786   1787     1   0.10969 276646.080000
   1786   1788     1   0.10969 276646.080000
   1789   1790     1   0.10969 276646.080000
   1789   1791     1   0.10969 276646.080000
   1792   1793     1   0.10969 276646.080000
   1792   1794     1   0.10969 276646.080000
   1795   1796     1   0.10969 276646.080000
   1795   1797     1   0.10969 276646.080000
   1800   1829     1   0.10304 312293.760000
   1801   1802     1   0.10910 283424.160000
   1801   1803     1   0.10910 283424.160000
   1804   1805     1   0.10910 283424.160000
   1804   1806     1   0.10910 283424.160000
   1807   1808     1   0.10910 283424.160000
   1807   1809     1   0.10910 283424.160000
   1810   1811     1   0.10969 276646.080000
   1810   1812     1   0.10969 276646.080000
   1813   1814     1   0.10969 276646.080000
   1813   1815     1   0.10969 276646.080000
   1816   1817     1   0.10969 276646.080000
   1816   1818     1   0.10969 276646.080000
   1819   1820     1   0.10969 276646.080000
   1819   1821     1   0.10969 276646.080000
   1822   1823     1   0.10969 276646.080000
   1822   1824     1   0.10969 276646.080000
   1825   1826     1   0.10969 276646.080000
   1825   1827     1   0.10969 276646.080000
   1830   1859     1   0.10304 312293.760000
   1831   1832     1   0.10910 283424.160000
   1831   1833     1   0.10910 283424.160000
   1834   1835     1   0.10910 283424.160000
   1834   1836     1   0.10910 283424.160000
   1837   1838     1   0.10910 283424.160000
   1837   1839     1   0.10910 283424.160000
   1840   1841     1   0.10969 276646.080000
   1840   1842     1   0.10969 276646.080000
   1843   1844     1   0.10969 276646.080000
   1843   1845     1   0.10969 276646.080000
   1846   1847     1   0.10969 276646.080000
   1846   1848     1   0.10969 276646.080000
   1849   1850     1   0.10969 276646.080000
   1849   1851     1   0.10969 276646.080000
   1852   1853     1   0.10969 276646.080000
   1852   1854     1   0.10969 276646.080000
   1855   1856     1   0.10969 276646.080000
   1855   1857     1   0.10969 276646.080000
   1860   1889     1   0.10304 312293.760000
   1861   1862     1   0.10910 283424.160000
   1861   1863     1   0.10910 283424.160000
   1864   1865     1   0.10910 283424.160000
   1864   1866     1   0.10910 283424.160000
   1867   1868     1   0.10910 283424.160000
   1867   1869     1   0.10910 283424.160000
   1870   1871     1   0.10969 276646.080000
   1870   1872     1   0.10969 276646.080000
   1873   1874     1   0.10969 276646.080000
   1873   1875     1   0.10969 276646.080000
   1876   1877     1   0.10969 276646.080000
   1876   1878     1   0.10969 276646.080000
   1879   1880     1   0.10969 276646.080000
   1879   1881     1   0.10969 276646.080000
   1882   1883     1   0.10969 276646.080000
   1882   1884     1   0.10969 276646.080000
   1885   1886     1   0.10969 276646.080000
   1885   1887     1   0.10969 276646.080000
   1890   1919     1   0.10304 312293.760000
   1891   1892     1   0.10910 283424.160000
   1891   1893     1   0.10910 283424.160000
   1894   1895     1   0.10910 283424.160000
   1894   1896     1   0.10910 283424.160000
   1897   1898     1   0.10910 283424.160000
   1897   1899     1   0.10910 283424.160000
   1900   1901     1   0.10969 276646.080000
   1900   1902     1   0.10969 276646.080000
   1903   1904     1   0.10969 276646.080000
   1903   1905     1   0.10969 276646.080000
   1906   1907     1   0.10969 276646.080000
   1906   1908     1   0.10969 276646.080000
   1909   1910     1   0.10969 276646.080000
   1909   1911     1   0.10969 276646.080000
   1912   1913     1   0.10969 276646.080000
   1912   1914     1   0.10969 276646.080000
   1915   1916     1   0.10969 276646.080000
   1915   1917     1   0.10969 276646.080000
   1920   1949     1   0.10304 312293.760000
   1921   1922     1   0.10910 283424.160000
   1921   1923     1   0.10910 283424.160000
   1924   1925     1   0.10910 283424.160000
   1924   1926     1   0.10910 283424.160000
   1927   1928     1   0.10910 283424.160000
   1927   1929     1   0.10910 283424.160000
   1930   1931     1   0.10969 276646.080000
   1930   1932     1   0.10969 276646.080000
   1933   1934     1   0.10969 276646.080000
   1933   1935     1   0.10969 276646.080000
   1936   1937     1   0.10969 276646.080000
   1936   1938     1   0.10969 276646.080000
   1939   1940     1   0.10969 276646.080000
   1939   1941     1   0.10969 276646.080000
   1942   1943     1   0.10969 276646.080000
   1942   1944     1   0.10969 276646.080000
   1945   1946     1   0.10969 276646.080000
   1945   1947     1   0.10969 276646.080000
   1950   1979     1   0.10304 312293.760000
   1951   1952     1   0.10910 283424.160000
   1951   1953     1   0.10910 283424.160000
   1954   1955     1   0.10910 283424.160000
   1954   1956     1   0.10910 283424.160000
   1957   1958     1   0.10910 283424.160000
   1957   1959     1   0.10910 283424.160000
   1960   1961     1   0.10969 276646.080000
   1960   1962     1   0.10969 276646.080000
   1963   1964     1   0.10969 276646.080000
   1963   1965     1   0.10969 276646.080000
   1966   1967     1   0.10969 276646.080000
   1966   1968     1   0.10969 276646.080000
   1969   1970     1   0.10969 276646.080000
   1969   1971     1   0.10969 276646.080000
   1972   1973     1   0.10969 276646.080000
   1972   1974     1   0.10969 276646.080000
   1975   1976     1   0.10969 276646.080000
   1975   1977     1   0.10969 276646.080000
   1980   2009     1   0.10304 312293.760000
   1981   1982     1   0.10910 283424.160000
   1981   1983     1   0.10910 283424.160000
   1984   1985     1   0.10910 283424.160000
   1984   1986     1   0.10910 283424.160000
   1987   1988     1   0.10910 283424.160000
   1987   1989     1   0.10910 283424.160000
   1990   1991     1   0.10969 276646.080000
   1990   1992     1   0.10969 276646.080000
   1993   1994     1   0.10969 276646.080000
   1993   1995     1   0.10969 276646.080000
   1996   1997     1   0.10969 276646.080000
   1996   1998     1   0.10969 276646.080000
   1999   2000     1   0.10969 276646.080000
   1999   2001     1   0.10969 276646.080000
   2002   2003     1   0.10969 276646.080000
   2002   2004     1   0.10969 276646.080000
   2005   2006     1   0.10969 276646.080000
   2005   2007     1   0.10969 276646.080000
   2010   2039     1   0.10304 312293.760000
   2011   2012     1   0.10910 283424.160000
   2011   2013     1   0.10910 283424.160000
   2014   2015     1   0.10910 283424.160000
   2014   2016     1   0.10910 283424.160000
   2017   2018     1   0.10910 283424.160000
   2017   2019     1   0.10910 283424.160000
   2020   2021     1   0.10969 276646.080000
   2020   2022     1   0.10969 276646.080000
   2023   2024     1   0.10969 276646.080000
   2023   2025     1   0.10969 276646.080000
   2026   2027     1   0.10969 276646.080000
   2026   2028     1   0.10969 276646.080000
   2029   2030     1   0.10969 276646.080000
   2029   2031     1   0.10969 276646.080000
   2032   2033     1   0.10969 276646.080000
   2032   2034     1   0.10969 276646.080000
   2035   2036     1   0.10969 276646.080000
   2035   2037     1   0.10969 276646.080000
   2040   2069     1   0.10304 312293.760000
   2041   2042     1   0.10910 283424.160000
   2041   2043     1   0.10910 283424.160000
   2044   2045     1   0.10910 283424.160000
   2044   2046     1   0.10910 283424.160000
   2047   2048     1   0.10910 283424.160000
   2047   2049     1   0.10910 283424.160000
   2050   2051     1   0.10969 276646.080000
   2050   2052     1   0.10969 276646.080000
   2053   2054     1   0.10969 276646.080000
   2053   2055     1   0.10969 276646.080000
   2056   2057     1   0.10969 276646.080000
   2056   2058     1   0.10969 276646.080000
   2059   2060     1   0.10969 276646.080000
   2059   2061     1   0.10969 276646.080000
   2062   2063     1   0.10969 276646.080000
   2062   2064     1   0.10969 276646.080000
   2065   2066     1   0.10969 276646.080000
   2065   2067     1   0.10969 276646.080000
   2070   2099     1   0.10304 312293.760000
   2071   2072     1   0.10910 283424.160000
   2071   2073     1   0.10910 283424.160000
   2074   2075     1   0.10910 283424.160000
   2074   2076     1   0.10910 283424.160000
   2077   2078     1   0.10910 283424.160000
   2077   2079     1   0.10910 283424.160000
   2080   2081     1   0.10969 276646.080000
   2080   2082     1   0.10969 276646.080000
   2083   2084     1   0.10969 276646.080000
   2083   2085     1   0.10969 276646.080000
   2086   2087     1   0.10969 276646.080000
   2086   2088     1   0.10969 276646.080000
   2089   2090     1   0.10969 276646.080000
   2089   2091     1   0.10969 276646.080000
   2092   2093     1   0.10969 276646.080000
   2092   2094     1   0.10969 276646.080000
   2095   2096     1   0.10969 276646.080000
   2095   2097     1   0.10969 276646.080000
   2100   2129     1   0.10304 312293.760000
   2101   2102     1   0.10910 283424.160000
   2101   2103     1   0.10910 283424.160000
   2104   2105     1   0.10910 283424.160000
   2104   2106     1   0.10910 283424.160000
   2107   2108     1   0.10910 283424.160000
   2107   2109     1   0.10910 283424.160000
   2110   2111     1   0.10969 276646.080000
   2110   2112     1   0.10969 276646.080000
   2113   2114     1   0.10969 276646.080000
   2113   2115     1   0.10969 276646.080000
   2116   2117     1   0.10969 276646.080000
   2116   2118     1   0.10969 276646.080000
   2119   2120     1   0.10969 276646.080000
   2119   2121     1   0.10969 276646.080000
   2122   2123     1   0.10969 276646.080000
   2122   2124     1   0.10969 276646.080000
   2125   2126     1   0.10969 276646.080000
   2125   2127     1   0.10969 276646.080000
   2130   2159     1   0.10304 312293.760000
   2131   2132     1   0.10910 283424.160000
   2131   2133     1   0.10910 283424.160000
   2134   2135     1   0.10910 283424.160000
   2134   2136     1   0.10910 283424.160000
   2137   2138     1   0.10910 283424.160000
   2137   2139     1   0.10910 283424.160000
   2140   2141     1   0.10969 276646.080000
   2140   2142     1   0.10969 276646.080000
   2143   2144     1   0.10969 276646.080000
   2143   2145     1   0.10969 276646.080000
   2146   2147     1   0.10969 276646.080000
   2146   2148     1   0.10969 276646.080000
   2149   2150     1   0.10969 276646.080000
   2149   2151     1   0.10969 276646.080000
   2152   2153     1   0.10969 276646.080000
   2152   2154     1   0.10969 276646.080000
   2155   2156     1   0.10969 276646.080000
   2155   2157     1   0.10969 276646.080000
   2160   2189     1   0.10304 312293.760000
   2161   2162     1   0.10910 283424.160000
   2161   2163     1   0.10910 283424.160000
   2164   2165     1   0.10910 283424.160000
   2164   2166     1   0.10910 283424.160000
   2167   2168     1   0.10910 283424.160000
   2167   2169     1   0.10910 283424.160000
   2170   2171     1   0.10969 276646.080000
   2170   2172     1   0.10969 276646.080000
   2173   2174     1   0.10969 276646.080000
   2173   2175     1   0.10969 276646.080000
   2176   2177     1   0.10969 276646.080000
   2176   2178     1   0.10969 276646.080000
   2179   2180     1   0.10969 276646.080000
   2179   2181     1   0.10969 276646.080000
   2182   2183     1   0.10969 276646.080000
   2182   2184     1   0.10969 276646.080000
   2185   2186     1   0.10969 276646.080000
   2185   2187     1   0.10969 276646.080000
   2190   2219     1   0.10304 312293.760000
   2191   2192     1   0.10910 283424.160000
   2191   2193     1   0.10910 283424.160000
   2194   2195     1   0.10910 283424.160000
   2194   2196     1   0.10910 283424.160000
   2197   2198     1   0.10910 283424.160000
   2197   2199     1   0.10910 283424.160000
   2200   2201     1   0.10969 276646.080000
   2200   2202     1   0.10969 276646.080000
   2203   2204     1   0.10969 276646.080000
   2203   2205     1   0.10969 276646.080000
   2206   2207     1   0.10969 276646.080000
   2206   2208     1   0.10969 276646.080000
   2209   2210     1   0.10969 276646.080000
   2209   2211     1   0.10969 276646.080000
   2212   2213     1   0.10969 276646.080000
   2212   2214     1   0.10969 276646.080000
   2215   2216     1   0.10969 276646.080000
   2215   2217     1   0.10969 276646.080000
   2220   2249     1   0.10304 312293.760000
   2221   2222     1   0.10910 283424.160000
   2221   2223     1   0.10910 283424.160000
   2224   2225     1   0.10910 283424.160000
   2224   2226     1   0.10910 283424.160000
   2227   2228     1   0.10910 283424.160000
   2227   2229     1   0.10910 283424.160000
   2230   2231     1   0.10969 276646.080000
   2230   2232     1   0.10969 276646.080000
   2233   2234     1   0.10969 276646.080000
   2233   2235     1   0.10969 276646.080000
   2236   2237     1   0.10969 276646.080000
   2236   2238     1   0.10969 276646.080000
   2239   2240     1   0.10969 276646.080000
   2239   2241     1   0.10969 276646.080000
   2242   2243     1   0.10969 276646.080000
   2242   2244     1   0.10969 276646.080000
   2245   2246     1   0.10969 276646.080000
   2245   2247     1   0.10969 276646.080000
   2250   2279     1   0.10304 312293.760000
   2251   2252     1   0.10910 283424.160000
   2251   2253     1   0.10910 283424.160000
   2254   2255     1   0.10910 283424.160000
   2254   2256     1   0.10910 283424.160000
   2257   2258     1   0.10910 283424.160000
   2257   2259     1   0.10910 283424.160000
   2260   2261     1   0.10969 276646.080000
   2260   2262     1   0.10969 276646.080000
   2263   2264     1   0.10969 276646.080000
   2263   2265     1   0.10969 276646.080000
   2266   2267     1   0.10969 276646.080000
   2266   2268     1   0.10969 276646.080000
   2269   2270     1   0.10969 276646.080000
   2269   2271     1   0.10969 276646.080000
   2272   2273     1   0.10969 276646.080000
   2272   2274     1   0.10969 276646.080000
   2275   2276     1   0.10969 276646.080000
   2275   2277     1   0.10969 276646.080000
   2280   2309     1   0.10304 312293.760000
   2281   2282     1   0.10910 283424.160000
   2281   2283     1   0.10910 283424.160000
   2284   2285     1   0.10910 283424.160000
   2284   2286     1   0.10910 283424.160000
   2287   2288     1   0.10910 283424.160000
   2287   2289     1   0.10910 283424.160000
   2290   2291     1   0.10969 276646.080000
   2290   2292     1   0.10969 276646.080000
   2293   2294     1   0.10969 276646.080000
   2293   2295     1   0.10969 276646.080000
   2296   2297     1   0.10969 276646.080000
   2296   2298     1   0.10969 276646.080000
   2299   2300     1   0.10969 276646.080000
   2299   2301     1   0.10969 276646.080000
   2302   2303     1   0.10969 276646.080000
   2302   2304     1   0.10969 276646.080000
   2305   2306     1   0.10969 276646.080000
   2305   2307     1   0.10969 276646.080000
   2310   2339     1   0.10304 312293.760000
   2311   2312     1   0.10910 283424.160000
   2311   2313     1   0.10910 283424.160000
   2314   2315     1   0.10910 283424.160000
   2314   2316     1   0.10910 283424.160000
   2317   2318     1   0.10910 283424.160000
   2317   2319     1   0.10910 283424.160000
   2320   2321     1   0.10969 276646.080000
   2320   2322     1   0.10969 276646.080000
   2323   2324     1   0.10969 276646.080000
   2323   2325     1   0.10969 276646.080000
   2326   2327     1   0.10969 276646.080000
   2326   2328     1   0.10969 276646.080000
   2329   2330     1   0.10969 276646.080000
   2329   2331     1   0.10969 276646.080000
   2332   2333     1   0.10969 276646.080000
   2332   2334     1   0.10969 276646.080000
   2335   2336     1   0.10969 276646.080000
   2335   2337     1   0.10969 276646.080000
   2340   2369     1   0.10304 312293.760000
   2341   2342     1   0.10910 283424.160000
   2341   2343     1   0.10910 283424.160000
   2344   2345     1   0.10910 283424.160000
   2344   2346     1   0.10910 283424.160000
   2347   2348     1   0.10910 283424.160000
   2347   2349     1   0.10910 283424.160000
   2350   2351     1   0.10969 276646.080000
   2350   2352     1   0.10969 276646.080000
   2353   2354     1   0.10969 276646.080000
   2353   2355     1   0.10969 276646.080000
   2356   2357     1   0.10969 276646.080000
   2356   2358     1   0.10969 276646.080000
   2359   2360     1   0.10969 276646.080000
   2359   2361     1   0.10969 276646.080000
   2362   2363     1   0.10969 276646.080000
   2362   2364     1   0.10969 276646.080000
   2365   2366     1   0.10969 276646.080000
   2365   2367     1   0.10969 276646.080000
   2370   2399     1   0.10304 312293.760000
   2371   2372     1   0.10910 283424.160000
   2371   2373     1   0.10910 283424.160000
   2374   2375     1   0.10910 283424.160000
   2374   2376     1   0.10910 283424.160000
   2377   2378     1   0.10910 283424.160000
   2377   2379     1   0.10910 283424.160000
   2380   2381     1   0.10969 276646.080000
   2380   2382     1   0.10969 276646.080000
   2383   2384     1   0.10969 276646.080000
   2383   2385     1   0.10969 276646.080000
   2386   2387     1   0.10969 276646.080000
   2386   2388     1   0.10969 276646.080000
   2389   2390     1   0.10969 276646.080000
   2389   2391     1   0.10969 276646.080000
   2392   2393     1   0.10969 276646.080000
   2392   2394     1   0.10969 276646.080000
   2395   2396     1   0.10969 276646.080000
   2395   2397     1   0.10969 276646.080000
   2400   2429     1   0.10304 312293.760000
   2401   2402     1   0.10910 283424.160000
   2401   2403     1   0.10910 283424.160000
   2404   2405     1   0.10910 283424.160000
   2404   2406     1   0.10910 283424.160000
   2407   2408     1   0.10910 283424.160000
   2407   2409     1   0.10910 283424.160000
   2410   2411     1   0.10969 276646.080000
   2410   2412     1   0.10969 276646.080000
   2413   2414     1   0.10969 276646.080000
   2413   2415     1   0.10969 276646.080000
   2416   2417     1   0.10969 276646.080000
   2416   2418     1   0.10969 276646.080000
   2419   2420     1   0.10969 276646.080000
   2419   2421     1   0.10969 276646.080000
   2422   2423     1   0.10969 276646.080000
   2422   2424     1   0.10969 276646.080000
   2425   2426     1   0.10969 276646.080000
   2425   2427     1   0.10969 276646.080000
   2430   2459     1   0.10304 312293.760000
   2431   2432     1   0.10910 283424.160000
   2431   2433     1   0.10910 283424.160000
   2434   2435     1   0.10910 283424.160000
   2434   2436     1   0.10910 283424.160000
   2437   2438     1   0.10910 283424.160000
   2437   2439     1   0.10910 283424.160000
   2440   2441     1   0.10969 276646.080000
   2440   2442     1   0.10969 276646.080000
   2443   2444     1   0.10969 276646.080000
   2443   2445     1   0.10969 276646.080000
   2446   2447     1   0.10969 276646.080000
   2446   2448     1   0.10969 276646.080000
   2449   2450     1   0.10969 276646.080000
   2449   2451     1   0.10969 276646.080000
   2452   2453     1   0.10969 276646.080000
   2452   2454     1   0.10969 276646.080000
   2455   2456     1   0.10969 276646.080000
   2455   2457     1   0.10969 276646.080000
   2460   2489     1   0.10304 312293.760000
   2461   2462     1   0.10910 283424.160000
   2461   2463     1   0.10910 283424.160000
   2464   2465     1   0.10910 283424.160000
   2464   2466     1   0.10910 283424.160000
   2467   2468     1   0.10910 283424.160000
   2467   2469     1   0.10910 283424.160000
   2470   2471     1   0.10969 276646.080000
   2470   2472     1   0.10969 276646.080000
   2473   2474     1   0.10969 276646.080000
   2473   2475     1   0.10969 276646.080000
   2476   2477     1   0.10969 276646.080000
   2476   2478     1   0.10969 276646.080000
   2479   2480     1   0.10969 276646.080000
   2479   2481     1   0.10969 276646.080000
   2482   2483     1   0.10969 276646.080000
   2482   2484     1   0.10969 276646.080000
   2485   2486     1   0.10969 276646.080000
   2485   2487     1   0.10969 276646.080000
   2490   2519     1   0.10304 312293.760000
   2491   2492     1   0.10910 283424.160000
   2491   2493     1   0.10910 283424.160000
   2494   2495     1   0.10910 283424.160000
   2494   2496     1   0.10910 283424.160000
   2497   2498     1   0.10910 283424.160000
   2497   2499     1   0.10910 283424.160000
   2500   2501     1   0.10969 276646.080000
   2500   2502     1   0.10969 276646.080000
   2503   2504     1   0.10969 276646.080000
   2503   2505     1   0.10969 276646.080000
   2506   2507     1   0.10969 276646.080000
   2506   2508     1   0.10969 276646.080000
   2509   2510     1   0.10969 276646.080000
   2509   2511     1   0.10969 276646.080000
   2512   2513     1   0.10969 276646.080000
   2512   2514     1   0.10969 276646.080000
   2515   2516     1   0.10969 276646.080000
   2515   2517     1   0.10969 276646.080000
   2520   2549     1   0.10304 312293.760000
   2521   2522     1   0.10910 283424.160000
   2521   2523     1   0.10910 283424.160000
   2524   2525     1   0.10910 283424.160000
   2524   2526     1   0.10910 283424.160000
   2527   2528     1   0.10910 283424.160000
   2527   2529     1   0.10910 283424.160000
   2530   2531     1   0.10969 276646.080000
   2530   2532     1   0.10969 276646.080000
   2533   2534     1   0.10969 276646.080000
   2533   2535     1   0.10969 276646.080000
   2536   2537     1   0.10969 276646.080000
   2536   2538     1   0.10969 276646.080000
   2539   2540     1   0.10969 276646.080000
   2539   2541     1   0.10969 276646.080000
   2542   2543     1   0.10969 276646.080000
   2542   2544     1   0.10969 276646.080000
   2545   2546     1   0.10969 276646.080000
   2545   2547     1   0.10969 276646.080000
   2550   2579     1   0.10304 312293.760000
   2551   2552     1   0.10910 283424.160000
   2551   2553     1   0.10910 283424.160000
   2554   2555     1   0.10910 283424.160000
   2554   2556     1   0.10910 283424.160000
   2557   2558     1   0.10910 283424.160000
   2557   2559     1   0.10910 283424.160000
   2560   2561     1   0.10969 276646.080000
   2560   2562     1   0.10969 276646.080000
   2563   2564     1   0.10969 276646.080000
   2563   2565     1   0.10969 276646.080000
   2566   2567     1   0.10969 276646.080000
   2566   2568     1   0.10969 276646.080000
   2569   2570     1   0.10969 276646.080000
   2569   2571     1   0.10969 276646.080000
   2572   2573     1   0.10969 276646.080000
   2572   2574     1   0.10969 276646.080000
   2575   2576     1   0.10969 276646.080000
   2575   2577     1   0.10969 276646.080000
   2580   2609     1   0.10304 312293.760000
   2581   2582     1   0.10910 283424.160000
   2581   2583     1   0.10910 283424.160000
   2584   2585     1   0.10910 283424.160000
   2584   2586     1   0.10910 283424.160000
   2587   2588     1   0.10910 283424.160000
   2587   2589     1   0.10910 283424.160000
   2590   2591     1   0.10969 276646.080000
   2590   2592     1   0.10969 276646.080000
   2593   2594     1   0.10969 276646.080000
   2593   2595     1   0.10969 276646.080000
   2596   2597     1   0.10969 276646.080000
   2596   2598     1   0.10969 276646.080000
   2599   2600     1   0.10969 276646.080000
   2599   2601     1   0.10969 276646.080000
   2602   2603     1   0.10969 276646.080000
   2602   2604     1   0.10969 276646.080000
   2605   2606     1   0.10969 276646.080000
   2605   2607     1   0.10969 276646.080000
   2610   2639     1   0.10304 312293.760000
   2611   2612     1   0.10910 283424.160000
   2611   2613     1   0.10910 283424.160000
   2614   2615     1   0.10910 283424.160000
   2614   2616     1   0.10910 283424.160000
   2617   2618     1   0.10910 283424.160000
   2617   2619     1   0.10910 283424.160000
   2620   2621     1   0.10969 276646.080000
   2620   2622     1   0.10969 276646.080000
   2623   2624     1   0.10969 276646.080000
   2623   2625     1   0.10969 276646.080000
   2626   2627     1   0.10969 276646.080000
   2626   2628     1   0.10969 276646.080000
   2629   2630     1   0.10969 276646.080000
   2629   2631     1   0.10969 276646.080000
   2632   2633     1   0.10969 276646.080000
   2632   2634     1   0.10969 276646.080000
   2635   2636     1   0.10969 276646.080000
   2635   2637     1   0.10969 276646.080000
   2640   2669     1   0.10304 312293.760000
   2641   2642     1   0.10910 283424.160000
   2641   2643     1   0.10910 283424.160000
   2644   2645     1   0.10910 283424.160000
   2644   2646     1   0.10910 283424.160000
   2647   2648     1   0.10910 283424.160000
   2647   2649     1   0.10910 283424.160000
   2650   2651     1   0.10969 276646.080000
   2650   2652     1   0.10969 276646.080000
   2653   2654     1   0.10969 276646.080000
   2653   2655     1   0.10969 276646.080000
   2656   2657     1   0.10969 276646.080000
   2656   2658     1   0.10969 276646.080000
   2659   2660     1   0.10969 276646.080000
   2659   2661     1   0.10969 276646.080000
   2662   2663     1   0.10969 276646.080000
   2662   2664     1   0.10969 276646.080000
   2665   2666     1   0.10969 276646.080000
   2665   2667     1   0.10969 276646.080000
   2670   2699     1   0.10304 312293.760000
   2671   2672     1   0.10910 283424.160000
   2671   2673     1   0.10910 283424.160000
   2674   2675     1   0.10910 283424.160000
   2674   2676     1   0.10910 283424.160000
   2677   2678     1   0.10910 283424.160000
   2677   2679     1   0.10910 283424.160000
   2680   2681     1   0.10969 276646.080000
   2680   2682     1   0.10969 276646.080000
   2683   2684     1   0.10969 276646.080000
   2683   2685     1   0.10969 276646.080000
   2686   2687     1   0.10969 276646.080000
   2686   2688     1   0.10969 276646.080000
   2689   2690     1   0.10969 276646.080000
   2689   2691     1   0.10969 276646.080000
   2692   2693     1   0.10969 276646.080000
   2692   2694     1   0.10969 276646.080000
   2695   2696     1   0.10969 276646.080000
   2695   2697     1   0.10969 276646.080000
   2700   2729     1   0.10304 312293.760000
   2701   2702     1   0.10910 283424.160000
   2701   2703     1   0.10910 283424.160000
   2704   2705     1   0.10910 283424.160000
   2704   2706     1   0.10910 283424.160000
   2707   2708     1   0.10910 283424.160000
   2707   2709     1   0.10910 283424.160000
   2710   2711     1   0.10969 276646.080000
   2710   2712     1   0.10969 276646.080000
   2713   2714     1   0.10969 276646.080000
   2713   2715     1   0.10969 276646.080000
   2716   2717     1   0.10969 276646.080000
   2716   2718     1   0.10969 276646.080000
   2719   2720     1   0.10969 276646.080000
   2719   2721     1   0.10969 276646.080000
   2722   2723     1   0.10969 276646.080000
   2722   2724     1   0.10969 276646.080000
   2725   2726     1   0.10969 276646.080000
   2725   2727     1   0.10969 276646.080000
   2730   2759     1   0.10304 312293.760000
   2731   2732     1   0.10910 283424.160000
   2731   2733     1   0.10910 283424.160000
   2734   2735     1   0.10910 283424.160000
   2734   2736     1   0.10910 283424.160000
   2737   2738     1   0.10910 283424.160000
   2737   2739     1   0.10910 283424.160000
   2740   2741     1   0.10969 276646.080000
   2740   2742     1   0.10969 276646.080000
   2743   2744     1   0.10969 276646.080000
   2743   2745     1   0.10969 276646.080000
   2746   2747     1   0.10969 276646.080000
   2746   2748     1   0.10969 276646.080000
   2749   2750     1   0.10969 276646.080000
   2749   2751     1   0.10969 276646.080000
   2752   2753     1   0.10969 276646.080000
   2752   2754     1   0.10969 276646.080000
   2755   2756     1   0.10969 276646.080000
   2755   2757     1   0.10969 276646.080000
   2760   2789     1   0.10304 312293.760000
   2761   2762     1   0.10910 283424.160000
   2761   2763     1   0.10910 283424.160000
   2764   2765     1   0.10910 283424.160000
   2764   2766     1   0.10910 283424.160000
   2767   2768     1   0.10910 283424.160000
   2767   2769     1   0.10910 283424.160000
   2770   2771     1   0.10969 276646.080000
   2770   2772     1   0.10969 276646.080000
   2773   2774     1   0.10969 276646.080000
   2773   2775     1   0.10969 276646.080000
   2776   2777     1   0.10969 276646.080000
   2776   2778     1   0.10969 276646.080000
   2779   2780     1   0.10969 276646.080000
   2779   2781     1   0.10969 276646.080000
   2782   2783     1   0.10969 276646.080000
   2782   2784     1   0.10969 276646.080000
   2785   2786     1   0.10969 276646.080000
   2785   2787     1   0.10969 276646.080000
   2790   2819     1   0.10304 312293.760000
   2791   2792     1   0.10910 283424.160000
   2791   2793     1   0.10910 283424.160000
   2794   2795     1   0.10910 283424.160000
   2794   2796     1   0.10910 283424.160000
   2797   2798     1   0.10910 283424.160000
   2797   2799     1   0.10910 283424.160000
   2800   2801     1   0.10969 276646.080000
   2800   2802     1   0.10969 276646.080000
   2803   2804     1   0.10969 276646.080000
   2803   2805     1   0.10969 276646.080000
   2806   2807     1   0.10969 276646.080000
   2806   2808     1   0.10969 276646.080000
   2809   2810     1   0.10969 276646.080000
   2809   2811     1   0.10969 276646.080000
   2812   2813     1   0.10969 276646.080000
   2812   2814     1   0.10969 276646.080000
   2815   2816     1   0.10969 276646.080000
   2815   2817     1   0.10969 276646.080000
   2820   2849     1   0.10304 312293.760000
   2821   2822     1   0.10910 283424.160000
   2821   2823     1   0.10910 283424.160000
   2824   2825     1   0.10910 283424.160000
   2824   2826     1   0.10910 283424.160000
   2827   2828     1   0.10910 283424.160000
   2827   2829     1   0.10910 283424.160000
   2830   2831     1   0.10969 276646.080000
   2830   2832     1   0.10969 276646.080000
   2833   2834     1   0.10969 276646.080000
   2833   2835     1   0.10969 276646.080000
   2836   2837     1   0.10969 276646.080000
   2836   2838     1   0.10969 276646.080000
   2839   2840     1   0.10969 276646.080000
   2839   2841     1   0.10969 276646.080000
   2842   2843     1   0.10969 276646.080000
   2842   2844     1   0.10969 276646.080000
   2845   2846     1   0.10969 276646.080000
   2845   2847     1   0.10969 276646.080000
   2850   2879     1   0.10304 312293.760000
   2851   2852     1   0.10910 283424.160000
   2851   2853     1   0.10910 283424.160000
   2854   2855     1   0.10910 283424.160000
   2854   2856     1   0.10910 283424.160000
   2857   2858     1   0.10910 283424.160000
   2857   2859     1   0.10910 283424.160000
   2860   2861     1   0.10969 276646.080000
   2860   2862     1   0.10969 276646.080000
   2863   2864     1   0.10969 276646.080000
   2863   2865     1   0.10969 276646.080000
   2866   2867     1   0.10969 276646.080000
   2866   2868     1   0.10969 276646.080000
   2869   2870     1   0.10969 276646.080000
   2869   2871     1   0.10969 276646.080000
   2872   2873     1   0.10969 276646.080000
   2872   2874     1   0.10969 276646.080000
   2875   2876     1   0.10969 276646.080000
   2875   2877     1   0.10969 276646.080000
   2880   2909     1   0.10304 312293.760000
   2881   2882     1   0.10910 283424.160000
   2881   2883     1   0.10910 283424.160000
   2884   2885     1   0.10910 283424.160000
   2884   2886     1   0.10910 283424.160000
   2887   2888     1   0.10910 283424.160000
   2887   2889     1   0.10910 283424.160000
   2890   2891     1   0.10969 276646.080000
   2890   2892     1   0.10969 276646.080000
   2893   2894     1   0.10969 276646.080000
   2893   2895     1   0.10969 276646.080000
   2896   2897     1   0.10969 276646.080000
   2896   2898     1   0.10969 276646.080000
   2899   2900     1   0.10969 276646.080000
   2899   2901     1   0.10969 276646.080000
   2902   2903     1   0.10969 276646.080000
   2902   2904     1   0.10969 276646.080000
   2905   2906     1   0.10969 276646.080000
   2905   2907     1   0.10969 276646.080000
   2910   2939     1   0.10304 312293.760000
   2911   2912     1   0.10910 283424.160000
   2911   2913     1   0.10910 283424.160000
   2914   2915     1   0.10910 283424.160000
   2914   2916     1   0.10910 283424.160000
   2917   2918     1   0.10910 283424.160000
   2917   2919     1   0.10910 283424.160000
   2920   2921     1   0.10969 276646.080000
   2920   2922     1   0.10969 276646.080000
   2923   2924     1   0.10969 276646.080000
   2923   2925     1   0.10969 276646.080000
   2926   2927     1   0.10969 276646.080000
   2926   2928     1   0.10969 276646.080000
   2929   2930     1   0.10969 276646.080000
   2929   2931     1   0.10969 276646.080000
   2932   2933     1   0.10969 276646.080000
   2932   2934     1   0.10969 276646.080000
   2935   2936     1   0.10969 276646.080000
   2935   2937     1   0.10969 276646.080000
   2940   2969     1   0.10304 312293.760000
   2941   2942     1   0.10910 283424.160000
   2941   2943     1   0.10910 283424.160000
   2944   2945     1   0.10910 283424.160000
   2944   2946     1   0.10910 283424.160000
   2947   2948     1   0.10910 283424.160000
   2947   2949     1   0.10910 283424.160000
   2950   2951     1   0.10969 276646.080000
   2950   2952     1   0.10969 276646.080000
   2953   2954     1   0.10969 276646.080000
   2953   2955     1   0.10969 276646.080000
   2956   2957     1   0.10969 276646.080000
   2956   2958     1   0.10969 276646.080000
   2959   2960     1   0.10969 276646.080000
   2959   2961     1   0.10969 276646.080000
   2962   2963     1   0.10969 276646.080000
   2962   2964     1   0.10969 276646.080000
   2965   2966     1   0.10969 276646.080000
   2965   2967     1   0.10969 276646.080000
   2970   2999     1   0.10304 312293.760000
   2971   2972     1   0.10910 283424.160000
   2971   2973     1   0.10910 283424.160000
   2974   2975     1   0.10910 283424.160000
   2974   2976     1   0.10910 283424.160000
   2977   2978     1   0.10910 283424.160000
   2977   2979     1   0.10910 283424.160000
   2980   2981     1   0.10969 276646.080000
   2980   2982     1   0.10969 276646.080000
   2983   2984     1   0.10969 276646.080000
   2983   2985     1   0.10969 276646.080000
   2986   2987     1   0.10969 276646.080000
   2986   2988     1   0.10969 276646.080000
   2989   2990     1   0.10969 276646.080000
   2989   2991     1   0.10969 276646.080000
   2992   2993     1   0.10969 276646.080000
   2992   2994     1   0.10969 276646.080000
   2995   2996     1   0.10969 276646.080000
   2995   2997     1   0.10969 276646.080000
   3000   3029     1   0.10304 312293.760000
   3001   3002     1   0.10910 283424.160000
   3001   3003     1   0.10910 283424.160000
   3004   3005     1   0.10910 283424.160000
   3004   3006     1   0.10910 283424.160000
   3007   3008     1   0.10910 283424.160000
   3007   3009     1   0.10910 283424.160000
   3010   3011     1   0.10969 276646.080000
   3010   3012     1   0.10969 276646.080000
   3013   3014     1   0.10969 276646.080000
   3013   3015     1   0.10969 276646.080000
   3016   3017     1   0.10969 276646.080000
   3016   3018     1   0.10969 276646.080000
   3019   3020     1   0.10969 276646.080000
   3019   3021     1   0.10969 276646.080000
   3022   3023     1   0.10969 276646.080000
   3022   3024     1   0.10969 276646.080000
   3025   3026     1   0.10969 276646.080000
   3025   3027     1   0.10969 276646.080000
   3030   3059     1   0.10304 312293.760000
   3031   3032     1   0.10910 283424.160000
   3031   3033     1   0.10910 283424.160000
   3034   3035     1   0.10910 283424.160000
   3034   3036     1   0.10910 283424.160000
   3037   3038     1   0.10910 283424.160000
   3037   3039     1   0.10910 283424.160000
   3040   3041     1   0.10969 276646.080000
   3040   3042     1   0.10969 276646.080000
   3043   3044     1   0.10969 276646.080000
   3043   3045     1   0.10969 276646.080000
   3046   3047     1   0.10969 276646.080000
   3046   3048     1   0.10969 276646.080000
   3049   3050     1   0.10969 276646.080000
   3049   3051     1   0.10969 276646.080000
   3052   3053     1   0.10969 276646.080000
   3052   3054     1   0.10969 276646.080000
   3055   3056     1   0.10969 276646.080000
   3055   3057     1   0.10969 276646.080000
   3060   3089     1   0.10304 312293.760000
   3061   3062     1   0.10910 283424.160000
   3061   3063     1   0.10910 283424.160000
   3064   3065     1   0.10910 283424.160000
   3064   3066     1   0.10910 283424.160000
   3067   3068     1   0.10910 283424.160000
   3067   3069     1   0.10910 283424.160000
   3070   3071     1   0.10969 276646.080000
   3070   3072     1   0.10969 276646.080000
   3073   3074     1   0.10969 276646.080000
   3073   3075     1   0.10969 276646.080000
   3076   3077     1   0.10969 276646.080000
   3076   3078     1   0.10969 276646.080000
   3079   3080     1   0.10969 276646.080000
   3079   3081     1   0.10969 276646.080000
   3082   3083     1   0.10969 276646.080000
   3082   3084     1   0.10969 276646.080000
   3085   3086     1   0.10969 276646.080000
   3085   3087     1   0.10969 276646.080000
   3090   3119     1   0.10304 312293.760000
   3091   3092     1   0.10910 283424.160000
   3091   3093     1   0.10910 283424.160000
   3094   3095     1   0.10910 283424.160000
   3094   3096     1   0.10910 283424.160000
   3097   3098     1   0.10910 283424.160000
   3097   3099     1   0.10910 283424.160000
   3100   3101     1   0.10969 276646.080000
   3100   3102     1   0.10969 276646.080000
   3103   3104     1   0.10969 276646.080000
   3103   3105     1   0.10969 276646.080000
   3106   3107     1   0.10969 276646.080000
   3106   3108     1   0.10969 276646.080000
   3109   3110     1   0.10969 276646.080000
   3109   3111     1   0.10969 276646.080000
   3112   3113     1   0.10969 276646.080000
   3112   3114     1   0.10969 276646.080000
   3115   3116     1   0.10969 276646.080000
   3115   3117     1   0.10969 276646.080000
   3120   3149     1   0.10304 312293.760000
   3121   3122     1   0.10910 283424.160000
   3121   3123     1   0.10910 283424.160000
   3124   3125     1   0.10910 283424.160000
   3124   3126     1   0.10910 283424.160000
   3127   3128     1   0.10910 283424.160000
   3127   3129     1   0.10910 283424.160000
   3130   3131     1   0.10969 276646.080000
   3130   3132     1   0.10969 276646.080000
   3133   3134     1   0.10969 276646.080000
   3133   3135     1   0.10969 276646.080000
   3136   3137     1   0.10969 276646.080000
   3136   3138     1   0.10969 276646.080000
   3139   3140     1   0.10969 276646.080000
   3139   3141     1   0.10969 276646.080000
   3142   3143     1   0.10969 276646.080000
   3142   3144     1   0.10969 276646.080000
   3145   3146     1   0.10969 276646.080000
   3145   3147     1   0.10969 276646.080000
   3150   3179     1   0.10304 312293.760000
   3151   3152     1   0.10910 283424.160000
   3151   3153     1   0.10910 283424.160000
   3154   3155     1   0.10910 283424.160000
   3154   3156     1   0.10910 283424.160000
   3157   3158     1   0.10910 283424.160000
   3157   3159     1   0.10910 283424.160000
   3160   3161     1   0.10969 276646.080000
   3160   3162     1   0.10969 276646.080000
   3163   3164     1   0.10969 276646.080000
   3163   3165     1   0.10969 276646.080000
   3166   3167     1   0.10969 276646.080000
   3166   3168     1   0.10969 276646.080000
   3169   3170     1   0.10969 276646.080000
   3169   3171     1   0.10969 276646.080000
   3172   3173     1   0.10969 276646.080000
   3172   3174     1   0.10969 276646.080000
   3175   3176     1   0.10969 276646.080000
   3175   3177     1   0.10969 276646.080000
   3180   3209     1   0.10304 312293.760000
   3181   3182     1   0.10910 283424.160000
   3181   3183     1   0.10910 283424.160000
   3184   3185     1   0.10910 283424.160000
   3184   3186     1   0.10910 283424.160000
   3187   3188     1   0.10910 283424.160000
   3187   3189     1   0.10910 283424.160000
   3190   3191     1   0.10969 276646.080000
   3190   3192     1   0.10969 276646.080000
   3193   3194     1   0.10969 276646.080000
   3193   3195     1   0.10969 276646.080000
   3196   3197     1   0.10969 276646.080000
   3196   3198     1   0.10969 276646.080000
   3199   3200     1   0.10969 276646.080000
   3199   3201     1   0.10969 276646.080000
   3202   3203     1   0.10969 276646.080000
   3202   3204     1   0.10969 276646.080000
   3205   3206     1   0.10969 276646.080000
   3205   3207     1   0.10969 276646.080000
   3210   3239     1   0.10304 312293.760000
   3211   3212     1   0.10910 283424.160000
   3211   3213     1   0.10910 283424.160000
   3214   3215     1   0.10910 283424.160000
   3214   3216     1   0.10910 283424.160000
   3217   3218     1   0.10910 283424.160000
   3217   3219     1   0.10910 283424.160000
   3220   3221     1   0.10969 276646.080000
   3220   3222     1   0.10969 276646.080000
   3223   3224     1   0.10969 276646.080000
   3223   3225     1   0.10969 276646.080000
   3226   3227     1   0.10969 276646.080000
   3226   3228     1   0.10969 276646.080000
   3229   3230     1   0.10969 276646.080000
   3229   3231     1   0.10969 276646.080000
   3232   3233     1   0.10969 276646.080000
   3232   3234     1   0.10969 276646.080000
   3235   3236     1   0.10969 276646.080000
   3235   3237     1   0.10969 276646.080000
   3240   3269     1   0.10304 312293.760000
   3241   3242     1   0.10910 283424.160000
   3241   3243     1   0.10910 283424.160000
   3244   3245     1   0.10910 283424.160000
   3244   3246     1   0.10910 283424.160000
   3247   3248     1   0.10910 283424.160000
   3247   3249     1   0.10910 283424.160000
   3250   3251     1   0.10969 276646.080000
   3250   3252     1   0.10969 276646.080000
   3253   3254     1   0.10969 276646.080000
   3253   3255     1   0.10969 276646.080000
   3256   3257     1   0.10969 276646.080000
   3256   3258     1   0.10969 276646.080000
   3259   3260     1   0.10969 276646.080000
   3259   3261     1   0.10969 276646.080000
   3262   3263     1   0.10969 276646.080000
   3262   3264     1   0.10969 276646.080000
   3265   3266     1   0.10969 276646.080000
   3265   3267     1   0.10969 276646.080000
   3270   3299     1   0.10304 312293.760000
   3271   3272     1   0.10910 283424.160000
   3271   3273     1   0.10910 283424.160000
   3274   3275     1   0.10910 283424.160000
   3274   3276     1   0.10910 283424.160000
   3277   3278     1   0.10910 283424.160000
   3277   3279     1   0.10910 283424.160000
   3280   3281     1   0.10969 276646.080000
   3280   3282     1   0.10969 276646.080000
   3283   3284     1   0.10969 276646.080000
   3283   3285     1   0.10969 276646.080000
   3286   3287     1   0.10969 276646.080000
   3286   3288     1   0.10969 276646.080000
   3289   3290     1   0.10969 276646.080000
   3289   3291     1   0.10969 276646.080000
   3292   3293     1   0.10969 276646.080000
   3292   3294     1   0.10969 276646.080000
   3295   3296     1   0.10969 276646.080000
   3295   3297     1   0.10969 276646.080000
   3300   3329     1   0.10304 312293.760000
   3301   3302     1   0.10910 283424.160000
   3301   3303     1   0.10910 283424.160000
   3304   3305     1   0.10910 283424.160000
   3304   3306     1   0.10910 283424.160000
   3307   3308     1   0.10910 283424.160000
   3307   3309     1   0.10910 283424.160000
   3310   3311     1   0.10969 276646.080000
   3310   3312     1   0.10969 276646.080000
   3313   3314     1   0.10969 276646.080000
   3313   3315     1   0.10969 276646.080000
   3316   3317     1   0.10969 276646.080000
   3316   3318     1   0.10969 276646.080000
   3319   3320     1   0.10969 276646.080000
   3319   3321     1   0.10969 276646.080000
   3322   3323     1   0.10969 276646.080000
   3322   3324     1   0.10969 276646.080000
   3325   3326     1   0.10969 276646.080000
   3325   3327     1   0.10969 276646.080000
   3330   3359     1   0.10304 312293.760000
   3331   3332     1   0.10910 283424.160000
   3331   3333     1   0.10910 283424.160000
   3334   3335     1   0.10910 283424.160000
   3334   3336     1   0.10910 283424.160000
   3337   3338     1   0.10910 283424.160000
   3337   3339     1   0.10910 283424.160000
   3340   3341     1   0.10969 276646.080000
   3340   3342     1   0.10969 276646.080000
   3343   3344     1   0.10969 276646.080000
   3343   3345     1   0.10969 276646.080000
   3346   3347     1   0.10969 276646.080000
   3346   3348     1   0.10969 276646.080000
   3349   3350     1   0.10969 276646.080000
   3349   3351     1   0.10969 276646.080000
   3352   3353     1   0.10969 276646.080000
   3352   3354     1   0.10969 276646.080000
   3355   3356     1   0.10969 276646.080000
   3355   3357     1   0.10969 276646.080000
   3360   3389     1   0.10304 312293.760000
   3361   3362     1   0.10910 283424.160000
   3361   3363     1   0.10910 283424.160000
   3364   3365     1   0.10910 283424.160000
   3364   3366     1   0.10910 283424.160000
   3367   3368     1   0.10910 283424.160000
   3367   3369     1   0.10910 283424.160000
   3370   3371     1   0.10969 276646.080000
   3370   3372     1   0.10969 276646.080000
   3373   3374     1   0.10969 276646.080000
   3373   3375     1   0.10969 276646.080000
   3376   3377     1   0.10969 276646.080000
   3376   3378     1   0.10969 276646.080000
   3379   3380     1   0.10969 276646.080000
   3379   3381     1   0.10969 276646.080000
   3382   3383     1   0.10969 276646.080000
   3382   3384     1   0.10969 276646.080000
   3385   3386     1   0.10969 276646.080000
   3385   3387     1   0.10969 276646.080000
   3390   3419     1   0.10304 312293.760000
   3391   3392     1   0.10910 283424.160000
   3391   3393     1   0.10910 283424.160000
   3394   3395     1   0.10910 283424.160000
   3394   3396     1   0.10910 283424.160000
   3397   3398     1   0.10910 283424.160000
   3397   3399     1   0.10910 283424.160000
   3400   3401     1   0.10969 276646.080000
   3400   3402     1   0.10969 276646.080000
   3403   3404     1   0.10969 276646.080000
   3403   3405     1   0.10969 276646.080000
   3406   3407     1   0.10969 276646.080000
   3406   3408     1   0.10969 276646.080000
   3409   3410     1   0.10969 276646.080000
   3409   3411     1   0.10969 276646.080000
   3412   3413     1   0.10969 276646.080000
   3412   3414     1   0.10969 276646.080000
   3415   3416     1   0.10969 276646.080000
   3415   3417     1   0.10969 276646.080000
   3420   3449     1   0.10304 312293.760000
   3421   3422     1   0.10910 283424.160000
   3421   3423     1   0.10910 283424.160000
   3424   3425     1   0.10910 283424.160000
   3424   3426     1   0.10910 283424.160000
   3427   3428     1   0.10910 283424.160000
   3427   3429     1   0.10910 283424.160000
   3430   3431     1   0.10969 276646.080000
   3430   3432     1   0.10969 276646.080000
   3433   3434     1   0.10969 276646.080000
   3433   3435     1   0.10969 276646.080000
   3436   3437     1   0.10969 276646.080000
   3436   3438     1   0.10969 276646.080000
   3439   3440     1   0.10969 276646.080000
   3439   3441     1   0.10969 276646.080000
   3442   3443     1   0.10969 276646.080000
   3442   3444     1   0.10969 276646.080000
   3445   3446     1   0.10969 276646.080000
   3445   3447     1   0.10969 276646.080000
   3450   3479     1   0.10304 312293.760000
   3451   3452     1   0.10910 283424.160000
   3451   3453     1   0.10910 283424.160000
   3454   3455     1   0.10910 283424.160000
   3454   3456     1   0.10910 283424.160000
   3457   3458     1   0.10910 283424.160000
   3457   3459     1   0.10910 283424.160000
   3460   3461     1   0.10969 276646.080000
   3460   3462     1   0.10969 276646.080000
   3463   3464     1   0.10969 276646.080000
   3463   3465     1   0.10969 276646.080000
   3466   3467     1   0.10969 276646.080000
   3466   3468     1   0.10969 276646.080000
   3469   3470     1   0.10969 276646.080000
   3469   3471     1   0.10969 276646.080000
   3472   3473     1   0.10969 276646.080000
   3472   3474     1   0.10969 276646.080000
   3475   3476     1   0.10969 276646.080000
   3475   3477     1   0.10969 276646.080000
   3480   3509     1   0.10304 312293.760000
   3481   3482     1   0.10910 283424.160000
   3481   3483     1   0.10910 283424.160000
   3484   3485     1   0.10910 283424.160000
   3484   3486     1   0.10910 283424.160000
   3487   3488     1   0.10910 283424.160000
   3487   3489     1   0.10910 283424.160000
   3490   3491     1   0.10969 276646.080000
   3490   3492     1   0.10969 276646.080000
   3493   3494     1   0.10969 276646.080000
   3493   3495     1   0.10969 276646.080000
   3496   3497     1   0.10969 276646.080000
   3496   3498     1   0.10969 276646.080000
   3499   3500     1   0.10969 276646.080000
   3499   3501     1   0.10969 276646.080000
   3502   3503     1   0.10969 276646.080000
   3502   3504     1   0.10969 276646.080000
   3505   3506     1   0.10969 276646.080000
   3505   3507     1   0.10969 276646.080000
   3510   3539     1   0.10304 312293.760000
   3511   3512     1   0.10910 283424.160000
   3511   3513     1   0.10910 283424.160000
   3514   3515     1   0.10910 283424.160000
   3514   3516     1   0.10910 283424.160000
   3517   3518     1   0.10910 283424.160000
   3517   3519     1   0.10910 283424.160000
   3520   3521     1   0.10969 276646.080000
   3520   3522     1   0.10969 276646.080000
   3523   3524     1   0.10969 276646.080000
   3523   3525     1   0.10969 276646.080000
   3526   3527     1   0.10969 276646.080000
   3526   3528     1   0.10969 276646.080000
   3529   3530     1   0.10969 276646.080000
   3529   3531     1   0.10969 276646.080000
   3532   3533     1   0.10969 276646.080000
   3532   3534     1   0.10969 276646.080000
   3535   3536     1   0.10969 276646.080000
   3535   3537     1   0.10969 276646.080000
   3540   3569     1   0.10304 312293.760000
   3541   3542     1   0.10910 283424.160000
   3541   3543     1   0.10910 283424.160000
   3544   3545     1   0.10910 283424.160000
   3544   3546     1   0.10910 283424.160000
   3547   3548     1   0.10910 283424.160000
   3547   3549     1   0.10910 283424.160000
   3550   3551     1   0.10969 276646.080000
   3550   3552     1   0.10969 276646.080000
   3553   3554     1   0.10969 276646.080000
   3553   3555     1   0.10969 276646.080000
   3556   3557     1   0.10969 276646.080000
   3556   3558     1   0.10969 276646.080000
   3559   3560     1   0.10969 276646.080000
   3559   3561     1   0.10969 276646.080000
   3562   3563     1   0.10969 276646.080000
   3562   3564     1   0.10969 276646.080000
   3565   3566     1   0.10969 276646.080000
   3565   3567     1   0.10969 276646.080000
   3570   3599     1   0.10304 312293.760000
   3571   3572     1   0.10910 283424.160000
   3571   3573     1   0.10910 283424.160000
   3574   3575     1   0.10910 283424.160000
   3574   3576     1   0.10910 283424.160000
   3577   3578     1   0.10910 283424.160000
   3577   3579     1   0.10910 283424.160000
   3580   3581     1   0.10969 276646.080000
   3580   3582     1   0.10969 276646.080000
   3583   3584     1   0.10969 276646.080000
   3583   3585     1   0.10969 276646.080000
   3586   3587     1   0.10969 276646.080000
   3586   3588     1   0.10969 276646.080000
   3589   3590     1   0.10969 276646.080000
   3589   3591     1   0.10969 276646.080000
   3592   3593     1   0.10969 276646.080000
   3592   3594     1   0.10969 276646.080000
   3595   3596     1   0.10969 276646.080000
   3595   3597     1   0.10969 276646.080000
   3600   3629     1   0.10304 312293.760000
   3601   3602     1   0.10910 283424.160000
   3601   3603     1   0.10910 283424.160000
   3604   3605     1   0.10910 283424.160000
   3604   3606     1   0.10910 283424.160000
   3607   3608     1   0.10910 283424.160000
   3607   3609     1   0.10910 283424.160000
   3610   3611     1   0.10969 276646.080000
   3610   3612     1   0.10969 276646.080000
   3613   3614     1   0.10969 276646.080000
   3613   3615     1   0.10969 276646.080000
   3616   3617     1   0.10969 276646.080000
   3616   3618     1   0.10969 276646.080000
   3619   3620     1   0.10969 276646.080000
   3619   3621     1   0.10969 276646.080000
   3622   3623     1   0.10969 276646.080000
   3622   3624     1   0.10969 276646.080000
   3625   3626     1   0.10969 276646.080000
   3625   3627     1   0.10969 276646.080000
   3630   3659     1   0.10304 312293.760000
   3631   3632     1   0.10910 283424.160000
   3631   3633     1   0.10910 283424.160000
   3634   3635     1   0.10910 283424.160000
   3634   3636     1   0.10910 283424.160000
   3637   3638     1   0.10910 283424.160000
   3637   3639     1   0.10910 283424.160000
   3640   3641     1   0.10969 276646.080000
   3640   3642     1   0.10969 276646.080000
   3643   3644     1   0.10969 276646.080000
   3643   3645     1   0.10969 276646.080000
   3646   3647     1   0.10969 276646.080000
   3646   3648     1   0.10969 276646.080000
   3649   3650     1   0.10969 276646.080000
   3649   3651     1   0.10969 276646.080000
   3652   3653     1   0.10969 276646.080000
   3652   3654     1   0.10969 276646.080000
   3655   3656     1   0.10969 276646.080000
   3655   3657     1   0.10969 276646.080000
   3660   3689     1   0.10304 312293.760000
   3661   3662     1   0.10910 283424.160000
   3661   3663     1   0.10910 283424.160000
   3664   3665     1   0.10910 283424.160000
   3664   3666     1   0.10910 283424.160000
   3667   3668     1   0.10910 283424.160000
   3667   3669     1   0.10910 283424.160000
   3670   3671     1   0.10969 276646.080000
   3670   3672     1   0.10969 276646.080000
   3673   3674     1   0.10969 276646.080000
   3673   3675     1   0.10969 276646.080000
   3676   3677     1   0.10969 276646.080000
   3676   3678     1   0.10969 276646.080000
   3679   3680     1   0.10969 276646.080000
   3679   3681     1   0.10969 276646.080000
   3682   3683     1   0.10969 276646.080000
   3682   3684     1   0.10969 276646.080000
   3685   3686     1   0.10969 276646.080000
   3685   3687     1   0.10969 276646.080000
   3690   3719     1   0.10304 312293.760000
   3691   3692     1   0.10910 283424.160000
   3691   3693     1   0.10910 283424.160000
   3694   3695     1   0.10910 283424.160000
   3694   3696     1   0.10910 283424.160000
   3697   3698     1   0.10910 283424.160000
   3697   3699     1   0.10910 283424.160000
   3700   3701     1   0.10969 276646.080000
   3700   3702     1   0.10969 276646.080000
   3703   3704     1   0.10969 276646.080000
   3703   3705     1   0.10969 276646.080000
   3706   3707     1   0.10969 276646.080000
   3706   3708     1   0.10969 276646.080000
   3709   3710     1   0.10969 276646.080000
   3709   3711     1   0.10969 276646.080000
   3712   3713     1   0.10969 276646.080000
   3712   3714     1   0.10969 276646.080000
   3715   3716     1   0.10969 276646.080000
   3715   3717     1   0.10969 276646.080000
   3720   3749     1   0.10304 312293.760000
   3721   3722     1   0.10910 283424.160000
   3721   3723     1   0.10910 283424.160000
   3724   3725     1   0.10910 283424.160000
   3724   3726     1   0.10910 283424.160000
   3727   3728     1   0.10910 283424.160000
   3727   3729     1   0.10910 283424.160000
   3730   3731     1   0.10969 276646.080000
   3730   3732     1   0.10969 276646.080000
   3733   3734     1   0.10969 276646.080000
   3733   3735     1   0.10969 276646.080000
   3736   3737     1   0.10969 276646.080000
   3736   3738     1   0.10969 276646.080000
   3739   3740     1   0.10969 276646.080000
   3739   3741     1   0.10969 276646.080000
   3742   3743     1   0.10969 276646.080000
   3742   3744     1   0.10969 276646.080000
   3745   3746     1   0.10969 276646.080000
   3745   3747     1   0.10969 276646.080000
   3750   3779     1   0.10304 312293.760000
   3751   3752     1   0.10910 283424.160000
   3751   3753     1   0.10910 283424.160000
   3754   3755     1   0.10910 283424.160000
   3754   3756     1   0.10910 283424.160000
   3757   3758     1   0.10910 283424.160000
   3757   3759     1   0.10910 283424.160000
   3760   3761     1   0.10969 276646.080000
   3760   3762     1   0.10969 276646.080000
   3763   3764     1   0.10969 276646.080000
   3763   3765     1   0.10969 276646.080000
   3766   3767     1   0.10969 276646.080000
   3766   3768     1   0.10969 276646.080000
   3769   3770     1   0.10969 276646.080000
   3769   3771     1   0.10969 276646.080000
   3772   3773     1   0.10969 276646.080000
   3772   3774     1   0.10969 276646.080000
   3775   3776     1   0.10969 276646.080000
   3775   3777     1   0.10969 276646.080000
   3780   3809     1   0.10304 312293.760000
   3781   3782     1   0.10910 283424.160000
   3781   3783     1   0.10910 283424.160000
   3784   3785     1   0.10910 283424.160000
   3784   3786     1   0.10910 283424.160000
   3787   3788     1   0.10910 283424.160000
   3787   3789     1   0.10910 283424.160000
   3790   3791     1   0.10969 276646.080000
   3790   3792     1   0.10969 276646.080000
   3793   3794     1   0.10969 276646.080000
   3793   3795     1   0.10969 276646.080000
   3796   3797     1   0.10969 276646.080000
   3796   3798     1   0.10969 276646.080000
   3799   3800     1   0.10969 276646.080000
   3799   3801     1   0.10969 276646.080000
   3802   3803     1   0.10969 276646.080000
   3802   3804     1   0.10969 276646.080000
   3805   3806     1   0.10969 276646.080000
   3805   3807     1   0.10969 276646.080000
   3810   3839     1   0.10304 312293.760000
   3811   3812     1   0.10910 283424.160000
   3811   3813     1   0.10910 283424.160000
   3814   3815     1   0.10910 283424.160000
   3814   3816     1   0.10910 283424.160000
   3817   3818     1   0.10910 283424.160000
   3817   3819     1   0.10910 283424.160000
   3820   3821     1   0.10969 276646.080000
   3820   3822     1   0.10969 276646.080000
   3823   3824     1   0.10969 276646.080000
   3823   3825     1   0.10969 276646.080000
   3826   3827     1   0.10969 276646.080000
   3826   3828     1   0.10969 276646.080000
   3829   3830     1   0.10969 276646.080000
   3829   3831     1   0.10969 276646.080000
   3832   3833     1   0.10969 276646.080000
   3832   3834     1   0.10969 276646.080000
   3835   3836     1   0.10969 276646.080000
   3835   3837     1   0.10969 276646.080000
   3840   3869     1   0.10304 312293.760000
   3841   3842     1   0.10910 283424.160000
   3841   3843     1   0.10910 283424.160000
   3844   3845     1   0.10910 283424.160000
   3844   3846     1   0.10910 283424.160000
   3847   3848     1   0.10910 283424.160000
   3847   3849     1   0.10910 283424.160000
   3850   3851     1   0.10969 276646.080000
   3850   3852     1   0.10969 276646.080000
   3853   3854     1   0.10969 276646.080000
   3853   3855     1   0.10969 276646.080000
   3856   3857     1   0.10969 276646.080000
   3856   3858     1   0.10969 276646.080000
   3859   3860     1   0.10969 276646.080000
   3859   3861     1   0.10969 276646.080000
   3862   3863     1   0.10969 276646.080000
   3862   3864     1   0.10969 276646.080000
   3865   3866     1   0.10969 276646.080000
   3865   3867     1   0.10969 276646.080000
   3870   3899     1   0.10304 312293.760000
   3871   3872     1   0.10910 283424.160000
   3871   3873     1   0.10910 283424.160000
   3874   3875     1   0.10910 283424.160000
   3874   3876     1   0.10910 283424.160000
   3877   3878     1   0.10910 283424.160000
   3877   3879     1   0.10910 283424.160000
   3880   3881     1   0.10969 276646.080000
   3880   3882     1   0.10969 276646.080000
   3883   3884     1   0.10969 276646.080000
   3883   3885     1   0.10969 276646.080000
   3886   3887     1   0.10969 276646.080000
   3886   3888     1   0.10969 276646.080000
   3889   3890     1   0.10969 276646.080000
   3889   3891     1   0.10969 276646.080000
   3892   3893     1   0.10969 276646.080000
   3892   3894     1   0.10969 276646.080000
   3895   3896     1   0.10969 276646.080000
   3895   3897     1   0.10969 276646.080000
   3900   3929     1   0.10304 312293.760000
   3901   3902     1   0.10910 283424.160000
   3901   3903     1   0.10910 283424.160000
   3904   3905     1   0.10910 283424.160000
   3904   3906     1   0.10910 283424.160000
   3907   3908     1   0.10910 283424.160000
   3907   3909     1   0.10910 283424.160000
   3910   3911     1   0.10969 276646.080000
   3910   3912     1   0.10969 276646.080000
   3913   3914     1   0.10969 276646.080000
   3913   3915     1   0.10969 276646.080000
   3916   3917     1   0.10969 276646.080000
   3916   3918     1   0.10969 276646.080000
   3919   3920     1   0.10969 276646.080000
   3919   3921     1   0.10969 276646.080000
   3922   3923     1   0.10969 276646.080000
   3922   3924     1   0.10969 276646.080000
   3925   3926     1   0.10969 276646.080000
   3925   3927     1   0.10969 276646.080000
   3930   3959     1   0.10304 312293.760000
   3931   3932     1   0.10910 283424.160000
   3931   3933     1   0.10910 283424.160000
   3934   3935     1   0.10910 283424.160000
   3934   3936     1   0.10910 283424.160000
   3937   3938     1   0.10910 283424.160000
   3937   3939     1   0.10910 283424.160000
   3940   3941     1   0.10969 276646.080000
   3940   3942     1   0.10969 276646.080000
   3943   3944     1   0.10969 276646.080000
   3943   3945     1   0.10969 276646.080000
   3946   3947     1   0.10969 276646.080000
   3946   3948     1   0.10969 276646.080000
   3949   3950     1   0.10969 276646.080000
   3949   3951     1   0.10969 276646.080000
   3952   3953     1   0.10969 276646.080000
   3952   3954     1   0.10969 276646.080000
   3955   3956     1   0.10969 276646.080000
   3955   3957     1   0.10969 276646.080000
   3960   3989     1   0.10304 312293.760000
   3961   3962     1   0.10910 283424.160000
   3961   3963     1   0.10910 283424.160000
   3964   3965     1   0.10910 283424.160000
   3964   3966     1   0.10910 283424.160000
   3967   3968     1   0.10910 283424.160000
   3967   3969     1   0.10910 283424.160000
   3970   3971     1   0.10969 276646.080000
   3970   3972     1   0.10969 276646.080000
   3973   3974     1   0.10969 276646.080000
   3973   3975     1   0.10969 276646.080000
   3976   3977     1   0.10969 276646.080000
   3976   3978     1   0.10969 276646.080000
   3979   3980     1   0.10969 276646.080000
   3979   3981     1   0.10969 276646.080000
   3982   3983     1   0.10969 276646.080000
   3982   3984     1   0.10969 276646.080000
   3985   3986     1   0.10969 276646.080000
   3985   3987     1   0.10969 276646.080000
   3990   4019     1   0.10304 312293.760000
   3991   3992     1   0.10910 283424.160000
   3991   3993     1   0.10910 283424.160000
   3994   3995     1   0.10910 283424.160000
   3994   3996     1   0.10910 283424.160000
   3997   3998     1   0.10910 283424.160000
   3997   3999     1   0.10910 283424.160000
   4000   4001     1   0.10969 276646.080000
   4000   4002     1   0.10969 276646.080000
   4003   4004     1   0.10969 276646.080000
   4003   4005     1   0.10969 276646.080000
   4006   4007     1   0.10969 276646.080000
   4006   4008     1   0.10969 276646.080000
   4009   4010     1   0.10969 276646.080000
   4009   4011     1   0.10969 276646.080000
   4012   4013     1   0.10969 276646.080000
   4012   4014     1   0.10969 276646.080000
   4015   4016     1   0.10969 276646.080000
   4015   4017     1   0.10969 276646.080000
   4020   4049     1   0.10304 312293.760000
   4021   4022     1   0.10910 283424.160000
   4021   4023     1   0.10910 283424.160000
   4024   4025     1   0.10910 283424.160000
   4024   4026     1   0.10910 283424.160000
   4027   4028     1   0.10910 283424.160000
   4027   4029     1   0.10910 283424.160000
   4030   4031     1   0.10969 276646.080000
   4030   4032     1   0.10969 276646.080000
   4033   4034     1   0.10969 276646.080000
   4033   4035     1   0.10969 276646.080000
   4036   4037     1   0.10969 276646.080000
   4036   4038     1   0.10969 276646.080000
   4039   4040     1   0.10969 276646.080000
   4039   4041     1   0.10969 276646.080000
   4042   4043     1   0.10969 276646.080000
   4042   4044     1   0.10969 276646.080000
   4045   4046     1   0.10969 276646.080000
   4045   4047     1   0.10969 276646.080000
   4050   4079     1   0.10304 312293.760000
   4051   4052     1   0.10910 283424.160000
   4051   4053     1   0.10910 283424.160000
   4054   4055     1   0.10910 283424.160000
   4054   4056     1   0.10910 283424.160000
   4057   4058     1   0.10910 283424.160000
   4057   4059     1   0.10910 283424.160000
   4060   4061     1   0.10969 276646.080000
   4060   4062     1   0.10969 276646.080000
   4063   4064     1   0.10969 276646.080000
   4063   4065     1   0.10969 276646.080000
   4066   4067     1   0.10969 276646.080000
   4066   4068     1   0.10969 276646.080000
   4069   4070     1   0.10969 276646.080000
   4069   4071     1   0.10969 276646.080000
   4072   4073     1   0.10969 276646.080000
   4072   4074     1   0.10969 276646.080000
   4075   4076     1   0.10969 276646.080000
   4075   4077     1   0.10969 276646.080000
   4080   4109     1   0.10304 312293.760000
   4081   4082     1   0.10910 283424.160000
   4081   4083     1   0.10910 283424.160000
   4084   4085     1   0.10910 283424.160000
   4084   4086     1   0.10910 283424.160000
   4087   4088     1   0.10910 283424.160000
   4087   4089     1   0.10910 283424.160000
   4090   4091     1   0.10969 276646.080000
   4090   4092     1   0.10969 276646.080000
   4093   4094     1   0.10969 276646.080000
   4093   4095     1   0.10969 276646.080000
   4096   4097     1   0.10969 276646.080000
   4096   4098     1   0.10969 276646.080000
   4099   4100     1   0.10969 276646.080000
   4099   4101     1   0.10969 276646.080000
   4102   4103     1   0.10969 276646.080000
   4102   4104     1   0.10969 276646.080000
   4105   4106     1   0.10969 276646.080000
   4105   4107     1   0.10969 276646.080000
   4110   4139     1   0.10304 312293.760000
   4111   4112     1   0.10910 283424.160000
   4111   4113     1   0.10910 283424.160000
   4114   4115     1   0.10910 283424.160000
   4114   4116     1   0.10910 283424.160000
   4117   4118     1   0.10910 283424.160000
   4117   4119     1   0.10910 283424.160000
   4120   4121     1   0.10969 276646.080000
   4120   4122     1   0.10969 276646.080000
   4123   4124     1   0.10969 276646.080000
   4123   4125     1   0.10969 276646.080000
   4126   4127     1   0.10969 276646.080000
   4126   4128     1   0.10969 276646.080000
   4129   4130     1   0.10969 276646.080000
   4129   4131     1   0.10969 276646.080000
   4132   4133     1   0.10969 276646.080000
   4132   4134     1   0.10969 276646.080000
   4135   4136     1   0.10969 276646.080000
   4135   4137     1   0.10969 276646.080000
   4140   4169     1   0.10304 312293.760000
   4141   4142     1   0.10910 283424.160000
   4141   4143     1   0.10910 283424.160000
   4144   4145     1   0.10910 283424.160000
   4144   4146     1   0.10910 283424.160000
   4147   4148     1   0.10910 283424.160000
   4147   4149     1   0.10910 283424.160000
   4150   4151     1   0.10969 276646.080000
   4150   4152     1   0.10969 276646.080000
   4153   4154     1   0.10969 276646.080000
   4153   4155     1   0.10969 276646.080000
   4156   4157     1   0.10969 276646.080000
   4156   4158     1   0.10969 276646.080000
   4159   4160     1   0.10969 276646.080000
   4159   4161     1   0.10969 276646.080000
   4162   4163     1   0.10969 276646.080000
   4162   4164     1   0.10969 276646.080000
   4165   4166     1   0.10969 276646.080000
   4165   4167     1   0.10969 276646.080000
   4170   4199     1   0.10304 312293.760000
   4171   4172     1   0.10910 283424.160000
   4171   4173     1   0.10910 283424.160000
   4174   4175     1   0.10910 283424.160000
   4174   4176     1   0.10910 283424.160000
   4177   4178     1   0.10910 283424.160000
   4177   4179     1   0.10910 283424.160000
   4180   4181     1   0.10969 276646.080000
   4180   4182     1   0.10969 276646.080000
   4183   4184     1   0.10969 276646.080000
   4183   4185     1   0.10969 276646.080000
   4186   4187     1   0.10969 276646.080000
   4186   4188     1   0.10969 276646.080000
   4189   4190     1   0.10969 276646.080000
   4189   4191     1   0.10969 276646.080000
   4192   4193     1   0.10969 276646.080000
   4192   4194     1   0.10969 276646.080000
   4195   4196     1   0.10969 276646.080000
   4195   4197     1   0.10969 276646.080000
   4200   4229     1   0.10304 312293.760000
   4201   4202     1   0.10910 283424.160000
   4201   4203     1   0.10910 283424.160000
   4204   4205     1   0.10910 283424.160000
   4204   4206     1   0.10910 283424.160000
   4207   4208     1   0.10910 283424.160000
   4207   4209     1   0.10910 283424.160000
   4210   4211     1   0.10969 276646.080000
   4210   4212     1   0.10969 276646.080000
   4213   4214     1   0.10969 276646.080000
   4213   4215     1   0.10969 276646.080000
   4216   4217     1   0.10969 276646.080000
   4216   4218     1   0.10969 276646.080000
   4219   4220     1   0.10969 276646.080000
   4219   4221     1   0.10969 276646.080000
   4222   4223     1   0.10969 276646.080000
   4222   4224     1   0.10969 276646.080000
   4225   4226     1   0.10969 276646.080000
   4225   4227     1   0.10969 276646.080000
   4230   4259     1   0.10304 312293.760000
   4231   4232     1   0.10910 283424.160000
   4231   4233     1   0.10910 283424.160000
   4234   4235     1   0.10910 283424.160000
   4234   4236     1   0.10910 283424.160000
   4237   4238     1   0.10910 283424.160000
   4237   4239     1   0.10910 283424.160000
   4240   4241     1   0.10969 276646.080000
   4240   4242     1   0.10969 276646.080000
   4243   4244     1   0.10969 276646.080000
   4243   4245     1   0.10969 276646.080000
   4246   4247     1   0.10969 276646.080000
   4246   4248     1   0.10969 276646.080000
   4249   4250     1   0.10969 276646.080000
   4249   4251     1   0.10969 276646.080000
   4252   4253     1   0.10969 276646.080000
   4252   4254     1   0.10969 276646.080000
   4255   4256     1   0.10969 276646.080000
   4255   4257     1   0.10969 276646.080000
   4260   4289     1   0.10304 312293.760000
   4261   4262     1   0.10910 283424.160000
   4261   4263     1   0.10910 283424.160000
   4264   4265     1   0.10910 283424.160000
   4264   4266     1   0.10910 283424.160000
   4267   4268     1   0.10910 283424.160000
   4267   4269     1   0.10910 283424.160000
   4270   4271     1   0.10969 276646.080000
   4270   4272     1   0.10969 276646.080000
   4273   4274     1   0.10969 276646.080000
   4273   4275     1   0.10969 276646.080000
   4276   4277     1   0.10969 276646.080000
   4276   4278     1   0.10969 276646.080000
   4279   4280     1   0.10969 276646.080000
   4279   4281     1   0.10969 276646.080000
   4282   4283     1   0.10969 276646.080000
   4282   4284     1   0.10969 276646.080000
   4285   4286     1   0.10969 276646.080000
   4285   4287     1   0.10969 276646.080000
   4290   4319     1   0.10304 312293.760000
   4291   4292     1   0.10910 283424.160000
   4291   4293     1   0.10910 283424.160000
   4294   4295     1   0.10910 283424.160000
   4294   4296     1   0.10910 283424.160000
   4297   4298     1   0.10910 283424.160000
   4297   4299     1   0.10910 283424.160000
   4300   4301     1   0.10969 276646.080000
   4300   4302     1   0.10969 276646.080000
   4303   4304     1   0.10969 276646.080000
   4303   4305     1   0.10969 276646.080000
   4306   4307     1   0.10969 276646.080000
   4306   4308     1   0.10969 276646.080000
   4309   4310     1   0.10969 276646.080000
   4309   4311     1   0.10969 276646.080000
   4312   4313     1   0.10969 276646.080000
   4312   4314     1   0.10969 276646.080000
   4315   4316     1   0.10969 276646.080000
   4315   4317     1   0.10969 276646.080000
   4320   4349     1   0.10304 312293.760000
   4321   4322     1   0.10910 283424.160000
   4321   4323     1   0.10910 283424.160000
   4324   4325     1   0.10910 283424.160000
   4324   4326     1   0.10910 283424.160000
   4327   4328     1   0.10910 283424.160000
   4327   4329     1   0.10910 283424.160000
   4330   4331     1   0.10969 276646.080000
   4330   4332     1   0.10969 276646.080000
   4333   4334     1   0.10969 276646.080000
   4333   4335     1   0.10969 276646.080000
   4336   4337     1   0.10969 276646.080000
   4336   4338     1   0.10969 276646.080000
   4339   4340     1   0.10969 276646.080000
   4339   4341     1   0.10969 276646.080000
   4342   4343     1   0.10969 276646.080000
   4342   4344     1   0.10969 276646.080000
   4345   4346     1   0.10969 276646.080000
   4345   4347     1   0.10969 276646.080000
   4350   4379     1   0.10304 312293.760000
   4351   4352     1   0.10910 283424.160000
   4351   4353     1   0.10910 283424.160000
   4354   4355     1   0.10910 283424.160000
   4354   4356     1   0.10910 283424.160000
   4357   4358     1   0.10910 283424.160000
   4357   4359     1   0.10910 283424.160000
   4360   4361     1   0.10969 276646.080000
   4360   4362     1   0.10969 276646.080000
   4363   4364     1   0.10969 276646.080000
   4363   4365     1   0.10969 276646.080000
   4366   4367     1   0.10969 276646.080000
   4366   4368     1   0.10969 276646.080000
   4369   4370     1   0.10969 276646.080000
   4369   4371     1   0.10969 276646.080000
   4372   4373     1   0.10969 276646.080000
   4372   4374     1   0.10969 276646.080000
   4375   4376     1   0.10969 276646.080000
   4375   4377     1   0.10969 276646.080000
   4380   4409     1   0.10304 312293.760000
   4381   4382     1   0.10910 283424.160000
   4381   4383     1   0.10910 283424.160000
   4384   4385     1   0.10910 283424.160000
   4384   4386     1   0.10910 283424.160000
   4387   4388     1   0.10910 283424.160000
   4387   4389     1   0.10910 283424.160000
   4390   4391     1   0.10969 276646.080000
   4390   4392     1   0.10969 276646.080000
   4393   4394     1   0.10969 276646.080000
   4393   4395     1   0.10969 276646.080000
   4396   4397     1   0.10969 276646.080000
   4396   4398     1   0.10969 276646.080000
   4399   4400     1   0.10969 276646.080000
   4399   4401     1   0.10969 276646.080000
   4402   4403     1   0.10969 276646.080000
   4402   4404     1   0.10969 276646.080000
   4405   4406     1   0.10969 276646.080000
   4405   4407     1   0.10969 276646.080000
   4410   4439     1   0.10304 312293.760000
   4411   4412     1   0.10910 283424.160000
   4411   4413     1   0.10910 283424.160000
   4414   4415     1   0.10910 283424.160000
   4414   4416     1   0.10910 283424.160000
   4417   4418     1   0.10910 283424.160000
   4417   4419     1   0.10910 283424.160000
   4420   4421     1   0.10969 276646.080000
   4420   4422     1   0.10969 276646.080000
   4423   4424     1   0.10969 276646.080000
   4423   4425     1   0.10969 276646.080000
   4426   4427     1   0.10969 276646.080000
   4426   4428     1   0.10969 276646.080000
   4429   4430     1   0.10969 276646.080000
   4429   4431     1   0.10969 276646.080000
   4432   4433     1   0.10969 276646.080000
   4432   4434     1   0.10969 276646.080000
   4435   4436     1   0.10969 276646.080000
   4435   4437     1   0.10969 276646.080000
   4440   4469     1   0.10304 312293.760000
   4441   4442     1   0.10910 283424.160000
   4441   4443     1   0.10910 283424.160000
   4444   4445     1   0.10910 283424.160000
   4444   4446     1   0.10910 283424.160000
   4447   4448     1   0.10910 283424.160000
   4447   4449     1   0.10910 283424.160000
   4450   4451     1   0.10969 276646.080000
   4450   4452     1   0.10969 276646.080000
   4453   4454     1   0.10969 276646.080000
   4453   4455     1   0.10969 276646.080000
   4456   4457     1   0.10969 276646.080000
   4456   4458     1   0.10969 276646.080000
   4459   4460     1   0.10969 276646.080000
   4459   4461     1   0.10969 276646.080000
   4462   4463     1   0.10969 276646.080000
   4462   4464     1   0.10969 276646.080000
   4465   4466     1   0.10969 276646.080000
   4465   4467     1   0.10969 276646.080000
   4470   4499     1   0.10304 312293.760000
   4471   4472     1   0.10910 283424.160000
   4471   4473     1   0.10910 283424.160000
   4474   4475     1   0.10910 283424.160000
   4474   4476     1   0.10910 283424.160000
   4477   4478     1   0.10910 283424.160000
   4477   4479     1   0.10910 283424.160000
   4480   4481     1   0.10969 276646.080000
   4480   4482     1   0.10969 276646.080000
   4483   4484     1   0.10969 276646.080000
   4483   4485     1   0.10969 276646.080000
   4486   4487     1   0.10969 276646.080000
   4486   4488     1   0.10969 276646.080000
   4489   4490     1   0.10969 276646.080000
   4489   4491     1   0.10969 276646.080000
   4492   4493     1   0.10969 276646.080000
   4492   4494     1   0.10969 276646.080000
   4495   4496     1   0.10969 276646.080000
   4495   4497     1   0.10969 276646.080000
   4500   4529     1   0.10304 312293.760000
   4501   4502     1   0.10910 283424.160000
   4501   4503     1   0.10910 283424.160000
   4504   4505     1   0.10910 283424.160000
   4504   4506     1   0.10910 283424.160000
   4507   4508     1   0.10910 283424.160000
   4507   4509     1   0.10910 283424.160000
   4510   4511     1   0.10969 276646.080000
   4510   4512     1   0.10969 276646.080000
   4513   4514     1   0.10969 276646.080000
   4513   4515     1   0.10969 276646.080000
   4516   4517     1   0.10969 276646.080000
   4516   4518     1   0.10969 276646.080000
   4519   4520     1   0.10969 276646.080000
   4519   4521     1   0.10969 276646.080000
   4522   4523     1   0.10969 276646.080000
   4522   4524     1   0.10969 276646.080000
   4525   4526     1   0.10969 276646.080000
   4525   4527     1   0.10969 276646.080000
   4530   4559     1   0.10304 312293.760000
   4531   4532     1   0.10910 283424.160000
   4531   4533     1   0.10910 283424.160000
   4534   4535     1   0.10910 283424.160000
   4534   4536     1   0.10910 283424.160000
   4537   4538     1   0.10910 283424.160000
   4537   4539     1   0.10910 283424.160000
   4540   4541     1   0.10969 276646.080000
   4540   4542     1   0.10969 276646.080000
   4543   4544     1   0.10969 276646.080000
   4543   4545     1   0.10969 276646.080000
   4546   4547     1   0.10969 276646.080000
   4546   4548     1   0.10969 276646.080000
   4549   4550     1   0.10969 276646.080000
   4549   4551     1   0.10969 276646.080000
   4552   4553     1   0.10969 276646.080000
   4552   4554     1   0.10969 276646.080000
   4555   4556     1   0.10969 276646.080000
   4555   4557     1   0.10969 276646.080000
   4560   4589     1   0.10304 312293.760000
   4561   4562     1   0.10910 283424.160000
   4561   4563     1   0.10910 283424.160000
   4564   4565     1   0.10910 283424.160000
   4564   4566     1   0.10910 283424.160000
   4567   4568     1   0.10910 283424.160000
   4567   4569     1   0.10910 283424.160000
   4570   4571     1   0.10969 276646.080000
   4570   4572     1   0.10969 276646.080000
   4573   4574     1   0.10969 276646.080000
   4573   4575     1   0.10969 276646.080000
   4576   4577     1   0.10969 276646.080000
   4576   4578     1   0.10969 276646.080000
   4579   4580     1   0.10969 276646.080000
   4579   4581     1   0.10969 276646.080000
   4582   4583     1   0.10969 276646.080000
   4582   4584     1   0.10969 276646.080000
   4585   4586     1   0.10969 276646.080000
   4585   4587     1   0.10969 276646.080000
   4590   4619     1   0.10304 312293.760000
   4591   4592     1   0.10910 283424.160000
   4591   4593     1   0.10910 283424.160000
   4594   4595     1   0.10910 283424.160000
   4594   4596     1   0.10910 283424.160000
   4597   4598     1   0.10910 283424.160000
   4597   4599     1   0.10910 283424.160000
   4600   4601     1   0.10969 276646.080000
   4600   4602     1   0.10969 276646.080000
   4603   4604     1   0.10969 276646.080000
   4603   4605     1   0.10969 276646.080000
   4606   4607     1   0.10969 276646.080000
   4606   4608     1   0.10969 276646.080000
   4609   4610     1   0.10969 276646.080000
   4609   4611     1   0.10969 276646.080000
   4612   4613     1   0.10969 276646.080000
   4612   4614     1   0.10969 276646.080000
   4615   4616     1   0.10969 276646.080000
   4615   4617     1   0.10969 276646.080000
   4620   4649     1   0.10304 312293.760000
   4621   4622     1   0.10910 283424.160000
   4621   4623     1   0.10910 283424.160000
   4624   4625     1   0.10910 283424.160000
   4624   4626     1   0.10910 283424.160000
   4627   4628     1   0.10910 283424.160000
   4627   4629     1   0.10910 283424.160000
   4630   4631     1   0.10969 276646.080000
   4630   4632     1   0.10969 276646.080000
   4633   4634     1   0.10969 276646.080000
   4633   4635     1   0.10969 276646.080000
   4636   4637     1   0.10969 276646.080000
   4636   4638     1   0.10969 276646.080000
   4639   4640     1   0.10969 276646.080000
   4639   4641     1   0.10969 276646.080000
   4642   4643     1   0.10969 276646.080000
   4642   4644     1   0.10969 276646.080000
   4645   4646     1   0.10969 276646.080000
   4645   4647     1   0.10969 276646.080000
   4650   4679     1   0.10304 312293.760000
   4651   4652     1   0.10910 283424.160000
   4651   4653     1   0.10910 283424.160000
   4654   4655     1   0.10910 283424.160000
   4654   4656     1   0.10910 283424.160000
   4657   4658     1   0.10910 283424.160000
   4657   4659     1   0.10910 283424.160000
   4660   4661     1   0.10969 276646.080000
   4660   4662     1   0.10969 276646.080000
   4663   4664     1   0.10969 276646.080000
   4663   4665     1   0.10969 276646.080000
   4666   4667     1   0.10969 276646.080000
   4666   4668     1   0.10969 276646.080000
   4669   4670     1   0.10969 276646.080000
   4669   4671     1   0.10969 276646.080000
   4672   4673     1   0.10969 276646.080000
   4672   4674     1   0.10969 276646.080000
   4675   4676     1   0.10969 276646.080000
   4675   4677     1   0.10969 276646.080000
   4680   4709     1   0.10304 312293.760000
   4681   4682     1   0.10910 283424.160000
   4681   4683     1   0.10910 283424.160000
   4684   4685     1   0.10910 283424.160000
   4684   4686     1   0.10910 283424.160000
   4687   4688     1   0.10910 283424.160000
   4687   4689     1   0.10910 283424.160000
   4690   4691     1   0.10969 276646.080000
   4690   4692     1   0.10969 276646.080000
   4693   4694     1   0.10969 276646.080000
   4693   4695     1   0.10969 276646.080000
   4696   4697     1   0.10969 276646.080000
   4696   4698     1   0.10969 276646.080000
   4699   4700     1   0.10969 276646.080000
   4699   4701     1   0.10969 276646.080000
   4702   4703     1   0.10969 276646.080000
   4702   4704     1   0.10969 276646.080000
   4705   4706     1   0.10969 276646.080000
   4705   4707     1   0.10969 276646.080000
   4710   4739     1   0.10304 312293.760000
   4711   4712     1   0.10910 283424.160000
   4711   4713     1   0.10910 283424.160000
   4714   4715     1   0.10910 283424.160000
   4714   4716     1   0.10910 283424.160000
   4717   4718     1   0.10910 283424.160000
   4717   4719     1   0.10910 283424.160000
   4720   4721     1   0.10969 276646.080000
   4720   4722     1   0.10969 276646.080000
   4723   4724     1   0.10969 276646.080000
   4723   4725     1   0.10969 276646.080000
   4726   4727     1   0.10969 276646.080000
   4726   4728     1   0.10969 276646.080000
   4729   4730     1   0.10969 276646.080000
   4729   4731     1   0.10969 276646.080000
   4732   4733     1   0.10969 276646.080000
   4732   4734     1   0.10969 276646.080000
   4735   4736     1   0.10969 276646.080000
   4735   4737     1   0.10969 276646.080000
   4740   4769     1   0.10304 312293.760000
   4741   4742     1   0.10910 283424.160000
   4741   4743     1   0.10910 283424.160000
   4744   4745     1   0.10910 283424.160000
   4744   4746     1   0.10910 283424.160000
   4747   4748     1   0.10910 283424.160000
   4747   4749     1   0.10910 283424.160000
   4750   4751     1   0.10969 276646.080000
   4750   4752     1   0.10969 276646.080000
   4753   4754     1   0.10969 276646.080000
   4753   4755     1   0.10969 276646.080000
   4756   4757     1   0.10969 276646.080000
   4756   4758     1   0.10969 276646.080000
   4759   4760     1   0.10969 276646.080000
   4759   4761     1   0.10969 276646.080000
   4762   4763     1   0.10969 276646.080000
   4762   4764     1   0.10969 276646.080000
   4765   4766     1   0.10969 276646.080000
   4765   4767     1   0.10969 276646.080000
   4770   4799     1   0.10304 312293.760000
   4771   4772     1   0.10910 283424.160000
   4771   4773     1   0.10910 283424.160000
   4774   4775     1   0.10910 283424.160000
   4774   4776     1   0.10910 283424.160000
   4777   4778     1   0.10910 283424.160000
   4777   4779     1   0.10910 283424.160000
   4780   4781     1   0.10969 276646.080000
   4780   4782     1   0.10969 276646.080000
   4783   4784     1   0.10969 276646.080000
   4783   4785     1   0.10969 276646.080000
   4786   4787     1   0.10969 276646.080000
   4786   4788     1   0.10969 276646.080000
   4789   4790     1   0.10969 276646.080000
   4789   4791     1   0.10969 276646.080000
   4792   4793     1   0.10969 276646.080000
   4792   4794     1   0.10969 276646.080000
   4795   4796     1   0.10969 276646.080000
   4795   4797     1   0.10969 276646.080000
   4800   4829     1   0.10304 312293.760000
   4801   4802     1   0.10910 283424.160000
   4801   4803     1   0.10910 283424.160000
   4804   4805     1   0.10910 283424.160000
   4804   4806     1   0.10910 283424.160000
   4807   4808     1   0.10910 283424.160000
   4807   4809     1   0.10910 283424.160000
   4810   4811     1   0.10969 276646.080000
   4810   4812     1   0.10969 276646.080000
   4813   4814     1   0.10969 276646.080000
   4813   4815     1   0.10969 276646.080000
   4816   4817     1   0.10969 276646.080000
   4816   4818     1   0.10969 276646.080000
   4819   4820     1   0.10969 276646.080000
   4819   4821     1   0.10969 276646.080000
   4822   4823     1   0.10969 276646.080000
   4822   4824     1   0.10969 276646.080000
   4825   4826     1   0.10969 276646.080000
   4825   4827     1   0.10969 276646.080000
   4830   4859     1   0.10304 312293.760000
   4831   4832     1   0.10910 283424.160000
   4831   4833     1   0.10910 283424.160000
   4834   4835     1   0.10910 283424.160000
   4834   4836     1   0.10910 283424.160000
   4837   4838     1   0.10910 283424.160000
   4837   4839     1   0.10910 283424.160000
   4840   4841     1   0.10969 276646.080000
   4840   4842     1   0.10969 276646.080000
   4843   4844     1   0.10969 276646.080000
   4843   4845     1   0.10969 276646.080000
   4846   4847     1   0.10969 276646.080000
   4846   4848     1   0.10969 276646.080000
   4849   4850     1   0.10969 276646.080000
   4849   4851     1   0.10969 276646.080000
   4852   4853     1   0.10969 276646.080000
   4852   4854     1   0.10969 276646.080000
   4855   4856     1   0.10969 276646.080000
   4855   4857     1   0.10969 276646.080000
   4860   4889     1   0.10304 312293.760000
   4861   4862     1   0.10910 283424.160000
   4861   4863     1   0.10910 283424.160000
   4864   4865     1   0.10910 283424.160000
   4864   4866     1   0.10910 283424.160000
   4867   4868     1   0.10910 283424.160000
   4867   4869     1   0.10910 283424.160000
   4870   4871     1   0.10969 276646.080000
   4870   4872     1   0.10969 276646.080000
   4873   4874     1   0.10969 276646.080000
   4873   4875     1   0.10969 276646.080000
   4876   4877     1   0.10969 276646.080000
   4876   4878     1   0.10969 276646.080000
   4879   4880     1   0.10969 276646.080000
   4879   4881     1   0.10969 276646.080000
   4882   4883     1   0.10969 276646.080000
   4882   4884     1   0.10969 276646.080000
   4885   4886     1   0.10969 276646.080000
   4885   4887     1   0.10969 276646.080000
   4890   4919     1   0.10304 312293.760000
   4891   4892     1   0.10910 283424.160000
   4891   4893     1   0.10910 283424.160000
   4894   4895     1   0.10910 283424.160000
   4894   4896     1   0.10910 283424.160000
   4897   4898     1   0.10910 283424.160000
   4897   4899     1   0.10910 283424.160000
   4900   4901     1   0.10969 276646.080000
   4900   4902     1   0.10969 276646.080000
   4903   4904     1   0.10969 276646.080000
   4903   4905     1   0.10969 276646.080000
   4906   4907     1   0.10969 276646.080000
   4906   4908     1   0.10969 276646.080000
   4909   4910     1   0.10969 276646.080000
   4909   4911     1   0.10969 276646.080000
   4912   4913     1   0.10969 276646.080000
   4912   4914     1   0.10969 276646.080000
   4915   4916     1   0.10969 276646.080000
   4915   4917     1   0.10969 276646.080000
   4920   4949     1   0.10304 312293.760000
   4921   4922     1   0.10910 283424.160000
   4921   4923     1   0.10910 283424.160000
   4924   4925     1   0.10910 283424.160000
   4924   4926     1   0.10910 283424.160000
   4927   4928     1   0.10910 283424.160000
   4927   4929     1   0.10910 283424.160000
   4930   4931     1   0.10969 276646.080000
   4930   4932     1   0.10969 276646.080000
   4933   4934     1   0.10969 276646.080000
   4933   4935     1   0.10969 276646.080000
   4936   4937     1   0.10969 276646.080000
   4936   4938     1   0.10969 276646.080000
   4939   4940     1   0.10969 276646.080000
   4939   4941     1   0.10969 276646.080000
   4942   4943     1   0.10969 276646.080000
   4942   4944     1   0.10969 276646.080000
   4945   4946     1   0.10969 276646.080000
   4945   4947     1   0.10969 276646.080000
   4950   4979     1   0.10304 312293.760000
   4951   4952     1   0.10910 283424.160000
   4951   4953     1   0.10910 283424.160000
   4954   4955     1   0.10910 283424.160000
   4954   4956     1   0.10910 283424.160000
   4957   4958     1   0.10910 283424.160000
   4957   4959     1   0.10910 283424.160000
   4960   4961     1   0.10969 276646.080000
   4960   4962     1   0.10969 276646.080000
   4963   4964     1   0.10969 276646.080000
   4963   4965     1   0.10969 276646.080000
   4966   4967     1   0.10969 276646.080000
   4966   4968     1   0.10969 276646.080000
   4969   4970     1   0.10969 276646.080000
   4969   4971     1   0.10969 276646.080000
   4972   4973     1   0.10969 276646.080000
   4972   4974     1   0.10969 276646.080000
   4975   4976     1   0.10969 276646.080000
   4975   4977     1   0.10969 276646.080000
   4980   5009     1   0.10304 312293.760000
   4981   4982     1   0.10910 283424.160000
   4981   4983     1   0.10910 283424.160000
   4984   4985     1   0.10910 283424.160000
   4984   4986     1   0.10910 283424.160000
   4987   4988     1   0.10910 283424.160000
   4987   4989     1   0.10910 283424.160000
   4990   4991     1   0.10969 276646.080000
   4990   4992     1   0.10969 276646.080000
   4993   4994     1   0.10969 276646.080000
   4993   4995     1   0.10969 276646.080000
   4996   4997     1   0.10969 276646.080000
   4996   4998     1   0.10969 276646.080000
   4999   5000     1   0.10969 276646.080000
   4999   5001     1   0.10969 276646.080000
   5002   5003     1   0.10969 276646.080000
   5002   5004     1   0.10969 276646.080000
   5005   5006     1   0.10969 276646.080000
   5005   5007     1   0.10969 276646.080000
   5010   5039     1   0.10304 312293.760000
   5011   5012     1   0.10910 283424.160000
   5011   5013     1   0.10910 283424.160000
   5014   5015     1   0.10910 283424.160000
   5014   5016     1   0.10910 283424.160000
   5017   5018     1   0.10910 283424.160000
   5017   5019     1   0.10910 283424.160000
   5020   5021     1   0.10969 276646.080000
   5020   5022     1   0.10969 276646.080000
   5023   5024     1   0.10969 276646.080000
   5023   5025     1   0.10969 276646.080000
   5026   5027     1   0.10969 276646.080000
   5026   5028     1   0.10969 276646.080000
   5029   5030     1   0.10969 276646.080000
   5029   5031     1   0.10969 276646.080000
   5032   5033     1   0.10969 276646.080000
   5032   5034     1   0.10969 276646.080000
   5035   5036     1   0.10969 276646.080000
   5035   5037     1   0.10969 276646.080000
   5040   5069     1   0.10304 312293.760000
   5041   5042     1   0.10910 283424.160000
   5041   5043     1   0.10910 283424.160000
   5044   5045     1   0.10910 283424.160000
   5044   5046     1   0.10910 283424.160000
   5047   5048     1   0.10910 283424.160000
   5047   5049     1   0.10910 283424.160000
   5050   5051     1   0.10969 276646.080000
   5050   5052     1   0.10969 276646.080000
   5053   5054     1   0.10969 276646.080000
   5053   5055     1   0.10969 276646.080000
   5056   5057     1   0.10969 276646.080000
   5056   5058     1   0.10969 276646.080000
   5059   5060     1   0.10969 276646.080000
   5059   5061     1   0.10969 276646.080000
   5062   5063     1   0.10969 276646.080000
   5062   5064     1   0.10969 276646.080000
   5065   5066     1   0.10969 276646.080000
   5065   5067     1   0.10969 276646.080000
   5070   5099     1   0.10304 312293.760000
   5071   5072     1   0.10910 283424.160000
   5071   5073     1   0.10910 283424.160000
   5074   5075     1   0.10910 283424.160000
   5074   5076     1   0.10910 283424.160000
   5077   5078     1   0.10910 283424.160000
   5077   5079     1   0.10910 283424.160000
   5080   5081     1   0.10969 276646.080000
   5080   5082     1   0.10969 276646.080000
   5083   5084     1   0.10969 276646.080000
   5083   5085     1   0.10969 276646.080000
   5086   5087     1   0.10969 276646.080000
   5086   5088     1   0.10969 276646.080000
   5089   5090     1   0.10969 276646.080000
   5089   5091     1   0.10969 276646.080000
   5092   5093     1   0.10969 276646.080000
   5092   5094     1   0.10969 276646.080000
   5095   5096     1   0.10969 276646.080000
   5095   5097     1   0.10969 276646.080000
   5100   5129     1   0.10304 312293.760000
   5101   5102     1   0.10910 283424.160000
   5101   5103     1   0.10910 283424.160000
   5104   5105     1   0.10910 283424.160000
   5104   5106     1   0.10910 283424.160000
   5107   5108     1   0.10910 283424.160000
   5107   5109     1   0.10910 283424.160000
   5110   5111     1   0.10969 276646.080000
   5110   5112     1   0.10969 276646.080000
   5113   5114     1   0.10969 276646.080000
   5113   5115     1   0.10969 276646.080000
   5116   5117     1   0.10969 276646.080000
   5116   5118     1   0.10969 276646.080000
   5119   5120     1   0.10969 276646.080000
   5119   5121     1   0.10969 276646.080000
   5122   5123     1   0.10969 276646.080000
   5122   5124     1   0.10969 276646.080000
   5125   5126     1   0.10969 276646.080000
   5125   5127     1   0.10969 276646.080000
   5130   5159     1   0.10304 312293.760000
   5131   5132     1   0.10910 283424.160000
   5131   5133     1   0.10910 283424.160000
   5134   5135     1   0.10910 283424.160000
   5134   5136     1   0.10910 283424.160000
   5137   5138     1   0.10910 283424.160000
   5137   5139     1   0.10910 283424.160000
   5140   5141     1   0.10969 276646.080000
   5140   5142     1   0.10969 276646.080000
   5143   5144     1   0.10969 276646.080000
   5143   5145     1   0.10969 276646.080000
   5146   5147     1   0.10969 276646.080000
   5146   5148     1   0.10969 276646.080000
   5149   5150     1   0.10969 276646.080000
   5149   5151     1   0.10969 276646.080000
   5152   5153     1   0.10969 276646.080000
   5152   5154     1   0.10969 276646.080000
   5155   5156     1   0.10969 276646.080000
   5155   5157     1   0.10969 276646.080000
   5160   5189     1   0.10304 312293.760000
   5161   5162     1   0.10910 283424.160000
   5161   5163     1   0.10910 283424.160000
   5164   5165     1   0.10910 283424.160000
   5164   5166     1   0.10910 283424.160000
   5167   5168     1   0.10910 283424.160000
   5167   5169     1   0.10910 283424.160000
   5170   5171     1   0.10969 276646.080000
   5170   5172     1   0.10969 276646.080000
   5173   5174     1   0.10969 276646.080000
   5173   5175     1   0.10969 276646.080000
   5176   5177     1   0.10969 276646.080000
   5176   5178     1   0.10969 276646.080000
   5179   5180     1   0.10969 276646.080000
   5179   5181     1   0.10969 276646.080000
   5182   5183     1   0.10969 276646.080000
   5182   5184     1   0.10969 276646.080000
   5185   5186     1   0.10969 276646.080000
   5185   5187     1   0.10969 276646.080000
   5190   5219     1   0.10304 312293.760000
   5191   5192     1   0.10910 283424.160000
   5191   5193     1   0.10910 283424.160000
   5194   5195     1   0.10910 283424.160000
   5194   5196     1   0.10910 283424.160000
   5197   5198     1   0.10910 283424.160000
   5197   5199     1   0.10910 283424.160000
   5200   5201     1   0.10969 276646.080000
   5200   5202     1   0.10969 276646.080000
   5203   5204     1   0.10969 276646.080000
   5203   5205     1   0.10969 276646.080000
   5206   5207     1   0.10969 276646.080000
   5206   5208     1   0.10969 276646.080000
   5209   5210     1   0.10969 276646.080000
   5209   5211     1   0.10969 276646.080000
   5212   5213     1   0.10969 276646.080000
   5212   5214     1   0.10969 276646.080000
   5215   5216     1   0.10969 276646.080000
   5215   5217     1   0.10969 276646.080000
   5220   5249     1   0.10304 312293.760000
   5221   5222     1   0.10910 283424.160000
   5221   5223     1   0.10910 283424.160000
   5224   5225     1   0.10910 283424.160000
   5224   5226     1   0.10910 283424.160000
   5227   5228     1   0.10910 283424.160000
   5227   5229     1   0.10910 283424.160000
   5230   5231     1   0.10969 276646.080000
   5230   5232     1   0.10969 276646.080000
   5233   5234     1   0.10969 276646.080000
   5233   5235     1   0.10969 276646.080000
   5236   5237     1   0.10969 276646.080000
   5236   5238     1   0.10969 276646.080000
   5239   5240     1   0.10969 276646.080000
   5239   5241     1   0.10969 276646.080000
   5242   5243     1   0.10969 276646.080000
   5242   5244     1   0.10969 276646.080000
   5245   5246     1   0.10969 276646.080000
   5245   5247     1   0.10969 276646.080000
   5250   5279     1   0.10304 312293.760000
   5251   5252     1   0.10910 283424.160000
   5251   5253     1   0.10910 283424.160000
   5254   5255     1   0.10910 283424.160000
   5254   5256     1   0.10910 283424.160000
   5257   5258     1   0.10910 283424.160000
   5257   5259     1   0.10910 283424.160000
   5260   5261     1   0.10969 276646.080000
   5260   5262     1   0.10969 276646.080000
   5263   5264     1   0.10969 276646.080000
   5263   5265     1   0.10969 276646.080000
   5266   5267     1   0.10969 276646.080000
   5266   5268     1   0.10969 276646.080000
   5269   5270     1   0.10969 276646.080000
   5269   5271     1   0.10969 276646.080000
   5272   5273     1   0.10969 276646.080000
   5272   5274     1   0.10969 276646.080000
   5275   5276     1   0.10969 276646.080000
   5275   5277     1   0.10969 276646.080000
   5280   5309     1   0.10304 312293.760000
   5281   5282     1   0.10910 283424.160000
   5281   5283     1   0.10910 283424.160000
   5284   5285     1   0.10910 283424.160000
   5284   5286     1   0.10910 283424.160000
   5287   5288     1   0.10910 283424.160000
   5287   5289     1   0.10910 283424.160000
   5290   5291     1   0.10969 276646.080000
   5290   5292     1   0.10969 276646.080000
   5293   5294     1   0.10969 276646.080000
   5293   5295     1   0.10969 276646.080000
   5296   5297     1   0.10969 276646.080000
   5296   5298     1   0.10969 276646.080000
   5299   5300     1   0.10969 276646.080000
   5299   5301     1   0.10969 276646.080000
   5302   5303     1   0.10969 276646.080000
   5302   5304     1   0.10969 276646.080000
   5305   5306     1   0.10969 276646.080000
   5305   5307     1   0.10969 276646.080000
   5310   5339     1   0.10304 312293.760000
   5311   5312     1   0.10910 283424.160000
   5311   5313     1   0.10910 283424.160000
   5314   5315     1   0.10910 283424.160000
   5314   5316     1   0.10910 283424.160000
   5317   5318     1   0.10910 283424.160000
   5317   5319     1   0.10910 283424.160000
   5320   5321     1   0.10969 276646.080000
   5320   5322     1   0.10969 276646.080000
   5323   5324     1   0.10969 276646.080000
   5323   5325     1   0.10969 276646.080000
   5326   5327     1   0.10969 276646.080000
   5326   5328     1   0.10969 276646.080000
   5329   5330     1   0.10969 276646.080000
   5329   5331     1   0.10969 276646.080000
   5332   5333     1   0.10969 276646.080000
   5332   5334     1   0.10969 276646.080000
   5335   5336     1   0.10969 276646.080000
   5335   5337     1   0.10969 276646.080000
   5340   5369     1   0.10304 312293.760000
   5341   5342     1   0.10910 283424.160000
   5341   5343     1   0.10910 283424.160000
   5344   5345     1   0.10910 283424.160000
   5344   5346     1   0.10910 283424.160000
   5347   5348     1   0.10910 283424.160000
   5347   5349     1   0.10910 283424.160000
   5350   5351     1   0.10969 276646.080000
   5350   5352     1   0.10969 276646.080000
   5353   5354     1   0.10969 276646.080000
   5353   5355     1   0.10969 276646.080000
   5356   5357     1   0.10969 276646.080000
   5356   5358     1   0.10969 276646.080000
   5359   5360     1   0.10969 276646.080000
   5359   5361     1   0.10969 276646.080000
   5362   5363     1   0.10969 276646.080000
   5362   5364     1   0.10969 276646.080000
   5365   5366     1   0.10969 276646.080000
   5365   5367     1   0.10969 276646.080000
   5370   5399     1   0.10304 312293.760000
   5371   5372     1   0.10910 283424.160000
   5371   5373     1   0.10910 283424.160000
   5374   5375     1   0.10910 283424.160000
   5374   5376     1   0.10910 283424.160000
   5377   5378     1   0.10910 283424.160000
   5377   5379     1   0.10910 283424.160000
   5380   5381     1   0.10969 276646.080000
   5380   5382     1   0.10969 276646.080000
   5383   5384     1   0.10969 276646.080000
   5383   5385     1   0.10969 276646.080000
   5386   5387     1   0.10969 276646.080000
   5386   5388     1   0.10969 276646.080000
   5389   5390     1   0.10969 276646.080000
   5389   5391     1   0.10969 276646.080000
   5392   5393     1   0.10969 276646.080000
   5392   5394     1   0.10969 276646.080000
   5395   5396     1   0.10969 276646.080000
   5395   5397     1   0.10969 276646.080000
   5400   5429     1   0.10304 312293.760000
   5401   5402     1   0.10910 283424.160000
   5401   5403     1   0.10910 283424.160000
   5404   5405     1   0.10910 283424.160000
   5404   5406     1   0.10910 283424.160000
   5407   5408     1   0.10910 283424.160000
   5407   5409     1   0.10910 283424.160000
   5410   5411     1   0.10969 276646.080000
   5410   5412     1   0.10969 276646.080000
   5413   5414     1   0.10969 276646.080000
   5413   5415     1   0.10969 276646.080000
   5416   5417     1   0.10969 276646.080000
   5416   5418     1   0.10969 276646.080000
   5419   5420     1   0.10969 276646.080000
   5419   5421     1   0.10969 276646.080000
   5422   5423     1   0.10969 276646.080000
   5422   5424     1   0.10969 276646.080000
   5425   5426     1   0.10969 276646.080000
   5425   5427     1   0.10969 276646.080000
   5430   5459     1   0.10304 312293.760000
   5431   5432     1   0.10910 283424.160000
   5431   5433     1   0.10910 283424.160000
   5434   5435     1   0.10910 283424.160000
   5434   5436     1   0.10910 283424.160000
   5437   5438     1   0.10910 283424.160000
   5437   5439     1   0.10910 283424.160000
   5440   5441     1   0.10969 276646.080000
   5440   5442     1   0.10969 276646.080000
   5443   5444     1   0.10969 276646.080000
   5443   5445     1   0.10969 276646.080000
   5446   5447     1   0.10969 276646.080000
   5446   5448     1   0.10969 276646.080000
   5449   5450     1   0.10969 276646.080000
   5449   5451     1   0.10969 276646.080000
   5452   5453     1   0.10969 276646.080000
   5452   5454     1   0.10969 276646.080000
   5455   5456     1   0.10969 276646.080000
   5455   5457     1   0.10969 276646.080000
   5460   5489     1   0.10304 312293.760000
   5461   5462     1   0.10910 283424.160000
   5461   5463     1   0.10910 283424.160000
   5464   5465     1   0.10910 283424.160000
   5464   5466     1   0.10910 283424.160000
   5467   5468     1   0.10910 283424.160000
   5467   5469     1   0.10910 283424.160000
   5470   5471     1   0.10969 276646.080000
   5470   5472     1   0.10969 276646.080000
   5473   5474     1   0.10969 276646.080000
   5473   5475     1   0.10969 276646.080000
   5476   5477     1   0.10969 276646.080000
   5476   5478     1   0.10969 276646.080000
   5479   5480     1   0.10969 276646.080000
   5479   5481     1   0.10969 276646.080000
   5482   5483     1   0.10969 276646.080000
   5482   5484     1   0.10969 276646.080000
   5485   5486     1   0.10969 276646.080000
   5485   5487     1   0.10969 276646.080000
   5490   5519     1   0.10304 312293.760000
   5491   5492     1   0.10910 283424.160000
   5491   5493     1   0.10910 283424.160000
   5494   5495     1   0.10910 283424.160000
   5494   5496     1   0.10910 283424.160000
   5497   5498     1   0.10910 283424.160000
   5497   5499     1   0.10910 283424.160000
   5500   5501     1   0.10969 276646.080000
   5500   5502     1   0.10969 276646.080000
   5503   5504     1   0.10969 276646.080000
   5503   5505     1   0.10969 276646.080000
   5506   5507     1   0.10969 276646.080000
   5506   5508     1   0.10969 276646.080000
   5509   5510     1   0.10969 276646.080000
   5509   5511     1   0.10969 276646.080000
   5512   5513     1   0.10969 276646.080000
   5512   5514     1   0.10969 276646.080000
   5515   5516     1   0.10969 276646.080000
   5515   5517     1   0.10969 276646.080000
   5520   5549     1   0.10304 312293.760000
   5521   5522     1   0.10910 283424.160000
   5521   5523     1   0.10910 283424.160000
   5524   5525     1   0.10910 283424.160000
   5524   5526     1   0.10910 283424.160000
   5527   5528     1   0.10910 283424.160000
   5527   5529     1   0.10910 283424.160000
   5530   5531     1   0.10969 276646.080000
   5530   5532     1   0.10969 276646.080000
   5533   5534     1   0.10969 276646.080000
   5533   5535     1   0.10969 276646.080000
   5536   5537     1   0.10969 276646.080000
   5536   5538     1   0.10969 276646.080000
   5539   5540     1   0.10969 276646.080000
   5539   5541     1   0.10969 276646.080000
   5542   5543     1   0.10969 276646.080000
   5542   5544     1   0.10969 276646.080000
   5545   5546     1   0.10969 276646.080000
   5545   5547     1   0.10969 276646.080000
   5550   5579     1   0.10304 312293.760000
   5551   5552     1   0.10910 283424.160000
   5551   5553     1   0.10910 283424.160000
   5554   5555     1   0.10910 283424.160000
   5554   5556     1   0.10910 283424.160000
   5557   5558     1   0.10910 283424.160000
   5557   5559     1   0.10910 283424.160000
   5560   5561     1   0.10969 276646.080000
   5560   5562     1   0.10969 276646.080000
   5563   5564     1   0.10969 276646.080000
   5563   5565     1   0.10969 276646.080000
   5566   5567     1   0.10969 276646.080000
   5566   5568     1   0.10969 276646.080000
   5569   5570     1   0.10969 276646.080000
   5569   5571     1   0.10969 276646.080000
   5572   5573     1   0.10969 276646.080000
   5572   5574     1   0.10969 276646.080000
   5575   5576     1   0.10969 276646.080000
   5575   5577     1   0.10969 276646.080000
   5580   5609     1   0.10304 312293.760000
   5581   5582     1   0.10910 283424.160000
   5581   5583     1   0.10910 283424.160000
   5584   5585     1   0.10910 283424.160000
   5584   5586     1   0.10910 283424.160000
   5587   5588     1   0.10910 283424.160000
   5587   5589     1   0.10910 283424.160000
   5590   5591     1   0.10969 276646.080000
   5590   5592     1   0.10969 276646.080000
   5593   5594     1   0.10969 276646.080000
   5593   5595     1   0.10969 276646.080000
   5596   5597     1   0.10969 276646.080000
   5596   5598     1   0.10969 276646.080000
   5599   5600     1   0.10969 276646.080000
   5599   5601     1   0.10969 276646.080000
   5602   5603     1   0.10969 276646.080000
   5602   5604     1   0.10969 276646.080000
   5605   5606     1   0.10969 276646.080000
   5605   5607     1   0.10969 276646.080000
   5610   5639     1   0.10304 312293.760000
   5611   5612     1   0.10910 283424.160000
   5611   5613     1   0.10910 283424.160000
   5614   5615     1   0.10910 283424.160000
   5614   5616     1   0.10910 283424.160000
   5617   5618     1   0.10910 283424.160000
   5617   5619     1   0.10910 283424.160000
   5620   5621     1   0.10969 276646.080000
   5620   5622     1   0.10969 276646.080000
   5623   5624     1   0.10969 276646.080000
   5623   5625     1   0.10969 276646.080000
   5626   5627     1   0.10969 276646.080000
   5626   5628     1   0.10969 276646.080000
   5629   5630     1   0.10969 276646.080000
   5629   5631     1   0.10969 276646.080000
   5632   5633     1   0.10969 276646.080000
   5632   5634     1   0.10969 276646.080000
   5635   5636     1   0.10969 276646.080000
   5635   5637     1   0.10969 276646.080000
   5640   5669     1   0.10304 312293.760000
   5641   5642     1   0.10910 283424.160000
   5641   5643     1   0.10910 283424.160000
   5644   5645     1   0.10910 283424.160000
   5644   5646     1   0.10910 283424.160000
   5647   5648     1   0.10910 283424.160000
   5647   5649     1   0.10910 283424.160000
   5650   5651     1   0.10969 276646.080000
   5650   5652     1   0.10969 276646.080000
   5653   5654     1   0.10969 276646.080000
   5653   5655     1   0.10969 276646.080000
   5656   5657     1   0.10969 276646.080000
   5656   5658     1   0.10969 276646.080000
   5659   5660     1   0.10969 276646.080000
   5659   5661     1   0.10969 276646.080000
   5662   5663     1   0.10969 276646.080000
   5662   5664     1   0.10969 276646.080000
   5665   5666     1   0.10969 276646.080000
   5665   5667     1   0.10969 276646.080000
   5670   5699     1   0.10304 312293.760000
   5671   5672     1   0.10910 283424.160000
   5671   5673     1   0.10910 283424.160000
   5674   5675     1   0.10910 283424.160000
   5674   5676     1   0.10910 283424.160000
   5677   5678     1   0.10910 283424.160000
   5677   5679     1   0.10910 283424.160000
   5680   5681     1   0.10969 276646.080000
   5680   5682     1   0.10969 276646.080000
   5683   5684     1   0.10969 276646.080000
   5683   5685     1   0.10969 276646.080000
   5686   5687     1   0.10969 276646.080000
   5686   5688     1   0.10969 276646.080000
   5689   5690     1   0.10969 276646.080000
   5689   5691     1   0.10969 276646.080000
   5692   5693     1   0.10969 276646.080000
   5692   5694     1   0.10969 276646.080000
   5695   5696     1   0.10969 276646.080000
   5695   5697     1   0.10969 276646.080000
   5700   5729     1   0.10304 312293.760000
   5701   5702     1   0.10910 283424.160000
   5701   5703     1   0.10910 283424.160000
   5704   5705     1   0.10910 283424.160000
   5704   5706     1   0.10910 283424.160000
   5707   5708     1   0.10910 283424.160000
   5707   5709     1   0.10910 283424.160000
   5710   5711     1   0.10969 276646.080000
   5710   5712     1   0.10969 276646.080000
   5713   5714     1   0.10969 276646.080000
   5713   5715     1   0.10969 276646.080000
   5716   5717     1   0.10969 276646.080000
   5716   5718     1   0.10969 276646.080000
   5719   5720     1   0.10969 276646.080000
   5719   5721     1   0.10969 276646.080000
   5722   5723     1   0.10969 276646.080000
   5722   5724     1   0.10969 276646.080000
   5725   5726     1   0.10969 276646.080000
   5725   5727     1   0.10969 276646.080000
   5730   5759     1   0.10304 312293.760000
   5731   5732     1   0.10910 283424.160000
   5731   5733     1   0.10910 283424.160000
   5734   5735     1   0.10910 283424.160000
   5734   5736     1   0.10910 283424.160000
   5737   5738     1   0.10910 283424.160000
   5737   5739     1   0.10910 283424.160000
   5740   5741     1   0.10969 276646.080000
   5740   5742     1   0.10969 276646.080000
   5743   5744     1   0.10969 276646.080000
   5743   5745     1   0.10969 276646.080000
   5746   5747     1   0.10969 276646.080000
   5746   5748     1   0.10969 276646.080000
   5749   5750     1   0.10969 276646.080000
   5749   5751     1   0.10969 276646.080000
   5752   5753     1   0.10969 276646.080000
   5752   5754     1   0.10969 276646.080000
   5755   5756     1   0.10969 276646.080000
   5755   5757     1   0.10969 276646.080000
   5760   5789     1   0.10304 312293.760000
   5761   5762     1   0.10910 283424.160000
   5761   5763     1   0.10910 283424.160000
   5764   5765     1   0.10910 283424.160000
   5764   5766     1   0.10910 283424.160000
   5767   5768     1   0.10910 283424.160000
   5767   5769     1   0.10910 283424.160000
   5770   5771     1   0.10969 276646.080000
   5770   5772     1   0.10969 276646.080000
   5773   5774     1   0.10969 276646.080000
   5773   5775     1   0.10969 276646.080000
   5776   5777     1   0.10969 276646.080000
   5776   5778     1   0.10969 276646.080000
   5779   5780     1   0.10969 276646.080000
   5779   5781     1   0.10969 276646.080000
   5782   5783     1   0.10969 276646.080000
   5782   5784     1   0.10969 276646.080000
   5785   5786     1   0.10969 276646.080000
   5785   5787     1   0.10969 276646.080000
   5790   5819     1   0.10304 312293.760000
   5791   5792     1   0.10910 283424.160000
   5791   5793     1   0.10910 283424.160000
   5794   5795     1   0.10910 283424.160000
   5794   5796     1   0.10910 283424.160000
   5797   5798     1   0.10910 283424.160000
   5797   5799     1   0.10910 283424.160000
   5800   5801     1   0.10969 276646.080000
   5800   5802     1   0.10969 276646.080000
   5803   5804     1   0.10969 276646.080000
   5803   5805     1   0.10969 276646.080000
   5806   5807     1   0.10969 276646.080000
   5806   5808     1   0.10969 276646.080000
   5809   5810     1   0.10969 276646.080000
   5809   5811     1   0.10969 276646.080000
   5812   5813     1   0.10969 276646.080000
   5812   5814     1   0.10969 276646.080000
   5815   5816     1   0.10969 276646.080000
   5815   5817     1   0.10969 276646.080000
   5820   5849     1   0.10304 312293.760000
   5821   5822     1   0.10910 283424.160000
   5821   5823     1   0.10910 283424.160000
   5824   5825     1   0.10910 283424.160000
   5824   5826     1   0.10910 283424.160000
   5827   5828     1   0.10910 283424.160000
   5827   5829     1   0.10910 283424.160000
   5830   5831     1   0.10969 276646.080000
   5830   5832     1   0.10969 276646.080000
   5833   5834     1   0.10969 276646.080000
   5833   5835     1   0.10969 276646.080000
   5836   5837     1   0.10969 276646.080000
   5836   5838     1   0.10969 276646.080000
   5839   5840     1   0.10969 276646.080000
   5839   5841     1   0.10969 276646.080000
   5842   5843     1   0.10969 276646.080000
   5842   5844     1   0.10969 276646.080000
   5845   5846     1   0.10969 276646.080000
   5845   5847     1   0.10969 276646.080000
   5850   5879     1   0.10304 312293.760000
   5851   5852     1   0.10910 283424.160000
   5851   5853     1   0.10910 283424.160000
   5854   5855     1   0.10910 283424.160000
   5854   5856     1   0.10910 283424.160000
   5857   5858     1   0.10910 283424.160000
   5857   5859     1   0.10910 283424.160000
   5860   5861     1   0.10969 276646.080000
   5860   5862     1   0.10969 276646.080000
   5863   5864     1   0.10969 276646.080000
   5863   5865     1   0.10969 276646.080000
   5866   5867     1   0.10969 276646.080000
   5866   5868     1   0.10969 276646.080000
   5869   5870     1   0.10969 276646.080000
   5869   5871     1   0.10969 276646.080000
   5872   5873     1   0.10969 276646.080000
   5872   5874     1   0.10969 276646.080000
   5875   5876     1   0.10969 276646.080000
   5875   5877     1   0.10969 276646.080000
   5880   5909     1   0.10304 312293.760000
   5881   5882     1   0.10910 283424.160000
   5881   5883     1   0.10910 283424.160000
   5884   5885     1   0.10910 283424.160000
   5884   5886     1   0.10910 283424.160000
   5887   5888     1   0.10910 283424.160000
   5887   5889     1   0.10910 283424.160000
   5890   5891     1   0.10969 276646.080000
   5890   5892     1   0.10969 276646.080000
   5893   5894     1   0.10969 276646.080000
   5893   5895     1   0.10969 276646.080000
   5896   5897     1   0.10969 276646.080000
   5896   5898     1   0.10969 276646.080000
   5899   5900     1   0.10969 276646.080000
   5899   5901     1   0.10969 276646.080000
   5902   5903     1   0.10969 276646.080000
   5902   5904     1   0.10969 276646.080000
   5905   5906     1   0.10969 276646.080000
   5905   5907     1   0.10969 276646.080000
   5910   5939     1   0.10304 312293.760000
   5911   5912     1   0.10910 283424.160000
   5911   5913     1   0.10910 283424.160000
   5914   5915     1   0.10910 283424.160000
   5914   5916     1   0.10910 283424.160000
   5917   5918     1   0.10910 283424.160000
   5917   5919     1   0.10910 283424.160000
   5920   5921     1   0.10969 276646.080000
   5920   5922     1   0.10969 276646.080000
   5923   5924     1   0.10969 276646.080000
   5923   5925     1   0.10969 276646.080000
   5926   5927     1   0.10969 276646.080000
   5926   5928     1   0.10969 276646.080000
   5929   5930     1   0.10969 276646.080000
   5929   5931     1   0.10969 276646.080000
   5932   5933     1   0.10969 276646.080000
   5932   5934     1   0.10969 276646.080000
   5935   5936     1   0.10969 276646.080000
   5935   5937     1   0.10969 276646.080000
   5940   5969     1   0.10304 312293.760000
   5941   5942     1   0.10910 283424.160000
   5941   5943     1   0.10910 283424.160000
   5944   5945     1   0.10910 283424.160000
   5944   5946     1   0.10910 283424.160000
   5947   5948     1   0.10910 283424.160000
   5947   5949     1   0.10910 283424.160000
   5950   5951     1   0.10969 276646.080000
   5950   5952     1   0.10969 276646.080000
   5953   5954     1   0.10969 276646.080000
   5953   5955     1   0.10969 276646.080000
   5956   5957     1   0.10969 276646.080000
   5956   5958     1   0.10969 276646.080000
   5959   5960     1   0.10969 276646.080000
   5959   5961     1   0.10969 276646.080000
   5962   5963     1   0.10969 276646.080000
   5962   5964     1   0.10969 276646.080000
   5965   5966     1   0.10969 276646.080000
   5965   5967     1   0.10969 276646.080000
   5970   5999     1   0.10304 312293.760000
   5971   5972     1   0.10910 283424.160000
   5971   5973     1   0.10910 283424.160000
   5974   5975     1   0.10910 283424.160000
   5974   5976     1   0.10910 283424.160000
   5977   5978     1   0.10910 283424.160000
   5977   5979     1   0.10910 283424.160000
   5980   5981     1   0.10969 276646.080000
   5980   5982     1   0.10969 276646.080000
   5983   5984     1   0.10969 276646.080000
   5983   5985     1   0.10969 276646.080000
   5986   5987     1   0.10969 276646.080000
   5986   5988     1   0.10969 276646.080000
   5989   5990     1   0.10969 276646.080000
   5989   5991     1   0.10969 276646.080000
   5992   5993     1   0.10969 276646.080000
   5992   5994     1   0.10969 276646.080000
   5995   5996     1   0.10969 276646.080000
   5995   5997     1   0.10969 276646.080000
   6000   6029     1   0.10304 312293.760000
   6001   6002     1   0.10910 283424.160000
   6001   6003     1   0.10910 283424.160000
   6004   6005     1   0.10910 283424.160000
   6004   6006     1   0.10910 283424.160000
   6007   6008     1   0.10910 283424.160000
   6007   6009     1   0.10910 283424.160000
   6010   6011     1   0.10969 276646.080000
   6010   6012     1   0.10969 276646.080000
   6013   6014     1   0.10969 276646.080000
   6013   6015     1   0.10969 276646.080000
   6016   6017     1   0.10969 276646.080000
   6016   6018     1   0.10969 276646.080000
   6019   6020     1   0.10969 276646.080000
   6019   6021     1   0.10969 276646.080000
   6022   6023     1   0.10969 276646.080000
   6022   6024     1   0.10969 276646.080000
   6025   6026     1   0.10969 276646.080000
   6025   6027     1   0.10969 276646.080000
   6030   6059     1   0.10304 312293.760000
   6031   6032     1   0.10910 283424.160000
   6031   6033     1   0.10910 283424.160000
   6034   6035     1   0.10910 283424.160000
   6034   6036     1   0.10910 283424.160000
   6037   6038     1   0.10910 283424.160000
   6037   6039     1   0.10910 283424.160000
   6040   6041     1   0.10969 276646.080000
   6040   6042     1   0.10969 276646.080000
   6043   6044     1   0.10969 276646.080000
   6043   6045     1   0.10969 276646.080000
   6046   6047     1   0.10969 276646.080000
   6046   6048     1   0.10969 276646.080000
   6049   6050     1   0.10969 276646.080000
   6049   6051     1   0.10969 276646.080000
   6052   6053     1   0.10969 276646.080000
   6052   6054     1   0.10969 276646.080000
   6055   6056     1   0.10969 276646.080000
   6055   6057     1   0.10969 276646.080000
   6060   6089     1   0.10304 312293.760000
   6061   6062     1   0.10910 283424.160000
   6061   6063     1   0.10910 283424.160000
   6064   6065     1   0.10910 283424.160000
   6064   6066     1   0.10910 283424.160000
   6067   6068     1   0.10910 283424.160000
   6067   6069     1   0.10910 283424.160000
   6070   6071     1   0.10969 276646.080000
   6070   6072     1   0.10969 276646.080000
   6073   6074     1   0.10969 276646.080000
   6073   6075     1   0.10969 276646.080000
   6076   6077     1   0.10969 276646.080000
   6076   6078     1   0.10969 276646.080000
   6079   6080     1   0.10969 276646.080000
   6079   6081     1   0.10969 276646.080000
   6082   6083     1   0.10969 276646.080000
   6082   6084     1   0.10969 276646.080000
   6085   6086     1   0.10969 276646.080000
   6085   6087     1   0.10969 276646.080000
   6090   6119     1   0.10304 312293.760000
   6091   6092     1   0.10910 283424.160000
   6091   6093     1   0.10910 283424.160000
   6094   6095     1   0.10910 283424.160000
   6094   6096     1   0.10910 283424.160000
   6097   6098     1   0.10910 283424.160000
   6097   6099     1   0.10910 283424.160000
   6100   6101     1   0.10969 276646.080000
   6100   6102     1   0.10969 276646.080000
   6103   6104     1   0.10969 276646.080000
   6103   6105     1   0.10969 276646.080000
   6106   6107     1   0.10969 276646.080000
   6106   6108     1   0.10969 276646.080000
   6109   6110     1   0.10969 276646.080000
   6109   6111     1   0.10969 276646.080000
   6112   6113     1   0.10969 276646.080000
   6112   6114     1   0.10969 276646.080000
   6115   6116     1   0.10969 276646.080000
   6115   6117     1   0.10969 276646.080000
   6120   6149     1   0.10304 312293.760000
   6121   6122     1   0.10910 283424.160000
   6121   6123     1   0.10910 283424.160000
   6124   6125     1   0.10910 283424.160000
   6124   6126     1   0.10910 283424.160000
   6127   6128     1   0.10910 283424.160000
   6127   6129     1   0.10910 283424.160000
   6130   6131     1   0.10969 276646.080000
   6130   6132     1   0.10969 276646.080000
   6133   6134     1   0.10969 276646.080000
   6133   6135     1   0.10969 276646.080000
   6136   6137     1   0.10969 276646.080000
   6136   6138     1   0.10969 276646.080000
   6139   6140     1   0.10969 276646.080000
   6139   6141     1   0.10969 276646.080000
   6142   6143     1   0.10969 276646.080000
   6142   6144     1   0.10969 276646.080000
   6145   6146     1   0.10969 276646.080000
   6145   6147     1   0.10969 276646.080000
   6150   6179     1   0.10304 312293.760000
   6151   6152     1   0.10910 283424.160000
   6151   6153     1   0.10910 283424.160000
   6154   6155     1   0.10910 283424.160000
   6154   6156     1   0.10910 283424.160000
   6157   6158     1   0.10910 283424.160000
   6157   6159     1   0.10910 283424.160000
   6160   6161     1   0.10969 276646.080000
   6160   6162     1   0.10969 276646.080000
   6163   6164     1   0.10969 276646.080000
   6163   6165     1   0.10969 276646.080000
   6166   6167     1   0.10969 276646.080000
   6166   6168     1   0.10969 276646.080000
   6169   6170     1   0.10969 276646.080000
   6169   6171     1   0.10969 276646.080000
   6172   6173     1   0.10969 276646.080000
   6172   6174     1   0.10969 276646.080000
   6175   6176     1   0.10969 276646.080000
   6175   6177     1   0.10969 276646.080000
   6180   6209     1   0.10304 312293.760000
   6181   6182     1   0.10910 283424.160000
   6181   6183     1   0.10910 283424.160000
   6184   6185     1   0.10910 283424.160000
   6184   6186     1   0.10910 283424.160000
   6187   6188     1   0.10910 283424.160000
   6187   6189     1   0.10910 283424.160000
   6190   6191     1   0.10969 276646.080000
   6190   6192     1   0.10969 276646.080000
   6193   6194     1   0.10969 276646.080000
   6193   6195     1   0.10969 276646.080000
   6196   6197     1   0.10969 276646.080000
   6196   6198     1   0.10969 276646.080000
   6199   6200     1   0.10969 276646.080000
   6199   6201     1   0.10969 276646.080000
   6202   6203     1   0.10969 276646.080000
   6202   6204     1   0.10969 276646.080000
   6205   6206     1   0.10969 276646.080000
   6205   6207     1   0.10969 276646.080000
   6210   6239     1   0.10304 312293.760000
   6211   6212     1   0.10910 283424.160000
   6211   6213     1   0.10910 283424.160000
   6214   6215     1   0.10910 283424.160000
   6214   6216     1   0.10910 283424.160000
   6217   6218     1   0.10910 283424.160000
   6217   6219     1   0.10910 283424.160000
   6220   6221     1   0.10969 276646.080000
   6220   6222     1   0.10969 276646.080000
   6223   6224     1   0.10969 276646.080000
   6223   6225     1   0.10969 276646.080000
   6226   6227     1   0.10969 276646.080000
   6226   6228     1   0.10969 276646.080000
   6229   6230     1   0.10969 276646.080000
   6229   6231     1   0.10969 276646.080000
   6232   6233     1   0.10969 276646.080000
   6232   6234     1   0.10969 276646.080000
   6235   6236     1   0.10969 276646.080000
   6235   6237     1   0.10969 276646.080000
   6240   6269     1   0.10304 312293.760000
   6241   6242     1   0.10910 283424.160000
   6241   6243     1   0.10910 283424.160000
   6244   6245     1   0.10910 283424.160000
   6244   6246     1   0.10910 283424.160000
   6247   6248     1   0.10910 283424.160000
   6247   6249     1   0.10910 283424.160000
   6250   6251     1   0.10969 276646.080000
   6250   6252     1   0.10969 276646.080000
   6253   6254     1   0.10969 276646.080000
   6253   6255     1   0.10969 276646.080000
   6256   6257     1   0.10969 276646.080000
   6256   6258     1   0.10969 276646.080000
   6259   6260     1   0.10969 276646.080000
   6259   6261     1   0.10969 276646.080000
   6262   6263     1   0.10969 276646.080000
   6262   6264     1   0.10969 276646.080000
   6265   6266     1   0.10969 276646.080000
   6265   6267     1   0.10969 276646.080000
   6270   6299     1   0.10304 312293.760000
   6271   6272     1   0.10910 283424.160000
   6271   6273     1   0.10910 283424.160000
   6274   6275     1   0.10910 283424.160000
   6274   6276     1   0.10910 283424.160000
   6277   6278     1   0.10910 283424.160000
   6277   6279     1   0.10910 283424.160000
   6280   6281     1   0.10969 276646.080000
   6280   6282     1   0.10969 276646.080000
   6283   6284     1   0.10969 276646.080000
   6283   6285     1   0.10969 276646.080000
   6286   6287     1   0.10969 276646.080000
   6286   6288     1   0.10969 276646.080000
   6289   6290     1   0.10969 276646.080000
   6289   6291     1   0.10969 276646.080000
   6292   6293     1   0.10969 276646.080000
   6292   6294     1   0.10969 276646.080000
   6295   6296     1   0.10969 276646.080000
   6295   6297     1   0.10969 276646.080000
   6300   6329     1   0.10304 312293.760000
   6301   6302     1   0.10910 283424.160000
   6301   6303     1   0.10910 283424.160000
   6304   6305     1   0.10910 283424.160000
   6304   6306     1   0.10910 283424.160000
   6307   6308     1   0.10910 283424.160000
   6307   6309     1   0.10910 283424.160000
   6310   6311     1   0.10969 276646.080000
   6310   6312     1   0.10969 276646.080000
   6313   6314     1   0.10969 276646.080000
   6313   6315     1   0.10969 276646.080000
   6316   6317     1   0.10969 276646.080000
   6316   6318     1   0.10969 276646.080000
   6319   6320     1   0.10969 276646.080000
   6319   6321     1   0.10969 276646.080000
   6322   6323     1   0.10969 276646.080000
   6322   6324     1   0.10969 276646.080000
   6325   6326     1   0.10969 276646.080000
   6325   6327     1   0.10969 276646.080000
   6330   6359     1   0.10304 312293.760000
   6331   6332     1   0.10910 283424.160000
   6331   6333     1   0.10910 283424.160000
   6334   6335     1   0.10910 283424.160000
   6334   6336     1   0.10910 283424.160000
   6337   6338     1   0.10910 283424.160000
   6337   6339     1   0.10910 283424.160000
   6340   6341     1   0.10969 276646.080000
   6340   6342     1   0.10969 276646.080000
   6343   6344     1   0.10969 276646.080000
   6343   6345     1   0.10969 276646.080000
   6346   6347     1   0.10969 276646.080000
   6346   6348     1   0.10969 276646.080000
   6349   6350     1   0.10969 276646.080000
   6349   6351     1   0.10969 276646.080000
   6352   6353     1   0.10969 276646.080000
   6352   6354     1   0.10969 276646.080000
   6355   6356     1   0.10969 276646.080000
   6355   6357     1   0.10969 276646.080000
   6360   6389     1   0.10304 312293.760000
   6361   6362     1   0.10910 283424.160000
   6361   6363     1   0.10910 283424.160000
   6364   6365     1   0.10910 283424.160000
   6364   6366     1   0.10910 283424.160000
   6367   6368     1   0.10910 283424.160000
   6367   6369     1   0.10910 283424.160000
   6370   6371     1   0.10969 276646.080000
   6370   6372     1   0.10969 276646.080000
   6373   6374     1   0.10969 276646.080000
   6373   6375     1   0.10969 276646.080000
   6376   6377     1   0.10969 276646.080000
   6376   6378     1   0.10969 276646.080000
   6379   6380     1   0.10969 276646.080000
   6379   6381     1   0.10969 276646.080000
   6382   6383     1   0.10969 276646.080000
   6382   6384     1   0.10969 276646.080000
   6385   6386     1   0.10969 276646.080000
   6385   6387     1   0.10969 276646.080000
   6390   6419     1   0.10304 312293.760000
   6391   6392     1   0.10910 283424.160000
   6391   6393     1   0.10910 283424.160000
   6394   6395     1   0.10910 283424.160000
   6394   6396     1   0.10910 283424.160000
   6397   6398     1   0.10910 283424.160000
   6397   6399     1   0.10910 283424.160000
   6400   6401     1   0.10969 276646.080000
   6400   6402     1   0.10969 276646.080000
   6403   6404     1   0.10969 276646.080000
   6403   6405     1   0.10969 276646.080000
   6406   6407     1   0.10969 276646.080000
   6406   6408     1   0.10969 276646.080000
   6409   6410     1   0.10969 276646.080000
   6409   6411     1   0.10969 276646.080000
   6412   6413     1   0.10969 276646.080000
   6412   6414     1   0.10969 276646.080000
   6415   6416     1   0.10969 276646.080000
   6415   6417     1   0.10969 276646.080000
   6420   6449     1   0.10304 312293.760000
   6421   6422     1   0.10910 283424.160000
   6421   6423     1   0.10910 283424.160000
   6424   6425     1   0.10910 283424.160000
   6424   6426     1   0.10910 283424.160000
   6427   6428     1   0.10910 283424.160000
   6427   6429     1   0.10910 283424.160000
   6430   6431     1   0.10969 276646.080000
   6430   6432     1   0.10969 276646.080000
   6433   6434     1   0.10969 276646.080000
   6433   6435     1   0.10969 276646.080000
   6436   6437     1   0.10969 276646.080000
   6436   6438     1   0.10969 276646.080000
   6439   6440     1   0.10969 276646.080000
   6439   6441     1   0.10969 276646.080000
   6442   6443     1   0.10969 276646.080000
   6442   6444     1   0.10969 276646.080000
   6445   6446     1   0.10969 276646.080000
   6445   6447     1   0.10969 276646.080000
   6450   6479     1   0.10304 312293.760000
   6451   6452     1   0.10910 283424.160000
   6451   6453     1   0.10910 283424.160000
   6454   6455     1   0.10910 283424.160000
   6454   6456     1   0.10910 283424.160000
   6457   6458     1   0.10910 283424.160000
   6457   6459     1   0.10910 283424.160000
   6460   6461     1   0.10969 276646.080000
   6460   6462     1   0.10969 276646.080000
   6463   6464     1   0.10969 276646.080000
   6463   6465     1   0.10969 276646.080000
   6466   6467     1   0.10969 276646.080000
   6466   6468     1   0.10969 276646.080000
   6469   6470     1   0.10969 276646.080000
   6469   6471     1   0.10969 276646.080000
   6472   6473     1   0.10969 276646.080000
   6472   6474     1   0.10969 276646.080000
   6475   6476     1   0.10969 276646.080000
   6475   6477     1   0.10969 276646.080000
   6480   6509     1   0.10304 312293.760000
   6481   6482     1   0.10910 283424.160000
   6481   6483     1   0.10910 283424.160000
   6484   6485     1   0.10910 283424.160000
   6484   6486     1   0.10910 283424.160000
   6487   6488     1   0.10910 283424.160000
   6487   6489     1   0.10910 283424.160000
   6490   6491     1   0.10969 276646.080000
   6490   6492     1   0.10969 276646.080000
   6493   6494     1   0.10969 276646.080000
   6493   6495     1   0.10969 276646.080000
   6496   6497     1   0.10969 276646.080000
   6496   6498     1   0.10969 276646.080000
   6499   6500     1   0.10969 276646.080000
   6499   6501     1   0.10969 276646.080000
   6502   6503     1   0.10969 276646.080000
   6502   6504     1   0.10969 276646.080000
   6505   6506     1   0.10969 276646.080000
   6505   6507     1   0.10969 276646.080000
   6510   6539     1   0.10304 312293.760000
   6511   6512     1   0.10910 283424.160000
   6511   6513     1   0.10910 283424.160000
   6514   6515     1   0.10910 283424.160000
   6514   6516     1   0.10910 283424.160000
   6517   6518     1   0.10910 283424.160000
   6517   6519     1   0.10910 283424.160000
   6520   6521     1   0.10969 276646.080000
   6520   6522     1   0.10969 276646.080000
   6523   6524     1   0.10969 276646.080000
   6523   6525     1   0.10969 276646.080000
   6526   6527     1   0.10969 276646.080000
   6526   6528     1   0.10969 276646.080000
   6529   6530     1   0.10969 276646.080000
   6529   6531     1   0.10969 276646.080000
   6532   6533     1   0.10969 276646.080000
   6532   6534     1   0.10969 276646.080000
   6535   6536     1   0.10969 276646.080000
   6535   6537     1   0.10969 276646.080000
   6540   6569     1   0.10304 312293.760000
   6541   6542     1   0.10910 283424.160000
   6541   6543     1   0.10910 283424.160000
   6544   6545     1   0.10910 283424.160000
   6544   6546     1   0.10910 283424.160000
   6547   6548     1   0.10910 283424.160000
   6547   6549     1   0.10910 283424.160000
   6550   6551     1   0.10969 276646.080000
   6550   6552     1   0.10969 276646.080000
   6553   6554     1   0.10969 276646.080000
   6553   6555     1   0.10969 276646.080000
   6556   6557     1   0.10969 276646.080000
   6556   6558     1   0.10969 276646.080000
   6559   6560     1   0.10969 276646.080000
   6559   6561     1   0.10969 276646.080000
   6562   6563     1   0.10969 276646.080000
   6562   6564     1   0.10969 276646.080000
   6565   6566     1   0.10969 276646.080000
   6565   6567     1   0.10969 276646.080000
   6570   6599     1   0.10304 312293.760000
   6571   6572     1   0.10910 283424.160000
   6571   6573     1   0.10910 283424.160000
   6574   6575     1   0.10910 283424.160000
   6574   6576     1   0.10910 283424.160000
   6577   6578     1   0.10910 283424.160000
   6577   6579     1   0.10910 283424.160000
   6580   6581     1   0.10969 276646.080000
   6580   6582     1   0.10969 276646.080000
   6583   6584     1   0.10969 276646.080000
   6583   6585     1   0.10969 276646.080000
   6586   6587     1   0.10969 276646.080000
   6586   6588     1   0.10969 276646.080000
   6589   6590     1   0.10969 276646.080000
   6589   6591     1   0.10969 276646.080000
   6592   6593     1   0.10969 276646.080000
   6592   6594     1   0.10969 276646.080000
   6595   6596     1   0.10969 276646.080000
   6595   6597     1   0.10969 276646.080000
   6600   6629     1   0.10304 312293.760000
   6601   6602     1   0.10910 283424.160000
   6601   6603     1   0.10910 283424.160000
   6604   6605     1   0.10910 283424.160000
   6604   6606     1   0.10910 283424.160000
   6607   6608     1   0.10910 283424.160000
   6607   6609     1   0.10910 283424.160000
   6610   6611     1   0.10969 276646.080000
   6610   6612     1   0.10969 276646.080000
   6613   6614     1   0.10969 276646.080000
   6613   6615     1   0.10969 276646.080000
   6616   6617     1   0.10969 276646.080000
   6616   6618     1   0.10969 276646.080000
   6619   6620     1   0.10969 276646.080000
   6619   6621     1   0.10969 276646.080000
   6622   6623     1   0.10969 276646.080000
   6622   6624     1   0.10969 276646.080000
   6625   6626     1   0.10969 276646.080000
   6625   6627     1   0.10969 276646.080000
   6630   6659     1   0.10304 312293.760000
   6631   6632     1   0.10910 283424.160000
   6631   6633     1   0.10910 283424.160000
   6634   6635     1   0.10910 283424.160000
   6634   6636     1   0.10910 283424.160000
   6637   6638     1   0.10910 283424.160000
   6637   6639     1   0.10910 283424.160000
   6640   6641     1   0.10969 276646.080000
   6640   6642     1   0.10969 276646.080000
   6643   6644     1   0.10969 276646.080000
   6643   6645     1   0.10969 276646.080000
   6646   6647     1   0.10969 276646.080000
   6646   6648     1   0.10969 276646.080000
   6649   6650     1   0.10969 276646.080000
   6649   6651     1   0.10969 276646.080000
   6652   6653     1   0.10969 276646.080000
   6652   6654     1   0.10969 276646.080000
   6655   6656     1   0.10969 276646.080000
   6655   6657     1   0.10969 276646.080000
   6660   6689     1   0.10304 312293.760000
   6661   6662     1   0.10910 283424.160000
   6661   6663     1   0.10910 283424.160000
   6664   6665     1   0.10910 283424.160000
   6664   6666     1   0.10910 283424.160000
   6667   6668     1   0.10910 283424.160000
   6667   6669     1   0.10910 283424.160000
   6670   6671     1   0.10969 276646.080000
   6670   6672     1   0.10969 276646.080000
   6673   6674     1   0.10969 276646.080000
   6673   6675     1   0.10969 276646.080000
   6676   6677     1   0.10969 276646.080000
   6676   6678     1   0.10969 276646.080000
   6679   6680     1   0.10969 276646.080000
   6679   6681     1   0.10969 276646.080000
   6682   6683     1   0.10969 276646.080000
   6682   6684     1   0.10969 276646.080000
   6685   6686     1   0.10969 276646.080000
   6685   6687     1   0.10969 276646.080000
   6690   6719     1   0.10304 312293.760000
   6691   6692     1   0.10910 283424.160000
   6691   6693     1   0.10910 283424.160000
   6694   6695     1   0.10910 283424.160000
   6694   6696     1   0.10910 283424.160000
   6697   6698     1   0.10910 283424.160000
   6697   6699     1   0.10910 283424.160000
   6700   6701     1   0.10969 276646.080000
   6700   6702     1   0.10969 276646.080000
   6703   6704     1   0.10969 276646.080000
   6703   6705     1   0.10969 276646.080000
   6706   6707     1   0.10969 276646.080000
   6706   6708     1   0.10969 276646.080000
   6709   6710     1   0.10969 276646.080000
   6709   6711     1   0.10969 276646.080000
   6712   6713     1   0.10969 276646.080000
   6712   6714     1   0.10969 276646.080000
   6715   6716     1   0.10969 276646.080000
   6715   6717     1   0.10969 276646.080000
   6720   6749     1   0.10304 312293.760000
   6721   6722     1   0.10910 283424.160000
   6721   6723     1   0.10910 283424.160000
   6724   6725     1   0.10910 283424.160000
   6724   6726     1   0.10910 283424.160000
   6727   6728     1   0.10910 283424.160000
   6727   6729     1   0.10910 283424.160000
   6730   6731     1   0.10969 276646.080000
   6730   6732     1   0.10969 276646.080000
   6733   6734     1   0.10969 276646.080000
   6733   6735     1   0.10969 276646.080000
   6736   6737     1   0.10969 276646.080000
   6736   6738     1   0.10969 276646.080000
   6739   6740     1   0.10969 276646.080000
   6739   6741     1   0.10969 276646.080000
   6742   6743     1   0.10969 276646.080000
   6742   6744     1   0.10969 276646.080000
   6745   6746     1   0.10969 276646.080000
   6745   6747     1   0.10969 276646.080000
   6750   6779     1   0.10304 312293.760000
   6751   6752     1   0.10910 283424.160000
   6751   6753     1   0.10910 283424.160000
   6754   6755     1   0.10910 283424.160000
   6754   6756     1   0.10910 283424.160000
   6757   6758     1   0.10910 283424.160000
   6757   6759     1   0.10910 283424.160000
   6760   6761     1   0.10969 276646.080000
   6760   6762     1   0.10969 276646.080000
   6763   6764     1   0.10969 276646.080000
   6763   6765     1   0.10969 276646.080000
   6766   6767     1   0.10969 276646.080000
   6766   6768     1   0.10969 276646.080000
   6769   6770     1   0.10969 276646.080000
   6769   6771     1   0.10969 276646.080000
   6772   6773     1   0.10969 276646.080000
   6772   6774     1   0.10969 276646.080000
   6775   6776     1   0.10969 276646.080000
   6775   6777     1   0.10969 276646.080000
   6780   6809     1   0.10304 312293.760000
   6781   6782     1   0.10910 283424.160000
   6781   6783     1   0.10910 283424.160000
   6784   6785     1   0.10910 283424.160000
   6784   6786     1   0.10910 283424.160000
   6787   6788     1   0.10910 283424.160000
   6787   6789     1   0.10910 283424.160000
   6790   6791     1   0.10969 276646.080000
   6790   6792     1   0.10969 276646.080000
   6793   6794     1   0.10969 276646.080000
   6793   6795     1   0.10969 276646.080000
   6796   6797     1   0.10969 276646.080000
   6796   6798     1   0.10969 276646.080000
   6799   6800     1   0.10969 276646.080000
   6799   6801     1   0.10969 276646.080000
   6802   6803     1   0.10969 276646.080000
   6802   6804     1   0.10969 276646.080000
   6805   6806     1   0.10969 276646.080000
   6805   6807     1   0.10969 276646.080000
   6810   6839     1   0.10304 312293.760000
   6811   6812     1   0.10910 283424.160000
   6811   6813     1   0.10910 283424.160000
   6814   6815     1   0.10910 283424.160000
   6814   6816     1   0.10910 283424.160000
   6817   6818     1   0.10910 283424.160000
   6817   6819     1   0.10910 283424.160000
   6820   6821     1   0.10969 276646.080000
   6820   6822     1   0.10969 276646.080000
   6823   6824     1   0.10969 276646.080000
   6823   6825     1   0.10969 276646.080000
   6826   6827     1   0.10969 276646.080000
   6826   6828     1   0.10969 276646.080000
   6829   6830     1   0.10969 276646.080000
   6829   6831     1   0.10969 276646.080000
   6832   6833     1   0.10969 276646.080000
   6832   6834     1   0.10969 276646.080000
   6835   6836     1   0.10969 276646.080000
   6835   6837     1   0.10969 276646.080000
   6840   6869     1   0.10304 312293.760000
   6841   6842     1   0.10910 283424.160000
   6841   6843     1   0.10910 283424.160000
   6844   6845     1   0.10910 283424.160000
   6844   6846     1   0.10910 283424.160000
   6847   6848     1   0.10910 283424.160000
   6847   6849     1   0.10910 283424.160000
   6850   6851     1   0.10969 276646.080000
   6850   6852     1   0.10969 276646.080000
   6853   6854     1   0.10969 276646.080000
   6853   6855     1   0.10969 276646.080000
   6856   6857     1   0.10969 276646.080000
   6856   6858     1   0.10969 276646.080000
   6859   6860     1   0.10969 276646.080000
   6859   6861     1   0.10969 276646.080000
   6862   6863     1   0.10969 276646.080000
   6862   6864     1   0.10969 276646.080000
   6865   6866     1   0.10969 276646.080000
   6865   6867     1   0.10969 276646.080000
   6870   6899     1   0.10304 312293.760000
   6871   6872     1   0.10910 283424.160000
   6871   6873     1   0.10910 283424.160000
   6874   6875     1   0.10910 283424.160000
   6874   6876     1   0.10910 283424.160000
   6877   6878     1   0.10910 283424.160000
   6877   6879     1   0.10910 283424.160000
   6880   6881     1   0.10969 276646.080000
   6880   6882     1   0.10969 276646.080000
   6883   6884     1   0.10969 276646.080000
   6883   6885     1   0.10969 276646.080000
   6886   6887     1   0.10969 276646.080000
   6886   6888     1   0.10969 276646.080000
   6889   6890     1   0.10969 276646.080000
   6889   6891     1   0.10969 276646.080000
   6892   6893     1   0.10969 276646.080000
   6892   6894     1   0.10969 276646.080000
   6895   6896     1   0.10969 276646.080000
   6895   6897     1   0.10969 276646.080000
   6900   6929     1   0.10304 312293.760000
   6901   6902     1   0.10910 283424.160000
   6901   6903     1   0.10910 283424.160000
   6904   6905     1   0.10910 283424.160000
   6904   6906     1   0.10910 283424.160000
   6907   6908     1   0.10910 283424.160000
   6907   6909     1   0.10910 283424.160000
   6910   6911     1   0.10969 276646.080000
   6910   6912     1   0.10969 276646.080000
   6913   6914     1   0.10969 276646.080000
   6913   6915     1   0.10969 276646.080000
   6916   6917     1   0.10969 276646.080000
   6916   6918     1   0.10969 276646.080000
   6919   6920     1   0.10969 276646.080000
   6919   6921     1   0.10969 276646.080000
   6922   6923     1   0.10969 276646.080000
   6922   6924     1   0.10969 276646.080000
   6925   6926     1   0.10969 276646.080000
   6925   6927     1   0.10969 276646.080000
   6930   6959     1   0.10304 312293.760000
   6931   6932     1   0.10910 283424.160000
   6931   6933     1   0.10910 283424.160000
   6934   6935     1   0.10910 283424.160000
   6934   6936     1   0.10910 283424.160000
   6937   6938     1   0.10910 283424.160000
   6937   6939     1   0.10910 283424.160000
   6940   6941     1   0.10969 276646.080000
   6940   6942     1   0.10969 276646.080000
   6943   6944     1   0.10969 276646.080000
   6943   6945     1   0.10969 276646.080000
   6946   6947     1   0.10969 276646.080000
   6946   6948     1   0.10969 276646.080000
   6949   6950     1   0.10969 276646.080000
   6949   6951     1   0.10969 276646.080000
   6952   6953     1   0.10969 276646.080000
   6952   6954     1   0.10969 276646.080000
   6955   6956     1   0.10969 276646.080000
   6955   6957     1   0.10969 276646.080000
   6960   6989     1   0.10304 312293.760000
   6961   6962     1   0.10910 283424.160000
   6961   6963     1   0.10910 283424.160000
   6964   6965     1   0.10910 283424.160000
   6964   6966     1   0.10910 283424.160000
   6967   6968     1   0.10910 283424.160000
   6967   6969     1   0.10910 283424.160000
   6970   6971     1   0.10969 276646.080000
   6970   6972     1   0.10969 276646.080000
   6973   6974     1   0.10969 276646.080000
   6973   6975     1   0.10969 276646.080000
   6976   6977     1   0.10969 276646.080000
   6976   6978     1   0.10969 276646.080000
   6979   6980     1   0.10969 276646.080000
   6979   6981     1   0.10969 276646.080000
   6982   6983     1   0.10969 276646.080000
   6982   6984     1   0.10969 276646.080000
   6985   6986     1   0.10969 276646.080000
   6985   6987     1   0.10969 276646.080000
   6990   7019     1   0.10304 312293.760000
   6991   6992     1   0.10910 283424.160000
   6991   6993     1   0.10910 283424.160000
   6994   6995     1   0.10910 283424.160000
   6994   6996     1   0.10910 283424.160000
   6997   6998     1   0.10910 283424.160000
   6997   6999     1   0.10910 283424.160000
   7000   7001     1   0.10969 276646.080000
   7000   7002     1   0.10969 276646.080000
   7003   7004     1   0.10969 276646.080000
   7003   7005     1   0.10969 276646.080000
   7006   7007     1   0.10969 276646.080000
   7006   7008     1   0.10969 276646.080000
   7009   7010     1   0.10969 276646.080000
   7009   7011     1   0.10969 276646.080000
   7012   7013     1   0.10969 276646.080000
   7012   7014     1   0.10969 276646.080000
   7015   7016     1   0.10969 276646.080000
   7015   7017     1   0.10969 276646.080000
   7020   7049     1   0.10304 312293.760000
   7021   7022     1   0.10910 283424.160000
   7021   7023     1   0.10910 283424.160000
   7024   7025     1   0.10910 283424.160000
   7024   7026     1   0.10910 283424.160000
   7027   7028     1   0.10910 283424.160000
   7027   7029     1   0.10910 283424.160000
   7030   7031     1   0.10969 276646.080000
   7030   7032     1   0.10969 276646.080000
   7033   7034     1   0.10969 276646.080000
   7033   7035     1   0.10969 276646.080000
   7036   7037     1   0.10969 276646.080000
   7036   7038     1   0.10969 276646.080000
   7039   7040     1   0.10969 276646.080000
   7039   7041     1   0.10969 276646.080000
   7042   7043     1   0.10969 276646.080000
   7042   7044     1   0.10969 276646.080000
   7045   7046     1   0.10969 276646.080000
   7045   7047     1   0.10969 276646.080000
   7050   7079     1   0.10304 312293.760000
   7051   7052     1   0.10910 283424.160000
   7051   7053     1   0.10910 283424.160000
   7054   7055     1   0.10910 283424.160000
   7054   7056     1   0.10910 283424.160000
   7057   7058     1   0.10910 283424.160000
   7057   7059     1   0.10910 283424.160000
   7060   7061     1   0.10969 276646.080000
   7060   7062     1   0.10969 276646.080000
   7063   7064     1   0.10969 276646.080000
   7063   7065     1   0.10969 276646.080000
   7066   7067     1   0.10969 276646.080000
   7066   7068     1   0.10969 276646.080000
   7069   7070     1   0.10969 276646.080000
   7069   7071     1   0.10969 276646.080000
   7072   7073     1   0.10969 276646.080000
   7072   7074     1   0.10969 276646.080000
   7075   7076     1   0.10969 276646.080000
   7075   7077     1   0.10969 276646.080000
   7080   7109     1   0.10304 312293.760000
   7081   7082     1   0.10910 283424.160000
   7081   7083     1   0.10910 283424.160000
   7084   7085     1   0.10910 283424.160000
   7084   7086     1   0.10910 283424.160000
   7087   7088     1   0.10910 283424.160000
   7087   7089     1   0.10910 283424.160000
   7090   7091     1   0.10969 276646.080000
   7090   7092     1   0.10969 276646.080000
   7093   7094     1   0.10969 276646.080000
   7093   7095     1   0.10969 276646.080000
   7096   7097     1   0.10969 276646.080000
   7096   7098     1   0.10969 276646.080000
   7099   7100     1   0.10969 276646.080000
   7099   7101     1   0.10969 276646.080000
   7102   7103     1   0.10969 276646.080000
   7102   7104     1   0.10969 276646.080000
   7105   7106     1   0.10969 276646.080000
   7105   7107     1   0.10969 276646.080000
   7110   7139     1   0.10304 312293.760000
   7111   7112     1   0.10910 283424.160000
   7111   7113     1   0.10910 283424.160000
   7114   7115     1   0.10910 283424.160000
   7114   7116     1   0.10910 283424.160000
   7117   7118     1   0.10910 283424.160000
   7117   7119     1   0.10910 283424.160000
   7120   7121     1   0.10969 276646.080000
   7120   7122     1   0.10969 276646.080000
   7123   7124     1   0.10969 276646.080000
   7123   7125     1   0.10969 276646.080000
   7126   7127     1   0.10969 276646.080000
   7126   7128     1   0.10969 276646.080000
   7129   7130     1   0.10969 276646.080000
   7129   7131     1   0.10969 276646.080000
   7132   7133     1   0.10969 276646.080000
   7132   7134     1   0.10969 276646.080000
   7135   7136     1   0.10969 276646.080000
   7135   7137     1   0.10969 276646.080000
   7140   7169     1   0.10304 312293.760000
   7141   7142     1   0.10910 283424.160000
   7141   7143     1   0.10910 283424.160000
   7144   7145     1   0.10910 283424.160000
   7144   7146     1   0.10910 283424.160000
   7147   7148     1   0.10910 283424.160000
   7147   7149     1   0.10910 283424.160000
   7150   7151     1   0.10969 276646.080000
   7150   7152     1   0.10969 276646.080000
   7153   7154     1   0.10969 276646.080000
   7153   7155     1   0.10969 276646.080000
   7156   7157     1   0.10969 276646.080000
   7156   7158     1   0.10969 276646.080000
   7159   7160     1   0.10969 276646.080000
   7159   7161     1   0.10969 276646.080000
   7162   7163     1   0.10969 276646.080000
   7162   7164     1   0.10969 276646.080000
   7165   7166     1   0.10969 276646.080000
   7165   7167     1   0.10969 276646.080000
   7170   7199     1   0.10304 312293.760000
   7171   7172     1   0.10910 283424.160000
   7171   7173     1   0.10910 283424.160000
   7174   7175     1   0.10910 283424.160000
   7174   7176     1   0.10910 283424.160000
   7177   7178     1   0.10910 283424.160000
   7177   7179     1   0.10910 283424.160000
   7180   7181     1   0.10969 276646.080000
   7180   7182     1   0.10969 276646.080000
   7183   7184     1   0.10969 276646.080000
   7183   7185     1   0.10969 276646.080000
   7186   7187     1   0.10969 276646.080000
   7186   7188     1   0.10969 276646.080000
   7189   7190     1   0.10969 276646.080000
   7189   7191     1   0.10969 276646.080000
   7192   7193     1   0.10969 276646.080000
   7192   7194     1   0.10969 276646.080000
   7195   7196     1   0.10969 276646.080000
   7195   7197     1   0.10969 276646.080000
   7200   7229     1   0.10304 312293.760000
   7201   7202     1   0.10910 283424.160000
   7201   7203     1   0.10910 283424.160000
   7204   7205     1   0.10910 283424.160000
   7204   7206     1   0.10910 283424.160000
   7207   7208     1   0.10910 283424.160000
   7207   7209     1   0.10910 283424.160000
   7210   7211     1   0.10969 276646.080000
   7210   7212     1   0.10969 276646.080000
   7213   7214     1   0.10969 276646.080000
   7213   7215     1   0.10969 276646.080000
   7216   7217     1   0.10969 276646.080000
   7216   7218     1   0.10969 276646.080000
   7219   7220     1   0.10969 276646.080000
   7219   7221     1   0.10969 276646.080000
   7222   7223     1   0.10969 276646.080000
   7222   7224     1   0.10969 276646.080000
   7225   7226     1   0.10969 276646.080000
   7225   7227     1   0.10969 276646.080000
   7230   7259     1   0.10304 312293.760000
   7231   7232     1   0.10910 283424.160000
   7231   7233     1   0.10910 283424.160000
   7234   7235     1   0.10910 283424.160000
   7234   7236     1   0.10910 283424.160000
   7237   7238     1   0.10910 283424.160000
   7237   7239     1   0.10910 283424.160000
   7240   7241     1   0.10969 276646.080000
   7240   7242     1   0.10969 276646.080000
   7243   7244     1   0.10969 276646.080000
   7243   7245     1   0.10969 276646.080000
   7246   7247     1   0.10969 276646.080000
   7246   7248     1   0.10969 276646.080000
   7249   7250     1   0.10969 276646.080000
   7249   7251     1   0.10969 276646.080000
   7252   7253     1   0.10969 276646.080000
   7252   7254     1   0.10969 276646.080000
   7255   7256     1   0.10969 276646.080000
   7255   7257     1   0.10969 276646.080000
   7260   7289     1   0.10304 312293.760000
   7261   7262     1   0.10910 283424.160000
   7261   7263     1   0.10910 283424.160000
   7264   7265     1   0.10910 283424.160000
   7264   7266     1   0.10910 283424.160000
   7267   7268     1   0.10910 283424.160000
   7267   7269     1   0.10910 283424.160000
   7270   7271     1   0.10969 276646.080000
   7270   7272     1   0.10969 276646.080000
   7273   7274     1   0.10969 276646.080000
   7273   7275     1   0.10969 276646.080000
   7276   7277     1   0.10969 276646.080000
   7276   7278     1   0.10969 276646.080000
   7279   7280     1   0.10969 276646.080000
   7279   7281     1   0.10969 276646.080000
   7282   7283     1   0.10969 276646.080000
   7282   7284     1   0.10969 276646.080000
   7285   7286     1   0.10969 276646.080000
   7285   7287     1   0.10969 276646.080000
   7290   7319     1   0.10304 312293.760000
   7291   7292     1   0.10910 283424.160000
   7291   7293     1   0.10910 283424.160000
   7294   7295     1   0.10910 283424.160000
   7294   7296     1   0.10910 283424.160000
   7297   7298     1   0.10910 283424.160000
   7297   7299     1   0.10910 283424.160000
   7300   7301     1   0.10969 276646.080000
   7300   7302     1   0.10969 276646.080000
   7303   7304     1   0.10969 276646.080000
   7303   7305     1   0.10969 276646.080000
   7306   7307     1   0.10969 276646.080000
   7306   7308     1   0.10969 276646.080000
   7309   7310     1   0.10969 276646.080000
   7309   7311     1   0.10969 276646.080000
   7312   7313     1   0.10969 276646.080000
   7312   7314     1   0.10969 276646.080000
   7315   7316     1   0.10969 276646.080000
   7315   7317     1   0.10969 276646.080000
   7320   7349     1   0.10304 312293.760000
   7321   7322     1   0.10910 283424.160000
   7321   7323     1   0.10910 283424.160000
   7324   7325     1   0.10910 283424.160000
   7324   7326     1   0.10910 283424.160000
   7327   7328     1   0.10910 283424.160000
   7327   7329     1   0.10910 283424.160000
   7330   7331     1   0.10969 276646.080000
   7330   7332     1   0.10969 276646.080000
   7333   7334     1   0.10969 276646.080000
   7333   7335     1   0.10969 276646.080000
   7336   7337     1   0.10969 276646.080000
   7336   7338     1   0.10969 276646.080000
   7339   7340     1   0.10969 276646.080000
   7339   7341     1   0.10969 276646.080000
   7342   7343     1   0.10969 276646.080000
   7342   7344     1   0.10969 276646.080000
   7345   7346     1   0.10969 276646.080000
   7345   7347     1   0.10969 276646.080000
   7350   7379     1   0.10304 312293.760000
   7351   7352     1   0.10910 283424.160000
   7351   7353     1   0.10910 283424.160000
   7354   7355     1   0.10910 283424.160000
   7354   7356     1   0.10910 283424.160000
   7357   7358     1   0.10910 283424.160000
   7357   7359     1   0.10910 283424.160000
   7360   7361     1   0.10969 276646.080000
   7360   7362     1   0.10969 276646.080000
   7363   7364     1   0.10969 276646.080000
   7363   7365     1   0.10969 276646.080000
   7366   7367     1   0.10969 276646.080000
   7366   7368     1   0.10969 276646.080000
   7369   7370     1   0.10969 276646.080000
   7369   7371     1   0.10969 276646.080000
   7372   7373     1   0.10969 276646.080000
   7372   7374     1   0.10969 276646.080000
   7375   7376     1   0.10969 276646.080000
   7375   7377     1   0.10969 276646.080000
   7380   7409     1   0.10304 312293.760000
   7381   7382     1   0.10910 283424.160000
   7381   7383     1   0.10910 283424.160000
   7384   7385     1   0.10910 283424.160000
   7384   7386     1   0.10910 283424.160000
   7387   7388     1   0.10910 283424.160000
   7387   7389     1   0.10910 283424.160000
   7390   7391     1   0.10969 276646.080000
   7390   7392     1   0.10969 276646.080000
   7393   7394     1   0.10969 276646.080000
   7393   7395     1   0.10969 276646.080000
   7396   7397     1   0.10969 276646.080000
   7396   7398     1   0.10969 276646.080000
   7399   7400     1   0.10969 276646.080000
   7399   7401     1   0.10969 276646.080000
   7402   7403     1   0.10969 276646.080000
   7402   7404     1   0.10969 276646.080000
   7405   7406     1   0.10969 276646.080000
   7405   7407     1   0.10969 276646.080000
   7410   7439     1   0.10304 312293.760000
   7411   7412     1   0.10910 283424.160000
   7411   7413     1   0.10910 283424.160000
   7414   7415     1   0.10910 283424.160000
   7414   7416     1   0.10910 283424.160000
   7417   7418     1   0.10910 283424.160000
   7417   7419     1   0.10910 283424.160000
   7420   7421     1   0.10969 276646.080000
   7420   7422     1   0.10969 276646.080000
   7423   7424     1   0.10969 276646.080000
   7423   7425     1   0.10969 276646.080000
   7426   7427     1   0.10969 276646.080000
   7426   7428     1   0.10969 276646.080000
   7429   7430     1   0.10969 276646.080000
   7429   7431     1   0.10969 276646.080000
   7432   7433     1   0.10969 276646.080000
   7432   7434     1   0.10969 276646.080000
   7435   7436     1   0.10969 276646.080000
   7435   7437     1   0.10969 276646.080000
   7440   7469     1   0.10304 312293.760000
   7441   7442     1   0.10910 283424.160000
   7441   7443     1   0.10910 283424.160000
   7444   7445     1   0.10910 283424.160000
   7444   7446     1   0.10910 283424.160000
   7447   7448     1   0.10910 283424.160000
   7447   7449     1   0.10910 283424.160000
   7450   7451     1   0.10969 276646.080000
   7450   7452     1   0.10969 276646.080000
   7453   7454     1   0.10969 276646.080000
   7453   7455     1   0.10969 276646.080000
   7456   7457     1   0.10969 276646.080000
   7456   7458     1   0.10969 276646.080000
   7459   7460     1   0.10969 276646.080000
   7459   7461     1   0.10969 276646.080000
   7462   7463     1   0.10969 276646.080000
   7462   7464     1   0.10969 276646.080000
   7465   7466     1   0.10969 276646.080000
   7465   7467     1   0.10969 276646.080000
   7470   7499     1   0.10304 312293.760000
   7471   7472     1   0.10910 283424.160000
   7471   7473     1   0.10910 283424.160000
   7474   7475     1   0.10910 283424.160000
   7474   7476     1   0.10910 283424.160000
   7477   7478     1   0.10910 283424.160000
   7477   7479     1   0.10910 283424.160000
   7480   7481     1   0.10969 276646.080000
   7480   7482     1   0.10969 276646.080000
   7483   7484     1   0.10969 276646.080000
   7483   7485     1   0.10969 276646.080000
   7486   7487     1   0.10969 276646.080000
   7486   7488     1   0.10969 276646.080000
   7489   7490     1   0.10969 276646.080000
   7489   7491     1   0.10969 276646.080000
   7492   7493     1   0.10969 276646.080000
   7492   7494     1   0.10969 276646.080000
   7495   7496     1   0.10969 276646.080000
   7495   7497     1   0.10969 276646.080000
   7500   7529     1   0.10304 312293.760000
   7501   7502     1   0.10910 283424.160000
   7501   7503     1   0.10910 283424.160000
   7504   7505     1   0.10910 283424.160000
   7504   7506     1   0.10910 283424.160000
   7507   7508     1   0.10910 283424.160000
   7507   7509     1   0.10910 283424.160000
   7510   7511     1   0.10969 276646.080000
   7510   7512     1   0.10969 276646.080000
   7513   7514     1   0.10969 276646.080000
   7513   7515     1   0.10969 276646.080000
   7516   7517     1   0.10969 276646.080000
   7516   7518     1   0.10969 276646.080000
   7519   7520     1   0.10969 276646.080000
   7519   7521     1   0.10969 276646.080000
   7522   7523     1   0.10969 276646.080000
   7522   7524     1   0.10969 276646.080000
   7525   7526     1   0.10969 276646.080000
   7525   7527     1   0.10969 276646.080000
   7530   7559     1   0.10304 312293.760000
   7531   7532     1   0.10910 283424.160000
   7531   7533     1   0.10910 283424.160000
   7534   7535     1   0.10910 283424.160000
   7534   7536     1   0.10910 283424.160000
   7537   7538     1   0.10910 283424.160000
   7537   7539     1   0.10910 283424.160000
   7540   7541     1   0.10969 276646.080000
   7540   7542     1   0.10969 276646.080000
   7543   7544     1   0.10969 276646.080000
   7543   7545     1   0.10969 276646.080000
   7546   7547     1   0.10969 276646.080000
   7546   7548     1   0.10969 276646.080000
   7549   7550     1   0.10969 276646.080000
   7549   7551     1   0.10969 276646.080000
   7552   7553     1   0.10969 276646.080000
   7552   7554     1   0.10969 276646.080000
   7555   7556     1   0.10969 276646.080000
   7555   7557     1   0.10969 276646.080000
   7560   7589     1   0.10304 312293.760000
   7561   7562     1   0.10910 283424.160000
   7561   7563     1   0.10910 283424.160000
   7564   7565     1   0.10910 283424.160000
   7564   7566     1   0.10910 283424.160000
   7567   7568     1   0.10910 283424.160000
   7567   7569     1   0.10910 283424.160000
   7570   7571     1   0.10969 276646.080000
   7570   7572     1   0.10969 276646.080000
   7573   7574     1   0.10969 276646.080000
   7573   7575     1   0.10969 276646.080000
   7576   7577     1   0.10969 276646.080000
   7576   7578     1   0.10969 276646.080000
   7579   7580     1   0.10969 276646.080000
   7579   7581     1   0.10969 276646.080000
   7582   7583     1   0.10969 276646.080000
   7582   7584     1   0.10969 276646.080000
   7585   7586     1   0.10969 276646.080000
   7585   7587     1   0.10969 276646.080000
   7590   7619     1   0.10304 312293.760000
   7591   7592     1   0.10910 283424.160000
   7591   7593     1   0.10910 283424.160000
   7594   7595     1   0.10910 283424.160000
   7594   7596     1   0.10910 283424.160000
   7597   7598     1   0.10910 283424.160000
   7597   7599     1   0.10910 283424.160000
   7600   7601     1   0.10969 276646.080000
   7600   7602     1   0.10969 276646.080000
   7603   7604     1   0.10969 276646.080000
   7603   7605     1   0.10969 276646.080000
   7606   7607     1   0.10969 276646.080000
   7606   7608     1   0.10969 276646.080000
   7609   7610     1   0.10969 276646.080000
   7609   7611     1   0.10969 276646.080000
   7612   7613     1   0.10969 276646.080000
   7612   7614     1   0.10969 276646.080000
   7615   7616     1   0.10969 276646.080000
   7615   7617     1   0.10969 276646.080000
   7620   7649     1   0.10304 312293.760000
   7621   7622     1   0.10910 283424.160000
   7621   7623     1   0.10910 283424.160000
   7624   7625     1   0.10910 283424.160000
   7624   7626     1   0.10910 283424.160000
   7627   7628     1   0.10910 283424.160000
   7627   7629     1   0.10910 283424.160000
   7630   7631     1   0.10969 276646.080000
   7630   7632     1   0.10969 276646.080000
   7633   7634     1   0.10969 276646.080000
   7633   7635     1   0.10969 276646.080000
   7636   7637     1   0.10969 276646.080000
   7636   7638     1   0.10969 276646.080000
   7639   7640     1   0.10969 276646.080000
   7639   7641     1   0.10969 276646.080000
   7642   7643     1   0.10969 276646.080000
   7642   7644     1   0.10969 276646.080000
   7645   7646     1   0.10969 276646.080000
   7645   7647     1   0.10969 276646.080000
   7650   7679     1   0.10304 312293.760000
   7651   7652     1   0.10910 283424.160000
   7651   7653     1   0.10910 283424.160000
   7654   7655     1   0.10910 283424.160000
   7654   7656     1   0.10910 283424.160000
   7657   7658     1   0.10910 283424.160000
   7657   7659     1   0.10910 283424.160000
   7660   7661     1   0.10969 276646.080000
   7660   7662     1   0.10969 276646.080000
   7663   7664     1   0.10969 276646.080000
   7663   7665     1   0.10969 276646.080000
   7666   7667     1   0.10969 276646.080000
   7666   7668     1   0.10969 276646.080000
   7669   7670     1   0.10969 276646.080000
   7669   7671     1   0.10969 276646.080000
   7672   7673     1   0.10969 276646.080000
   7672   7674     1   0.10969 276646.080000
   7675   7676     1   0.10969 276646.080000
   7675   7677     1   0.10969 276646.080000
   7680   7709     1   0.10304 312293.760000
   7681   7682     1   0.10910 283424.160000
   7681   7683     1   0.10910 283424.160000
   7684   7685     1   0.10910 283424.160000
   7684   7686     1   0.10910 283424.160000
   7687   7688     1   0.10910 283424.160000
   7687   7689     1   0.10910 283424.160000
   7690   7691     1   0.10969 276646.080000
   7690   7692     1   0.10969 276646.080000
   7693   7694     1   0.10969 276646.080000
   7693   7695     1   0.10969 276646.080000
   7696   7697     1   0.10969 276646.080000
   7696   7698     1   0.10969 276646.080000
   7699   7700     1   0.10969 276646.080000
   7699   7701     1   0.10969 276646.080000
   7702   7703     1   0.10969 276646.080000
   7702   7704     1   0.10969 276646.080000
   7705   7706     1   0.10969 276646.080000
   7705   7707     1   0.10969 276646.080000
   7710   7739     1   0.10304 312293.760000
   7711   7712     1   0.10910 283424.160000
   7711   7713     1   0.10910 283424.160000
   7714   7715     1   0.10910 283424.160000
   7714   7716     1   0.10910 283424.160000
   7717   7718     1   0.10910 283424.160000
   7717   7719     1   0.10910 283424.160000
   7720   7721     1   0.10969 276646.080000
   7720   7722     1   0.10969 276646.080000
   7723   7724     1   0.10969 276646.080000
   7723   7725     1   0.10969 276646.080000
   7726   7727     1   0.10969 276646.080000
   7726   7728     1   0.10969 276646.080000
   7729   7730     1   0.10969 276646.080000
   7729   7731     1   0.10969 276646.080000
   7732   7733     1   0.10969 276646.080000
   7732   7734     1   0.10969 276646.080000
   7735   7736     1   0.10969 276646.080000
   7735   7737     1   0.10969 276646.080000
   7740   7769     1   0.10304 312293.760000
   7741   7742     1   0.10910 283424.160000
   7741   7743     1   0.10910 283424.160000
   7744   7745     1   0.10910 283424.160000
   7744   7746     1   0.10910 283424.160000
   7747   7748     1   0.10910 283424.160000
   7747   7749     1   0.10910 283424.160000
   7750   7751     1   0.10969 276646.080000
   7750   7752     1   0.10969 276646.080000
   7753   7754     1   0.10969 276646.080000
   7753   7755     1   0.10969 276646.080000
   7756   7757     1   0.10969 276646.080000
   7756   7758     1   0.10969 276646.080000
   7759   7760     1   0.10969 276646.080000
   7759   7761     1   0.10969 276646.080000
   7762   7763     1   0.10969 276646.080000
   7762   7764     1   0.10969 276646.080000
   7765   7766     1   0.10969 276646.080000
   7765   7767     1   0.10969 276646.080000
   7770   7799     1   0.10304 312293.760000
   7771   7772     1   0.10910 283424.160000
   7771   7773     1   0.10910 283424.160000
   7774   7775     1   0.10910 283424.160000
   7774   7776     1   0.10910 283424.160000
   7777   7778     1   0.10910 283424.160000
   7777   7779     1   0.10910 283424.160000
   7780   7781     1   0.10969 276646.080000
   7780   7782     1   0.10969 276646.080000
   7783   7784     1   0.10969 276646.080000
   7783   7785     1   0.10969 276646.080000
   7786   7787     1   0.10969 276646.080000
   7786   7788     1   0.10969 276646.080000
   7789   7790     1   0.10969 276646.080000
   7789   7791     1   0.10969 276646.080000
   7792   7793     1   0.10969 276646.080000
   7792   7794     1   0.10969 276646.080000
   7795   7796     1   0.10969 276646.080000
   7795   7797     1   0.10969 276646.080000
   7800   7829     1   0.10304 312293.760000
   7801   7802     1   0.10910 283424.160000
   7801   7803     1   0.10910 283424.160000
   7804   7805     1   0.10910 283424.160000
   7804   7806     1   0.10910 283424.160000
   7807   7808     1   0.10910 283424.160000
   7807   7809     1   0.10910 283424.160000
   7810   7811     1   0.10969 276646.080000
   7810   7812     1   0.10969 276646.080000
   7813   7814     1   0.10969 276646.080000
   7813   7815     1   0.10969 276646.080000
   7816   7817     1   0.10969 276646.080000
   7816   7818     1   0.10969 276646.080000
   7819   7820     1   0.10969 276646.080000
   7819   7821     1   0.10969 276646.080000
   7822   7823     1   0.10969 276646.080000
   7822   7824     1   0.10969 276646.080000
   7825   7826     1   0.10969 276646.080000
   7825   7827     1   0.10969 276646.080000
   7830   7859     1   0.10304 312293.760000
   7831   7832     1   0.10910 283424.160000
   7831   7833     1   0.10910 283424.160000
   7834   7835     1   0.10910 283424.160000
   7834   7836     1   0.10910 283424.160000
   7837   7838     1   0.10910 283424.160000
   7837   7839     1   0.10910 283424.160000
   7840   7841     1   0.10969 276646.080000
   7840   7842     1   0.10969 276646.080000
   7843   7844     1   0.10969 276646.080000
   7843   7845     1   0.10969 276646.080000
   7846   7847     1   0.10969 276646.080000
   7846   7848     1   0.10969 276646.080000
   7849   7850     1   0.10969 276646.080000
   7849   7851     1   0.10969 276646.080000
   7852   7853     1   0.10969 276646.080000
   7852   7854     1   0.10969 276646.080000
   7855   7856     1   0.10969 276646.080000
   7855   7857     1   0.10969 276646.080000
   7860   7889     1   0.10304 312293.760000
   7861   7862     1   0.10910 283424.160000
   7861   7863     1   0.10910 283424.160000
   7864   7865     1   0.10910 283424.160000
   7864   7866     1   0.10910 283424.160000
   7867   7868     1   0.10910 283424.160000
   7867   7869     1   0.10910 283424.160000
   7870   7871     1   0.10969 276646.080000
   7870   7872     1   0.10969 276646.080000
   7873   7874     1   0.10969 276646.080000
   7873   7875     1   0.10969 276646.080000
   7876   7877     1   0.10969 276646.080000
   7876   7878     1   0.10969 276646.080000
   7879   7880     1   0.10969 276646.080000
   7879   7881     1   0.10969 276646.080000
   7882   7883     1   0.10969 276646.080000
   7882   7884     1   0.10969 276646.080000
   7885   7886     1   0.10969 276646.080000
   7885   7887     1   0.10969 276646.080000
   7890   7919     1   0.10304 312293.760000
   7891   7892     1   0.10910 283424.160000
   7891   7893     1   0.10910 283424.160000
   7894   7895     1   0.10910 283424.160000
   7894   7896     1   0.10910 283424.160000
   7897   7898     1   0.10910 283424.160000
   7897   7899     1   0.10910 283424.160000
   7900   7901     1   0.10969 276646.080000
   7900   7902     1   0.10969 276646.080000
   7903   7904     1   0.10969 276646.080000
   7903   7905     1   0.10969 276646.080000
   7906   7907     1   0.10969 276646.080000
   7906   7908     1   0.10969 276646.080000
   7909   7910     1   0.10969 276646.080000
   7909   7911     1   0.10969 276646.080000
   7912   7913     1   0.10969 276646.080000
   7912   7914     1   0.10969 276646.080000
   7915   7916     1   0.10969 276646.080000
   7915   7917     1   0.10969 276646.080000
   7920   7949     1   0.10304 312293.760000
   7921   7922     1   0.10910 283424.160000
   7921   7923     1   0.10910 283424.160000
   7924   7925     1   0.10910 283424.160000
   7924   7926     1   0.10910 283424.160000
   7927   7928     1   0.10910 283424.160000
   7927   7929     1   0.10910 283424.160000
   7930   7931     1   0.10969 276646.080000
   7930   7932     1   0.10969 276646.080000
   7933   7934     1   0.10969 276646.080000
   7933   7935     1   0.10969 276646.080000
   7936   7937     1   0.10969 276646.080000
   7936   7938     1   0.10969 276646.080000
   7939   7940     1   0.10969 276646.080000
   7939   7941     1   0.10969 276646.080000
   7942   7943     1   0.10969 276646.080000
   7942   7944     1   0.10969 276646.080000
   7945   7946     1   0.10969 276646.080000
   7945   7947     1   0.10969 276646.080000
   7950   7979     1   0.10304 312293.760000
   7951   7952     1   0.10910 283424.160000
   7951   7953     1   0.10910 283424.160000
   7954   7955     1   0.10910 283424.160000
   7954   7956     1   0.10910 283424.160000
   7957   7958     1   0.10910 283424.160000
   7957   7959     1   0.10910 283424.160000
   7960   7961     1   0.10969 276646.080000
   7960   7962     1   0.10969 276646.080000
   7963   7964     1   0.10969 276646.080000
   7963   7965     1   0.10969 276646.080000
   7966   7967     1   0.10969 276646.080000
   7966   7968     1   0.10969 276646.080000
   7969   7970     1   0.10969 276646.080000
   7969   7971     1   0.10969 276646.080000
   7972   7973     1   0.10969 276646.080000
   7972   7974     1   0.10969 276646.080000
   7975   7976     1   0.10969 276646.080000
   7975   7977     1   0.10969 276646.080000
   7980   8009     1   0.10304 312293.760000
   7981   7982     1   0.10910 283424.160000
   7981   7983     1   0.10910 283424.160000
   7984   7985     1   0.10910 283424.160000
   7984   7986     1   0.10910 283424.160000
   7987   7988     1   0.10910 283424.160000
   7987   7989     1   0.10910 283424.160000
   7990   7991     1   0.10969 276646.080000
   7990   7992     1   0.10969 276646.080000
   7993   7994     1   0.10969 276646.080000
   7993   7995     1   0.10969 276646.080000
   7996   7997     1   0.10969 276646.080000
   7996   7998     1   0.10969 276646.080000
   7999   8000     1   0.10969 276646.080000
   7999   8001     1   0.10969 276646.080000
   8002   8003     1   0.10969 276646.080000
   8002   8004     1   0.10969 276646.080000
   8005   8006     1   0.10969 276646.080000
   8005   8007     1   0.10969 276646.080000
   8010   8039     1   0.10304 312293.760000
   8011   8012     1   0.10910 283424.160000
   8011   8013     1   0.10910 283424.160000
   8014   8015     1   0.10910 283424.160000
   8014   8016     1   0.10910 283424.160000
   8017   8018     1   0.10910 283424.160000
   8017   8019     1   0.10910 283424.160000
   8020   8021     1   0.10969 276646.080000
   8020   8022     1   0.10969 276646.080000
   8023   8024     1   0.10969 276646.080000
   8023   8025     1   0.10969 276646.080000
   8026   8027     1   0.10969 276646.080000
   8026   8028     1   0.10969 276646.080000
   8029   8030     1   0.10969 276646.080000
   8029   8031     1   0.10969 276646.080000
   8032   8033     1   0.10969 276646.080000
   8032   8034     1   0.10969 276646.080000
   8035   8036     1   0.10969 276646.080000
   8035   8037     1   0.10969 276646.080000
   8040   8069     1   0.10304 312293.760000
   8041   8042     1   0.10910 283424.160000
   8041   8043     1   0.10910 283424.160000
   8044   8045     1   0.10910 283424.160000
   8044   8046     1   0.10910 283424.160000
   8047   8048     1   0.10910 283424.160000
   8047   8049     1   0.10910 283424.160000
   8050   8051     1   0.10969 276646.080000
   8050   8052     1   0.10969 276646.080000
   8053   8054     1   0.10969 276646.080000
   8053   8055     1   0.10969 276646.080000
   8056   8057     1   0.10969 276646.080000
   8056   8058     1   0.10969 276646.080000
   8059   8060     1   0.10969 276646.080000
   8059   8061     1   0.10969 276646.080000
   8062   8063     1   0.10969 276646.080000
   8062   8064     1   0.10969 276646.080000
   8065   8066     1   0.10969 276646.080000
   8065   8067     1   0.10969 276646.080000
   8070   8099     1   0.10304 312293.760000
   8071   8072     1   0.10910 283424.160000
   8071   8073     1   0.10910 283424.160000
   8074   8075     1   0.10910 283424.160000
   8074   8076     1   0.10910 283424.160000
   8077   8078     1   0.10910 283424.160000
   8077   8079     1   0.10910 283424.160000
   8080   8081     1   0.10969 276646.080000
   8080   8082     1   0.10969 276646.080000
   8083   8084     1   0.10969 276646.080000
   8083   8085     1   0.10969 276646.080000
   8086   8087     1   0.10969 276646.080000
   8086   8088     1   0.10969 276646.080000
   8089   8090     1   0.10969 276646.080000
   8089   8091     1   0.10969 276646.080000
   8092   8093     1   0.10969 276646.080000
   8092   8094     1   0.10969 276646.080000
   8095   8096     1   0.10969 276646.080000
   8095   8097     1   0.10969 276646.080000
   8100   8129     1   0.10304 312293.760000
   8101   8102     1   0.10910 283424.160000
   8101   8103     1   0.10910 283424.160000
   8104   8105     1   0.10910 283424.160000
   8104   8106     1   0.10910 283424.160000
   8107   8108     1   0.10910 283424.160000
   8107   8109     1   0.10910 283424.160000
   8110   8111     1   0.10969 276646.080000
   8110   8112     1   0.10969 276646.080000
   8113   8114     1   0.10969 276646.080000
   8113   8115     1   0.10969 276646.080000
   8116   8117     1   0.10969 276646.080000
   8116   8118     1   0.10969 276646.080000
   8119   8120     1   0.10969 276646.080000
   8119   8121     1   0.10969 276646.080000
   8122   8123     1   0.10969 276646.080000
   8122   8124     1   0.10969 276646.080000
   8125   8126     1   0.10969 276646.080000
   8125   8127     1   0.10969 276646.080000
   8130   8159     1   0.10304 312293.760000
   8131   8132     1   0.10910 283424.160000
   8131   8133     1   0.10910 283424.160000
   8134   8135     1   0.10910 283424.160000
   8134   8136     1   0.10910 283424.160000
   8137   8138     1   0.10910 283424.160000
   8137   8139     1   0.10910 283424.160000
   8140   8141     1   0.10969 276646.080000
   8140   8142     1   0.10969 276646.080000
   8143   8144     1   0.10969 276646.080000
   8143   8145     1   0.10969 276646.080000
   8146   8147     1   0.10969 276646.080000
   8146   8148     1   0.10969 276646.080000
   8149   8150     1   0.10969 276646.080000
   8149   8151     1   0.10969 276646.080000
   8152   8153     1   0.10969 276646.080000
   8152   8154     1   0.10969 276646.080000
   8155   8156     1   0.10969 276646.080000
   8155   8157     1   0.10969 276646.080000
   8160   8189     1   0.10304 312293.760000
   8161   8162     1   0.10910 283424.160000
   8161   8163     1   0.10910 283424.160000
   8164   8165     1   0.10910 283424.160000
   8164   8166     1   0.10910 283424.160000
   8167   8168     1   0.10910 283424.160000
   8167   8169     1   0.10910 283424.160000
   8170   8171     1   0.10969 276646.080000
   8170   8172     1   0.10969 276646.080000
   8173   8174     1   0.10969 276646.080000
   8173   8175     1   0.10969 276646.080000
   8176   8177     1   0.10969 276646.080000
   8176   8178     1   0.10969 276646.080000
   8179   8180     1   0.10969 276646.080000
   8179   8181     1   0.10969 276646.080000
   8182   8183     1   0.10969 276646.080000
   8182   8184     1   0.10969 276646.080000
   8185   8186     1   0.10969 276646.080000
   8185   8187     1   0.10969 276646.080000
   8190   8219     1   0.10304 312293.760000
   8191   8192     1   0.10910 283424.160000
   8191   8193     1   0.10910 283424.160000
   8194   8195     1   0.10910 283424.160000
   8194   8196     1   0.10910 283424.160000
   8197   8198     1   0.10910 283424.160000
   8197   8199     1   0.10910 283424.160000
   8200   8201     1   0.10969 276646.080000
   8200   8202     1   0.10969 276646.080000
   8203   8204     1   0.10969 276646.080000
   8203   8205     1   0.10969 276646.080000
   8206   8207     1   0.10969 276646.080000
   8206   8208     1   0.10969 276646.080000
   8209   8210     1   0.10969 276646.080000
   8209   8211     1   0.10969 276646.080000
   8212   8213     1   0.10969 276646.080000
   8212   8214     1   0.10969 276646.080000
   8215   8216     1   0.10969 276646.080000
   8215   8217     1   0.10969 276646.080000
   8220   8249     1   0.10304 312293.760000
   8221   8222     1   0.10910 283424.160000
   8221   8223     1   0.10910 283424.160000
   8224   8225     1   0.10910 283424.160000
   8224   8226     1   0.10910 283424.160000
   8227   8228     1   0.10910 283424.160000
   8227   8229     1   0.10910 283424.160000
   8230   8231     1   0.10969 276646.080000
   8230   8232     1   0.10969 276646.080000
   8233   8234     1   0.10969 276646.080000
   8233   8235     1   0.10969 276646.080000
   8236   8237     1   0.10969 276646.080000
   8236   8238     1   0.10969 276646.080000
   8239   8240     1   0.10969 276646.080000
   8239   8241     1   0.10969 276646.080000
   8242   8243     1   0.10969 276646.080000
   8242   8244     1   0.10969 276646.080000
   8245   8246     1   0.10969 276646.080000
   8245   8247     1   0.10969 276646.080000
   8250   8279     1   0.10304 312293.760000
   8251   8252     1   0.10910 283424.160000
   8251   8253     1   0.10910 283424.160000
   8254   8255     1   0.10910 283424.160000
   8254   8256     1   0.10910 283424.160000
   8257   8258     1   0.10910 283424.160000
   8257   8259     1   0.10910 283424.160000
   8260   8261     1   0.10969 276646.080000
   8260   8262     1   0.10969 276646.080000
   8263   8264     1   0.10969 276646.080000
   8263   8265     1   0.10969 276646.080000
   8266   8267     1   0.10969 276646.080000
   8266   8268     1   0.10969 276646.080000
   8269   8270     1   0.10969 276646.080000
   8269   8271     1   0.10969 276646.080000
   8272   8273     1   0.10969 276646.080000
   8272   8274     1   0.10969 276646.080000
   8275   8276     1   0.10969 276646.080000
   8275   8277     1   0.10969 276646.080000
   8280   8309     1   0.10304 312293.760000
   8281   8282     1   0.10910 283424.160000
   8281   8283     1   0.10910 283424.160000
   8284   8285     1   0.10910 283424.160000
   8284   8286     1   0.10910 283424.160000
   8287   8288     1   0.10910 283424.160000
   8287   8289     1   0.10910 283424.160000
   8290   8291     1   0.10969 276646.080000
   8290   8292     1   0.10969 276646.080000
   8293   8294     1   0.10969 276646.080000
   8293   8295     1   0.10969 276646.080000
   8296   8297     1   0.10969 276646.080000
   8296   8298     1   0.10969 276646.080000
   8299   8300     1   0.10969 276646.080000
   8299   8301     1   0.10969 276646.080000
   8302   8303     1   0.10969 276646.080000
   8302   8304     1   0.10969 276646.080000
   8305   8306     1   0.10969 276646.080000
   8305   8307     1   0.10969 276646.080000
   8310   8339     1   0.10304 312293.760000
   8311   8312     1   0.10910 283424.160000
   8311   8313     1   0.10910 283424.160000
   8314   8315     1   0.10910 283424.160000
   8314   8316     1   0.10910 283424.160000
   8317   8318     1   0.10910 283424.160000
   8317   8319     1   0.10910 283424.160000
   8320   8321     1   0.10969 276646.080000
   8320   8322     1   0.10969 276646.080000
   8323   8324     1   0.10969 276646.080000
   8323   8325     1   0.10969 276646.080000
   8326   8327     1   0.10969 276646.080000
   8326   8328     1   0.10969 276646.080000
   8329   8330     1   0.10969 276646.080000
   8329   8331     1   0.10969 276646.080000
   8332   8333     1   0.10969 276646.080000
   8332   8334     1   0.10969 276646.080000
   8335   8336     1   0.10969 276646.080000
   8335   8337     1   0.10969 276646.080000
   8340   8369     1   0.10304 312293.760000
   8341   8342     1   0.10910 283424.160000
   8341   8343     1   0.10910 283424.160000
   8344   8345     1   0.10910 283424.160000
   8344   8346     1   0.10910 283424.160000
   8347   8348     1   0.10910 283424.160000
   8347   8349     1   0.10910 283424.160000
   8350   8351     1   0.10969 276646.080000
   8350   8352     1   0.10969 276646.080000
   8353   8354     1   0.10969 276646.080000
   8353   8355     1   0.10969 276646.080000
   8356   8357     1   0.10969 276646.080000
   8356   8358     1   0.10969 276646.080000
   8359   8360     1   0.10969 276646.080000
   8359   8361     1   0.10969 276646.080000
   8362   8363     1   0.10969 276646.080000
   8362   8364     1   0.10969 276646.080000
   8365   8366     1   0.10969 276646.080000
   8365   8367     1   0.10969 276646.080000
   8370   8399     1   0.10304 312293.760000
   8371   8372     1   0.10910 283424.160000
   8371   8373     1   0.10910 283424.160000
   8374   8375     1   0.10910 283424.160000
   8374   8376     1   0.10910 283424.160000
   8377   8378     1   0.10910 283424.160000
   8377   8379     1   0.10910 283424.160000
   8380   8381     1   0.10969 276646.080000
   8380   8382     1   0.10969 276646.080000
   8383   8384     1   0.10969 276646.080000
   8383   8385     1   0.10969 276646.080000
   8386   8387     1   0.10969 276646.080000
   8386   8388     1   0.10969 276646.080000
   8389   8390     1   0.10969 276646.080000
   8389   8391     1   0.10969 276646.080000
   8392   8393     1   0.10969 276646.080000
   8392   8394     1   0.10969 276646.080000
   8395   8396     1   0.10969 276646.080000
   8395   8397     1   0.10969 276646.080000
   8400   8429     1   0.10304 312293.760000
   8401   8402     1   0.10910 283424.160000
   8401   8403     1   0.10910 283424.160000
   8404   8405     1   0.10910 283424.160000
   8404   8406     1   0.10910 283424.160000
   8407   8408     1   0.10910 283424.160000
   8407   8409     1   0.10910 283424.160000
   8410   8411     1   0.10969 276646.080000
   8410   8412     1   0.10969 276646.080000
   8413   8414     1   0.10969 276646.080000
   8413   8415     1   0.10969 276646.080000
   8416   8417     1   0.10969 276646.080000
   8416   8418     1   0.10969 276646.080000
   8419   8420     1   0.10969 276646.080000
   8419   8421     1   0.10969 276646.080000
   8422   8423     1   0.10969 276646.080000
   8422   8424     1   0.10969 276646.080000
   8425   8426     1   0.10969 276646.080000
   8425   8427     1   0.10969 276646.080000
   8430   8459     1   0.10304 312293.760000
   8431   8432     1   0.10910 283424.160000
   8431   8433     1   0.10910 283424.160000
   8434   8435     1   0.10910 283424.160000
   8434   8436     1   0.10910 283424.160000
   8437   8438     1   0.10910 283424.160000
   8437   8439     1   0.10910 283424.160000
   8440   8441     1   0.10969 276646.080000
   8440   8442     1   0.10969 276646.080000
   8443   8444     1   0.10969 276646.080000
   8443   8445     1   0.10969 276646.080000
   8446   8447     1   0.10969 276646.080000
   8446   8448     1   0.10969 276646.080000
   8449   8450     1   0.10969 276646.080000
   8449   8451     1   0.10969 276646.080000
   8452   8453     1   0.10969 276646.080000
   8452   8454     1   0.10969 276646.080000
   8455   8456     1   0.10969 276646.080000
   8455   8457     1   0.10969 276646.080000
   8460   8489     1   0.10304 312293.760000
   8461   8462     1   0.10910 283424.160000
   8461   8463     1   0.10910 283424.160000
   8464   8465     1   0.10910 283424.160000
   8464   8466     1   0.10910 283424.160000
   8467   8468     1   0.10910 283424.160000
   8467   8469     1   0.10910 283424.160000
   8470   8471     1   0.10969 276646.080000
   8470   8472     1   0.10969 276646.080000
   8473   8474     1   0.10969 276646.080000
   8473   8475     1   0.10969 276646.080000
   8476   8477     1   0.10969 276646.080000
   8476   8478     1   0.10969 276646.080000
   8479   8480     1   0.10969 276646.080000
   8479   8481     1   0.10969 276646.080000
   8482   8483     1   0.10969 276646.080000
   8482   8484     1   0.10969 276646.080000
   8485   8486     1   0.10969 276646.080000
   8485   8487     1   0.10969 276646.080000
   8490   8519     1   0.10304 312293.760000
   8491   8492     1   0.10910 283424.160000
   8491   8493     1   0.10910 283424.160000
   8494   8495     1   0.10910 283424.160000
   8494   8496     1   0.10910 283424.160000
   8497   8498     1   0.10910 283424.160000
   8497   8499     1   0.10910 283424.160000
   8500   8501     1   0.10969 276646.080000
   8500   8502     1   0.10969 276646.080000
   8503   8504     1   0.10969 276646.080000
   8503   8505     1   0.10969 276646.080000
   8506   8507     1   0.10969 276646.080000
   8506   8508     1   0.10969 276646.080000
   8509   8510     1   0.10969 276646.080000
   8509   8511     1   0.10969 276646.080000
   8512   8513     1   0.10969 276646.080000
   8512   8514     1   0.10969 276646.080000
   8515   8516     1   0.10969 276646.080000
   8515   8517     1   0.10969 276646.080000
   8520   8549     1   0.10304 312293.760000
   8521   8522     1   0.10910 283424.160000
   8521   8523     1   0.10910 283424.160000
   8524   8525     1   0.10910 283424.160000
   8524   8526     1   0.10910 283424.160000
   8527   8528     1   0.10910 283424.160000
   8527   8529     1   0.10910 283424.160000
   8530   8531     1   0.10969 276646.080000
   8530   8532     1   0.10969 276646.080000
   8533   8534     1   0.10969 276646.080000
   8533   8535     1   0.10969 276646.080000
   8536   8537     1   0.10969 276646.080000
   8536   8538     1   0.10969 276646.080000
   8539   8540     1   0.10969 276646.080000
   8539   8541     1   0.10969 276646.080000
   8542   8543     1   0.10969 276646.080000
   8542   8544     1   0.10969 276646.080000
   8545   8546     1   0.10969 276646.080000
   8545   8547     1   0.10969 276646.080000
   8550   8579     1   0.10304 312293.760000
   8551   8552     1   0.10910 283424.160000
   8551   8553     1   0.10910 283424.160000
   8554   8555     1   0.10910 283424.160000
   8554   8556     1   0.10910 283424.160000
   8557   8558     1   0.10910 283424.160000
   8557   8559     1   0.10910 283424.160000
   8560   8561     1   0.10969 276646.080000
   8560   8562     1   0.10969 276646.080000
   8563   8564     1   0.10969 276646.080000
   8563   8565     1   0.10969 276646.080000
   8566   8567     1   0.10969 276646.080000
   8566   8568     1   0.10969 276646.080000
   8569   8570     1   0.10969 276646.080000
   8569   8571     1   0.10969 276646.080000
   8572   8573     1   0.10969 276646.080000
   8572   8574     1   0.10969 276646.080000
   8575   8576     1   0.10969 276646.080000
   8575   8577     1   0.10969 276646.080000
   8580   8609     1   0.10304 312293.760000
   8581   8582     1   0.10910 283424.160000
   8581   8583     1   0.10910 283424.160000
   8584   8585     1   0.10910 283424.160000
   8584   8586     1   0.10910 283424.160000
   8587   8588     1   0.10910 283424.160000
   8587   8589     1   0.10910 283424.160000
   8590   8591     1   0.10969 276646.080000
   8590   8592     1   0.10969 276646.080000
   8593   8594     1   0.10969 276646.080000
   8593   8595     1   0.10969 276646.080000
   8596   8597     1   0.10969 276646.080000
   8596   8598     1   0.10969 276646.080000
   8599   8600     1   0.10969 276646.080000
   8599   8601     1   0.10969 276646.080000
   8602   8603     1   0.10969 276646.080000
   8602   8604     1   0.10969 276646.080000
   8605   8606     1   0.10969 276646.080000
   8605   8607     1   0.10969 276646.080000
   8610   8639     1   0.10304 312293.760000
   8611   8612     1   0.10910 283424.160000
   8611   8613     1   0.10910 283424.160000
   8614   8615     1   0.10910 283424.160000
   8614   8616     1   0.10910 283424.160000
   8617   8618     1   0.10910 283424.160000
   8617   8619     1   0.10910 283424.160000
   8620   8621     1   0.10969 276646.080000
   8620   8622     1   0.10969 276646.080000
   8623   8624     1   0.10969 276646.080000
   8623   8625     1   0.10969 276646.080000
   8626   8627     1   0.10969 276646.080000
   8626   8628     1   0.10969 276646.080000
   8629   8630     1   0.10969 276646.080000
   8629   8631     1   0.10969 276646.080000
   8632   8633     1   0.10969 276646.080000
   8632   8634     1   0.10969 276646.080000
   8635   8636     1   0.10969 276646.080000
   8635   8637     1   0.10969 276646.080000
   8640   8669     1   0.10304 312293.760000
   8641   8642     1   0.10910 283424.160000
   8641   8643     1   0.10910 283424.160000
   8644   8645     1   0.10910 283424.160000
   8644   8646     1   0.10910 283424.160000
   8647   8648     1   0.10910 283424.160000
   8647   8649     1   0.10910 283424.160000
   8650   8651     1   0.10969 276646.080000
   8650   8652     1   0.10969 276646.080000
   8653   8654     1   0.10969 276646.080000
   8653   8655     1   0.10969 276646.080000
   8656   8657     1   0.10969 276646.080000
   8656   8658     1   0.10969 276646.080000
   8659   8660     1   0.10969 276646.080000
   8659   8661     1   0.10969 276646.080000
   8662   8663     1   0.10969 276646.080000
   8662   8664     1   0.10969 276646.080000
   8665   8666     1   0.10969 276646.080000
   8665   8667     1   0.10969 276646.080000
   8670   8699     1   0.10304 312293.760000
   8671   8672     1   0.10910 283424.160000
   8671   8673     1   0.10910 283424.160000
   8674   8675     1   0.10910 283424.160000
   8674   8676     1   0.10910 283424.160000
   8677   8678     1   0.10910 283424.160000
   8677   8679     1   0.10910 283424.160000
   8680   8681     1   0.10969 276646.080000
   8680   8682     1   0.10969 276646.080000
   8683   8684     1   0.10969 276646.080000
   8683   8685     1   0.10969 276646.080000
   8686   8687     1   0.10969 276646.080000
   8686   8688     1   0.10969 276646.080000
   8689   8690     1   0.10969 276646.080000
   8689   8691     1   0.10969 276646.080000
   8692   8693     1   0.10969 276646.080000
   8692   8694     1   0.10969 276646.080000
   8695   8696     1   0.10969 276646.080000
   8695   8697     1   0.10969 276646.080000
   8700   8729     1   0.10304 312293.760000
   8701   8702     1   0.10910 283424.160000
   8701   8703     1   0.10910 283424.160000
   8704   8705     1   0.10910 283424.160000
   8704   8706     1   0.10910 283424.160000
   8707   8708     1   0.10910 283424.160000
   8707   8709     1   0.10910 283424.160000
   8710   8711     1   0.10969 276646.080000
   8710   8712     1   0.10969 276646.080000
   8713   8714     1   0.10969 276646.080000
   8713   8715     1   0.10969 276646.080000
   8716   8717     1   0.10969 276646.080000
   8716   8718     1   0.10969 276646.080000
   8719   8720     1   0.10969 276646.080000
   8719   8721     1   0.10969 276646.080000
   8722   8723     1   0.10969 276646.080000
   8722   8724     1   0.10969 276646.080000
   8725   8726     1   0.10969 276646.080000
   8725   8727     1   0.10969 276646.080000
   8730   8759     1   0.10304 312293.760000
   8731   8732     1   0.10910 283424.160000
   8731   8733     1   0.10910 283424.160000
   8734   8735     1   0.10910 283424.160000
   8734   8736     1   0.10910 283424.160000
   8737   8738     1   0.10910 283424.160000
   8737   8739     1   0.10910 283424.160000
   8740   8741     1   0.10969 276646.080000
   8740   8742     1   0.10969 276646.080000
   8743   8744     1   0.10969 276646.080000
   8743   8745     1   0.10969 276646.080000
   8746   8747     1   0.10969 276646.080000
   8746   8748     1   0.10969 276646.080000
   8749   8750     1   0.10969 276646.080000
   8749   8751     1   0.10969 276646.080000
   8752   8753     1   0.10969 276646.080000
   8752   8754     1   0.10969 276646.080000
   8755   8756     1   0.10969 276646.080000
   8755   8757     1   0.10969 276646.080000
   8760   8789     1   0.10304 312293.760000
   8761   8762     1   0.10910 283424.160000
   8761   8763     1   0.10910 283424.160000
   8764   8765     1   0.10910 283424.160000
   8764   8766     1   0.10910 283424.160000
   8767   8768     1   0.10910 283424.160000
   8767   8769     1   0.10910 283424.160000
   8770   8771     1   0.10969 276646.080000
   8770   8772     1   0.10969 276646.080000
   8773   8774     1   0.10969 276646.080000
   8773   8775     1   0.10969 276646.080000
   8776   8777     1   0.10969 276646.080000
   8776   8778     1   0.10969 276646.080000
   8779   8780     1   0.10969 276646.080000
   8779   8781     1   0.10969 276646.080000
   8782   8783     1   0.10969 276646.080000
   8782   8784     1   0.10969 276646.080000
   8785   8786     1   0.10969 276646.080000
   8785   8787     1   0.10969 276646.080000
   8790   8819     1   0.10304 312293.760000
   8791   8792     1   0.10910 283424.160000
   8791   8793     1   0.10910 283424.160000
   8794   8795     1   0.10910 283424.160000
   8794   8796     1   0.10910 283424.160000
   8797   8798     1   0.10910 283424.160000
   8797   8799     1   0.10910 283424.160000
   8800   8801     1   0.10969 276646.080000
   8800   8802     1   0.10969 276646.080000
   8803   8804     1   0.10969 276646.080000
   8803   8805     1   0.10969 276646.080000
   8806   8807     1   0.10969 276646.080000
   8806   8808     1   0.10969 276646.080000
   8809   8810     1   0.10969 276646.080000
   8809   8811     1   0.10969 276646.080000
   8812   8813     1   0.10969 276646.080000
   8812   8814     1   0.10969 276646.080000
   8815   8816     1   0.10969 276646.080000
   8815   8817     1   0.10969 276646.080000
   8820   8849     1   0.10304 312293.760000
   8821   8822     1   0.10910 283424.160000
   8821   8823     1   0.10910 283424.160000
   8824   8825     1   0.10910 283424.160000
   8824   8826     1   0.10910 283424.160000
   8827   8828     1   0.10910 283424.160000
   8827   8829     1   0.10910 283424.160000
   8830   8831     1   0.10969 276646.080000
   8830   8832     1   0.10969 276646.080000
   8833   8834     1   0.10969 276646.080000
   8833   8835     1   0.10969 276646.080000
   8836   8837     1   0.10969 276646.080000
   8836   8838     1   0.10969 276646.080000
   8839   8840     1   0.10969 276646.080000
   8839   8841     1   0.10969 276646.080000
   8842   8843     1   0.10969 276646.080000
   8842   8844     1   0.10969 276646.080000
   8845   8846     1   0.10969 276646.080000
   8845   8847     1   0.10969 276646.080000
   8850   8879     1   0.10304 312293.760000
   8851   8852     1   0.10910 283424.160000
   8851   8853     1   0.10910 283424.160000
   8854   8855     1   0.10910 283424.160000
   8854   8856     1   0.10910 283424.160000
   8857   8858     1   0.10910 283424.160000
   8857   8859     1   0.10910 283424.160000
   8860   8861     1   0.10969 276646.080000
   8860   8862     1   0.10969 276646.080000
   8863   8864     1   0.10969 276646.080000
   8863   8865     1   0.10969 276646.080000
   8866   8867     1   0.10969 276646.080000
   8866   8868     1   0.10969 276646.080000
   8869   8870     1   0.10969 276646.080000
   8869   8871     1   0.10969 276646.080000
   8872   8873     1   0.10969 276646.080000
   8872   8874     1   0.10969 276646.080000
   8875   8876     1   0.10969 276646.080000
   8875   8877     1   0.10969 276646.080000
   8880   8909     1   0.10304 312293.760000
   8881   8882     1   0.10910 283424.160000
   8881   8883     1   0.10910 283424.160000
   8884   8885     1   0.10910 283424.160000
   8884   8886     1   0.10910 283424.160000
   8887   8888     1   0.10910 283424.160000
   8887   8889     1   0.10910 283424.160000
   8890   8891     1   0.10969 276646.080000
   8890   8892     1   0.10969 276646.080000
   8893   8894     1   0.10969 276646.080000
   8893   8895     1   0.10969 276646.080000
   8896   8897     1   0.10969 276646.080000
   8896   8898     1   0.10969 276646.080000
   8899   8900     1   0.10969 276646.080000
   8899   8901     1   0.10969 276646.080000
   8902   8903     1   0.10969 276646.080000
   8902   8904     1   0.10969 276646.080000
   8905   8906     1   0.10969 276646.080000
   8905   8907     1   0.10969 276646.080000
   8910   8939     1   0.10304 312293.760000
   8911   8912     1   0.10910 283424.160000
   8911   8913     1   0.10910 283424.160000
   8914   8915     1   0.10910 283424.160000
   8914   8916     1   0.10910 283424.160000
   8917   8918     1   0.10910 283424.160000
   8917   8919     1   0.10910 283424.160000
   8920   8921     1   0.10969 276646.080000
   8920   8922     1   0.10969 276646.080000
   8923   8924     1   0.10969 276646.080000
   8923   8925     1   0.10969 276646.080000
   8926   8927     1   0.10969 276646.080000
   8926   8928     1   0.10969 276646.080000
   8929   8930     1   0.10969 276646.080000
   8929   8931     1   0.10969 276646.080000
   8932   8933     1   0.10969 276646.080000
   8932   8934     1   0.10969 276646.080000
   8935   8936     1   0.10969 276646.080000
   8935   8937     1   0.10969 276646.080000
   8940   8969     1   0.10304 312293.760000
   8941   8942     1   0.10910 283424.160000
   8941   8943     1   0.10910 283424.160000
   8944   8945     1   0.10910 283424.160000
   8944   8946     1   0.10910 283424.160000
   8947   8948     1   0.10910 283424.160000
   8947   8949     1   0.10910 283424.160000
   8950   8951     1   0.10969 276646.080000
   8950   8952     1   0.10969 276646.080000
   8953   8954     1   0.10969 276646.080000
   8953   8955     1   0.10969 276646.080000
   8956   8957     1   0.10969 276646.080000
   8956   8958     1   0.10969 276646.080000
   8959   8960     1   0.10969 276646.080000
   8959   8961     1   0.10969 276646.080000
   8962   8963     1   0.10969 276646.080000
   8962   8964     1   0.10969 276646.080000
   8965   8966     1   0.10969 276646.080000
   8965   8967     1   0.10969 276646.080000
   8970   8999     1   0.10304 312293.760000
   8971   8972     1   0.10910 283424.160000
   8971   8973     1   0.10910 283424.160000
   8974   8975     1   0.10910 283424.160000
   8974   8976     1   0.10910 283424.160000
   8977   8978     1   0.10910 283424.160000
   8977   8979     1   0.10910 283424.160000
   8980   8981     1   0.10969 276646.080000
   8980   8982     1   0.10969 276646.080000
   8983   8984     1   0.10969 276646.080000
   8983   8985     1   0.10969 276646.080000
   8986   8987     1   0.10969 276646.080000
   8986   8988     1   0.10969 276646.080000
   8989   8990     1   0.10969 276646.080000
   8989   8991     1   0.10969 276646.080000
   8992   8993     1   0.10969 276646.080000
   8992   8994     1   0.10969 276646.080000
   8995   8996     1   0.10969 276646.080000
   8995   8997     1   0.10969 276646.080000
   9000   9029     1   0.10304 312293.760000
   9001   9002     1   0.10910 283424.160000
   9001   9003     1   0.10910 283424.160000
   9004   9005     1   0.10910 283424.160000
   9004   9006     1   0.10910 283424.160000
   9007   9008     1   0.10910 283424.160000
   9007   9009     1   0.10910 283424.160000
   9010   9011     1   0.10969 276646.080000
   9010   9012     1   0.10969 276646.080000
   9013   9014     1   0.10969 276646.080000
   9013   9015     1   0.10969 276646.080000
   9016   9017     1   0.10969 276646.080000
   9016   9018     1   0.10969 276646.080000
   9019   9020     1   0.10969 276646.080000
   9019   9021     1   0.10969 276646.080000
   9022   9023     1   0.10969 276646.080000
   9022   9024     1   0.10969 276646.080000
   9025   9026     1   0.10969 276646.080000
   9025   9027     1   0.10969 276646.080000
   9030   9059     1   0.10304 312293.760000
   9031   9032     1   0.10910 283424.160000
   9031   9033     1   0.10910 283424.160000
   9034   9035     1   0.10910 283424.160000
   9034   9036     1   0.10910 283424.160000
   9037   9038     1   0.10910 283424.160000
   9037   9039     1   0.10910 283424.160000
   9040   9041     1   0.10969 276646.080000
   9040   9042     1   0.10969 276646.080000
   9043   9044     1   0.10969 276646.080000
   9043   9045     1   0.10969 276646.080000
   9046   9047     1   0.10969 276646.080000
   9046   9048     1   0.10969 276646.080000
   9049   9050     1   0.10969 276646.080000
   9049   9051     1   0.10969 276646.080000
   9052   9053     1   0.10969 276646.080000
   9052   9054     1   0.10969 276646.080000
   9055   9056     1   0.10969 276646.080000
   9055   9057     1   0.10969 276646.080000
   9060   9089     1   0.10304 312293.760000
   9061   9062     1   0.10910 283424.160000
   9061   9063     1   0.10910 283424.160000
   9064   9065     1   0.10910 283424.160000
   9064   9066     1   0.10910 283424.160000
   9067   9068     1   0.10910 283424.160000
   9067   9069     1   0.10910 283424.160000
   9070   9071     1   0.10969 276646.080000
   9070   9072     1   0.10969 276646.080000
   9073   9074     1   0.10969 276646.080000
   9073   9075     1   0.10969 276646.080000
   9076   9077     1   0.10969 276646.080000
   9076   9078     1   0.10969 276646.080000
   9079   9080     1   0.10969 276646.080000
   9079   9081     1   0.10969 276646.080000
   9082   9083     1   0.10969 276646.080000
   9082   9084     1   0.10969 276646.080000
   9085   9086     1   0.10969 276646.080000
   9085   9087     1   0.10969 276646.080000
   9090   9119     1   0.10304 312293.760000
   9091   9092     1   0.10910 283424.160000
   9091   9093     1   0.10910 283424.160000
   9094   9095     1   0.10910 283424.160000
   9094   9096     1   0.10910 283424.160000
   9097   9098     1   0.10910 283424.160000
   9097   9099     1   0.10910 283424.160000
   9100   9101     1   0.10969 276646.080000
   9100   9102     1   0.10969 276646.080000
   9103   9104     1   0.10969 276646.080000
   9103   9105     1   0.10969 276646.080000
   9106   9107     1   0.10969 276646.080000
   9106   9108     1   0.10969 276646.080000
   9109   9110     1   0.10969 276646.080000
   9109   9111     1   0.10969 276646.080000
   9112   9113     1   0.10969 276646.080000
   9112   9114     1   0.10969 276646.080000
   9115   9116     1   0.10969 276646.080000
   9115   9117     1   0.10969 276646.080000
   9120   9149     1   0.10304 312293.760000
   9121   9122     1   0.10910 283424.160000
   9121   9123     1   0.10910 283424.160000
   9124   9125     1   0.10910 283424.160000
   9124   9126     1   0.10910 283424.160000
   9127   9128     1   0.10910 283424.160000
   9127   9129     1   0.10910 283424.160000
   9130   9131     1   0.10969 276646.080000
   9130   9132     1   0.10969 276646.080000
   9133   9134     1   0.10969 276646.080000
   9133   9135     1   0.10969 276646.080000
   9136   9137     1   0.10969 276646.080000
   9136   9138     1   0.10969 276646.080000
   9139   9140     1   0.10969 276646.080000
   9139   9141     1   0.10969 276646.080000
   9142   9143     1   0.10969 276646.080000
   9142   9144     1   0.10969 276646.080000
   9145   9146     1   0.10969 276646.080000
   9145   9147     1   0.10969 276646.080000
   9150   9179     1   0.10304 312293.760000
   9151   9152     1   0.10910 283424.160000
   9151   9153     1   0.10910 283424.160000
   9154   9155     1   0.10910 283424.160000
   9154   9156     1   0.10910 283424.160000
   9157   9158     1   0.10910 283424.160000
   9157   9159     1   0.10910 283424.160000
   9160   9161     1   0.10969 276646.080000
   9160   9162     1   0.10969 276646.080000
   9163   9164     1   0.10969 276646.080000
   9163   9165     1   0.10969 276646.080000
   9166   9167     1   0.10969 276646.080000
   9166   9168     1   0.10969 276646.080000
   9169   9170     1   0.10969 276646.080000
   9169   9171     1   0.10969 276646.080000
   9172   9173     1   0.10969 276646.080000
   9172   9174     1   0.10969 276646.080000
   9175   9176     1   0.10969 276646.080000
   9175   9177     1   0.10969 276646.080000
   9180   9209     1   0.10304 312293.760000
   9181   9182     1   0.10910 283424.160000
   9181   9183     1   0.10910 283424.160000
   9184   9185     1   0.10910 283424.160000
   9184   9186     1   0.10910 283424.160000
   9187   9188     1   0.10910 283424.160000
   9187   9189     1   0.10910 283424.160000
   9190   9191     1   0.10969 276646.080000
   9190   9192     1   0.10969 276646.080000
   9193   9194     1   0.10969 276646.080000
   9193   9195     1   0.10969 276646.080000
   9196   9197     1   0.10969 276646.080000
   9196   9198     1   0.10969 276646.080000
   9199   9200     1   0.10969 276646.080000
   9199   9201     1   0.10969 276646.080000
   9202   9203     1   0.10969 276646.080000
   9202   9204     1   0.10969 276646.080000
   9205   9206     1   0.10969 276646.080000
   9205   9207     1   0.10969 276646.080000
   9210   9239     1   0.10304 312293.760000
   9211   9212     1   0.10910 283424.160000
   9211   9213     1   0.10910 283424.160000
   9214   9215     1   0.10910 283424.160000
   9214   9216     1   0.10910 283424.160000
   9217   9218     1   0.10910 283424.160000
   9217   9219     1   0.10910 283424.160000
   9220   9221     1   0.10969 276646.080000
   9220   9222     1   0.10969 276646.080000
   9223   9224     1   0.10969 276646.080000
   9223   9225     1   0.10969 276646.080000
   9226   9227     1   0.10969 276646.080000
   9226   9228     1   0.10969 276646.080000
   9229   9230     1   0.10969 276646.080000
   9229   9231     1   0.10969 276646.080000
   9232   9233     1   0.10969 276646.080000
   9232   9234     1   0.10969 276646.080000
   9235   9236     1   0.10969 276646.080000
   9235   9237     1   0.10969 276646.080000
   9240   9269     1   0.10304 312293.760000
   9241   9242     1   0.10910 283424.160000
   9241   9243     1   0.10910 283424.160000
   9244   9245     1   0.10910 283424.160000
   9244   9246     1   0.10910 283424.160000
   9247   9248     1   0.10910 283424.160000
   9247   9249     1   0.10910 283424.160000
   9250   9251     1   0.10969 276646.080000
   9250   9252     1   0.10969 276646.080000
   9253   9254     1   0.10969 276646.080000
   9253   9255     1   0.10969 276646.080000
   9256   9257     1   0.10969 276646.080000
   9256   9258     1   0.10969 276646.080000
   9259   9260     1   0.10969 276646.080000
   9259   9261     1   0.10969 276646.080000
   9262   9263     1   0.10969 276646.080000
   9262   9264     1   0.10969 276646.080000
   9265   9266     1   0.10969 276646.080000
   9265   9267     1   0.10969 276646.080000
   9270   9299     1   0.10304 312293.760000
   9271   9272     1   0.10910 283424.160000
   9271   9273     1   0.10910 283424.160000
   9274   9275     1   0.10910 283424.160000
   9274   9276     1   0.10910 283424.160000
   9277   9278     1   0.10910 283424.160000
   9277   9279     1   0.10910 283424.160000
   9280   9281     1   0.10969 276646.080000
   9280   9282     1   0.10969 276646.080000
   9283   9284     1   0.10969 276646.080000
   9283   9285     1   0.10969 276646.080000
   9286   9287     1   0.10969 276646.080000
   9286   9288     1   0.10969 276646.080000
   9289   9290     1   0.10969 276646.080000
   9289   9291     1   0.10969 276646.080000
   9292   9293     1   0.10969 276646.080000
   9292   9294     1   0.10969 276646.080000
   9295   9296     1   0.10969 276646.080000
   9295   9297     1   0.10969 276646.080000
   9300   9329     1   0.10304 312293.760000
   9301   9302     1   0.10910 283424.160000
   9301   9303     1   0.10910 283424.160000
   9304   9305     1   0.10910 283424.160000
   9304   9306     1   0.10910 283424.160000
   9307   9308     1   0.10910 283424.160000
   9307   9309     1   0.10910 283424.160000
   9310   9311     1   0.10969 276646.080000
   9310   9312     1   0.10969 276646.080000
   9313   9314     1   0.10969 276646.080000
   9313   9315     1   0.10969 276646.080000
   9316   9317     1   0.10969 276646.080000
   9316   9318     1   0.10969 276646.080000
   9319   9320     1   0.10969 276646.080000
   9319   9321     1   0.10969 276646.080000
   9322   9323     1   0.10969 276646.080000
   9322   9324     1   0.10969 276646.080000
   9325   9326     1   0.10969 276646.080000
   9325   9327     1   0.10969 276646.080000
   9330   9359     1   0.10304 312293.760000
   9331   9332     1   0.10910 283424.160000
   9331   9333     1   0.10910 283424.160000
   9334   9335     1   0.10910 283424.160000
   9334   9336     1   0.10910 283424.160000
   9337   9338     1   0.10910 283424.160000
   9337   9339     1   0.10910 283424.160000
   9340   9341     1   0.10969 276646.080000
   9340   9342     1   0.10969 276646.080000
   9343   9344     1   0.10969 276646.080000
   9343   9345     1   0.10969 276646.080000
   9346   9347     1   0.10969 276646.080000
   9346   9348     1   0.10969 276646.080000
   9349   9350     1   0.10969 276646.080000
   9349   9351     1   0.10969 276646.080000
   9352   9353     1   0.10969 276646.080000
   9352   9354     1   0.10969 276646.080000
   9355   9356     1   0.10969 276646.080000
   9355   9357     1   0.10969 276646.080000
   9360   9389     1   0.10304 312293.760000
   9361   9362     1   0.10910 283424.160000
   9361   9363     1   0.10910 283424.160000
   9364   9365     1   0.10910 283424.160000
   9364   9366     1   0.10910 283424.160000
   9367   9368     1   0.10910 283424.160000
   9367   9369     1   0.10910 283424.160000
   9370   9371     1   0.10969 276646.080000
   9370   9372     1   0.10969 276646.080000
   9373   9374     1   0.10969 276646.080000
   9373   9375     1   0.10969 276646.080000
   9376   9377     1   0.10969 276646.080000
   9376   9378     1   0.10969 276646.080000
   9379   9380     1   0.10969 276646.080000
   9379   9381     1   0.10969 276646.080000
   9382   9383     1   0.10969 276646.080000
   9382   9384     1   0.10969 276646.080000
   9385   9386     1   0.10969 276646.080000
   9385   9387     1   0.10969 276646.080000
   9390   9419     1   0.10304 312293.760000
   9391   9392     1   0.10910 283424.160000
   9391   9393     1   0.10910 283424.160000
   9394   9395     1   0.10910 283424.160000
   9394   9396     1   0.10910 283424.160000
   9397   9398     1   0.10910 283424.160000
   9397   9399     1   0.10910 283424.160000
   9400   9401     1   0.10969 276646.080000
   9400   9402     1   0.10969 276646.080000
   9403   9404     1   0.10969 276646.080000
   9403   9405     1   0.10969 276646.080000
   9406   9407     1   0.10969 276646.080000
   9406   9408     1   0.10969 276646.080000
   9409   9410     1   0.10969 276646.080000
   9409   9411     1   0.10969 276646.080000
   9412   9413     1   0.10969 276646.080000
   9412   9414     1   0.10969 276646.080000
   9415   9416     1   0.10969 276646.080000
   9415   9417     1   0.10969 276646.080000
   9420   9449     1   0.10304 312293.760000
   9421   9422     1   0.10910 283424.160000
   9421   9423     1   0.10910 283424.160000
   9424   9425     1   0.10910 283424.160000
   9424   9426     1   0.10910 283424.160000
   9427   9428     1   0.10910 283424.160000
   9427   9429     1   0.10910 283424.160000
   9430   9431     1   0.10969 276646.080000
   9430   9432     1   0.10969 276646.080000
   9433   9434     1   0.10969 276646.080000
   9433   9435     1   0.10969 276646.080000
   9436   9437     1   0.10969 276646.080000
   9436   9438     1   0.10969 276646.080000
   9439   9440     1   0.10969 276646.080000
   9439   9441     1   0.10969 276646.080000
   9442   9443     1   0.10969 276646.080000
   9442   9444     1   0.10969 276646.080000
   9445   9446     1   0.10969 276646.080000
   9445   9447     1   0.10969 276646.080000
   9450   9479     1   0.10304 312293.760000
   9451   9452     1   0.10910 283424.160000
   9451   9453     1   0.10910 283424.160000
   9454   9455     1   0.10910 283424.160000
   9454   9456     1   0.10910 283424.160000
   9457   9458     1   0.10910 283424.160000
   9457   9459     1   0.10910 283424.160000
   9460   9461     1   0.10969 276646.080000
   9460   9462     1   0.10969 276646.080000
   9463   9464     1   0.10969 276646.080000
   9463   9465     1   0.10969 276646.080000
   9466   9467     1   0.10969 276646.080000
   9466   9468     1   0.10969 276646.080000
   9469   9470     1   0.10969 276646.080000
   9469   9471     1   0.10969 276646.080000
   9472   9473     1   0.10969 276646.080000
   9472   9474     1   0.10969 276646.080000
   9475   9476     1   0.10969 276646.080000
   9475   9477     1   0.10969 276646.080000
   9480   9509     1   0.10304 312293.760000
   9481   9482     1   0.10910 283424.160000
   9481   9483     1   0.10910 283424.160000
   9484   9485     1   0.10910 283424.160000
   9484   9486     1   0.10910 283424.160000
   9487   9488     1   0.10910 283424.160000
   9487   9489     1   0.10910 283424.160000
   9490   9491     1   0.10969 276646.080000
   9490   9492     1   0.10969 276646.080000
   9493   9494     1   0.10969 276646.080000
   9493   9495     1   0.10969 276646.080000
   9496   9497     1   0.10969 276646.080000
   9496   9498     1   0.10969 276646.080000
   9499   9500     1   0.10969 276646.080000
   9499   9501     1   0.10969 276646.080000
   9502   9503     1   0.10969 276646.080000
   9502   9504     1   0.10969 276646.080000
   9505   9506     1   0.10969 276646.080000
   9505   9507     1   0.10969 276646.080000
   9510   9539     1   0.10304 312293.760000
   9511   9512     1   0.10910 283424.160000
   9511   9513     1   0.10910 283424.160000
   9514   9515     1   0.10910 283424.160000
   9514   9516     1   0.10910 283424.160000
   9517   9518     1   0.10910 283424.160000
   9517   9519     1   0.10910 283424.160000
   9520   9521     1   0.10969 276646.080000
   9520   9522     1   0.10969 276646.080000
   9523   9524     1   0.10969 276646.080000
   9523   9525     1   0.10969 276646.080000
   9526   9527     1   0.10969 276646.080000
   9526   9528     1   0.10969 276646.080000
   9529   9530     1   0.10969 276646.080000
   9529   9531     1   0.10969 276646.080000
   9532   9533     1   0.10969 276646.080000
   9532   9534     1   0.10969 276646.080000
   9535   9536     1   0.10969 276646.080000
   9535   9537     1   0.10969 276646.080000
   9540   9569     1   0.10304 312293.760000
   9541   9542     1   0.10910 283424.160000
   9541   9543     1   0.10910 283424.160000
   9544   9545     1   0.10910 283424.160000
   9544   9546     1   0.10910 283424.160000
   9547   9548     1   0.10910 283424.160000
   9547   9549     1   0.10910 283424.160000
   9550   9551     1   0.10969 276646.080000
   9550   9552     1   0.10969 276646.080000
   9553   9554     1   0.10969 276646.080000
   9553   9555     1   0.10969 276646.080000
   9556   9557     1   0.10969 276646.080000
   9556   9558     1   0.10969 276646.080000
   9559   9560     1   0.10969 276646.080000
   9559   9561     1   0.10969 276646.080000
   9562   9563     1   0.10969 276646.080000
   9562   9564     1   0.10969 276646.080000
   9565   9566     1   0.10969 276646.080000
   9565   9567     1   0.10969 276646.080000
   9570   9599     1   0.10304 312293.760000
   9571   9572     1   0.10910 283424.160000
   9571   9573     1   0.10910 283424.160000
   9574   9575     1   0.10910 283424.160000
   9574   9576     1   0.10910 283424.160000
   9577   9578     1   0.10910 283424.160000
   9577   9579     1   0.10910 283424.160000
   9580   9581     1   0.10969 276646.080000
   9580   9582     1   0.10969 276646.080000
   9583   9584     1   0.10969 276646.080000
   9583   9585     1   0.10969 276646.080000
   9586   9587     1   0.10969 276646.080000
   9586   9588     1   0.10969 276646.080000
   9589   9590     1   0.10969 276646.080000
   9589   9591     1   0.10969 276646.080000
   9592   9593     1   0.10969 276646.080000
   9592   9594     1   0.10969 276646.080000
   9595   9596     1   0.10969 276646.080000
   9595   9597     1   0.10969 276646.080000
   9600   9629     1   0.10304 312293.760000
   9601   9602     1   0.10910 283424.160000
   9601   9603     1   0.10910 283424.160000
   9604   9605     1   0.10910 283424.160000
   9604   9606     1   0.10910 283424.160000
   9607   9608     1   0.10910 283424.160000
   9607   9609     1   0.10910 283424.160000
   9610   9611     1   0.10969 276646.080000
   9610   9612     1   0.10969 276646.080000
   9613   9614     1   0.10969 276646.080000
   9613   9615     1   0.10969 276646.080000
   9616   9617     1   0.10969 276646.080000
   9616   9618     1   0.10969 276646.080000
   9619   9620     1   0.10969 276646.080000
   9619   9621     1   0.10969 276646.080000
   9622   9623     1   0.10969 276646.080000
   9622   9624     1   0.10969 276646.080000
   9625   9626     1   0.10969 276646.080000
   9625   9627     1   0.10969 276646.080000
   9630   9659     1   0.10304 312293.760000
   9631   9632     1   0.10910 283424.160000
   9631   9633     1   0.10910 283424.160000
   9634   9635     1   0.10910 283424.160000
   9634   9636     1   0.10910 283424.160000
   9637   9638     1   0.10910 283424.160000
   9637   9639     1   0.10910 283424.160000
   9640   9641     1   0.10969 276646.080000
   9640   9642     1   0.10969 276646.080000
   9643   9644     1   0.10969 276646.080000
   9643   9645     1   0.10969 276646.080000
   9646   9647     1   0.10969 276646.080000
   9646   9648     1   0.10969 276646.080000
   9649   9650     1   0.10969 276646.080000
   9649   9651     1   0.10969 276646.080000
   9652   9653     1   0.10969 276646.080000
   9652   9654     1   0.10969 276646.080000
   9655   9656     1   0.10969 276646.080000
   9655   9657     1   0.10969 276646.080000
   9660   9689     1   0.10304 312293.760000
   9661   9662     1   0.10910 283424.160000
   9661   9663     1   0.10910 283424.160000
   9664   9665     1   0.10910 283424.160000
   9664   9666     1   0.10910 283424.160000
   9667   9668     1   0.10910 283424.160000
   9667   9669     1   0.10910 283424.160000
   9670   9671     1   0.10969 276646.080000
   9670   9672     1   0.10969 276646.080000
   9673   9674     1   0.10969 276646.080000
   9673   9675     1   0.10969 276646.080000
   9676   9677     1   0.10969 276646.080000
   9676   9678     1   0.10969 276646.080000
   9679   9680     1   0.10969 276646.080000
   9679   9681     1   0.10969 276646.080000
   9682   9683     1   0.10969 276646.080000
   9682   9684     1   0.10969 276646.080000
   9685   9686     1   0.10969 276646.080000
   9685   9687     1   0.10969 276646.080000
   9690   9719     1   0.10304 312293.760000
   9691   9692     1   0.10910 283424.160000
   9691   9693     1   0.10910 283424.160000
   9694   9695     1   0.10910 283424.160000
   9694   9696     1   0.10910 283424.160000
   9697   9698     1   0.10910 283424.160000
   9697   9699     1   0.10910 283424.160000
   9700   9701     1   0.10969 276646.080000
   9700   9702     1   0.10969 276646.080000
   9703   9704     1   0.10969 276646.080000
   9703   9705     1   0.10969 276646.080000
   9706   9707     1   0.10969 276646.080000
   9706   9708     1   0.10969 276646.080000
   9709   9710     1   0.10969 276646.080000
   9709   9711     1   0.10969 276646.080000
   9712   9713     1   0.10969 276646.080000
   9712   9714     1   0.10969 276646.080000
   9715   9716     1   0.10969 276646.080000
   9715   9717     1   0.10969 276646.080000
   9720   9749     1   0.10304 312293.760000
   9721   9722     1   0.10910 283424.160000
   9721   9723     1   0.10910 283424.160000
   9724   9725     1   0.10910 283424.160000
   9724   9726     1   0.10910 283424.160000
   9727   9728     1   0.10910 283424.160000
   9727   9729     1   0.10910 283424.160000
   9730   9731     1   0.10969 276646.080000
   9730   9732     1   0.10969 276646.080000
   9733   9734     1   0.10969 276646.080000
   9733   9735     1   0.10969 276646.080000
   9736   9737     1   0.10969 276646.080000
   9736   9738     1   0.10969 276646.080000
   9739   9740     1   0.10969 276646.080000
   9739   9741     1   0.10969 276646.080000
   9742   9743     1   0.10969 276646.080000
   9742   9744     1   0.10969 276646.080000
   9745   9746     1   0.10969 276646.080000
   9745   9747     1   0.10969 276646.080000
   9750   9779     1   0.10304 312293.760000
   9751   9752     1   0.10910 283424.160000
   9751   9753     1   0.10910 283424.160000
   9754   9755     1   0.10910 283424.160000
   9754   9756     1   0.10910 283424.160000
   9757   9758     1   0.10910 283424.160000
   9757   9759     1   0.10910 283424.160000
   9760   9761     1   0.10969 276646.080000
   9760   9762     1   0.10969 276646.080000
   9763   9764     1   0.10969 276646.080000
   9763   9765     1   0.10969 276646.080000
   9766   9767     1   0.10969 276646.080000
   9766   9768     1   0.10969 276646.080000
   9769   9770     1   0.10969 276646.080000
   9769   9771     1   0.10969 276646.080000
   9772   9773     1   0.10969 276646.080000
   9772   9774     1   0.10969 276646.080000
   9775   9776     1   0.10969 276646.080000
   9775   9777     1   0.10969 276646.080000
   9780   9809     1   0.10304 312293.760000
   9781   9782     1   0.10910 283424.160000
   9781   9783     1   0.10910 283424.160000
   9784   9785     1   0.10910 283424.160000
   9784   9786     1   0.10910 283424.160000
   9787   9788     1   0.10910 283424.160000
   9787   9789     1   0.10910 283424.160000
   9790   9791     1   0.10969 276646.080000
   9790   9792     1   0.10969 276646.080000
   9793   9794     1   0.10969 276646.080000
   9793   9795     1   0.10969 276646.080000
   9796   9797     1   0.10969 276646.080000
   9796   9798     1   0.10969 276646.080000
   9799   9800     1   0.10969 276646.080000
   9799   9801     1   0.10969 276646.080000
   9802   9803     1   0.10969 276646.080000
   9802   9804     1   0.10969 276646.080000
   9805   9806     1   0.10969 276646.080000
   9805   9807     1   0.10969 276646.080000
   9810   9839     1   0.10304 312293.760000
   9811   9812     1   0.10910 283424.160000
   9811   9813     1   0.10910 283424.160000
   9814   9815     1   0.10910 283424.160000
   9814   9816     1   0.10910 283424.160000
   9817   9818     1   0.10910 283424.160000
   9817   9819     1   0.10910 283424.160000
   9820   9821     1   0.10969 276646.080000
   9820   9822     1   0.10969 276646.080000
   9823   9824     1   0.10969 276646.080000
   9823   9825     1   0.10969 276646.080000
   9826   9827     1   0.10969 276646.080000
   9826   9828     1   0.10969 276646.080000
   9829   9830     1   0.10969 276646.080000
   9829   9831     1   0.10969 276646.080000
   9832   9833     1   0.10969 276646.080000
   9832   9834     1   0.10969 276646.080000
   9835   9836     1   0.10969 276646.080000
   9835   9837     1   0.10969 276646.080000
   9840   9869     1   0.10304 312293.760000
   9841   9842     1   0.10910 283424.160000
   9841   9843     1   0.10910 283424.160000
   9844   9845     1   0.10910 283424.160000
   9844   9846     1   0.10910 283424.160000
   9847   9848     1   0.10910 283424.160000
   9847   9849     1   0.10910 283424.160000
   9850   9851     1   0.10969 276646.080000
   9850   9852     1   0.10969 276646.080000
   9853   9854     1   0.10969 276646.080000
   9853   9855     1   0.10969 276646.080000
   9856   9857     1   0.10969 276646.080000
   9856   9858     1   0.10969 276646.080000
   9859   9860     1   0.10969 276646.080000
   9859   9861     1   0.10969 276646.080000
   9862   9863     1   0.10969 276646.080000
   9862   9864     1   0.10969 276646.080000
   9865   9866     1   0.10969 276646.080000
   9865   9867     1   0.10969 276646.080000
   9870   9899     1   0.10304 312293.760000
   9871   9872     1   0.10910 283424.160000
   9871   9873     1   0.10910 283424.160000
   9874   9875     1   0.10910 283424.160000
   9874   9876     1   0.10910 283424.160000
   9877   9878     1   0.10910 283424.160000
   9877   9879     1   0.10910 283424.160000
   9880   9881     1   0.10969 276646.080000
   9880   9882     1   0.10969 276646.080000
   9883   9884     1   0.10969 276646.080000
   9883   9885     1   0.10969 276646.080000
   9886   9887     1   0.10969 276646.080000
   9886   9888     1   0.10969 276646.080000
   9889   9890     1   0.10969 276646.080000
   9889   9891     1   0.10969 276646.080000
   9892   9893     1   0.10969 276646.080000
   9892   9894     1   0.10969 276646.080000
   9895   9896     1   0.10969 276646.080000
   9895   9897     1   0.10969 276646.080000
   9900   9929     1   0.10304 312293.760000
   9901   9902     1   0.10910 283424.160000
   9901   9903     1   0.10910 283424.160000
   9904   9905     1   0.10910 283424.160000
   9904   9906     1   0.10910 283424.160000
   9907   9908     1   0.10910 283424.160000
   9907   9909     1   0.10910 283424.160000
   9910   9911     1   0.10969 276646.080000
   9910   9912     1   0.10969 276646.080000
   9913   9914     1   0.10969 276646.080000
   9913   9915     1   0.10969 276646.080000
   9916   9917     1   0.10969 276646.080000
   9916   9918     1   0.10969 276646.080000
   9919   9920     1   0.10969 276646.080000
   9919   9921     1   0.10969 276646.080000
   9922   9923     1   0.10969 276646.080000
   9922   9924     1   0.10969 276646.080000
   9925   9926     1   0.10969 276646.080000
   9925   9927     1   0.10969 276646.080000
   9930   9959     1   0.10304 312293.760000
   9931   9932     1   0.10910 283424.160000
   9931   9933     1   0.10910 283424.160000
   9934   9935     1   0.10910 283424.160000
   9934   9936     1   0.10910 283424.160000
   9937   9938     1   0.10910 283424.160000
   9937   9939     1   0.10910 283424.160000
   9940   9941     1   0.10969 276646.080000
   9940   9942     1   0.10969 276646.080000
   9943   9944     1   0.10969 276646.080000
   9943   9945     1   0.10969 276646.080000
   9946   9947     1   0.10969 276646.080000
   9946   9948     1   0.10969 276646.080000
   9949   9950     1   0.10969 276646.080000
   9949   9951     1   0.10969 276646.080000
   9952   9953     1   0.10969 276646.080000
   9952   9954     1   0.10969 276646.080000
   9955   9956     1   0.10969 276646.080000
   9955   9957     1   0.10969 276646.080000
   9960   9989     1   0.10304 312293.760000
   9961   9962     1   0.10910 283424.160000
   9961   9963     1   0.10910 283424.160000
   9964   9965     1   0.10910 283424.160000
   9964   9966     1   0.10910 283424.160000
   9967   9968     1   0.10910 283424.160000
   9967   9969     1   0.10910 283424.160000
   9970   9971     1   0.10969 276646.080000
   9970   9972     1   0.10969 276646.080000
   9973   9974     1   0.10969 276646.080000
   9973   9975     1   0.10969 276646.080000
   9976   9977     1   0.10969 276646.080000
   9976   9978     1   0.10969 276646.080000
   9979   9980     1   0.10969 276646.080000
   9979   9981     1   0.10969 276646.080000
   9982   9983     1   0.10969 276646.080000
   9982   9984     1   0.10969 276646.080000
   9985   9986     1   0.10969 276646.080000
   9985   9987     1   0.10969 276646.080000
   9990  10019     1   0.10304 312293.760000
   9991   9992     1   0.10910 283424.160000
   9991   9993     1   0.10910 283424.160000
   9994   9995     1   0.10910 283424.160000
   9994   9996     1   0.10910 283424.160000
   9997   9998     1   0.10910 283424.160000
   9997   9999     1   0.10910 283424.160000
  10000  10001     1   0.10969 276646.080000
  10000  10002     1   0.10969 276646.080000
  10003  10004     1   0.10969 276646.080000
  10003  10005     1   0.10969 276646.080000
  10006  10007     1   0.10969 276646.080000
  10006  10008     1   0.10969 276646.080000
  10009  10010     1   0.10969 276646.080000
  10009  10011     1   0.10969 276646.080000
  10012  10013     1   0.10969 276646.080000
  10012  10014     1   0.10969 276646.080000
  10015  10016     1   0.10969 276646.080000
  10015  10017     1   0.10969 276646.080000
  10020  10049     1   0.10304 312293.760000
  10021  10022     1   0.10910 283424.160000
  10021  10023     1   0.10910 283424.160000
  10024  10025     1   0.10910 283424.160000
  10024  10026     1   0.10910 283424.160000
  10027  10028     1   0.10910 283424.160000
  10027  10029     1   0.10910 283424.160000
  10030  10031     1   0.10969 276646.080000
  10030  10032     1   0.10969 276646.080000
  10033  10034     1   0.10969 276646.080000
  10033  10035     1   0.10969 276646.080000
  10036  10037     1   0.10969 276646.080000
  10036  10038     1   0.10969 276646.080000
  10039  10040     1   0.10969 276646.080000
  10039  10041     1   0.10969 276646.080000
  10042  10043     1   0.10969 276646.080000
  10042  10044     1   0.10969 276646.080000
  10045  10046     1   0.10969 276646.080000
  10045  10047     1   0.10969 276646.080000
  10050  10079     1   0.10304 312293.760000
  10051  10052     1   0.10910 283424.160000
  10051  10053     1   0.10910 283424.160000
  10054  10055     1   0.10910 283424.160000
  10054  10056     1   0.10910 283424.160000
  10057  10058     1   0.10910 283424.160000
  10057  10059     1   0.10910 283424.160000
  10060  10061     1   0.10969 276646.080000
  10060  10062     1   0.10969 276646.080000
  10063  10064     1   0.10969 276646.080000
  10063  10065     1   0.10969 276646.080000
  10066  10067     1   0.10969 276646.080000
  10066  10068     1   0.10969 276646.080000
  10069  10070     1   0.10969 276646.080000
  10069  10071     1   0.10969 276646.080000
  10072  10073     1   0.10969 276646.080000
  10072  10074     1   0.10969 276646.080000
  10075  10076     1   0.10969 276646.080000
  10075  10077     1   0.10969 276646.080000
  10080  10109     1   0.10304 312293.760000
  10081  10082     1   0.10910 283424.160000
  10081  10083     1   0.10910 283424.160000
  10084  10085     1   0.10910 283424.160000
  10084  10086     1   0.10910 283424.160000
  10087  10088     1   0.10910 283424.160000
  10087  10089     1   0.10910 283424.160000
  10090  10091     1   0.10969 276646.080000
  10090  10092     1   0.10969 276646.080000
  10093  10094     1   0.10969 276646.080000
  10093  10095     1   0.10969 276646.080000
  10096  10097     1   0.10969 276646.080000
  10096  10098     1   0.10969 276646.080000
  10099  10100     1   0.10969 276646.080000
  10099  10101     1   0.10969 276646.080000
  10102  10103     1   0.10969 276646.080000
  10102  10104     1   0.10969 276646.080000
  10105  10106     1   0.10969 276646.080000
  10105  10107     1   0.10969 276646.080000
  10110  10139     1   0.10304 312293.760000
  10111  10112     1   0.10910 283424.160000
  10111  10113     1   0.10910 283424.160000
  10114  10115     1   0.10910 283424.160000
  10114  10116     1   0.10910 283424.160000
  10117  10118     1   0.10910 283424.160000
  10117  10119     1   0.10910 283424.160000
  10120  10121     1   0.10969 276646.080000
  10120  10122     1   0.10969 276646.080000
  10123  10124     1   0.10969 276646.080000
  10123  10125     1   0.10969 276646.080000
  10126  10127     1   0.10969 276646.080000
  10126  10128     1   0.10969 276646.080000
  10129  10130     1   0.10969 276646.080000
  10129  10131     1   0.10969 276646.080000
  10132  10133     1   0.10969 276646.080000
  10132  10134     1   0.10969 276646.080000
  10135  10136     1   0.10969 276646.080000
  10135  10137     1   0.10969 276646.080000
  10140  10169     1   0.10304 312293.760000
  10141  10142     1   0.10910 283424.160000
  10141  10143     1   0.10910 283424.160000
  10144  10145     1   0.10910 283424.160000
  10144  10146     1   0.10910 283424.160000
  10147  10148     1   0.10910 283424.160000
  10147  10149     1   0.10910 283424.160000
  10150  10151     1   0.10969 276646.080000
  10150  10152     1   0.10969 276646.080000
  10153  10154     1   0.10969 276646.080000
  10153  10155     1   0.10969 276646.080000
  10156  10157     1   0.10969 276646.080000
  10156  10158     1   0.10969 276646.080000
  10159  10160     1   0.10969 276646.080000
  10159  10161     1   0.10969 276646.080000
  10162  10163     1   0.10969 276646.080000
  10162  10164     1   0.10969 276646.080000
  10165  10166     1   0.10969 276646.080000
  10165  10167     1   0.10969 276646.080000
  10170  10199     1   0.10304 312293.760000
  10171  10172     1   0.10910 283424.160000
  10171  10173     1   0.10910 283424.160000
  10174  10175     1   0.10910 283424.160000
  10174  10176     1   0.10910 283424.160000
  10177  10178     1   0.10910 283424.160000
  10177  10179     1   0.10910 283424.160000
  10180  10181     1   0.10969 276646.080000
  10180  10182     1   0.10969 276646.080000
  10183  10184     1   0.10969 276646.080000
  10183  10185     1   0.10969 276646.080000
  10186  10187     1   0.10969 276646.080000
  10186  10188     1   0.10969 276646.080000
  10189  10190     1   0.10969 276646.080000
  10189  10191     1   0.10969 276646.080000
  10192  10193     1   0.10969 276646.080000
  10192  10194     1   0.10969 276646.080000
  10195  10196     1   0.10969 276646.080000
  10195  10197     1   0.10969 276646.080000
  10200  10229     1   0.10304 312293.760000
  10201  10202     1   0.10910 283424.160000
  10201  10203     1   0.10910 283424.160000
  10204  10205     1   0.10910 283424.160000
  10204  10206     1   0.10910 283424.160000
  10207  10208     1   0.10910 283424.160000
  10207  10209     1   0.10910 283424.160000
  10210  10211     1   0.10969 276646.080000
  10210  10212     1   0.10969 276646.080000
  10213  10214     1   0.10969 276646.080000
  10213  10215     1   0.10969 276646.080000
  10216  10217     1   0.10969 276646.080000
  10216  10218     1   0.10969 276646.080000
  10219  10220     1   0.10969 276646.080000
  10219  10221     1   0.10969 276646.080000
  10222  10223     1   0.10969 276646.080000
  10222  10224     1   0.10969 276646.080000
  10225  10226     1   0.10969 276646.080000
  10225  10227     1   0.10969 276646.080000
  10230  10259     1   0.10304 312293.760000
  10231  10232     1   0.10910 283424.160000
  10231  10233     1   0.10910 283424.160000
  10234  10235     1   0.10910 283424.160000
  10234  10236     1   0.10910 283424.160000
  10237  10238     1   0.10910 283424.160000
  10237  10239     1   0.10910 283424.160000
  10240  10241     1   0.10969 276646.080000
  10240  10242     1   0.10969 276646.080000
  10243  10244     1   0.10969 276646.080000
  10243  10245     1   0.10969 276646.080000
  10246  10247     1   0.10969 276646.080000
  10246  10248     1   0.10969 276646.080000
  10249  10250     1   0.10969 276646.080000
  10249  10251     1   0.10969 276646.080000
  10252  10253     1   0.10969 276646.080000
  10252  10254     1   0.10969 276646.080000
  10255  10256     1   0.10969 276646.080000
  10255  10257     1   0.10969 276646.080000
  10260  10289     1   0.10304 312293.760000
  10261  10262     1   0.10910 283424.160000
  10261  10263     1   0.10910 283424.160000
  10264  10265     1   0.10910 283424.160000
  10264  10266     1   0.10910 283424.160000
  10267  10268     1   0.10910 283424.160000
  10267  10269     1   0.10910 283424.160000
  10270  10271     1   0.10969 276646.080000
  10270  10272     1   0.10969 276646.080000
  10273  10274     1   0.10969 276646.080000
  10273  10275     1   0.10969 276646.080000
  10276  10277     1   0.10969 276646.080000
  10276  10278     1   0.10969 276646.080000
  10279  10280     1   0.10969 276646.080000
  10279  10281     1   0.10969 276646.080000
  10282  10283     1   0.10969 276646.080000
  10282  10284     1   0.10969 276646.080000
  10285  10286     1   0.10969 276646.080000
  10285  10287     1   0.10969 276646.080000
  10290  10319     1   0.10304 312293.760000
  10291  10292     1   0.10910 283424.160000
  10291  10293     1   0.10910 283424.160000
  10294  10295     1   0.10910 283424.160000
  10294  10296     1   0.10910 283424.160000
  10297  10298     1   0.10910 283424.160000
  10297  10299     1   0.10910 283424.160000
  10300  10301     1   0.10969 276646.080000
  10300  10302     1   0.10969 276646.080000
  10303  10304     1   0.10969 276646.080000
  10303  10305     1   0.10969 276646.080000
  10306  10307     1   0.10969 276646.080000
  10306  10308     1   0.10969 276646.080000
  10309  10310     1   0.10969 276646.080000
  10309  10311     1   0.10969 276646.080000
  10312  10313     1   0.10969 276646.080000
  10312  10314     1   0.10969 276646.080000
  10315  10316     1   0.10969 276646.080000
  10315  10317     1   0.10969 276646.080000
  10320  10349     1   0.10304 312293.760000
  10321  10322     1   0.10910 283424.160000
  10321  10323     1   0.10910 283424.160000
  10324  10325     1   0.10910 283424.160000
  10324  10326     1   0.10910 283424.160000
  10327  10328     1   0.10910 283424.160000
  10327  10329     1   0.10910 283424.160000
  10330  10331     1   0.10969 276646.080000
  10330  10332     1   0.10969 276646.080000
  10333  10334     1   0.10969 276646.080000
  10333  10335     1   0.10969 276646.080000
  10336  10337     1   0.10969 276646.080000
  10336  10338     1   0.10969 276646.080000
  10339  10340     1   0.10969 276646.080000
  10339  10341     1   0.10969 276646.080000
  10342  10343     1   0.10969 276646.080000
  10342  10344     1   0.10969 276646.080000
  10345  10346     1   0.10969 276646.080000
  10345  10347     1   0.10969 276646.080000
  10350  10379     1   0.10304 312293.760000
  10351  10352     1   0.10910 283424.160000
  10351  10353     1   0.10910 283424.160000
  10354  10355     1   0.10910 283424.160000
  10354  10356     1   0.10910 283424.160000
  10357  10358     1   0.10910 283424.160000
  10357  10359     1   0.10910 283424.160000
  10360  10361     1   0.10969 276646.080000
  10360  10362     1   0.10969 276646.080000
  10363  10364     1   0.10969 276646.080000
  10363  10365     1   0.10969 276646.080000
  10366  10367     1   0.10969 276646.080000
  10366  10368     1   0.10969 276646.080000
  10369  10370     1   0.10969 276646.080000
  10369  10371     1   0.10969 276646.080000
  10372  10373     1   0.10969 276646.080000
  10372  10374     1   0.10969 276646.080000
  10375  10376     1   0.10969 276646.080000
  10375  10377     1   0.10969 276646.080000
  10380  10409     1   0.10304 312293.760000
  10381  10382     1   0.10910 283424.160000
  10381  10383     1   0.10910 283424.160000
  10384  10385     1   0.10910 283424.160000
  10384  10386     1   0.10910 283424.160000
  10387  10388     1   0.10910 283424.160000
  10387  10389     1   0.10910 283424.160000
  10390  10391     1   0.10969 276646.080000
  10390  10392     1   0.10969 276646.080000
  10393  10394     1   0.10969 276646.080000
  10393  10395     1   0.10969 276646.080000
  10396  10397     1   0.10969 276646.080000
  10396  10398     1   0.10969 276646.080000
  10399  10400     1   0.10969 276646.080000
  10399  10401     1   0.10969 276646.080000
  10402  10403     1   0.10969 276646.080000
  10402  10404     1   0.10969 276646.080000
  10405  10406     1   0.10969 276646.080000
  10405  10407     1   0.10969 276646.080000
  10410  10439     1   0.10304 312293.760000
  10411  10412     1   0.10910 283424.160000
  10411  10413     1   0.10910 283424.160000
  10414  10415     1   0.10910 283424.160000
  10414  10416     1   0.10910 283424.160000
  10417  10418     1   0.10910 283424.160000
  10417  10419     1   0.10910 283424.160000
  10420  10421     1   0.10969 276646.080000
  10420  10422     1   0.10969 276646.080000
  10423  10424     1   0.10969 276646.080000
  10423  10425     1   0.10969 276646.080000
  10426  10427     1   0.10969 276646.080000
  10426  10428     1   0.10969 276646.080000
  10429  10430     1   0.10969 276646.080000
  10429  10431     1   0.10969 276646.080000
  10432  10433     1   0.10969 276646.080000
  10432  10434     1   0.10969 276646.080000
  10435  10436     1   0.10969 276646.080000
  10435  10437     1   0.10969 276646.080000
  10440  10469     1   0.10304 312293.760000
  10441  10442     1   0.10910 283424.160000
  10441  10443     1   0.10910 283424.160000
  10444  10445     1   0.10910 283424.160000
  10444  10446     1   0.10910 283424.160000
  10447  10448     1   0.10910 283424.160000
  10447  10449     1   0.10910 283424.160000
  10450  10451     1   0.10969 276646.080000
  10450  10452     1   0.10969 276646.080000
  10453  10454     1   0.10969 276646.080000
  10453  10455     1   0.10969 276646.080000
  10456  10457     1   0.10969 276646.080000
  10456  10458     1   0.10969 276646.080000
  10459  10460     1   0.10969 276646.080000
  10459  10461     1   0.10969 276646.080000
  10462  10463     1   0.10969 276646.080000
  10462  10464     1   0.10969 276646.080000
  10465  10466     1   0.10969 276646.080000
  10465  10467     1   0.10969 276646.080000
  10470  10499     1   0.10304 312293.760000
  10471  10472     1   0.10910 283424.160000
  10471  10473     1   0.10910 283424.160000
  10474  10475     1   0.10910 283424.160000
  10474  10476     1   0.10910 283424.160000
  10477  10478     1   0.10910 283424.160000
  10477  10479     1   0.10910 283424.160000
  10480  10481     1   0.10969 276646.080000
  10480  10482     1   0.10969 276646.080000
  10483  10484     1   0.10969 276646.080000
  10483  10485     1   0.10969 276646.080000
  10486  10487     1   0.10969 276646.080000
  10486  10488     1   0.10969 276646.080000
  10489  10490     1   0.10969 276646.080000
  10489  10491     1   0.10969 276646.080000
  10492  10493     1   0.10969 276646.080000
  10492  10494     1   0.10969 276646.080000
  10495  10496     1   0.10969 276646.080000
  10495  10497     1   0.10969 276646.080000
  10500  10529     1   0.10304 312293.760000
  10501  10502     1   0.10910 283424.160000
  10501  10503     1   0.10910 283424.160000
  10504  10505     1   0.10910 283424.160000
  10504  10506     1   0.10910 283424.160000
  10507  10508     1   0.10910 283424.160000
  10507  10509     1   0.10910 283424.160000
  10510  10511     1   0.10969 276646.080000
  10510  10512     1   0.10969 276646.080000
  10513  10514     1   0.10969 276646.080000
  10513  10515     1   0.10969 276646.080000
  10516  10517     1   0.10969 276646.080000
  10516  10518     1   0.10969 276646.080000
  10519  10520     1   0.10969 276646.080000
  10519  10521     1   0.10969 276646.080000
  10522  10523     1   0.10969 276646.080000
  10522  10524     1   0.10969 276646.080000
  10525  10526     1   0.10969 276646.080000
  10525  10527     1   0.10969 276646.080000
  10530  10559     1   0.10304 312293.760000
  10531  10532     1   0.10910 283424.160000
  10531  10533     1   0.10910 283424.160000
  10534  10535     1   0.10910 283424.160000
  10534  10536     1   0.10910 283424.160000
  10537  10538     1   0.10910 283424.160000
  10537  10539     1   0.10910 283424.160000
  10540  10541     1   0.10969 276646.080000
  10540  10542     1   0.10969 276646.080000
  10543  10544     1   0.10969 276646.080000
  10543  10545     1   0.10969 276646.080000
  10546  10547     1   0.10969 276646.080000
  10546  10548     1   0.10969 276646.080000
  10549  10550     1   0.10969 276646.080000
  10549  10551     1   0.10969 276646.080000
  10552  10553     1   0.10969 276646.080000
  10552  10554     1   0.10969 276646.080000
  10555  10556     1   0.10969 276646.080000
  10555  10557     1   0.10969 276646.080000
  10560  10589     1   0.10304 312293.760000
  10561  10562     1   0.10910 283424.160000
  10561  10563     1   0.10910 283424.160000
  10564  10565     1   0.10910 283424.160000
  10564  10566     1   0.10910 283424.160000
  10567  10568     1   0.10910 283424.160000
  10567  10569     1   0.10910 283424.160000
  10570  10571     1   0.10969 276646.080000
  10570  10572     1   0.10969 276646.080000
  10573  10574     1   0.10969 276646.080000
  10573  10575     1   0.10969 276646.080000
  10576  10577     1   0.10969 276646.080000
  10576  10578     1   0.10969 276646.080000
  10579  10580     1   0.10969 276646.080000
  10579  10581     1   0.10969 276646.080000
  10582  10583     1   0.10969 276646.080000
  10582  10584     1   0.10969 276646.080000
  10585  10586     1   0.10969 276646.080000
  10585  10587     1   0.10969 276646.080000
  10590  10619     1   0.10304 312293.760000
  10591  10592     1   0.10910 283424.160000
  10591  10593     1   0.10910 283424.160000
  10594  10595     1   0.10910 283424.160000
  10594  10596     1   0.10910 283424.160000
  10597  10598     1   0.10910 283424.160000
  10597  10599     1   0.10910 283424.160000
  10600  10601     1   0.10969 276646.080000
  10600  10602     1   0.10969 276646.080000
  10603  10604     1   0.10969 276646.080000
  10603  10605     1   0.10969 276646.080000
  10606  10607     1   0.10969 276646.080000
  10606  10608     1   0.10969 276646.080000
  10609  10610     1   0.10969 276646.080000
  10609  10611     1   0.10969 276646.080000
  10612  10613     1   0.10969 276646.080000
  10612  10614     1   0.10969 276646.080000
  10615  10616     1   0.10969 276646.080000
  10615  10617     1   0.10969 276646.080000
  10620  10649     1   0.10304 312293.760000
  10621  10622     1   0.10910 283424.160000
  10621  10623     1   0.10910 283424.160000
  10624  10625     1   0.10910 283424.160000
  10624  10626     1   0.10910 283424.160000
  10627  10628     1   0.10910 283424.160000
  10627  10629     1   0.10910 283424.160000
  10630  10631     1   0.10969 276646.080000
  10630  10632     1   0.10969 276646.080000
  10633  10634     1   0.10969 276646.080000
  10633  10635     1   0.10969 276646.080000
  10636  10637     1   0.10969 276646.080000
  10636  10638     1   0.10969 276646.080000
  10639  10640     1   0.10969 276646.080000
  10639  10641     1   0.10969 276646.080000
  10642  10643     1   0.10969 276646.080000
  10642  10644     1   0.10969 276646.080000
  10645  10646     1   0.10969 276646.080000
  10645  10647     1   0.10969 276646.080000
  10650  10679     1   0.10304 312293.760000
  10651  10652     1   0.10910 283424.160000
  10651  10653     1   0.10910 283424.160000
  10654  10655     1   0.10910 283424.160000
  10654  10656     1   0.10910 283424.160000
  10657  10658     1   0.10910 283424.160000
  10657  10659     1   0.10910 283424.160000
  10660  10661     1   0.10969 276646.080000
  10660  10662     1   0.10969 276646.080000
  10663  10664     1   0.10969 276646.080000
  10663  10665     1   0.10969 276646.080000
  10666  10667     1   0.10969 276646.080000
  10666  10668     1   0.10969 276646.080000
  10669  10670     1   0.10969 276646.080000
  10669  10671     1   0.10969 276646.080000
  10672  10673     1   0.10969 276646.080000
  10672  10674     1   0.10969 276646.080000
  10675  10676     1   0.10969 276646.080000
  10675  10677     1   0.10969 276646.080000
  10680  10709     1   0.10304 312293.760000
  10681  10682     1   0.10910 283424.160000
  10681  10683     1   0.10910 283424.160000
  10684  10685     1   0.10910 283424.160000
  10684  10686     1   0.10910 283424.160000
  10687  10688     1   0.10910 283424.160000
  10687  10689     1   0.10910 283424.160000
  10690  10691     1   0.10969 276646.080000
  10690  10692     1   0.10969 276646.080000
  10693  10694     1   0.10969 276646.080000
  10693  10695     1   0.10969 276646.080000
  10696  10697     1   0.10969 276646.080000
  10696  10698     1   0.10969 276646.080000
  10699  10700     1   0.10969 276646.080000
  10699  10701     1   0.10969 276646.080000
  10702  10703     1   0.10969 276646.080000
  10702  10704     1   0.10969 276646.080000
  10705  10706     1   0.10969 276646.080000
  10705  10707     1   0.10969 276646.080000
  10710  10739     1   0.10304 312293.760000
  10711  10712     1   0.10910 283424.160000
  10711  10713     1   0.10910 283424.160000
  10714  10715     1   0.10910 283424.160000
  10714  10716     1   0.10910 283424.160000
  10717  10718     1   0.10910 283424.160000
  10717  10719     1   0.10910 283424.160000
  10720  10721     1   0.10969 276646.080000
  10720  10722     1   0.10969 276646.080000
  10723  10724     1   0.10969 276646.080000
  10723  10725     1   0.10969 276646.080000
  10726  10727     1   0.10969 276646.080000
  10726  10728     1   0.10969 276646.080000
  10729  10730     1   0.10969 276646.080000
  10729  10731     1   0.10969 276646.080000
  10732  10733     1   0.10969 276646.080000
  10732  10734     1   0.10969 276646.080000
  10735  10736     1   0.10969 276646.080000
  10735  10737     1   0.10969 276646.080000
  10740  10769     1   0.10304 312293.760000
  10741  10742     1   0.10910 283424.160000
  10741  10743     1   0.10910 283424.160000
  10744  10745     1   0.10910 283424.160000
  10744  10746     1   0.10910 283424.160000
  10747  10748     1   0.10910 283424.160000
  10747  10749     1   0.10910 283424.160000
  10750  10751     1   0.10969 276646.080000
  10750  10752     1   0.10969 276646.080000
  10753  10754     1   0.10969 276646.080000
  10753  10755     1   0.10969 276646.080000
  10756  10757     1   0.10969 276646.080000
  10756  10758     1   0.10969 276646.080000
  10759  10760     1   0.10969 276646.080000
  10759  10761     1   0.10969 276646.080000
  10762  10763     1   0.10969 276646.080000
  10762  10764     1   0.10969 276646.080000
  10765  10766     1   0.10969 276646.080000
  10765  10767     1   0.10969 276646.080000
  10770  10799     1   0.10304 312293.760000
  10771  10772     1   0.10910 283424.160000
  10771  10773     1   0.10910 283424.160000
  10774  10775     1   0.10910 283424.160000
  10774  10776     1   0.10910 283424.160000
  10777  10778     1   0.10910 283424.160000
  10777  10779     1   0.10910 283424.160000
  10780  10781     1   0.10969 276646.080000
  10780  10782     1   0.10969 276646.080000
  10783  10784     1   0.10969 276646.080000
  10783  10785     1   0.10969 276646.080000
  10786  10787     1   0.10969 276646.080000
  10786  10788     1   0.10969 276646.080000
  10789  10790     1   0.10969 276646.080000
  10789  10791     1   0.10969 276646.080000
  10792  10793     1   0.10969 276646.080000
  10792  10794     1   0.10969 276646.080000
  10795  10796     1   0.10969 276646.080000
  10795  10797     1   0.10969 276646.080000
  10800  10829     1   0.10304 312293.760000
  10801  10802     1   0.10910 283424.160000
  10801  10803     1   0.10910 283424.160000
  10804  10805     1   0.10910 283424.160000
  10804  10806     1   0.10910 283424.160000
  10807  10808     1   0.10910 283424.160000
  10807  10809     1   0.10910 283424.160000
  10810  10811     1   0.10969 276646.080000
  10810  10812     1   0.10969 276646.080000
  10813  10814     1   0.10969 276646.080000
  10813  10815     1   0.10969 276646.080000
  10816  10817     1   0.10969 276646.080000
  10816  10818     1   0.10969 276646.080000
  10819  10820     1   0.10969 276646.080000
  10819  10821     1   0.10969 276646.080000
  10822  10823     1   0.10969 276646.080000
  10822  10824     1   0.10969 276646.080000
  10825  10826     1   0.10969 276646.080000
  10825  10827     1   0.10969 276646.080000
  10830  10859     1   0.10304 312293.760000
  10831  10832     1   0.10910 283424.160000
  10831  10833     1   0.10910 283424.160000
  10834  10835     1   0.10910 283424.160000
  10834  10836     1   0.10910 283424.160000
  10837  10838     1   0.10910 283424.160000
  10837  10839     1   0.10910 283424.160000
  10840  10841     1   0.10969 276646.080000
  10840  10842     1   0.10969 276646.080000
  10843  10844     1   0.10969 276646.080000
  10843  10845     1   0.10969 276646.080000
  10846  10847     1   0.10969 276646.080000
  10846  10848     1   0.10969 276646.080000
  10849  10850     1   0.10969 276646.080000
  10849  10851     1   0.10969 276646.080000
  10852  10853     1   0.10969 276646.080000
  10852  10854     1   0.10969 276646.080000
  10855  10856     1   0.10969 276646.080000
  10855  10857     1   0.10969 276646.080000
  10860  10889     1   0.10304 312293.760000
  10861  10862     1   0.10910 283424.160000
  10861  10863     1   0.10910 283424.160000
  10864  10865     1   0.10910 283424.160000
  10864  10866     1   0.10910 283424.160000
  10867  10868     1   0.10910 283424.160000
  10867  10869     1   0.10910 283424.160000
  10870  10871     1   0.10969 276646.080000
  10870  10872     1   0.10969 276646.080000
  10873  10874     1   0.10969 276646.080000
  10873  10875     1   0.10969 276646.080000
  10876  10877     1   0.10969 276646.080000
  10876  10878     1   0.10969 276646.080000
  10879  10880     1   0.10969 276646.080000
  10879  10881     1   0.10969 276646.080000
  10882  10883     1   0.10969 276646.080000
  10882  10884     1   0.10969 276646.080000
  10885  10886     1   0.10969 276646.080000
  10885  10887     1   0.10969 276646.080000
  10890  10919     1   0.10304 312293.760000
  10891  10892     1   0.10910 283424.160000
  10891  10893     1   0.10910 283424.160000
  10894  10895     1   0.10910 283424.160000
  10894  10896     1   0.10910 283424.160000
  10897  10898     1   0.10910 283424.160000
  10897  10899     1   0.10910 283424.160000
  10900  10901     1   0.10969 276646.080000
  10900  10902     1   0.10969 276646.080000
  10903  10904     1   0.10969 276646.080000
  10903  10905     1   0.10969 276646.080000
  10906  10907     1   0.10969 276646.080000
  10906  10908     1   0.10969 276646.080000
  10909  10910     1   0.10969 276646.080000
  10909  10911     1   0.10969 276646.080000
  10912  10913     1   0.10969 276646.080000
  10912  10914     1   0.10969 276646.080000
  10915  10916     1   0.10969 276646.080000
  10915  10917     1   0.10969 276646.080000
  10920  10949     1   0.10304 312293.760000
  10921  10922     1   0.10910 283424.160000
  10921  10923     1   0.10910 283424.160000
  10924  10925     1   0.10910 283424.160000
  10924  10926     1   0.10910 283424.160000
  10927  10928     1   0.10910 283424.160000
  10927  10929     1   0.10910 283424.160000
  10930  10931     1   0.10969 276646.080000
  10930  10932     1   0.10969 276646.080000
  10933  10934     1   0.10969 276646.080000
  10933  10935     1   0.10969 276646.080000
  10936  10937     1   0.10969 276646.080000
  10936  10938     1   0.10969 276646.080000
  10939  10940     1   0.10969 276646.080000
  10939  10941     1   0.10969 276646.080000
  10942  10943     1   0.10969 276646.080000
  10942  10944     1   0.10969 276646.080000
  10945  10946     1   0.10969 276646.080000
  10945  10947     1   0.10969 276646.080000
  10950  10979     1   0.10304 312293.760000
  10951  10952     1   0.10910 283424.160000
  10951  10953     1   0.10910 283424.160000
  10954  10955     1   0.10910 283424.160000
  10954  10956     1   0.10910 283424.160000
  10957  10958     1   0.10910 283424.160000
  10957  10959     1   0.10910 283424.160000
  10960  10961     1   0.10969 276646.080000
  10960  10962     1   0.10969 276646.080000
  10963  10964     1   0.10969 276646.080000
  10963  10965     1   0.10969 276646.080000
  10966  10967     1   0.10969 276646.080000
  10966  10968     1   0.10969 276646.080000
  10969  10970     1   0.10969 276646.080000
  10969  10971     1   0.10969 276646.080000
  10972  10973     1   0.10969 276646.080000
  10972  10974     1   0.10969 276646.080000
  10975  10976     1   0.10969 276646.080000
  10975  10977     1   0.10969 276646.080000
  10980  11009     1   0.10304 312293.760000
  10981  10982     1   0.10910 283424.160000
  10981  10983     1   0.10910 283424.160000
  10984  10985     1   0.10910 283424.160000
  10984  10986     1   0.10910 283424.160000
  10987  10988     1   0.10910 283424.160000
  10987  10989     1   0.10910 283424.160000
  10990  10991     1   0.10969 276646.080000
  10990  10992     1   0.10969 276646.080000
  10993  10994     1   0.10969 276646.080000
  10993  10995     1   0.10969 276646.080000
  10996  10997     1   0.10969 276646.080000
  10996  10998     1   0.10969 276646.080000
  10999  11000     1   0.10969 276646.080000
  10999  11001     1   0.10969 276646.080000
  11002  11003     1   0.10969 276646.080000
  11002  11004     1   0.10969 276646.080000
  11005  11006     1   0.10969 276646.080000
  11005  11007     1   0.10969 276646.080000
  11010  11039     1   0.10304 312293.760000
  11011  11012     1   0.10910 283424.160000
  11011  11013     1   0.10910 283424.160000
  11014  11015     1   0.10910 283424.160000
  11014  11016     1   0.10910 283424.160000
  11017  11018     1   0.10910 283424.160000
  11017  11019     1   0.10910 283424.160000
  11020  11021     1   0.10969 276646.080000
  11020  11022     1   0.10969 276646.080000
  11023  11024     1   0.10969 276646.080000
  11023  11025     1   0.10969 276646.080000
  11026  11027     1   0.10969 276646.080000
  11026  11028     1   0.10969 276646.080000
  11029  11030     1   0.10969 276646.080000
  11029  11031     1   0.10969 276646.080000
  11032  11033     1   0.10969 276646.080000
  11032  11034     1   0.10969 276646.080000
  11035  11036     1   0.10969 276646.080000
  11035  11037     1   0.10969 276646.080000
  11040  11069     1   0.10304 312293.760000
  11041  11042     1   0.10910 283424.160000
  11041  11043     1   0.10910 283424.160000
  11044  11045     1   0.10910 283424.160000
  11044  11046     1   0.10910 283424.160000
  11047  11048     1   0.10910 283424.160000
  11047  11049     1   0.10910 283424.160000
  11050  11051     1   0.10969 276646.080000
  11050  11052     1   0.10969 276646.080000
  11053  11054     1   0.10969 276646.080000
  11053  11055     1   0.10969 276646.080000
  11056  11057     1   0.10969 276646.080000
  11056  11058     1   0.10969 276646.080000
  11059  11060     1   0.10969 276646.080000
  11059  11061     1   0.10969 276646.080000
  11062  11063     1   0.10969 276646.080000
  11062  11064     1   0.10969 276646.080000
  11065  11066     1   0.10969 276646.080000
  11065  11067     1   0.10969 276646.080000
  11070  11099     1   0.10304 312293.760000
  11071  11072     1   0.10910 283424.160000
  11071  11073     1   0.10910 283424.160000
  11074  11075     1   0.10910 283424.160000
  11074  11076     1   0.10910 283424.160000
  11077  11078     1   0.10910 283424.160000
  11077  11079     1   0.10910 283424.160000
  11080  11081     1   0.10969 276646.080000
  11080  11082     1   0.10969 276646.080000
  11083  11084     1   0.10969 276646.080000
  11083  11085     1   0.10969 276646.080000
  11086  11087     1   0.10969 276646.080000
  11086  11088     1   0.10969 276646.080000
  11089  11090     1   0.10969 276646.080000
  11089  11091     1   0.10969 276646.080000
  11092  11093     1   0.10969 276646.080000
  11092  11094     1   0.10969 276646.080000
  11095  11096     1   0.10969 276646.080000
  11095  11097     1   0.10969 276646.080000
  11100  11129     1   0.10304 312293.760000
  11101  11102     1   0.10910 283424.160000
  11101  11103     1   0.10910 283424.160000
  11104  11105     1   0.10910 283424.160000
  11104  11106     1   0.10910 283424.160000
  11107  11108     1   0.10910 283424.160000
  11107  11109     1   0.10910 283424.160000
  11110  11111     1   0.10969 276646.080000
  11110  11112     1   0.10969 276646.080000
  11113  11114     1   0.10969 276646.080000
  11113  11115     1   0.10969 276646.080000
  11116  11117     1   0.10969 276646.080000
  11116  11118     1   0.10969 276646.080000
  11119  11120     1   0.10969 276646.080000
  11119  11121     1   0.10969 276646.080000
  11122  11123     1   0.10969 276646.080000
  11122  11124     1   0.10969 276646.080000
  11125  11126     1   0.10969 276646.080000
  11125  11127     1   0.10969 276646.080000
  11130  11159     1   0.10304 312293.760000
  11131  11132     1   0.10910 283424.160000
  11131  11133     1   0.10910 283424.160000
  11134  11135     1   0.10910 283424.160000
  11134  11136     1   0.10910 283424.160000
  11137  11138     1   0.10910 283424.160000
  11137  11139     1   0.10910 283424.160000
  11140  11141     1   0.10969 276646.080000
  11140  11142     1   0.10969 276646.080000
  11143  11144     1   0.10969 276646.080000
  11143  11145     1   0.10969 276646.080000
  11146  11147     1   0.10969 276646.080000
  11146  11148     1   0.10969 276646.080000
  11149  11150     1   0.10969 276646.080000
  11149  11151     1   0.10969 276646.080000
  11152  11153     1   0.10969 276646.080000
  11152  11154     1   0.10969 276646.080000
  11155  11156     1   0.10969 276646.080000
  11155  11157     1   0.10969 276646.080000
  11160  11189     1   0.10304 312293.760000
  11161  11162     1   0.10910 283424.160000
  11161  11163     1   0.10910 283424.160000
  11164  11165     1   0.10910 283424.160000
  11164  11166     1   0.10910 283424.160000
  11167  11168     1   0.10910 283424.160000
  11167  11169     1   0.10910 283424.160000
  11170  11171     1   0.10969 276646.080000
  11170  11172     1   0.10969 276646.080000
  11173  11174     1   0.10969 276646.080000
  11173  11175     1   0.10969 276646.080000
  11176  11177     1   0.10969 276646.080000
  11176  11178     1   0.10969 276646.080000
  11179  11180     1   0.10969 276646.080000
  11179  11181     1   0.10969 276646.080000
  11182  11183     1   0.10969 276646.080000
  11182  11184     1   0.10969 276646.080000
  11185  11186     1   0.10969 276646.080000
  11185  11187     1   0.10969 276646.080000
  11190  11219     1   0.10304 312293.760000
  11191  11192     1   0.10910 283424.160000
  11191  11193     1   0.10910 283424.160000
  11194  11195     1   0.10910 283424.160000
  11194  11196     1   0.10910 283424.160000
  11197  11198     1   0.10910 283424.160000
  11197  11199     1   0.10910 283424.160000
  11200  11201     1   0.10969 276646.080000
  11200  11202     1   0.10969 276646.080000
  11203  11204     1   0.10969 276646.080000
  11203  11205     1   0.10969 276646.080000
  11206  11207     1   0.10969 276646.080000
  11206  11208     1   0.10969 276646.080000
  11209  11210     1   0.10969 276646.080000
  11209  11211     1   0.10969 276646.080000
  11212  11213     1   0.10969 276646.080000
  11212  11214     1   0.10969 276646.080000
  11215  11216     1   0.10969 276646.080000
  11215  11217     1   0.10969 276646.080000
  11220  11249     1   0.10304 312293.760000
  11221  11222     1   0.10910 283424.160000
  11221  11223     1   0.10910 283424.160000
  11224  11225     1   0.10910 283424.160000
  11224  11226     1   0.10910 283424.160000
  11227  11228     1   0.10910 283424.160000
  11227  11229     1   0.10910 283424.160000
  11230  11231     1   0.10969 276646.080000
  11230  11232     1   0.10969 276646.080000
  11233  11234     1   0.10969 276646.080000
  11233  11235     1   0.10969 276646.080000
  11236  11237     1   0.10969 276646.080000
  11236  11238     1   0.10969 276646.080000
  11239  11240     1   0.10969 276646.080000
  11239  11241     1   0.10969 276646.080000
  11242  11243     1   0.10969 276646.080000
  11242  11244     1   0.10969 276646.080000
  11245  11246     1   0.10969 276646.080000
  11245  11247     1   0.10969 276646.080000
  11250  11279     1   0.10304 312293.760000
  11251  11252     1   0.10910 283424.160000
  11251  11253     1   0.10910 283424.160000
  11254  11255     1   0.10910 283424.160000
  11254  11256     1   0.10910 283424.160000
  11257  11258     1   0.10910 283424.160000
  11257  11259     1   0.10910 283424.160000
  11260  11261     1   0.10969 276646.080000
  11260  11262     1   0.10969 276646.080000
  11263  11264     1   0.10969 276646.080000
  11263  11265     1   0.10969 276646.080000
  11266  11267     1   0.10969 276646.080000
  11266  11268     1   0.10969 276646.080000
  11269  11270     1   0.10969 276646.080000
  11269  11271     1   0.10969 276646.080000
  11272  11273     1   0.10969 276646.080000
  11272  11274     1   0.10969 276646.080000
  11275  11276     1   0.10969 276646.080000
  11275  11277     1   0.10969 276646.080000
  11280  11309     1   0.10304 312293.760000
  11281  11282     1   0.10910 283424.160000
  11281  11283     1   0.10910 283424.160000
  11284  11285     1   0.10910 283424.160000
  11284  11286     1   0.10910 283424.160000
  11287  11288     1   0.10910 283424.160000
  11287  11289     1   0.10910 283424.160000
  11290  11291     1   0.10969 276646.080000
  11290  11292     1   0.10969 276646.080000
  11293  11294     1   0.10969 276646.080000
  11293  11295     1   0.10969 276646.080000
  11296  11297     1   0.10969 276646.080000
  11296  11298     1   0.10969 276646.080000
  11299  11300     1   0.10969 276646.080000
  11299  11301     1   0.10969 276646.080000
  11302  11303     1   0.10969 276646.080000
  11302  11304     1   0.10969 276646.080000
  11305  11306     1   0.10969 276646.080000
  11305  11307     1   0.10969 276646.080000
  11310  11339     1   0.10304 312293.760000
  11311  11312     1   0.10910 283424.160000
  11311  11313     1   0.10910 283424.160000
  11314  11315     1   0.10910 283424.160000
  11314  11316     1   0.10910 283424.160000
  11317  11318     1   0.10910 283424.160000
  11317  11319     1   0.10910 283424.160000
  11320  11321     1   0.10969 276646.080000
  11320  11322     1   0.10969 276646.080000
  11323  11324     1   0.10969 276646.080000
  11323  11325     1   0.10969 276646.080000
  11326  11327     1   0.10969 276646.080000
  11326  11328     1   0.10969 276646.080000
  11329  11330     1   0.10969 276646.080000
  11329  11331     1   0.10969 276646.080000
  11332  11333     1   0.10969 276646.080000
  11332  11334     1   0.10969 276646.080000
  11335  11336     1   0.10969 276646.080000
  11335  11337     1   0.10969 276646.080000
  11340  11369     1   0.10304 312293.760000
  11341  11342     1   0.10910 283424.160000
  11341  11343     1   0.10910 283424.160000
  11344  11345     1   0.10910 283424.160000
  11344  11346     1   0.10910 283424.160000
  11347  11348     1   0.10910 283424.160000
  11347  11349     1   0.10910 283424.160000
  11350  11351     1   0.10969 276646.080000
  11350  11352     1   0.10969 276646.080000
  11353  11354     1   0.10969 276646.080000
  11353  11355     1   0.10969 276646.080000
  11356  11357     1   0.10969 276646.080000
  11356  11358     1   0.10969 276646.080000
  11359  11360     1   0.10969 276646.080000
  11359  11361     1   0.10969 276646.080000
  11362  11363     1   0.10969 276646.080000
  11362  11364     1   0.10969 276646.080000
  11365  11366     1   0.10969 276646.080000
  11365  11367     1   0.10969 276646.080000
  11370  11399     1   0.10304 312293.760000
  11371  11372     1   0.10910 283424.160000
  11371  11373     1   0.10910 283424.160000
  11374  11375     1   0.10910 283424.160000
  11374  11376     1   0.10910 283424.160000
  11377  11378     1   0.10910 283424.160000
  11377  11379     1   0.10910 283424.160000
  11380  11381     1   0.10969 276646.080000
  11380  11382     1   0.10969 276646.080000
  11383  11384     1   0.10969 276646.080000
  11383  11385     1   0.10969 276646.080000
  11386  11387     1   0.10969 276646.080000
  11386  11388     1   0.10969 276646.080000
  11389  11390     1   0.10969 276646.080000
  11389  11391     1   0.10969 276646.080000
  11392  11393     1   0.10969 276646.080000
  11392  11394     1   0.10969 276646.080000
  11395  11396     1   0.10969 276646.080000
  11395  11397     1   0.10969 276646.080000
  11400  11429     1   0.10304 312293.760000
  11401  11402     1   0.10910 283424.160000
  11401  11403     1   0.10910 283424.160000
  11404  11405     1   0.10910 283424.160000
  11404  11406     1   0.10910 283424.160000
  11407  11408     1   0.10910 283424.160000
  11407  11409     1   0.10910 283424.160000
  11410  11411     1   0.10969 276646.080000
  11410  11412     1   0.10969 276646.080000
  11413  11414     1   0.10969 276646.080000
  11413  11415     1   0.10969 276646.080000
  11416  11417     1   0.10969 276646.080000
  11416  11418     1   0.10969 276646.080000
  11419  11420     1   0.10969 276646.080000
  11419  11421     1   0.10969 276646.080000
  11422  11423     1   0.10969 276646.080000
  11422  11424     1   0.10969 276646.080000
  11425  11426     1   0.10969 276646.080000
  11425  11427     1   0.10969 276646.080000
  11430  11459     1   0.10304 312293.760000
  11431  11432     1   0.10910 283424.160000
  11431  11433     1   0.10910 283424.160000
  11434  11435     1   0.10910 283424.160000
  11434  11436     1   0.10910 283424.160000
  11437  11438     1   0.10910 283424.160000
  11437  11439     1   0.10910 283424.160000
  11440  11441     1   0.10969 276646.080000
  11440  11442     1   0.10969 276646.080000
  11443  11444     1   0.10969 276646.080000
  11443  11445     1   0.10969 276646.080000
  11446  11447     1   0.10969 276646.080000
  11446  11448     1   0.10969 276646.080000
  11449  11450     1   0.10969 276646.080000
  11449  11451     1   0.10969 276646.080000
  11452  11453     1   0.10969 276646.080000
  11452  11454     1   0.10969 276646.080000
  11455  11456     1   0.10969 276646.080000
  11455  11457     1   0.10969 276646.080000
  11460  11462     1   0.10969 276646.080000
  11461  11463     1   0.10969 276646.080000
  11464  11468     1   0.10969 276646.080000
  11465  11467     1   0.10969 276646.080000
  11466  11469     1   0.10961 277566.560000
  11471  11477     1   0.09730 310787.520000
  11472  11475     1   0.09730 310787.520000
  11473  11476     1   0.09730 310787.520000
  11474  11478     1   0.10969 276646.080000
  11474  11479     1   0.10969 276646.080000
  11480  11481     1   0.09730 310787.520000
  11483  11485     1   0.10969 276646.080000
  11484  11486     1   0.10969 276646.080000
  11487  11491     1   0.10969 276646.080000
  11488  11490     1   0.10969 276646.080000
  11489  11492     1   0.10961 277566.560000
  11494  11500     1   0.09730 310787.520000
  11495  11498     1   0.09730 310787.520000
  11496  11499     1   0.09730 310787.520000
  11497  11501     1   0.10969 276646.080000
  11497  11502     1   0.10969 276646.080000
  11503  11504     1   0.09730 310787.520000
  11506  11508     1   0.10969 276646.080000
  11507  11509     1   0.10969 276646.080000
  11510  11514     1   0.10969 276646.080000
  11511  11513     1   0.10969 276646.080000
  11512  11515     1   0.10961 277566.560000
  11517  11523     1   0.09730 310787.520000
  11518  11521     1   0.09730 310787.520000
  11519  11522     1   0.09730 310787.520000
  11520  11524     1   0.10969 276646.080000
  11520  11525     1   0.10969 276646.080000
  11526  11527     1   0.09730 310787.520000
  11529  11531     1   0.10969 276646.080000
  11530  11532     1   0.10969 276646.080000
  11533  11537     1   0.10969 276646.080000
  11534  11536     1   0.10969 276646.080000
  11535  11538     1   0.10961 277566.560000
  11540  11546     1   0.09730 310787.520000
  11541  11544     1   0.09730 310787.520000
  11542  11545     1   0.09730 310787.520000
  11543  11547     1   0.10969 276646.080000
  11543  11548     1   0.10969 276646.080000
  11549  11550     1   0.09730 310787.520000
  11552  11554     1   0.10969 276646.080000
  11553  11555     1   0.10969 276646.080000
  11556  11560     1   0.10969 276646.080000
  11557  11559     1   0.10969 276646.080000
  11558  11561     1   0.10961 277566.560000
  11563  11569     1   0.09730 310787.520000
  11564  11567     1   0.09730 310787.520000
  11565  11568     1   0.09730 310787.520000
  11566  11570     1   0.10969 276646.080000
  11566  11571     1   0.10969 276646.080000
  11572  11573     1   0.09730 310787.520000
  11575  11577     1   0.10969 276646.080000
  11576  11578     1   0.10969 276646.080000
  11579  11583     1   0.10969 276646.080000
  11580  11582     1   0.10969 276646.080000
  11581  11584     1   0.10961 277566.560000
  11586  11592     1   0.09730 310787.520000
  11587  11590     1   0.09730 310787.520000
  11588  11591     1   0.09730 310787.520000
  11589  11593     1   0.10969 276646.080000
  11589  11594     1   0.10969 276646.080000
  11595  11596     1   0.09730 310787.520000
  11598  11600     1   0.10969 276646.080000
  11599  11601     1   0.10969 276646.080000
  11602  11606     1   0.10969 276646.080000
  11603  11605     1   0.10969 276646.080000
  11604  11607     1   0.10961 277566.560000
  11609  11615     1   0.09730 310787.520000
  11610  11613     1   0.09730 310787.520000
  11611  11614     1   0.09730 310787.520000
  11612  11616     1   0.10969 276646.080000
  11612  11617     1   0.10969 276646.080000
  11618  11619     1   0.09730 310787.520000
  11621  11623     1   0.10969 276646.080000
  11622  11624     1   0.10969 276646.080000
  11625  11629     1   0.10969 276646.080000
  11626  11628     1   0.10969 276646.080000
  11627  11630     1   0.10961 277566.560000
  11632  11638     1   0.09730 310787.520000
  11633  11636     1   0.09730 310787.520000
  11634  11637     1   0.09730 310787.520000
  11635  11639     1   0.10969 276646.080000
  11635  11640     1   0.10969 276646.080000
  11641  11642     1   0.09730 310787.520000
  11644  11646     1   0.10969 276646.080000
  11645  11647     1   0.10969 276646.080000
  11648  11652     1   0.10969 276646.080000
  11649  11651     1   0.10969 276646.080000
  11650  11653     1   0.10961 277566.560000
  11655  11661     1   0.09730 310787.520000
  11656  11659     1   0.09730 310787.520000
  11657  11660     1   0.09730 310787.520000
  11658  11662     1   0.10969 276646.080000
  11658  11663     1   0.10969 276646.080000
  11664  11665     1   0.09730 310787.520000
  11667  11669     1   0.10969 276646.080000
  11668  11670     1   0.10969 276646.080000
  11671  11675     1   0.10969 276646.080000
  11672  11674     1   0.10969 276646.080000
  11673  11676     1   0.10961 277566.560000
  11678  11684     1   0.09730 310787.520000
  11679  11682     1   0.09730 310787.520000
  11680  11683     1   0.09730 310787.520000
  11681  11685     1   0.10969 276646.080000
  11681  11686     1   0.10969 276646.080000
  11687  11688     1   0.09730 310787.520000
  11690  11692     1   0.10969 276646.080000
  11691  11693     1   0.10969 276646.080000
  11694  11698     1   0.10969 276646.080000
  11695  11697     1   0.10969 276646.080000
  11696  11699     1   0.10961 277566.560000
  11701  11707     1   0.09730 310787.520000
  11702  11705     1   0.09730 310787.520000
  11703  11706     1   0.09730 310787.520000
  11704  11708     1   0.10969 276646.080000
  11704  11709     1   0.10969 276646.080000
  11710  11711     1   0.09730 310787.520000
  11713  11715     1   0.10969 276646.080000
  11714  11716     1   0.10969 276646.080000
  11717  11721     1   0.10969 276646.080000
  11718  11720     1   0.10969 276646.080000
  11719  11722     1   0.10961 277566.560000
  11724  11730     1   0.09730 310787.520000
  11725  11728     1   0.09730 310787.520000
  11726  11729     1   0.09730 310787.520000
  11727  11731     1   0.10969 276646.080000
  11727  11732     1   0.10969 276646.080000
  11733  11734     1   0.09730 310787.520000
  11736  11738     1   0.10969 276646.080000
  11737  11739     1   0.10969 276646.080000
  11740  11744     1   0.10969 276646.080000
  11741  11743     1   0.10969 276646.080000
  11742  11745     1   0.10961 277566.560000
  11747  11753     1   0.09730 310787.520000
  11748  11751     1   0.09730 310787.520000
  11749  11752     1   0.09730 310787.520000
  11750  11754     1   0.10969 276646.080000
  11750  11755     1   0.10969 276646.080000
  11756  11757     1   0.09730 310787.520000
  11759  11761     1   0.10969 276646.080000
  11760  11762     1   0.10969 276646.080000
  11763  11767     1   0.10969 276646.080000
  11764  11766     1   0.10969 276646.080000
  11765  11768     1   0.10961 277566.560000
  11770  11776     1   0.09730 310787.520000
  11771  11774     1   0.09730 310787.520000
  11772  11775     1   0.09730 310787.520000
  11773  11777     1   0.10969 276646.080000
  11773  11778     1   0.10969 276646.080000
  11779  11780     1   0.09730 310787.520000
  11782  11784     1   0.10969 276646.080000
  11783  11785     1   0.10969 276646.080000
  11786  11790     1   0.10969 276646.080000
  11787  11789     1   0.10969 276646.080000
  11788  11791     1   0.10961 277566.560000
  11793  11799     1   0.09730 310787.520000
  11794  11797     1   0.09730 310787.520000
  11795  11798     1   0.09730 310787.520000
  11796  11800     1   0.10969 276646.080000
  11796  11801     1   0.10969 276646.080000
  11802  11803     1   0.09730 310787.520000
  11805  11807     1   0.10969 276646.080000
  11806  11808     1   0.10969 276646.080000
  11809  11813     1   0.10969 276646.080000
  11810  11812     1   0.10969 276646.080000
  11811  11814     1   0.10961 277566.560000
  11816  11822     1   0.09730 310787.520000
  11817  11820     1   0.09730 310787.520000
  11818  11821     1   0.09730 310787.520000
  11819  11823     1   0.10969 276646.080000
  11819  11824     1   0.10969 276646.080000
  11825  11826     1   0.09730 310787.520000
  11828  11830     1   0.10969 276646.080000
  11829  11831     1   0.10969 276646.080000
  11832  11836     1   0.10969 276646.080000
  11833  11835     1   0.10969 276646.080000
  11834  11837     1   0.10961 277566.560000
  11839  11845     1   0.09730 310787.520000
  11840  11843     1   0.09730 310787.520000
  11841  11844     1   0.09730 310787.520000
  11842  11846     1   0.10969 276646.080000
  11842  11847     1   0.10969 276646.080000
  11848  11849     1   0.09730 310787.520000
  11851  11853     1   0.10969 276646.080000
  11852  11854     1   0.10969 276646.080000
  11855  11859     1   0.10969 276646.080000
  11856  11858     1   0.10969 276646.080000
  11857  11860     1   0.10961 277566.560000
  11862  11868     1   0.09730 310787.520000
  11863  11866     1   0.09730 310787.520000
  11864  11867     1   0.09730 310787.520000
  11865  11869     1   0.10969 276646.080000
  11865  11870     1   0.10969 276646.080000
  11871  11872     1   0.09730 310787.520000
  11874  11876     1   0.10969 276646.080000
  11875  11877     1   0.10969 276646.080000
  11878  11882     1   0.10969 276646.080000
  11879  11881     1   0.10969 276646.080000
  11880  11883     1   0.10961 277566.560000
  11885  11891     1   0.09730 310787.520000
  11886  11889     1   0.09730 310787.520000
  11887  11890     1   0.09730 310787.520000
  11888  11892     1   0.10969 276646.080000
  11888  11893     1   0.10969 276646.080000
  11894  11895     1   0.09730 310787.520000
  11897  11899     1   0.10969 276646.080000
  11898  11900     1   0.10969 276646.080000
  11901  11905     1   0.10969 276646.080000
  11902  11904     1   0.10969 276646.080000
  11903  11906     1   0.10961 277566.560000
  11908  11914     1   0.09730 310787.520000
  11909  11912     1   0.09730 310787.520000
  11910  11913     1   0.09730 310787.520000
  11911  11915     1   0.10969 276646.080000
  11911  11916     1   0.10969 276646.080000
  11917  11918     1   0.09730 310787.520000
  11920  11922     1   0.10969 276646.080000
  11921  11923     1   0.10969 276646.080000
  11924  11928     1   0.10969 276646.080000
  11925  11927     1   0.10969 276646.080000
  11926  11929     1   0.10961 277566.560000
  11931  11937     1   0.09730 310787.520000
  11932  11935     1   0.09730 310787.520000
  11933  11936     1   0.09730 310787.520000
  11934  11938     1   0.10969 276646.080000
  11934  11939     1   0.10969 276646.080000
  11940  11941     1   0.09730 310787.520000
  11943  11945     1   0.10969 276646.080000
  11944  11946     1   0.10969 276646.080000
  11947  11951     1   0.10969 276646.080000
  11948  11950     1   0.10969 276646.080000
  11949  11952     1   0.10961 277566.560000
  11954  11960     1   0.09730 310787.520000
  11955  11958     1   0.09730 310787.520000
  11956  11959     1   0.09730 310787.520000
  11957  11961     1   0.10969 276646.080000
  11957  11962     1   0.10969 276646.080000
  11963  11964     1   0.09730 310787.520000
  11966  11968     1   0.10969 276646.080000
  11967  11969     1   0.10969 276646.080000
  11970  11974     1   0.10969 276646.080000
  11971  11973     1   0.10969 276646.080000
  11972  11975     1   0.10961 277566.560000
  11977  11983     1   0.09730 310787.520000
  11978  11981     1   0.09730 310787.520000
  11979  11982     1   0.09730 310787.520000
  11980  11984     1   0.10969 276646.080000
  11980  11985     1   0.10969 276646.080000
  11986  11987     1   0.09730 310787.520000
  11989  11991     1   0.10969 276646.080000
  11990  11992     1   0.10969 276646.080000
  11993  11997     1   0.10969 276646.080000
  11994  11996     1   0.10969 276646.080000
  11995  11998     1   0.10961 277566.560000
  12000  12006     1   0.09730 310787.520000
  12001  12004     1   0.09730 310787.520000
  12002  12005     1   0.09730 310787.520000
  12003  12007     1   0.10969 276646.080000
  12003  12008     1   0.10969 276646.080000
  12009  12010     1   0.09730 310787.520000
  12012  12014     1   0.10969 276646.080000
  12013  12015     1   0.10969 276646.080000
  12016  12020     1   0.10969 276646.080000
  12017  12019     1   0.10969 276646.080000
  12018  12021     1   0.10961 277566.560000
  12023  12029     1   0.09730 310787.520000
  12024  12027     1   0.09730 310787.520000
  12025  12028     1   0.09730 310787.520000
  12026  12030     1   0.10969 276646.080000
  12026  12031     1   0.10969 276646.080000
  12032  12033     1   0.09730 310787.520000
  12035  12037     1   0.10969 276646.080000
  12036  12038     1   0.10969 276646.080000
  12039  12043     1   0.10969 276646.080000
  12040  12042     1   0.10969 276646.080000
  12041  12044     1   0.10961 277566.560000
  12046  12052     1   0.09730 310787.520000
  12047  12050     1   0.09730 310787.520000
  12048  12051     1   0.09730 310787.520000
  12049  12053     1   0.10969 276646.080000
  12049  12054     1   0.10969 276646.080000
  12055  12056     1   0.09730 310787.520000
  12058  12060     1   0.10969 276646.080000
  12059  12061     1   0.10969 276646.080000
  12062  12066     1   0.10969 276646.080000
  12063  12065     1   0.10969 276646.080000
  12064  12067     1   0.10961 277566.560000
  12069  12075     1   0.09730 310787.520000
  12070  12073     1   0.09730 310787.520000
  12071  12074     1   0.09730 310787.520000
  12072  12076     1   0.10969 276646.080000
  12072  12077     1   0.10969 276646.080000
  12078  12079     1   0.09730 310787.520000
  12081  12083     1   0.10969 276646.080000
  12082  12084     1   0.10969 276646.080000
  12085  12089     1   0.10969 276646.080000
  12086  12088     1   0.10969 276646.080000
  12087  12090     1   0.10961 277566.560000
  12092  12098     1   0.09730 310787.520000
  12093  12096     1   0.09730 310787.520000
  12094  12097     1   0.09730 310787.520000
  12095  12099     1   0.10969 276646.080000
  12095  12100     1   0.10969 276646.080000
  12101  12102     1   0.09730 310787.520000
  12104  12106     1   0.10969 276646.080000
  12105  12107     1   0.10969 276646.080000
  12108  12112     1   0.10969 276646.080000
  12109  12111     1   0.10969 276646.080000
  12110  12113     1   0.10961 277566.560000
  12115  12121     1   0.09730 310787.520000
  12116  12119     1   0.09730 310787.520000
  12117  12120     1   0.09730 310787.520000
  12118  12122     1   0.10969 276646.080000
  12118  12123     1   0.10969 276646.080000
  12124  12125     1   0.09730 310787.520000
  12127  12129     1   0.10969 276646.080000
  12128  12130     1   0.10969 276646.080000
  12131  12135     1   0.10969 276646.080000
  12132  12134     1   0.10969 276646.080000
  12133  12136     1   0.10961 277566.560000
  12138  12144     1   0.09730 310787.520000
  12139  12142     1   0.09730 310787.520000
  12140  12143     1   0.09730 310787.520000
  12141  12145     1   0.10969 276646.080000
  12141  12146     1   0.10969 276646.080000
  12147  12148     1   0.09730 310787.520000
  12150  12152     1   0.10969 276646.080000
  12151  12153     1   0.10969 276646.080000
  12154  12158     1   0.10969 276646.080000
  12155  12157     1   0.10969 276646.080000
  12156  12159     1   0.10961 277566.560000
  12161  12167     1   0.09730 310787.520000
  12162  12165     1   0.09730 310787.520000
  12163  12166     1   0.09730 310787.520000
  12164  12168     1   0.10969 276646.080000
  12164  12169     1   0.10969 276646.080000
  12170  12171     1   0.09730 310787.520000
  12173  12175     1   0.10969 276646.080000
  12174  12176     1   0.10969 276646.080000
  12177  12181     1   0.10969 276646.080000
  12178  12180     1   0.10969 276646.080000
  12179  12182     1   0.10961 277566.560000
  12184  12190     1   0.09730 310787.520000
  12185  12188     1   0.09730 310787.520000
  12186  12189     1   0.09730 310787.520000
  12187  12191     1   0.10969 276646.080000
  12187  12192     1   0.10969 276646.080000
  12193  12194     1   0.09730 310787.520000
  12196  12198     1   0.10969 276646.080000
  12197  12199     1   0.10969 276646.080000
  12200  12204     1   0.10969 276646.080000
  12201  12203     1   0.10969 276646.080000
  12202  12205     1   0.10961 277566.560000
  12207  12213     1   0.09730 310787.520000
  12208  12211     1   0.09730 310787.520000
  12209  12212     1   0.09730 310787.520000
  12210  12214     1   0.10969 276646.080000
  12210  12215     1   0.10969 276646.080000
  12216  12217     1   0.09730 310787.520000
  12219  12221     1   0.10969 276646.080000
  12220  12222     1   0.10969 276646.080000
  12223  12227     1   0.10969 276646.080000
  12224  12226     1   0.10969 276646.080000
  12225  12228     1   0.10961 277566.560000
  12230  12236     1   0.09730 310787.520000
  12231  12234     1   0.09730 310787.520000
  12232  12235     1   0.09730 310787.520000
  12233  12237     1   0.10969 276646.080000
  12233  12238     1   0.10969 276646.080000
  12239  12240     1   0.09730 310787.520000
  12242  12244     1   0.10969 276646.080000
  12243  12245     1   0.10969 276646.080000
  12246  12250     1   0.10969 276646.080000
  12247  12249     1   0.10969 276646.080000
  12248  12251     1   0.10961 277566.560000
  12253  12259     1   0.09730 310787.520000
  12254  12257     1   0.09730 310787.520000
  12255  12258     1   0.09730 310787.520000
  12256  12260     1   0.10969 276646.080000
  12256  12261     1   0.10969 276646.080000
  12262  12263     1   0.09730 310787.520000
  12265  12267     1   0.10969 276646.080000
  12266  12268     1   0.10969 276646.080000
  12269  12273     1   0.10969 276646.080000
  12270  12272     1   0.10969 276646.080000
  12271  12274     1   0.10961 277566.560000
  12276  12282     1   0.09730 310787.520000
  12277  12280     1   0.09730 310787.520000
  12278  12281     1   0.09730 310787.520000
  12279  12283     1   0.10969 276646.080000
  12279  12284     1   0.10969 276646.080000
  12285  12286     1   0.09730 310787.520000
  12288  12290     1   0.10969 276646.080000
  12289  12291     1   0.10969 276646.080000
  12292  12296     1   0.10969 276646.080000
  12293  12295     1   0.10969 276646.080000
  12294  12297     1   0.10961 277566.560000
  12299  12305     1   0.09730 310787.520000
  12300  12303     1   0.09730 310787.520000
  12301  12304     1   0.09730 310787.520000
  12302  12306     1   0.10969 276646.080000
  12302  12307     1   0.10969 276646.080000
  12308  12309     1   0.09730 310787.520000
  12311  12313     1   0.10969 276646.080000
  12312  12314     1   0.10969 276646.080000
  12315  12319     1   0.10969 276646.080000
  12316  12318     1   0.10969 276646.080000
  12317  12320     1   0.10961 277566.560000
  12322  12328     1   0.09730 310787.520000
  12323  12326     1   0.09730 310787.520000
  12324  12327     1   0.09730 310787.520000
  12325  12329     1   0.10969 276646.080000
  12325  12330     1   0.10969 276646.080000
  12331  12332     1   0.09730 310787.520000
  12334  12336     1   0.10969 276646.080000
  12335  12337     1   0.10969 276646.080000
  12338  12342     1   0.10969 276646.080000
  12339  12341     1   0.10969 276646.080000
  12340  12343     1   0.10961 277566.560000
  12345  12351     1   0.09730 310787.520000
  12346  12349     1   0.09730 310787.520000
  12347  12350     1   0.09730 310787.520000
  12348  12352     1   0.10969 276646.080000
  12348  12353     1   0.10969 276646.080000
  12354  12355     1   0.09730 310787.520000
  12357  12359     1   0.10969 276646.080000
  12358  12360     1   0.10969 276646.080000
  12361  12365     1   0.10969 276646.080000
  12362  12364     1   0.10969 276646.080000
  12363  12366     1   0.10961 277566.560000
  12368  12374     1   0.09730 310787.520000
  12369  12372     1   0.09730 310787.520000
  12370  12373     1   0.09730 310787.520000
  12371  12375     1   0.10969 276646.080000
  12371  12376     1   0.10969 276646.080000
  12377  12378     1   0.09730 310787.520000
  12380  12382     1   0.10969 276646.080000
  12381  12383     1   0.10969 276646.080000
  12384  12388     1   0.10969 276646.080000
  12385  12387     1   0.10969 276646.080000
  12386  12389     1   0.10961 277566.560000
  12391  12397     1   0.09730 310787.520000
  12392  12395     1   0.09730 310787.520000
  12393  12396     1   0.09730 310787.520000
  12394  12398     1   0.10969 276646.080000
  12394  12399     1   0.10969 276646.080000
  12400  12401     1   0.09730 310787.520000
  12403  12405     1   0.10969 276646.080000
  12404  12406     1   0.10969 276646.080000
  12407  12411     1   0.10969 276646.080000
  12408  12410     1   0.10969 276646.080000
  12409  12412     1   0.10961 277566.560000
  12414  12420     1   0.09730 310787.520000
  12415  12418     1   0.09730 310787.520000
  12416  12419     1   0.09730 310787.520000
  12417  12421     1   0.10969 276646.080000
  12417  12422     1   0.10969 276646.080000
  12423  12424     1   0.09730 310787.520000
  12426  12428     1   0.10969 276646.080000
  12427  12429     1   0.10969 276646.080000
  12430  12434     1   0.10969 276646.080000
  12431  12433     1   0.10969 276646.080000
  12432  12435     1   0.10961 277566.560000
  12437  12443     1   0.09730 310787.520000
  12438  12441     1   0.09730 310787.520000
  12439  12442     1   0.09730 310787.520000
  12440  12444     1   0.10969 276646.080000
  12440  12445     1   0.10969 276646.080000
  12446  12447     1   0.09730 310787.520000
  12449  12451     1   0.10969 276646.080000
  12450  12452     1   0.10969 276646.080000
  12453  12457     1   0.10969 276646.080000
  12454  12456     1   0.10969 276646.080000
  12455  12458     1   0.10961 277566.560000
  12460  12466     1   0.09730 310787.520000
  12461  12464     1   0.09730 310787.520000
  12462  12465     1   0.09730 310787.520000
  12463  12467     1   0.10969 276646.080000
  12463  12468     1   0.10969 276646.080000
  12469  12470     1   0.09730 310787.520000
  12472  12474     1   0.10969 276646.080000
  12473  12475     1   0.10969 276646.080000
  12476  12480     1   0.10969 276646.080000
  12477  12479     1   0.10969 276646.080000
  12478  12481     1   0.10961 277566.560000
  12483  12489     1   0.09730 310787.520000
  12484  12487     1   0.09730 310787.520000
  12485  12488     1   0.09730 310787.520000
  12486  12490     1   0.10969 276646.080000
  12486  12491     1   0.10969 276646.080000
  12492  12493     1   0.09730 310787.520000
  12495  12497     1   0.10969 276646.080000
  12496  12498     1   0.10969 276646.080000
  12499  12503     1   0.10969 276646.080000
  12500  12502     1   0.10969 276646.080000
  12501  12504     1   0.10961 277566.560000
  12506  12512     1   0.09730 310787.520000
  12507  12510     1   0.09730 310787.520000
  12508  12511     1   0.09730 310787.520000
  12509  12513     1   0.10969 276646.080000
  12509  12514     1   0.10969 276646.080000
  12515  12516     1   0.09730 310787.520000
  12518  12520     1   0.10969 276646.080000
  12519  12521     1   0.10969 276646.080000
  12522  12526     1   0.10969 276646.080000
  12523  12525     1   0.10969 276646.080000
  12524  12527     1   0.10961 277566.560000
  12529  12535     1   0.09730 310787.520000
  12530  12533     1   0.09730 310787.520000
  12531  12534     1   0.09730 310787.520000
  12532  12536     1   0.10969 276646.080000
  12532  12537     1   0.10969 276646.080000
  12538  12539     1   0.09730 310787.520000
  12541  12543     1   0.10969 276646.080000
  12542  12544     1   0.10969 276646.080000
  12545  12549     1   0.10969 276646.080000
  12546  12548     1   0.10969 276646.080000
  12547  12550     1   0.10961 277566.560000
  12552  12558     1   0.09730 310787.520000
  12553  12556     1   0.09730 310787.520000
  12554  12557     1   0.09730 310787.520000
  12555  12559     1   0.10969 276646.080000
  12555  12560     1   0.10969 276646.080000
  12561  12562     1   0.09730 310787.520000
  12564  12566     1   0.10969 276646.080000
  12565  12567     1   0.10969 276646.080000
  12568  12572     1   0.10969 276646.080000
  12569  12571     1   0.10969 276646.080000
  12570  12573     1   0.10961 277566.560000
  12575  12581     1   0.09730 310787.520000
  12576  12579     1   0.09730 310787.520000
  12577  12580     1   0.09730 310787.520000
  12578  12582     1   0.10969 276646.080000
  12578  12583     1   0.10969 276646.080000
  12584  12585     1   0.09730 310787.520000
  12587  12589     1   0.10969 276646.080000
  12588  12590     1   0.10969 276646.080000
  12591  12595     1   0.10969 276646.080000
  12592  12594     1   0.10969 276646.080000
  12593  12596     1   0.10961 277566.560000
  12598  12604     1   0.09730 310787.520000
  12599  12602     1   0.09730 310787.520000
  12600  12603     1   0.09730 310787.520000
  12601  12605     1   0.10969 276646.080000
  12601  12606     1   0.10969 276646.080000
  12607  12608     1   0.09730 310787.520000
  12610  12612     1   0.10969 276646.080000
  12611  12613     1   0.10969 276646.080000
  12614  12618     1   0.10969 276646.080000
  12615  12617     1   0.10969 276646.080000
  12616  12619     1   0.10961 277566.560000
  12621  12627     1   0.09730 310787.520000
  12622  12625     1   0.09730 310787.520000
  12623  12626     1   0.09730 310787.520000
  12624  12628     1   0.10969 276646.080000
  12624  12629     1   0.10969 276646.080000
  12630  12631     1   0.09730 310787.520000
  12633  12635     1   0.10969 276646.080000
  12634  12636     1   0.10969 276646.080000
  12637  12641     1   0.10969 276646.080000
  12638  12640     1   0.10969 276646.080000
  12639  12642     1   0.10961 277566.560000
  12644  12650     1   0.09730 310787.520000
  12645  12648     1   0.09730 310787.520000
  12646  12649     1   0.09730 310787.520000
  12647  12651     1   0.10969 276646.080000
  12647  12652     1   0.10969 276646.080000
  12653  12654     1   0.09730 310787.520000
  12656  12658     1   0.10969 276646.080000
  12657  12659     1   0.10969 276646.080000
  12660  12664     1   0.10969 276646.080000
  12661  12663     1   0.10969 276646.080000
  12662  12665     1   0.10961 277566.560000
  12667  12673     1   0.09730 310787.520000
  12668  12671     1   0.09730 310787.520000
  12669  12672     1   0.09730 310787.520000
  12670  12674     1   0.10969 276646.080000
  12670  12675     1   0.10969 276646.080000
  12676  12677     1   0.09730 310787.520000
  12679  12681     1   0.10969 276646.080000
  12680  12682     1   0.10969 276646.080000
  12683  12687     1   0.10969 276646.080000
  12684  12686     1   0.10969 276646.080000
  12685  12688     1   0.10961 277566.560000
  12690  12696     1   0.09730 310787.520000
  12691  12694     1   0.09730 310787.520000
  12692  12695     1   0.09730 310787.520000
  12693  12697     1   0.10969 276646.080000
  12693  12698     1   0.10969 276646.080000
  12699  12700     1   0.09730 310787.520000
  12702  12704     1   0.10969 276646.080000
  12703  12705     1   0.10969 276646.080000
  12706  12710     1   0.10969 276646.080000
  12707  12709     1   0.10969 276646.080000
  12708  12711     1   0.10961 277566.560000
  12713  12719     1   0.09730 310787.520000
  12714  12717     1   0.09730 310787.520000
  12715  12718     1   0.09730 310787.520000
  12716  12720     1   0.10969 276646.080000
  12716  12721     1   0.10969 276646.080000
  12722  12723     1   0.09730 310787.520000
  12725  12727     1   0.10969 276646.080000
  12726  12728     1   0.10969 276646.080000
  12729  12733     1   0.10969 276646.080000
  12730  12732     1   0.10969 276646.080000
  12731  12734     1   0.10961 277566.560000
  12736  12742     1   0.09730 310787.520000
  12737  12740     1   0.09730 310787.520000
  12738  12741     1   0.09730 310787.520000
  12739  12743     1   0.10969 276646.080000
  12739  12744     1   0.10969 276646.080000
  12745  12746     1   0.09730 310787.520000
  12748  12750     1   0.10969 276646.080000
  12749  12751     1   0.10969 276646.080000
  12752  12756     1   0.10969 276646.080000
  12753  12755     1   0.10969 276646.080000
  12754  12757     1   0.10961 277566.560000
  12759  12765     1   0.09730 310787.520000
  12760  12763     1   0.09730 310787.520000
  12761  12764     1   0.09730 310787.520000
  12762  12766     1   0.10969 276646.080000
  12762  12767     1   0.10969 276646.080000
  12768  12769     1   0.09730 310787.520000
  12771  12773     1   0.10969 276646.080000
  12772  12774     1   0.10969 276646.080000
  12775  12779     1   0.10969 276646.080000
  12776  12778     1   0.10969 276646.080000
  12777  12780     1   0.10961 277566.560000
  12782  12788     1   0.09730 310787.520000
  12783  12786     1   0.09730 310787.520000
  12784  12787     1   0.09730 310787.520000
  12785  12789     1   0.10969 276646.080000
  12785  12790     1   0.10969 276646.080000
  12791  12792     1   0.09730 310787.520000
  12794  12796     1   0.10969 276646.080000
  12795  12797     1   0.10969 276646.080000
  12798  12802     1   0.10969 276646.080000
  12799  12801     1   0.10969 276646.080000
  12800  12803     1   0.10961 277566.560000
  12805  12811     1   0.09730 310787.520000
  12806  12809     1   0.09730 310787.520000
  12807  12810     1   0.09730 310787.520000
  12808  12812     1   0.10969 276646.080000
  12808  12813     1   0.10969 276646.080000
  12814  12815     1   0.09730 310787.520000
  12817  12819     1   0.10969 276646.080000
  12818  12820     1   0.10969 276646.080000
  12821  12825     1   0.10969 276646.080000
  12822  12824     1   0.10969 276646.080000
  12823  12826     1   0.10961 277566.560000
  12828  12834     1   0.09730 310787.520000
  12829  12832     1   0.09730 310787.520000
  12830  12833     1   0.09730 310787.520000
  12831  12835     1   0.10969 276646.080000
  12831  12836     1   0.10969 276646.080000
  12837  12838     1   0.09730 310787.520000
  12840  12842     1   0.10969 276646.080000
  12841  12843     1   0.10969 276646.080000
  12844  12848     1   0.10969 276646.080000
  12845  12847     1   0.10969 276646.080000
  12846  12849     1   0.10961 277566.560000
  12851  12857     1   0.09730 310787.520000
  12852  12855     1   0.09730 310787.520000
  12853  12856     1   0.09730 310787.520000
  12854  12858     1   0.10969 276646.080000
  12854  12859     1   0.10969 276646.080000
  12860  12861     1   0.09730 310787.520000
  12863  12865     1   0.10969 276646.080000
  12864  12866     1   0.10969 276646.080000
  12867  12871     1   0.10969 276646.080000
  12868  12870     1   0.10969 276646.080000
  12869  12872     1   0.10961 277566.560000
  12874  12880     1   0.09730 310787.520000
  12875  12878     1   0.09730 310787.520000
  12876  12879     1   0.09730 310787.520000
  12877  12881     1   0.10969 276646.080000
  12877  12882     1   0.10969 276646.080000
  12883  12884     1   0.09730 310787.520000
  12886  12888     1   0.10969 276646.080000
  12887  12889     1   0.10969 276646.080000
  12890  12894     1   0.10969 276646.080000
  12891  12893     1   0.10969 276646.080000
  12892  12895     1   0.10961 277566.560000
  12897  12903     1   0.09730 310787.520000
  12898  12901     1   0.09730 310787.520000
  12899  12902     1   0.09730 310787.520000
  12900  12904     1   0.10969 276646.080000
  12900  12905     1   0.10969 276646.080000
  12906  12907     1   0.09730 310787.520000
  12909  12911     1   0.10969 276646.080000
  12910  12912     1   0.10969 276646.080000
  12913  12917     1   0.10969 276646.080000
  12914  12916     1   0.10969 276646.080000
  12915  12918     1   0.10961 277566.560000
  12920  12926     1   0.09730 310787.520000
  12921  12924     1   0.09730 310787.520000
  12922  12925     1   0.09730 310787.520000
  12923  12927     1   0.10969 276646.080000
  12923  12928     1   0.10969 276646.080000
  12929  12930     1   0.09730 310787.520000
  12932  12934     1   0.10969 276646.080000
  12933  12935     1   0.10969 276646.080000
  12936  12940     1   0.10969 276646.080000
  12937  12939     1   0.10969 276646.080000
  12938  12941     1   0.10961 277566.560000
  12943  12949     1   0.09730 310787.520000
  12944  12947     1   0.09730 310787.520000
  12945  12948     1   0.09730 310787.520000
  12946  12950     1   0.10969 276646.080000
  12946  12951     1   0.10969 276646.080000
  12952  12953     1   0.09730 310787.520000
  12955  12957     1   0.10969 276646.080000
  12956  12958     1   0.10969 276646.080000
  12959  12963     1   0.10969 276646.080000
  12960  12962     1   0.10969 276646.080000
  12961  12964     1   0.10961 277566.560000
  12966  12972     1   0.09730 310787.520000
  12967  12970     1   0.09730 310787.520000
  12968  12971     1   0.09730 310787.520000
  12969  12973     1   0.10969 276646.080000
  12969  12974     1   0.10969 276646.080000
  12975  12976     1   0.09730 310787.520000
  12978  12980     1   0.10969 276646.080000
  12979  12981     1   0.10969 276646.080000
  12982  12986     1   0.10969 276646.080000
  12983  12985     1   0.10969 276646.080000
  12984  12987     1   0.10961 277566.560000
  12989  12995     1   0.09730 310787.520000
  12990  12993     1   0.09730 310787.520000
  12991  12994     1   0.09730 310787.520000
  12992  12996     1   0.10969 276646.080000
  12992  12997     1   0.10969 276646.080000
  12998  12999     1   0.09730 310787.520000
  13001  13003     1   0.10969 276646.080000
  13002  13004     1   0.10969 276646.080000
  13005  13009     1   0.10969 276646.080000
  13006  13008     1   0.10969 276646.080000
  13007  13010     1   0.10961 277566.560000
  13012  13018     1   0.09730 310787.520000
  13013  13016     1   0.09730 310787.520000
  13014  13017     1   0.09730 310787.520000
  13015  13019     1   0.10969 276646.080000
  13015  13020     1   0.10969 276646.080000
  13021  13022     1   0.09730 310787.520000
  13024  13026     1   0.10969 276646.080000
  13025  13027     1   0.10969 276646.080000
  13028  13032     1   0.10969 276646.080000
  13029  13031     1   0.10969 276646.080000
  13030  13033     1   0.10961 277566.560000
  13035  13041     1   0.09730 310787.520000
  13036  13039     1   0.09730 310787.520000
  13037  13040     1   0.09730 310787.520000
  13038  13042     1   0.10969 276646.080000
  13038  13043     1   0.10969 276646.080000
  13044  13045     1   0.09730 310787.520000
  13047  13049     1   0.10969 276646.080000
  13048  13050     1   0.10969 276646.080000
  13051  13055     1   0.10969 276646.080000
  13052  13054     1   0.10969 276646.080000
  13053  13056     1   0.10961 277566.560000
  13058  13064     1   0.09730 310787.520000
  13059  13062     1   0.09730 310787.520000
  13060  13063     1   0.09730 310787.520000
  13061  13065     1   0.10969 276646.080000
  13061  13066     1   0.10969 276646.080000
  13067  13068     1   0.09730 310787.520000
  13070  13072     1   0.10969 276646.080000
  13071  13073     1   0.10969 276646.080000
  13074  13078     1   0.10969 276646.080000
  13075  13077     1   0.10969 276646.080000
  13076  13079     1   0.10961 277566.560000
  13081  13087     1   0.09730 310787.520000
  13082  13085     1   0.09730 310787.520000
  13083  13086     1   0.09730 310787.520000
  13084  13088     1   0.10969 276646.080000
  13084  13089     1   0.10969 276646.080000
  13090  13091     1   0.09730 310787.520000
  13093  13095     1   0.10969 276646.080000
  13094  13096     1   0.10969 276646.080000
  13097  13101     1   0.10969 276646.080000
  13098  13100     1   0.10969 276646.080000
  13099  13102     1   0.10961 277566.560000
  13104  13110     1   0.09730 310787.520000
  13105  13108     1   0.09730 310787.520000
  13106  13109     1   0.09730 310787.520000
  13107  13111     1   0.10969 276646.080000
  13107  13112     1   0.10969 276646.080000
  13113  13114     1   0.09730 310787.520000
  13116  13118     1   0.10969 276646.080000
  13117  13119     1   0.10969 276646.080000
  13120  13124     1   0.10969 276646.080000
  13121  13123     1   0.10969 276646.080000
  13122  13125     1   0.10961 277566.560000
  13127  13133     1   0.09730 310787.520000
  13128  13131     1   0.09730 310787.520000
  13129  13132     1   0.09730 310787.520000
  13130  13134     1   0.10969 276646.080000
  13130  13135     1   0.10969 276646.080000
  13136  13137     1   0.09730 310787.520000
  13139  13141     1   0.10969 276646.080000
  13140  13142     1   0.10969 276646.080000
  13143  13147     1   0.10969 276646.080000
  13144  13146     1   0.10969 276646.080000
  13145  13148     1   0.10961 277566.560000
  13150  13156     1   0.09730 310787.520000
  13151  13154     1   0.09730 310787.520000
  13152  13155     1   0.09730 310787.520000
  13153  13157     1   0.10969 276646.080000
  13153  13158     1   0.10969 276646.080000
  13159  13160     1   0.09730 310787.520000
  13162  13164     1   0.10969 276646.080000
  13163  13165     1   0.10969 276646.080000
  13166  13170     1   0.10969 276646.080000
  13167  13169     1   0.10969 276646.080000
  13168  13171     1   0.10961 277566.560000
  13173  13179     1   0.09730 310787.520000
  13174  13177     1   0.09730 310787.520000
  13175  13178     1   0.09730 310787.520000
  13176  13180     1   0.10969 276646.080000
  13176  13181     1   0.10969 276646.080000
  13182  13183     1   0.09730 310787.520000
  13185  13187     1   0.10969 276646.080000
  13186  13188     1   0.10969 276646.080000
  13189  13193     1   0.10969 276646.080000
  13190  13192     1   0.10969 276646.080000
  13191  13194     1   0.10961 277566.560000
  13196  13202     1   0.09730 310787.520000
  13197  13200     1   0.09730 310787.520000
  13198  13201     1   0.09730 310787.520000
  13199  13203     1   0.10969 276646.080000
  13199  13204     1   0.10969 276646.080000
  13205  13206     1   0.09730 310787.520000
  13208  13210     1   0.10969 276646.080000
  13209  13211     1   0.10969 276646.080000
  13212  13216     1   0.10969 276646.080000
  13213  13215     1   0.10969 276646.080000
  13214  13217     1   0.10961 277566.560000
  13219  13225     1   0.09730 310787.520000
  13220  13223     1   0.09730 310787.520000
  13221  13224     1   0.09730 310787.520000
  13222  13226     1   0.10969 276646.080000
  13222  13227     1   0.10969 276646.080000
  13228  13229     1   0.09730 310787.520000
  13231  13233     1   0.10969 276646.080000
  13232  13234     1   0.10969 276646.080000
  13235  13239     1   0.10969 276646.080000
  13236  13238     1   0.10969 276646.080000
  13237  13240     1   0.10961 277566.560000
  13242  13248     1   0.09730 310787.520000
  13243  13246     1   0.09730 310787.520000
  13244  13247     1   0.09730 310787.520000
  13245  13249     1   0.10969 276646.080000
  13245  13250     1   0.10969 276646.080000
  13251  13252     1   0.09730 310787.520000
  13254  13256     1   0.10969 276646.080000
  13255  13257     1   0.10969 276646.080000
  13258  13262     1   0.10969 276646.080000
  13259  13261     1   0.10969 276646.080000
  13260  13263     1   0.10961 277566.560000
  13265  13271     1   0.09730 310787.520000
  13266  13269     1   0.09730 310787.520000
  13267  13270     1   0.09730 310787.520000
  13268  13272     1   0.10969 276646.080000
  13268  13273     1   0.10969 276646.080000
  13274  13275     1   0.09730 310787.520000
  13277  13279     1   0.10969 276646.080000
  13278  13280     1   0.10969 276646.080000
  13281  13285     1   0.10969 276646.080000
  13282  13284     1   0.10969 276646.080000
  13283  13286     1   0.10961 277566.560000
  13288  13294     1   0.09730 310787.520000
  13289  13292     1   0.09730 310787.520000
  13290  13293     1   0.09730 310787.520000
  13291  13295     1   0.10969 276646.080000
  13291  13296     1   0.10969 276646.080000
  13297  13298     1   0.09730 310787.520000
  13300  13302     1   0.10969 276646.080000
  13301  13303     1   0.10969 276646.080000
  13304  13308     1   0.10969 276646.080000
  13305  13307     1   0.10969 276646.080000
  13306  13309     1   0.10961 277566.560000
  13311  13317     1   0.09730 310787.520000
  13312  13315     1   0.09730 310787.520000
  13313  13316     1   0.09730 310787.520000
  13314  13318     1   0.10969 276646.080000
  13314  13319     1   0.10969 276646.080000
  13320  13321     1   0.09730 310787.520000
  13323  13325     1   0.10969 276646.080000
  13324  13326     1   0.10969 276646.080000
  13327  13331     1   0.10969 276646.080000
  13328  13330     1   0.10969 276646.080000
  13329  13332     1   0.10961 277566.560000
  13334  13340     1   0.09730 310787.520000
  13335  13338     1   0.09730 310787.520000
  13336  13339     1   0.09730 310787.520000
  13337  13341     1   0.10969 276646.080000
  13337  13342     1   0.10969 276646.080000
  13343  13344     1   0.09730 310787.520000
  13346  13348     1   0.10969 276646.080000
  13347  13349     1   0.10969 276646.080000
  13350  13354     1   0.10969 276646.080000
  13351  13353     1   0.10969 276646.080000
  13352  13355     1   0.10961 277566.560000
  13357  13363     1   0.09730 310787.520000
  13358  13361     1   0.09730 310787.520000
  13359  13362     1   0.09730 310787.520000
  13360  13364     1   0.10969 276646.080000
  13360  13365     1   0.10969 276646.080000
  13366  13367     1   0.09730 310787.520000
  13369  13371     1   0.10969 276646.080000
  13370  13372     1   0.10969 276646.080000
  13373  13377     1   0.10969 276646.080000
  13374  13376     1   0.10969 276646.080000
  13375  13378     1   0.10961 277566.560000
  13380  13386     1   0.09730 310787.520000
  13381  13384     1   0.09730 310787.520000
  13382  13385     1   0.09730 310787.520000
  13383  13387     1   0.10969 276646.080000
  13383  13388     1   0.10969 276646.080000
  13389  13390     1   0.09730 310787.520000
  13392  13394     1   0.10969 276646.080000
  13393  13395     1   0.10969 276646.080000
  13396  13400     1   0.10969 276646.080000
  13397  13399     1   0.10969 276646.080000
  13398  13401     1   0.10961 277566.560000
  13403  13409     1   0.09730 310787.520000
  13404  13407     1   0.09730 310787.520000
  13405  13408     1   0.09730 310787.520000
  13406  13410     1   0.10969 276646.080000
  13406  13411     1   0.10969 276646.080000
  13412  13413     1   0.09730 310787.520000
  13415  13417     1   0.10969 276646.080000
  13416  13418     1   0.10969 276646.080000
  13419  13423     1   0.10969 276646.080000
  13420  13422     1   0.10969 276646.080000
  13421  13424     1   0.10961 277566.560000
  13426  13432     1   0.09730 310787.520000
  13427  13430     1   0.09730 310787.520000
  13428  13431     1   0.09730 310787.520000
  13429  13433     1   0.10969 276646.080000
  13429  13434     1   0.10969 276646.080000
  13435  13436     1   0.09730 310787.520000
  13438  13440     1   0.10969 276646.080000
  13439  13441     1   0.10969 276646.080000
  13442  13446     1   0.10969 276646.080000
  13443  13445     1   0.10969 276646.080000
  13444  13447     1   0.10961 277566.560000
  13449  13455     1   0.09730 310787.520000
  13450  13453     1   0.09730 310787.520000
  13451  13454     1   0.09730 310787.520000
  13452  13456     1   0.10969 276646.080000
  13452  13457     1   0.10969 276646.080000
  13458  13459     1   0.09730 310787.520000
  13461  13463     1   0.10969 276646.080000
  13462  13464     1   0.10969 276646.080000
  13465  13469     1   0.10969 276646.080000
  13466  13468     1   0.10969 276646.080000
  13467  13470     1   0.10961 277566.560000
  13472  13478     1   0.09730 310787.520000
  13473  13476     1   0.09730 310787.520000
  13474  13477     1   0.09730 310787.520000
  13475  13479     1   0.10969 276646.080000
  13475  13480     1   0.10969 276646.080000
  13481  13482     1   0.09730 310787.520000
  13484  13486     1   0.10969 276646.080000
  13485  13487     1   0.10969 276646.080000
  13488  13492     1   0.10969 276646.080000
  13489  13491     1   0.10969 276646.080000
  13490  13493     1   0.10961 277566.560000
  13495  13501     1   0.09730 310787.520000
  13496  13499     1   0.09730 310787.520000
  13497  13500     1   0.09730 310787.520000
  13498  13502     1   0.10969 276646.080000
  13498  13503     1   0.10969 276646.080000
  13504  13505     1   0.09730 310787.520000
  13507  13509     1   0.10969 276646.080000
  13508  13510     1   0.10969 276646.080000
  13511  13515     1   0.10969 276646.080000
  13512  13514     1   0.10969 276646.080000
  13513  13516     1   0.10961 277566.560000
  13518  13524     1   0.09730 310787.520000
  13519  13522     1   0.09730 310787.520000
  13520  13523     1   0.09730 310787.520000
  13521  13525     1   0.10969 276646.080000
  13521  13526     1   0.10969 276646.080000
  13527  13528     1   0.09730 310787.520000
  13530  13532     1   0.10969 276646.080000
  13531  13533     1   0.10969 276646.080000
  13534  13538     1   0.10969 276646.080000
  13535  13537     1   0.10969 276646.080000
  13536  13539     1   0.10961 277566.560000
  13541  13547     1   0.09730 310787.520000
  13542  13545     1   0.09730 310787.520000
  13543  13546     1   0.09730 310787.520000
  13544  13548     1   0.10969 276646.080000
  13544  13549     1   0.10969 276646.080000
  13550  13551     1   0.09730 310787.520000
  13553  13555     1   0.10969 276646.080000
  13554  13556     1   0.10969 276646.080000
  13557  13561     1   0.10969 276646.080000
  13558  13560     1   0.10969 276646.080000
  13559  13562     1   0.10961 277566.560000
  13564  13570     1   0.09730 310787.520000
  13565  13568     1   0.09730 310787.520000
  13566  13569     1   0.09730 310787.520000
  13567  13571     1   0.10969 276646.080000
  13567  13572     1   0.10969 276646.080000
  13573  13574     1   0.09730 310787.520000
  13576  13578     1   0.10969 276646.080000
  13577  13579     1   0.10969 276646.080000
  13580  13584     1   0.10969 276646.080000
  13581  13583     1   0.10969 276646.080000
  13582  13585     1   0.10961 277566.560000
  13587  13593     1   0.09730 310787.520000
  13588  13591     1   0.09730 310787.520000
  13589  13592     1   0.09730 310787.520000
  13590  13594     1   0.10969 276646.080000
  13590  13595     1   0.10969 276646.080000
  13596  13597     1   0.09730 310787.520000
  13599  13601     1   0.10969 276646.080000
  13600  13602     1   0.10969 276646.080000
  13603  13607     1   0.10969 276646.080000
  13604  13606     1   0.10969 276646.080000
  13605  13608     1   0.10961 277566.560000
  13610  13616     1   0.09730 310787.520000
  13611  13614     1   0.09730 310787.520000
  13612  13615     1   0.09730 310787.520000
  13613  13617     1   0.10969 276646.080000
  13613  13618     1   0.10969 276646.080000
  13619  13620     1   0.09730 310787.520000
  13622  13624     1   0.10969 276646.080000
  13623  13625     1   0.10969 276646.080000
  13626  13630     1   0.10969 276646.080000
  13627  13629     1   0.10969 276646.080000
  13628  13631     1   0.10961 277566.560000
  13633  13639     1   0.09730 310787.520000
  13634  13637     1   0.09730 310787.520000
  13635  13638     1   0.09730 310787.520000
  13636  13640     1   0.10969 276646.080000
  13636  13641     1   0.10969 276646.080000
  13642  13643     1   0.09730 310787.520000
  13645  13647     1   0.10969 276646.080000
  13646  13648     1   0.10969 276646.080000
  13649  13653     1   0.10969 276646.080000
  13650  13652     1   0.10969 276646.080000
  13651  13654     1   0.10961 277566.560000
  13656  13662     1   0.09730 310787.520000
  13657  13660     1   0.09730 310787.520000
  13658  13661     1   0.09730 310787.520000
  13659  13663     1   0.10969 276646.080000
  13659  13664     1   0.10969 276646.080000
  13665  13666     1   0.09730 310787.520000
  13668  13670     1   0.10969 276646.080000
  13669  13671     1   0.10969 276646.080000
  13672  13676     1   0.10969 276646.080000
  13673  13675     1   0.10969 276646.080000
  13674  13677     1   0.10961 277566.560000
  13679  13685     1   0.09730 310787.520000
  13680  13683     1   0.09730 310787.520000
  13681  13684     1   0.09730 310787.520000
  13682  13686     1   0.10969 276646.080000
  13682  13687     1   0.10969 276646.080000
  13688  13689     1   0.09730 310787.520000
  13691  13693     1   0.10969 276646.080000
  13692  13694     1   0.10969 276646.080000
  13695  13699     1   0.10969 276646.080000
  13696  13698     1   0.10969 276646.080000
  13697  13700     1   0.10961 277566.560000
  13702  13708     1   0.09730 310787.520000
  13703  13706     1   0.09730 310787.520000
  13704  13707     1   0.09730 310787.520000
  13705  13709     1   0.10969 276646.080000
  13705  13710     1   0.10969 276646.080000
  13711  13712     1   0.09730 310787.520000
  13714  13716     1   0.10969 276646.080000
  13715  13717     1   0.10969 276646.080000
  13718  13722     1   0.10969 276646.080000
  13719  13721     1   0.10969 276646.080000
  13720  13723     1   0.10961 277566.560000
  13725  13731     1   0.09730 310787.520000
  13726  13729     1   0.09730 310787.520000
  13727  13730     1   0.09730 310787.520000
  13728  13732     1   0.10969 276646.080000
  13728  13733     1   0.10969 276646.080000
  13734  13735     1   0.09730 310787.520000
  13737  13739     1   0.10969 276646.080000
  13738  13740     1   0.10969 276646.080000
  13741  13745     1   0.10969 276646.080000
  13742  13744     1   0.10969 276646.080000
  13743  13746     1   0.10961 277566.560000
  13748  13754     1   0.09730 310787.520000
  13749  13752     1   0.09730 310787.520000
  13750  13753     1   0.09730 310787.520000
  13751  13755     1   0.10969 276646.080000
  13751  13756     1   0.10969 276646.080000
  13757  13758     1   0.09730 310787.520000
  13760  13762     1   0.10969 276646.080000
  13761  13763     1   0.10969 276646.080000
  13764  13768     1   0.10969 276646.080000
  13765  13767     1   0.10969 276646.080000
  13766  13769     1   0.10961 277566.560000
  13771  13777     1   0.09730 310787.520000
  13772  13775     1   0.09730 310787.520000
  13773  13776     1   0.09730 310787.520000
  13774  13778     1   0.10969 276646.080000
  13774  13779     1   0.10969 276646.080000
  13780  13781     1   0.09730 310787.520000
  13783  13785     1   0.10969 276646.080000
  13784  13786     1   0.10969 276646.080000
  13787  13791     1   0.10969 276646.080000
  13788  13790     1   0.10969 276646.080000
  13789  13792     1   0.10961 277566.560000
  13794  13800     1   0.09730 310787.520000
  13795  13798     1   0.09730 310787.520000
  13796  13799     1   0.09730 310787.520000
  13797  13801     1   0.10969 276646.080000
  13797  13802     1   0.10969 276646.080000
  13803  13804     1   0.09730 310787.520000
  13806  13808     1   0.10969 276646.080000
  13807  13809     1   0.10969 276646.080000
  13810  13814     1   0.10969 276646.080000
  13811  13813     1   0.10969 276646.080000
  13812  13815     1   0.10961 277566.560000
  13817  13823     1   0.09730 310787.520000
  13818  13821     1   0.09730 310787.520000
  13819  13822     1   0.09730 310787.520000
  13820  13824     1   0.10969 276646.080000
  13820  13825     1   0.10969 276646.080000
  13826  13827     1   0.09730 310787.520000
  13829  13831     1   0.10969 276646.080000
  13830  13832     1   0.10969 276646.080000
  13833  13837     1   0.10969 276646.080000
  13834  13836     1   0.10969 276646.080000
  13835  13838     1   0.10961 277566.560000
  13840  13846     1   0.09730 310787.520000
  13841  13844     1   0.09730 310787.520000
  13842  13845     1   0.09730 310787.520000
  13843  13847     1   0.10969 276646.080000
  13843  13848     1   0.10969 276646.080000
  13849  13850     1   0.09730 310787.520000
  13852  13854     1   0.10969 276646.080000
  13853  13855     1   0.10969 276646.080000
  13856  13860     1   0.10969 276646.080000
  13857  13859     1   0.10969 276646.080000
  13858  13861     1   0.10961 277566.560000
  13863  13869     1   0.09730 310787.520000
  13864  13867     1   0.09730 310787.520000
  13865  13868     1   0.09730 310787.520000
  13866  13870     1   0.10969 276646.080000
  13866  13871     1   0.10969 276646.080000
  13872  13873     1   0.09730 310787.520000
  13875  13877     1   0.10969 276646.080000
  13876  13878     1   0.10969 276646.080000
  13879  13883     1   0.10969 276646.080000
  13880  13882     1   0.10969 276646.080000
  13881  13884     1   0.10961 277566.560000
  13886  13892     1   0.09730 310787.520000
  13887  13890     1   0.09730 310787.520000
  13888  13891     1   0.09730 310787.520000
  13889  13893     1   0.10969 276646.080000
  13889  13894     1   0.10969 276646.080000
  13895  13896     1   0.09730 310787.520000
  13898  13900     1   0.10969 276646.080000
  13899  13901     1   0.10969 276646.080000
  13902  13906     1   0.10969 276646.080000
  13903  13905     1   0.10969 276646.080000
  13904  13907     1   0.10961 277566.560000
  13909  13915     1   0.09730 310787.520000
  13910  13913     1   0.09730 310787.520000
  13911  13914     1   0.09730 310787.520000
  13912  13916     1   0.10969 276646.080000
  13912  13917     1   0.10969 276646.080000
  13918  13919     1   0.09730 310787.520000
  13921  13923     1   0.10969 276646.080000
  13922  13924     1   0.10969 276646.080000
  13925  13929     1   0.10969 276646.080000
  13926  13928     1   0.10969 276646.080000
  13927  13930     1   0.10961 277566.560000
  13932  13938     1   0.09730 310787.520000
  13933  13936     1   0.09730 310787.520000
  13934  13937     1   0.09730 310787.520000
  13935  13939     1   0.10969 276646.080000
  13935  13940     1   0.10969 276646.080000
  13941  13942     1   0.09730 310787.520000
  13944  13946     1   0.10969 276646.080000
  13945  13947     1   0.10969 276646.080000
  13948  13952     1   0.10969 276646.080000
  13949  13951     1   0.10969 276646.080000
  13950  13953     1   0.10961 277566.560000
  13955  13961     1   0.09730 310787.520000
  13956  13959     1   0.09730 310787.520000
  13957  13960     1   0.09730 310787.520000
  13958  13962     1   0.10969 276646.080000
  13958  13963     1   0.10969 276646.080000
  13964  13965     1   0.09730 310787.520000
  13967  13969     1   0.10969 276646.080000
  13968  13970     1   0.10969 276646.080000
  13971  13975     1   0.10969 276646.080000
  13972  13974     1   0.10969 276646.080000
  13973  13976     1   0.10961 277566.560000
  13978  13984     1   0.09730 310787.520000
  13979  13982     1   0.09730 310787.520000
  13980  13983     1   0.09730 310787.520000
  13981  13985     1   0.10969 276646.080000
  13981  13986     1   0.10969 276646.080000
  13987  13988     1   0.09730 310787.520000
  13990  13992     1   0.10969 276646.080000
  13991  13993     1   0.10969 276646.080000
  13994  13998     1   0.10969 276646.080000
  13995  13997     1   0.10969 276646.080000
  13996  13999     1   0.10961 277566.560000
  14001  14007     1   0.09730 310787.520000
  14002  14005     1   0.09730 310787.520000
  14003  14006     1   0.09730 310787.520000
  14004  14008     1   0.10969 276646.080000
  14004  14009     1   0.10969 276646.080000
  14010  14011     1   0.09730 310787.520000
  14013  14015     1   0.10969 276646.080000
  14014  14016     1   0.10969 276646.080000
  14017  14021     1   0.10969 276646.080000
  14018  14020     1   0.10969 276646.080000
  14019  14022     1   0.10961 277566.560000
  14024  14030     1   0.09730 310787.520000
  14025  14028     1   0.09730 310787.520000
  14026  14029     1   0.09730 310787.520000
  14027  14031     1   0.10969 276646.080000
  14027  14032     1   0.10969 276646.080000
  14033  14034     1   0.09730 310787.520000
  14036  14038     1   0.10969 276646.080000
  14037  14039     1   0.10969 276646.080000
  14040  14044     1   0.10969 276646.080000
  14041  14043     1   0.10969 276646.080000
  14042  14045     1   0.10961 277566.560000
  14047  14053     1   0.09730 310787.520000
  14048  14051     1   0.09730 310787.520000
  14049  14052     1   0.09730 310787.520000
  14050  14054     1   0.10969 276646.080000
  14050  14055     1   0.10969 276646.080000
  14056  14057     1   0.09730 310787.520000
  14059  14061     1   0.10969 276646.080000
  14060  14062     1   0.10969 276646.080000
  14063  14067     1   0.10969 276646.080000
  14064  14066     1   0.10969 276646.080000
  14065  14068     1   0.10961 277566.560000
  14070  14076     1   0.09730 310787.520000
  14071  14074     1   0.09730 310787.520000
  14072  14075     1   0.09730 310787.520000
  14073  14077     1   0.10969 276646.080000
  14073  14078     1   0.10969 276646.080000
  14079  14080     1   0.09730 310787.520000
  14082  14084     1   0.10969 276646.080000
  14083  14085     1   0.10969 276646.080000
  14086  14090     1   0.10969 276646.080000
  14087  14089     1   0.10969 276646.080000
  14088  14091     1   0.10961 277566.560000
  14093  14099     1   0.09730 310787.520000
  14094  14097     1   0.09730 310787.520000
  14095  14098     1   0.09730 310787.520000
  14096  14100     1   0.10969 276646.080000
  14096  14101     1   0.10969 276646.080000
  14102  14103     1   0.09730 310787.520000
  14105  14107     1   0.10969 276646.080000
  14106  14108     1   0.10969 276646.080000
  14109  14113     1   0.10969 276646.080000
  14110  14112     1   0.10969 276646.080000
  14111  14114     1   0.10961 277566.560000
  14116  14122     1   0.09730 310787.520000
  14117  14120     1   0.09730 310787.520000
  14118  14121     1   0.09730 310787.520000
  14119  14123     1   0.10969 276646.080000
  14119  14124     1   0.10969 276646.080000
  14125  14126     1   0.09730 310787.520000
  14128  14130     1   0.10969 276646.080000
  14129  14131     1   0.10969 276646.080000
  14132  14136     1   0.10969 276646.080000
  14133  14135     1   0.10969 276646.080000
  14134  14137     1   0.10961 277566.560000
  14139  14145     1   0.09730 310787.520000
  14140  14143     1   0.09730 310787.520000
  14141  14144     1   0.09730 310787.520000
  14142  14146     1   0.10969 276646.080000
  14142  14147     1   0.10969 276646.080000
  14148  14149     1   0.09730 310787.520000
  14151  14153     1   0.10969 276646.080000
  14152  14154     1   0.10969 276646.080000
  14155  14159     1   0.10969 276646.080000
  14156  14158     1   0.10969 276646.080000
  14157  14160     1   0.10961 277566.560000
  14162  14168     1   0.09730 310787.520000
  14163  14166     1   0.09730 310787.520000
  14164  14167     1   0.09730 310787.520000
  14165  14169     1   0.10969 276646.080000
  14165  14170     1   0.10969 276646.080000
  14171  14172     1   0.09730 310787.520000
  14174  14176     1   0.10969 276646.080000
  14175  14177     1   0.10969 276646.080000
  14178  14182     1   0.10969 276646.080000
  14179  14181     1   0.10969 276646.080000
  14180  14183     1   0.10961 277566.560000
  14185  14191     1   0.09730 310787.520000
  14186  14189     1   0.09730 310787.520000
  14187  14190     1   0.09730 310787.520000
  14188  14192     1   0.10969 276646.080000
  14188  14193     1   0.10969 276646.080000
  14194  14195     1   0.09730 310787.520000
  14197  14199     1   0.10969 276646.080000
  14198  14200     1   0.10969 276646.080000
  14201  14205     1   0.10969 276646.080000
  14202  14204     1   0.10969 276646.080000
  14203  14206     1   0.10961 277566.560000
  14208  14214     1   0.09730 310787.520000
  14209  14212     1   0.09730 310787.520000
  14210  14213     1   0.09730 310787.520000
  14211  14215     1   0.10969 276646.080000
  14211  14216     1   0.10969 276646.080000
  14217  14218     1   0.09730 310787.520000
  14220  14222     1   0.10969 276646.080000
  14221  14223     1   0.10969 276646.080000
  14224  14228     1   0.10969 276646.080000
  14225  14227     1   0.10969 276646.080000
  14226  14229     1   0.10961 277566.560000
  14231  14237     1   0.09730 310787.520000
  14232  14235     1   0.09730 310787.520000
  14233  14236     1   0.09730 310787.520000
  14234  14238     1   0.10969 276646.080000
  14234  14239     1   0.10969 276646.080000
  14240  14241     1   0.09730 310787.520000
  14243  14245     1   0.10969 276646.080000
  14244  14246     1   0.10969 276646.080000
  14247  14251     1   0.10969 276646.080000
  14248  14250     1   0.10969 276646.080000
  14249  14252     1   0.10961 277566.560000
  14254  14260     1   0.09730 310787.520000
  14255  14258     1   0.09730 310787.520000
  14256  14259     1   0.09730 310787.520000
  14257  14261     1   0.10969 276646.080000
  14257  14262     1   0.10969 276646.080000
  14263  14264     1   0.09730 310787.520000
  14266  14268     1   0.10969 276646.080000
  14267  14269     1   0.10969 276646.080000
  14270  14274     1   0.10969 276646.080000
  14271  14273     1   0.10969 276646.080000
  14272  14275     1   0.10961 277566.560000
  14277  14283     1   0.09730 310787.520000
  14278  14281     1   0.09730 310787.520000
  14279  14282     1   0.09730 310787.520000
  14280  14284     1   0.10969 276646.080000
  14280  14285     1   0.10969 276646.080000
  14286  14287     1   0.09730 310787.520000
  14289  14291     1   0.10969 276646.080000
  14290  14292     1   0.10969 276646.080000
  14293  14297     1   0.10969 276646.080000
  14294  14296     1   0.10969 276646.080000
  14295  14298     1   0.10961 277566.560000
  14300  14306     1   0.09730 310787.520000
  14301  14304     1   0.09730 310787.520000
  14302  14305     1   0.09730 310787.520000
  14303  14307     1   0.10969 276646.080000
  14303  14308     1   0.10969 276646.080000
  14309  14310     1   0.09730 310787.520000
  14312  14314     1   0.10969 276646.080000
  14313  14315     1   0.10969 276646.080000
  14316  14320     1   0.10969 276646.080000
  14317  14319     1   0.10969 276646.080000
  14318  14321     1   0.10961 277566.560000
  14323  14329     1   0.09730 310787.520000
  14324  14327     1   0.09730 310787.520000
  14325  14328     1   0.09730 310787.520000
  14326  14330     1   0.10969 276646.080000
  14326  14331     1   0.10969 276646.080000
  14332  14333     1   0.09730 310787.520000
  14335  14337     1   0.10969 276646.080000
  14336  14338     1   0.10969 276646.080000
  14339  14343     1   0.10969 276646.080000
  14340  14342     1   0.10969 276646.080000
  14341  14344     1   0.10961 277566.560000
  14346  14352     1   0.09730 310787.520000
  14347  14350     1   0.09730 310787.520000
  14348  14351     1   0.09730 310787.520000
  14349  14353     1   0.10969 276646.080000
  14349  14354     1   0.10969 276646.080000
  14355  14356     1   0.09730 310787.520000
  14358  14360     1   0.10969 276646.080000
  14359  14361     1   0.10969 276646.080000
  14362  14366     1   0.10969 276646.080000
  14363  14365     1   0.10969 276646.080000
  14364  14367     1   0.10961 277566.560000
  14369  14375     1   0.09730 310787.520000
  14370  14373     1   0.09730 310787.520000
  14371  14374     1   0.09730 310787.520000
  14372  14376     1   0.10969 276646.080000
  14372  14377     1   0.10969 276646.080000
  14378  14379     1   0.09730 310787.520000
  14381  14383     1   0.10969 276646.080000
  14382  14384     1   0.10969 276646.080000
  14385  14389     1   0.10969 276646.080000
  14386  14388     1   0.10969 276646.080000
  14387  14390     1   0.10961 277566.560000
  14392  14398     1   0.09730 310787.520000
  14393  14396     1   0.09730 310787.520000
  14394  14397     1   0.09730 310787.520000
  14395  14399     1   0.10969 276646.080000
  14395  14400     1   0.10969 276646.080000
  14401  14402     1   0.09730 310787.520000
  14404  14406     1   0.10969 276646.080000
  14405  14407     1   0.10969 276646.080000
  14408  14412     1   0.10969 276646.080000
  14409  14411     1   0.10969 276646.080000
  14410  14413     1   0.10961 277566.560000
  14415  14421     1   0.09730 310787.520000
  14416  14419     1   0.09730 310787.520000
  14417  14420     1   0.09730 310787.520000
  14418  14422     1   0.10969 276646.080000
  14418  14423     1   0.10969 276646.080000
  14424  14425     1   0.09730 310787.520000
  14427  14429     1   0.10969 276646.080000
  14428  14430     1   0.10969 276646.080000
  14431  14435     1   0.10969 276646.080000
  14432  14434     1   0.10969 276646.080000
  14433  14436     1   0.10961 277566.560000
  14438  14444     1   0.09730 310787.520000
  14439  14442     1   0.09730 310787.520000
  14440  14443     1   0.09730 310787.520000
  14441  14445     1   0.10969 276646.080000
  14441  14446     1   0.10969 276646.080000
  14447  14448     1   0.09730 310787.520000
  14450  14452     1   0.10969 276646.080000
  14451  14453     1   0.10969 276646.080000
  14454  14458     1   0.10969 276646.080000
  14455  14457     1   0.10969 276646.080000
  14456  14459     1   0.10961 277566.560000
  14461  14467     1   0.09730 310787.520000
  14462  14465     1   0.09730 310787.520000
  14463  14466     1   0.09730 310787.520000
  14464  14468     1   0.10969 276646.080000
  14464  14469     1   0.10969 276646.080000
  14470  14471     1   0.09730 310787.520000
  14473  14475     1   0.10969 276646.080000
  14474  14476     1   0.10969 276646.080000
  14477  14481     1   0.10969 276646.080000
  14478  14480     1   0.10969 276646.080000
  14479  14482     1   0.10961 277566.560000
  14484  14490     1   0.09730 310787.520000
  14485  14488     1   0.09730 310787.520000
  14486  14489     1   0.09730 310787.520000
  14487  14491     1   0.10969 276646.080000
  14487  14492     1   0.10969 276646.080000
  14493  14494     1   0.09730 310787.520000
  14496  14498     1   0.10969 276646.080000
  14497  14499     1   0.10969 276646.080000
  14500  14504     1   0.10969 276646.080000
  14501  14503     1   0.10969 276646.080000
  14502  14505     1   0.10961 277566.560000
  14507  14513     1   0.09730 310787.520000
  14508  14511     1   0.09730 310787.520000
  14509  14512     1   0.09730 310787.520000
  14510  14514     1   0.10969 276646.080000
  14510  14515     1   0.10969 276646.080000
  14516  14517     1   0.09730 310787.520000
  14519  14521     1   0.10969 276646.080000
  14520  14522     1   0.10969 276646.080000
  14523  14527     1   0.10969 276646.080000
  14524  14526     1   0.10969 276646.080000
  14525  14528     1   0.10961 277566.560000
  14530  14536     1   0.09730 310787.520000
  14531  14534     1   0.09730 310787.520000
  14532  14535     1   0.09730 310787.520000
  14533  14537     1   0.10969 276646.080000
  14533  14538     1   0.10969 276646.080000
  14539  14540     1   0.09730 310787.520000
  14542  14544     1   0.10969 276646.080000
  14543  14545     1   0.10969 276646.080000
  14546  14550     1   0.10969 276646.080000
  14547  14549     1   0.10969 276646.080000
  14548  14551     1   0.10961 277566.560000
  14553  14559     1   0.09730 310787.520000
  14554  14557     1   0.09730 310787.520000
  14555  14558     1   0.09730 310787.520000
  14556  14560     1   0.10969 276646.080000
  14556  14561     1   0.10969 276646.080000
  14562  14563     1   0.09730 310787.520000
  14565  14567     1   0.10969 276646.080000
  14566  14568     1   0.10969 276646.080000
  14569  14573     1   0.10969 276646.080000
  14570  14572     1   0.10969 276646.080000
  14571  14574     1   0.10961 277566.560000
  14576  14582     1   0.09730 310787.520000
  14577  14580     1   0.09730 310787.520000
  14578  14581     1   0.09730 310787.520000
  14579  14583     1   0.10969 276646.080000
  14579  14584     1   0.10969 276646.080000
  14585  14586     1   0.09730 310787.520000
  14588  14590     1   0.10969 276646.080000
  14589  14591     1   0.10969 276646.080000
  14592  14596     1   0.10969 276646.080000
  14593  14595     1   0.10969 276646.080000
  14594  14597     1   0.10961 277566.560000
  14599  14605     1   0.09730 310787.520000
  14600  14603     1   0.09730 310787.520000
  14601  14604     1   0.09730 310787.520000
  14602  14606     1   0.10969 276646.080000
  14602  14607     1   0.10969 276646.080000
  14608  14609     1   0.09730 310787.520000
  14611  14613     1   0.10969 276646.080000
  14612  14614     1   0.10969 276646.080000
  14615  14619     1   0.10969 276646.080000
  14616  14618     1   0.10969 276646.080000
  14617  14620     1   0.10961 277566.560000
  14622  14628     1   0.09730 310787.520000
  14623  14626     1   0.09730 310787.520000
  14624  14627     1   0.09730 310787.520000
  14625  14629     1   0.10969 276646.080000
  14625  14630     1   0.10969 276646.080000
  14631  14632     1   0.09730 310787.520000
  14634  14636     1   0.10969 276646.080000
  14635  14637     1   0.10969 276646.080000
  14638  14642     1   0.10969 276646.080000
  14639  14641     1   0.10969 276646.080000
  14640  14643     1   0.10961 277566.560000
  14645  14651     1   0.09730 310787.520000
  14646  14649     1   0.09730 310787.520000
  14647  14650     1   0.09730 310787.520000
  14648  14652     1   0.10969 276646.080000
  14648  14653     1   0.10969 276646.080000
  14654  14655     1   0.09730 310787.520000
  14657  14659     1   0.10969 276646.080000
  14658  14660     1   0.10969 276646.080000
  14661  14665     1   0.10969 276646.080000
  14662  14664     1   0.10969 276646.080000
  14663  14666     1   0.10961 277566.560000
  14668  14674     1   0.09730 310787.520000
  14669  14672     1   0.09730 310787.520000
  14670  14673     1   0.09730 310787.520000
  14671  14675     1   0.10969 276646.080000
  14671  14676     1   0.10969 276646.080000
  14677  14678     1   0.09730 310787.520000
  14680  14682     1   0.10969 276646.080000
  14681  14683     1   0.10969 276646.080000
  14684  14688     1   0.10969 276646.080000
  14685  14687     1   0.10969 276646.080000
  14686  14689     1   0.10961 277566.560000
  14691  14697     1   0.09730 310787.520000
  14692  14695     1   0.09730 310787.520000
  14693  14696     1   0.09730 310787.520000
  14694  14698     1   0.10969 276646.080000
  14694  14699     1   0.10969 276646.080000
  14700  14701     1   0.09730 310787.520000
  14703  14705     1   0.10969 276646.080000
  14704  14706     1   0.10969 276646.080000
  14707  14711     1   0.10969 276646.080000
  14708  14710     1   0.10969 276646.080000
  14709  14712     1   0.10961 277566.560000
  14714  14720     1   0.09730 310787.520000
  14715  14718     1   0.09730 310787.520000
  14716  14719     1   0.09730 310787.520000
  14717  14721     1   0.10969 276646.080000
  14717  14722     1   0.10969 276646.080000
  14723  14724     1   0.09730 310787.520000
  14726  14728     1   0.10969 276646.080000
  14727  14729     1   0.10969 276646.080000
  14730  14734     1   0.10969 276646.080000
  14731  14733     1   0.10969 276646.080000
  14732  14735     1   0.10961 277566.560000
  14737  14743     1   0.09730 310787.520000
  14738  14741     1   0.09730 310787.520000
  14739  14742     1   0.09730 310787.520000
  14740  14744     1   0.10969 276646.080000
  14740  14745     1   0.10969 276646.080000
  14746  14747     1   0.09730 310787.520000
  14749  14751     1   0.10969 276646.080000
  14750  14752     1   0.10969 276646.080000
  14753  14757     1   0.10969 276646.080000
  14754  14756     1   0.10969 276646.080000
  14755  14758     1   0.10961 277566.560000
  14760  14766     1   0.09730 310787.520000
  14761  14764     1   0.09730 310787.520000
  14762  14765     1   0.09730 310787.520000
  14763  14767     1   0.10969 276646.080000
  14763  14768     1   0.10969 276646.080000
  14769  14770     1   0.09730 310787.520000
  14772  14774     1   0.10969 276646.080000
  14773  14775     1   0.10969 276646.080000
  14776  14780     1   0.10969 276646.080000
  14777  14779     1   0.10969 276646.080000
  14778  14781     1   0.10961 277566.560000
  14783  14789     1   0.09730 310787.520000
  14784  14787     1   0.09730 310787.520000
  14785  14788     1   0.09730 310787.520000
  14786  14790     1   0.10969 276646.080000
  14786  14791     1   0.10969 276646.080000
  14792  14793     1   0.09730 310787.520000
  14795  14797     1   0.10969 276646.080000
  14796  14798     1   0.10969 276646.080000
  14799  14803     1   0.10969 276646.080000
  14800  14802     1   0.10969 276646.080000
  14801  14804     1   0.10961 277566.560000
  14806  14812     1   0.09730 310787.520000
  14807  14810     1   0.09730 310787.520000
  14808  14811     1   0.09730 310787.520000
  14809  14813     1   0.10969 276646.080000
  14809  14814     1   0.10969 276646.080000
  14815  14816     1   0.09730 310787.520000
  14818  14820     1   0.10969 276646.080000
  14819  14821     1   0.10969 276646.080000
  14822  14826     1   0.10969 276646.080000
  14823  14825     1   0.10969 276646.080000
  14824  14827     1   0.10961 277566.560000
  14829  14835     1   0.09730 310787.520000
  14830  14833     1   0.09730 310787.520000
  14831  14834     1   0.09730 310787.520000
  14832  14836     1   0.10969 276646.080000
  14832  14837     1   0.10969 276646.080000
  14838  14839     1   0.09730 310787.520000
  14841  14843     1   0.10969 276646.080000
  14842  14844     1   0.10969 276646.080000
  14845  14849     1   0.10969 276646.080000
  14846  14848     1   0.10969 276646.080000
  14847  14850     1   0.10961 277566.560000
  14852  14858     1   0.09730 310787.520000
  14853  14856     1   0.09730 310787.520000
  14854  14857     1   0.09730 310787.520000
  14855  14859     1   0.10969 276646.080000
  14855  14860     1   0.10969 276646.080000
  14861  14862     1   0.09730 310787.520000
  14864  14866     1   0.10969 276646.080000
  14865  14867     1   0.10969 276646.080000
  14868  14872     1   0.10969 276646.080000
  14869  14871     1   0.10969 276646.080000
  14870  14873     1   0.10961 277566.560000
  14875  14881     1   0.09730 310787.520000
  14876  14879     1   0.09730 310787.520000
  14877  14880     1   0.09730 310787.520000
  14878  14882     1   0.10969 276646.080000
  14878  14883     1   0.10969 276646.080000
  14884  14885     1   0.09730 310787.520000
  14887  14889     1   0.10969 276646.080000
  14888  14890     1   0.10969 276646.080000
  14891  14895     1   0.10969 276646.080000
  14892  14894     1   0.10969 276646.080000
  14893  14896     1   0.10961 277566.560000
  14898  14904     1   0.09730 310787.520000
  14899  14902     1   0.09730 310787.520000
  14900  14903     1   0.09730 310787.520000
  14901  14905     1   0.10969 276646.080000
  14901  14906     1   0.10969 276646.080000
  14907  14908     1   0.09730 310787.520000
  14910  14912     1   0.10969 276646.080000
  14911  14913     1   0.10969 276646.080000
  14914  14918     1   0.10969 276646.080000
  14915  14917     1   0.10969 276646.080000
  14916  14919     1   0.10961 277566.560000
  14921  14927     1   0.09730 310787.520000
  14922  14925     1   0.09730 310787.520000
  14923  14926     1   0.09730 310787.520000
  14924  14928     1   0.10969 276646.080000
  14924  14929     1   0.10969 276646.080000
  14930  14931     1   0.09730 310787.520000
  14933  14935     1   0.10969 276646.080000
  14934  14936     1   0.10969 276646.080000
  14937  14941     1   0.10969 276646.080000
  14938  14940     1   0.10969 276646.080000
  14939  14942     1   0.10961 277566.560000
  14944  14950     1   0.09730 310787.520000
  14945  14948     1   0.09730 310787.520000
  14946  14949     1   0.09730 310787.520000
  14947  14951     1   0.10969 276646.080000
  14947  14952     1   0.10969 276646.080000
  14953  14954     1   0.09730 310787.520000
  14956  14958     1   0.10969 276646.080000
  14957  14959     1   0.10969 276646.080000
  14960  14964     1   0.10969 276646.080000
  14961  14963     1   0.10969 276646.080000
  14962  14965     1   0.10961 277566.560000
  14967  14973     1   0.09730 310787.520000
  14968  14971     1   0.09730 310787.520000
  14969  14972     1   0.09730 310787.520000
  14970  14974     1   0.10969 276646.080000
  14970  14975     1   0.10969 276646.080000
  14976  14977     1   0.09730 310787.520000
  14979  14981     1   0.10969 276646.080000
  14980  14982     1   0.10969 276646.080000
  14983  14987     1   0.10969 276646.080000
  14984  14986     1   0.10969 276646.080000
  14985  14988     1   0.10961 277566.560000
  14990  14996     1   0.09730 310787.520000
  14991  14994     1   0.09730 310787.520000
  14992  14995     1   0.09730 310787.520000
  14993  14997     1   0.10969 276646.080000
  14993  14998     1   0.10969 276646.080000
  14999  15000     1   0.09730 310787.520000
  15002  15004     1   0.10969 276646.080000
  15003  15005     1   0.10969 276646.080000
  15006  15010     1   0.10969 276646.080000
  15007  15009     1   0.10969 276646.080000
  15008  15011     1   0.10961 277566.560000
  15013  15019     1   0.09730 310787.520000
  15014  15017     1   0.09730 310787.520000
  15015  15018     1   0.09730 310787.520000
  15016  15020     1   0.10969 276646.080000
  15016  15021     1   0.10969 276646.080000
  15022  15023     1   0.09730 310787.520000
  15025  15027     1   0.10969 276646.080000
  15026  15028     1   0.10969 276646.080000
  15029  15033     1   0.10969 276646.080000
  15030  15032     1   0.10969 276646.080000
  15031  15034     1   0.10961 277566.560000
  15036  15042     1   0.09730 310787.520000
  15037  15040     1   0.09730 310787.520000
  15038  15041     1   0.09730 310787.520000
  15039  15043     1   0.10969 276646.080000
  15039  15044     1   0.10969 276646.080000
  15045  15046     1   0.09730 310787.520000
  15048  15050     1   0.10969 276646.080000
  15049  15051     1   0.10969 276646.080000
  15052  15056     1   0.10969 276646.080000
  15053  15055     1   0.10969 276646.080000
  15054  15057     1   0.10961 277566.560000
  15059  15065     1   0.09730 310787.520000
  15060  15063     1   0.09730 310787.520000
  15061  15064     1   0.09730 310787.520000
  15062  15066     1   0.10969 276646.080000
  15062  15067     1   0.10969 276646.080000
  15068  15069     1   0.09730 310787.520000
  15071  15073     1   0.10969 276646.080000
  15072  15074     1   0.10969 276646.080000
  15075  15079     1   0.10969 276646.080000
  15076  15078     1   0.10969 276646.080000
  15077  15080     1   0.10961 277566.560000
  15082  15088     1   0.09730 310787.520000
  15083  15086     1   0.09730 310787.520000
  15084  15087     1   0.09730 310787.520000
  15085  15089     1   0.10969 276646.080000
  15085  15090     1   0.10969 276646.080000
  15091  15092     1   0.09730 310787.520000
  15094  15096     1   0.10969 276646.080000
  15095  15097     1   0.10969 276646.080000
  15098  15102     1   0.10969 276646.080000
  15099  15101     1   0.10969 276646.080000
  15100  15103     1   0.10961 277566.560000
  15105  15111     1   0.09730 310787.520000
  15106  15109     1   0.09730 310787.520000
  15107  15110     1   0.09730 310787.520000
  15108  15112     1   0.10969 276646.080000
  15108  15113     1   0.10969 276646.080000
  15114  15115     1   0.09730 310787.520000
  15117  15119     1   0.10969 276646.080000
  15118  15120     1   0.10969 276646.080000
  15121  15125     1   0.10969 276646.080000
  15122  15124     1   0.10969 276646.080000
  15123  15126     1   0.10961 277566.560000
  15128  15134     1   0.09730 310787.520000
  15129  15132     1   0.09730 310787.520000
  15130  15133     1   0.09730 310787.520000
  15131  15135     1   0.10969 276646.080000
  15131  15136     1   0.10969 276646.080000
  15137  15138     1   0.09730 310787.520000
  15140  15142     1   0.10969 276646.080000
  15141  15143     1   0.10969 276646.080000
  15144  15148     1   0.10969 276646.080000
  15145  15147     1   0.10969 276646.080000
  15146  15149     1   0.10961 277566.560000
  15151  15157     1   0.09730 310787.520000
  15152  15155     1   0.09730 310787.520000
  15153  15156     1   0.09730 310787.520000
  15154  15158     1   0.10969 276646.080000
  15154  15159     1   0.10969 276646.080000
  15160  15161     1   0.09730 310787.520000
  15163  15165     1   0.10969 276646.080000
  15164  15166     1   0.10969 276646.080000
  15167  15171     1   0.10969 276646.080000
  15168  15170     1   0.10969 276646.080000
  15169  15172     1   0.10961 277566.560000
  15174  15180     1   0.09730 310787.520000
  15175  15178     1   0.09730 310787.520000
  15176  15179     1   0.09730 310787.520000
  15177  15181     1   0.10969 276646.080000
  15177  15182     1   0.10969 276646.080000
  15183  15184     1   0.09730 310787.520000
  15186  15188     1   0.10969 276646.080000
  15187  15189     1   0.10969 276646.080000
  15190  15194     1   0.10969 276646.080000
  15191  15193     1   0.10969 276646.080000
  15192  15195     1   0.10961 277566.560000
  15197  15203     1   0.09730 310787.520000
  15198  15201     1   0.09730 310787.520000
  15199  15202     1   0.09730 310787.520000
  15200  15204     1   0.10969 276646.080000
  15200  15205     1   0.10969 276646.080000
  15206  15207     1   0.09730 310787.520000
  15209  15211     1   0.10969 276646.080000
  15210  15212     1   0.10969 276646.080000
  15213  15217     1   0.10969 276646.080000
  15214  15216     1   0.10969 276646.080000
  15215  15218     1   0.10961 277566.560000
  15220  15226     1   0.09730 310787.520000
  15221  15224     1   0.09730 310787.520000
  15222  15225     1   0.09730 310787.520000
  15223  15227     1   0.10969 276646.080000
  15223  15228     1   0.10969 276646.080000
  15229  15230     1   0.09730 310787.520000
  15232  15234     1   0.10969 276646.080000
  15233  15235     1   0.10969 276646.080000
  15236  15240     1   0.10969 276646.080000
  15237  15239     1   0.10969 276646.080000
  15238  15241     1   0.10961 277566.560000
  15243  15249     1   0.09730 310787.520000
  15244  15247     1   0.09730 310787.520000
  15245  15248     1   0.09730 310787.520000
  15246  15250     1   0.10969 276646.080000
  15246  15251     1   0.10969 276646.080000
  15252  15253     1   0.09730 310787.520000
  15255  15257     1   0.10969 276646.080000
  15256  15258     1   0.10969 276646.080000
  15259  15263     1   0.10969 276646.080000
  15260  15262     1   0.10969 276646.080000
  15261  15264     1   0.10961 277566.560000
  15266  15272     1   0.09730 310787.520000
  15267  15270     1   0.09730 310787.520000
  15268  15271     1   0.09730 310787.520000
  15269  15273     1   0.10969 276646.080000
  15269  15274     1   0.10969 276646.080000
  15275  15276     1   0.09730 310787.520000
  15278  15280     1   0.10969 276646.080000
  15279  15281     1   0.10969 276646.080000
  15282  15286     1   0.10969 276646.080000
  15283  15285     1   0.10969 276646.080000
  15284  15287     1   0.10961 277566.560000
  15289  15295     1   0.09730 310787.520000
  15290  15293     1   0.09730 310787.520000
  15291  15294     1   0.09730 310787.520000
  15292  15296     1   0.10969 276646.080000
  15292  15297     1   0.10969 276646.080000
  15298  15299     1   0.09730 310787.520000
  15301  15303     1   0.10969 276646.080000
  15302  15304     1   0.10969 276646.080000
  15305  15309     1   0.10969 276646.080000
  15306  15308     1   0.10969 276646.080000
  15307  15310     1   0.10961 277566.560000
  15312  15318     1   0.09730 310787.520000
  15313  15316     1   0.09730 310787.520000
  15314  15317     1   0.09730 310787.520000
  15315  15319     1   0.10969 276646.080000
  15315  15320     1   0.10969 276646.080000
  15321  15322     1   0.09730 310787.520000
  15324  15326     1   0.10969 276646.080000
  15325  15327     1   0.10969 276646.080000
  15328  15332     1   0.10969 276646.080000
  15329  15331     1   0.10969 276646.080000
  15330  15333     1   0.10961 277566.560000
  15335  15341     1   0.09730 310787.520000
  15336  15339     1   0.09730 310787.520000
  15337  15340     1   0.09730 310787.520000
  15338  15342     1   0.10969 276646.080000
  15338  15343     1   0.10969 276646.080000
  15344  15345     1   0.09730 310787.520000
  15347  15349     1   0.10969 276646.080000
  15348  15350     1   0.10969 276646.080000
  15351  15355     1   0.10969 276646.080000
  15352  15354     1   0.10969 276646.080000
  15353  15356     1   0.10961 277566.560000
  15358  15364     1   0.09730 310787.520000
  15359  15362     1   0.09730 310787.520000
  15360  15363     1   0.09730 310787.520000
  15361  15365     1   0.10969 276646.080000
  15361  15366     1   0.10969 276646.080000
  15367  15368     1   0.09730 310787.520000
  15370  15372     1   0.10969 276646.080000
  15371  15373     1   0.10969 276646.080000
  15374  15378     1   0.10969 276646.080000
  15375  15377     1   0.10969 276646.080000
  15376  15379     1   0.10961 277566.560000
  15381  15387     1   0.09730 310787.520000
  15382  15385     1   0.09730 310787.520000
  15383  15386     1   0.09730 310787.520000
  15384  15388     1   0.10969 276646.080000
  15384  15389     1   0.10969 276646.080000
  15390  15391     1   0.09730 310787.520000
  15393  15395     1   0.10969 276646.080000
  15394  15396     1   0.10969 276646.080000
  15397  15401     1   0.10969 276646.080000
  15398  15400     1   0.10969 276646.080000
  15399  15402     1   0.10961 277566.560000
  15404  15410     1   0.09730 310787.520000
  15405  15408     1   0.09730 310787.520000
  15406  15409     1   0.09730 310787.520000
  15407  15411     1   0.10969 276646.080000
  15407  15412     1   0.10969 276646.080000
  15413  15414     1   0.09730 310787.520000
  15416  15418     1   0.10969 276646.080000
  15417  15419     1   0.10969 276646.080000
  15420  15424     1   0.10969 276646.080000
  15421  15423     1   0.10969 276646.080000
  15422  15425     1   0.10961 277566.560000
  15427  15433     1   0.09730 310787.520000
  15428  15431     1   0.09730 310787.520000
  15429  15432     1   0.09730 310787.520000
  15430  15434     1   0.10969 276646.080000
  15430  15435     1   0.10969 276646.080000
  15436  15437     1   0.09730 310787.520000
  15439  15441     1   0.10969 276646.080000
  15440  15442     1   0.10969 276646.080000
  15443  15447     1   0.10969 276646.080000
  15444  15446     1   0.10969 276646.080000
  15445  15448     1   0.10961 277566.560000
  15450  15456     1   0.09730 310787.520000
  15451  15454     1   0.09730 310787.520000
  15452  15455     1   0.09730 310787.520000
  15453  15457     1   0.10969 276646.080000
  15453  15458     1   0.10969 276646.080000
  15459  15460     1   0.09730 310787.520000
  15462  15464     1   0.10969 276646.080000
  15463  15465     1   0.10969 276646.080000
  15466  15470     1   0.10969 276646.080000
  15467  15469     1   0.10969 276646.080000
  15468  15471     1   0.10961 277566.560000
  15473  15479     1   0.09730 310787.520000
  15474  15477     1   0.09730 310787.520000
  15475  15478     1   0.09730 310787.520000
  15476  15480     1   0.10969 276646.080000
  15476  15481     1   0.10969 276646.080000
  15482  15483     1   0.09730 310787.520000
  15485  15487     1   0.10969 276646.080000
  15486  15488     1   0.10969 276646.080000
  15489  15493     1   0.10969 276646.080000
  15490  15492     1   0.10969 276646.080000
  15491  15494     1   0.10961 277566.560000
  15496  15502     1   0.09730 310787.520000
  15497  15500     1   0.09730 310787.520000
  15498  15501     1   0.09730 310787.520000
  15499  15503     1   0.10969 276646.080000
  15499  15504     1   0.10969 276646.080000
  15505  15506     1   0.09730 310787.520000
  15508  15510     1   0.10969 276646.080000
  15509  15511     1   0.10969 276646.080000
  15512  15516     1   0.10969 276646.080000
  15513  15515     1   0.10969 276646.080000
  15514  15517     1   0.10961 277566.560000
  15519  15525     1   0.09730 310787.520000
  15520  15523     1   0.09730 310787.520000
  15521  15524     1   0.09730 310787.520000
  15522  15526     1   0.10969 276646.080000
  15522  15527     1   0.10969 276646.080000
  15528  15529     1   0.09730 310787.520000
  15531  15533     1   0.10969 276646.080000
  15532  15534     1   0.10969 276646.080000
  15535  15539     1   0.10969 276646.080000
  15536  15538     1   0.10969 276646.080000
  15537  15540     1   0.10961 277566.560000
  15542  15548     1   0.09730 310787.520000
  15543  15546     1   0.09730 310787.520000
  15544  15547     1   0.09730 310787.520000
  15545  15549     1   0.10969 276646.080000
  15545  15550     1   0.10969 276646.080000
  15551  15552     1   0.09730 310787.520000
  15554  15556     1   0.10969 276646.080000
  15555  15557     1   0.10969 276646.080000
  15558  15562     1   0.10969 276646.080000
  15559  15561     1   0.10969 276646.080000
  15560  15563     1   0.10961 277566.560000
  15565  15571     1   0.09730 310787.520000
  15566  15569     1   0.09730 310787.520000
  15567  15570     1   0.09730 310787.520000
  15568  15572     1   0.10969 276646.080000
  15568  15573     1   0.10969 276646.080000
  15574  15575     1   0.09730 310787.520000
  15577  15579     1   0.10969 276646.080000
  15578  15580     1   0.10969 276646.080000
  15581  15585     1   0.10969 276646.080000
  15582  15584     1   0.10969 276646.080000
  15583  15586     1   0.10961 277566.560000
  15588  15594     1   0.09730 310787.520000
  15589  15592     1   0.09730 310787.520000
  15590  15593     1   0.09730 310787.520000
  15591  15595     1   0.10969 276646.080000
  15591  15596     1   0.10969 276646.080000
  15597  15598     1   0.09730 310787.520000
  15600  15602     1   0.10969 276646.080000
  15601  15603     1   0.10969 276646.080000
  15604  15608     1   0.10969 276646.080000
  15605  15607     1   0.10969 276646.080000
  15606  15609     1   0.10961 277566.560000
  15611  15617     1   0.09730 310787.520000
  15612  15615     1   0.09730 310787.520000
  15613  15616     1   0.09730 310787.520000
  15614  15618     1   0.10969 276646.080000
  15614  15619     1   0.10969 276646.080000
  15620  15621     1   0.09730 310787.520000
  15623  15625     1   0.10969 276646.080000
  15624  15626     1   0.10969 276646.080000
  15627  15631     1   0.10969 276646.080000
  15628  15630     1   0.10969 276646.080000
  15629  15632     1   0.10961 277566.560000
  15634  15640     1   0.09730 310787.520000
  15635  15638     1   0.09730 310787.520000
  15636  15639     1   0.09730 310787.520000
  15637  15641     1   0.10969 276646.080000
  15637  15642     1   0.10969 276646.080000
  15643  15644     1   0.09730 310787.520000
  15646  15648     1   0.10969 276646.080000
  15647  15649     1   0.10969 276646.080000
  15650  15654     1   0.10969 276646.080000
  15651  15653     1   0.10969 276646.080000
  15652  15655     1   0.10961 277566.560000
  15657  15663     1   0.09730 310787.520000
  15658  15661     1   0.09730 310787.520000
  15659  15662     1   0.09730 310787.520000
  15660  15664     1   0.10969 276646.080000
  15660  15665     1   0.10969 276646.080000
  15666  15667     1   0.09730 310787.520000
  15669  15671     1   0.10969 276646.080000
  15670  15672     1   0.10969 276646.080000
  15673  15677     1   0.10969 276646.080000
  15674  15676     1   0.10969 276646.080000
  15675  15678     1   0.10961 277566.560000
  15680  15686     1   0.09730 310787.520000
  15681  15684     1   0.09730 310787.520000
  15682  15685     1   0.09730 310787.520000
  15683  15687     1   0.10969 276646.080000
  15683  15688     1   0.10969 276646.080000
  15689  15690     1   0.09730 310787.520000
  15692  15694     1   0.10969 276646.080000
  15693  15695     1   0.10969 276646.080000
  15696  15700     1   0.10969 276646.080000
  15697  15699     1   0.10969 276646.080000
  15698  15701     1   0.10961 277566.560000
  15703  15709     1   0.09730 310787.520000
  15704  15707     1   0.09730 310787.520000
  15705  15708     1   0.09730 310787.520000
  15706  15710     1   0.10969 276646.080000
  15706  15711     1   0.10969 276646.080000
  15712  15713     1   0.09730 310787.520000
  15715  15717     1   0.10969 276646.080000
  15716  15718     1   0.10969 276646.080000
  15719  15723     1   0.10969 276646.080000
  15720  15722     1   0.10969 276646.080000
  15721  15724     1   0.10961 277566.560000
  15726  15732     1   0.09730 310787.520000
  15727  15730     1   0.09730 310787.520000
  15728  15731     1   0.09730 310787.520000
  15729  15733     1   0.10969 276646.080000
  15729  15734     1   0.10969 276646.080000
  15735  15736     1   0.09730 310787.520000
  15738  15740     1   0.10969 276646.080000
  15739  15741     1   0.10969 276646.080000
  15742  15746     1   0.10969 276646.080000
  15743  15745     1   0.10969 276646.080000
  15744  15747     1   0.10961 277566.560000
  15749  15755     1   0.09730 310787.520000
  15750  15753     1   0.09730 310787.520000
  15751  15754     1   0.09730 310787.520000
  15752  15756     1   0.10969 276646.080000
  15752  15757     1   0.10969 276646.080000
  15758  15759     1   0.09730 310787.520000
  15761  15763     1   0.10969 276646.080000
  15762  15764     1   0.10969 276646.080000
  15765  15769     1   0.10969 276646.080000
  15766  15768     1   0.10969 276646.080000
  15767  15770     1   0.10961 277566.560000
  15772  15778     1   0.09730 310787.520000
  15773  15776     1   0.09730 310787.520000
  15774  15777     1   0.09730 310787.520000
  15775  15779     1   0.10969 276646.080000
  15775  15780     1   0.10969 276646.080000
  15781  15782     1   0.09730 310787.520000
  15784  15786     1   0.10969 276646.080000
  15785  15787     1   0.10969 276646.080000
  15788  15792     1   0.10969 276646.080000
  15789  15791     1   0.10969 276646.080000
  15790  15793     1   0.10961 277566.560000
  15795  15801     1   0.09730 310787.520000
  15796  15799     1   0.09730 310787.520000
  15797  15800     1   0.09730 310787.520000
  15798  15802     1   0.10969 276646.080000
  15798  15803     1   0.10969 276646.080000
  15804  15805     1   0.09730 310787.520000
  15807  15809     1   0.10969 276646.080000
  15808  15810     1   0.10969 276646.080000
  15811  15815     1   0.10969 276646.080000
  15812  15814     1   0.10969 276646.080000
  15813  15816     1   0.10961 277566.560000
  15818  15824     1   0.09730 310787.520000
  15819  15822     1   0.09730 310787.520000
  15820  15823     1   0.09730 310787.520000
  15821  15825     1   0.10969 276646.080000
  15821  15826     1   0.10969 276646.080000
  15827  15828     1   0.09730 310787.520000
  15830  15832     1   0.10969 276646.080000
  15831  15833     1   0.10969 276646.080000
  15834  15838     1   0.10969 276646.080000
  15835  15837     1   0.10969 276646.080000
  15836  15839     1   0.10961 277566.560000
  15841  15847     1   0.09730 310787.520000
  15842  15845     1   0.09730 310787.520000
  15843  15846     1   0.09730 310787.520000
  15844  15848     1   0.10969 276646.080000
  15844  15849     1   0.10969 276646.080000
  15850  15851     1   0.09730 310787.520000
  15853  15855     1   0.10969 276646.080000
  15854  15856     1   0.10969 276646.080000
  15857  15861     1   0.10969 276646.080000
  15858  15860     1   0.10969 276646.080000
  15859  15862     1   0.10961 277566.560000
  15864  15870     1   0.09730 310787.520000
  15865  15868     1   0.09730 310787.520000
  15866  15869     1   0.09730 310787.520000
  15867  15871     1   0.10969 276646.080000
  15867  15872     1   0.10969 276646.080000
  15873  15874     1   0.09730 310787.520000
  15876  15878     1   0.10969 276646.080000
  15877  15879     1   0.10969 276646.080000
  15880  15884     1   0.10969 276646.080000
  15881  15883     1   0.10969 276646.080000
  15882  15885     1   0.10961 277566.560000
  15887  15893     1   0.09730 310787.520000
  15888  15891     1   0.09730 310787.520000
  15889  15892     1   0.09730 310787.520000
  15890  15894     1   0.10969 276646.080000
  15890  15895     1   0.10969 276646.080000
  15896  15897     1   0.09730 310787.520000
  15899  15901     1   0.10969 276646.080000
  15900  15902     1   0.10969 276646.080000
  15903  15907     1   0.10969 276646.080000
  15904  15906     1   0.10969 276646.080000
  15905  15908     1   0.10961 277566.560000
  15910  15916     1   0.09730 310787.520000
  15911  15914     1   0.09730 310787.520000
  15912  15915     1   0.09730 310787.520000
  15913  15917     1   0.10969 276646.080000
  15913  15918     1   0.10969 276646.080000
  15919  15920     1   0.09730 310787.520000
  15922  15924     1   0.10969 276646.080000
  15923  15925     1   0.10969 276646.080000
  15926  15930     1   0.10969 276646.080000
  15927  15929     1   0.10969 276646.080000
  15928  15931     1   0.10961 277566.560000
  15933  15939     1   0.09730 310787.520000
  15934  15937     1   0.09730 310787.520000
  15935  15938     1   0.09730 310787.520000
  15936  15940     1   0.10969 276646.080000
  15936  15941     1   0.10969 276646.080000
  15942  15943     1   0.09730 310787.520000
  15945  15947     1   0.10969 276646.080000
  15946  15948     1   0.10969 276646.080000
  15949  15953     1   0.10969 276646.080000
  15950  15952     1   0.10969 276646.080000
  15951  15954     1   0.10961 277566.560000
  15956  15962     1   0.09730 310787.520000
  15957  15960     1   0.09730 310787.520000
  15958  15961     1   0.09730 310787.520000
  15959  15963     1   0.10969 276646.080000
  15959  15964     1   0.10969 276646.080000
  15965  15966     1   0.09730 310787.520000
  15968  15970     1   0.10969 276646.080000
  15969  15971     1   0.10969 276646.080000
  15972  15976     1   0.10969 276646.080000
  15973  15975     1   0.10969 276646.080000
  15974  15977     1   0.10961 277566.560000
  15979  15985     1   0.09730 310787.520000
  15980  15983     1   0.09730 310787.520000
  15981  15984     1   0.09730 310787.520000
  15982  15986     1   0.10969 276646.080000
  15982  15987     1   0.10969 276646.080000
  15988  15989     1   0.09730 310787.520000
  15991  15993     1   0.10969 276646.080000
  15992  15994     1   0.10969 276646.080000
  15995  15999     1   0.10969 276646.080000
  15996  15998     1   0.10969 276646.080000
  15997  16000     1   0.10961 277566.560000
  16002  16008     1   0.09730 310787.520000
  16003  16006     1   0.09730 310787.520000
  16004  16007     1   0.09730 310787.520000
  16005  16009     1   0.10969 276646.080000
  16005  16010     1   0.10969 276646.080000
  16011  16012     1   0.09730 310787.520000
  16014  16016     1   0.10969 276646.080000
  16015  16017     1   0.10969 276646.080000
  16018  16022     1   0.10969 276646.080000
  16019  16021     1   0.10969 276646.080000
  16020  16023     1   0.10961 277566.560000
  16025  16031     1   0.09730 310787.520000
  16026  16029     1   0.09730 310787.520000
  16027  16030     1   0.09730 310787.520000
  16028  16032     1   0.10969 276646.080000
  16028  16033     1   0.10969 276646.080000
  16034  16035     1   0.09730 310787.520000
  16037  16039     1   0.10969 276646.080000
  16038  16040     1   0.10969 276646.080000
  16041  16045     1   0.10969 276646.080000
  16042  16044     1   0.10969 276646.080000
  16043  16046     1   0.10961 277566.560000
  16048  16054     1   0.09730 310787.520000
  16049  16052     1   0.09730 310787.520000
  16050  16053     1   0.09730 310787.520000
  16051  16055     1   0.10969 276646.080000
  16051  16056     1   0.10969 276646.080000
  16057  16058     1   0.09730 310787.520000
  16060  16062     1   0.10969 276646.080000
  16061  16063     1   0.10969 276646.080000
  16064  16068     1   0.10969 276646.080000
  16065  16067     1   0.10969 276646.080000
  16066  16069     1   0.10961 277566.560000
  16071  16077     1   0.09730 310787.520000
  16072  16075     1   0.09730 310787.520000
  16073  16076     1   0.09730 310787.520000
  16074  16078     1   0.10969 276646.080000
  16074  16079     1   0.10969 276646.080000
  16080  16081     1   0.09730 310787.520000
  16083  16085     1   0.10969 276646.080000
  16084  16086     1   0.10969 276646.080000
  16087  16091     1   0.10969 276646.080000
  16088  16090     1   0.10969 276646.080000
  16089  16092     1   0.10961 277566.560000
  16094  16100     1   0.09730 310787.520000
  16095  16098     1   0.09730 310787.520000
  16096  16099     1   0.09730 310787.520000
  16097  16101     1   0.10969 276646.080000
  16097  16102     1   0.10969 276646.080000
  16103  16104     1   0.09730 310787.520000
  16106  16108     1   0.10969 276646.080000
  16107  16109     1   0.10969 276646.080000
  16110  16114     1   0.10969 276646.080000
  16111  16113     1   0.10969 276646.080000
  16112  16115     1   0.10961 277566.560000
  16117  16123     1   0.09730 310787.520000
  16118  16121     1   0.09730 310787.520000
  16119  16122     1   0.09730 310787.520000
  16120  16124     1   0.10969 276646.080000
  16120  16125     1   0.10969 276646.080000
  16126  16127     1   0.09730 310787.520000
  16129  16131     1   0.10969 276646.080000
  16130  16132     1   0.10969 276646.080000
  16133  16137     1   0.10969 276646.080000
  16134  16136     1   0.10969 276646.080000
  16135  16138     1   0.10961 277566.560000
  16140  16146     1   0.09730 310787.520000
  16141  16144     1   0.09730 310787.520000
  16142  16145     1   0.09730 310787.520000
  16143  16147     1   0.10969 276646.080000
  16143  16148     1   0.10969 276646.080000
  16149  16150     1   0.09730 310787.520000
  16152  16154     1   0.10969 276646.080000
  16153  16155     1   0.10969 276646.080000
  16156  16160     1   0.10969 276646.080000
  16157  16159     1   0.10969 276646.080000
  16158  16161     1   0.10961 277566.560000
  16163  16169     1   0.09730 310787.520000
  16164  16167     1   0.09730 310787.520000
  16165  16168     1   0.09730 310787.520000
  16166  16170     1   0.10969 276646.080000
  16166  16171     1   0.10969 276646.080000
  16172  16173     1   0.09730 310787.520000
  16175  16177     1   0.10969 276646.080000
  16176  16178     1   0.10969 276646.080000
  16179  16183     1   0.10969 276646.080000
  16180  16182     1   0.10969 276646.080000
  16181  16184     1   0.10961 277566.560000
  16186  16192     1   0.09730 310787.520000
  16187  16190     1   0.09730 310787.520000
  16188  16191     1   0.09730 310787.520000
  16189  16193     1   0.10969 276646.080000
  16189  16194     1   0.10969 276646.080000
  16195  16196     1   0.09730 310787.520000
  16198  16200     1   0.10969 276646.080000
  16199  16201     1   0.10969 276646.080000
  16202  16206     1   0.10969 276646.080000
  16203  16205     1   0.10969 276646.080000
  16204  16207     1   0.10961 277566.560000
  16209  16215     1   0.09730 310787.520000
  16210  16213     1   0.09730 310787.520000
  16211  16214     1   0.09730 310787.520000
  16212  16216     1   0.10969 276646.080000
  16212  16217     1   0.10969 276646.080000
  16218  16219     1   0.09730 310787.520000
  16221  16223     1   0.10969 276646.080000
  16222  16224     1   0.10969 276646.080000
  16225  16229     1   0.10969 276646.080000
  16226  16228     1   0.10969 276646.080000
  16227  16230     1   0.10961 277566.560000
  16232  16238     1   0.09730 310787.520000
  16233  16236     1   0.09730 310787.520000
  16234  16237     1   0.09730 310787.520000
  16235  16239     1   0.10969 276646.080000
  16235  16240     1   0.10969 276646.080000
  16241  16242     1   0.09730 310787.520000
  16244  16246     1   0.10969 276646.080000
  16245  16247     1   0.10969 276646.080000
  16248  16252     1   0.10969 276646.080000
  16249  16251     1   0.10969 276646.080000
  16250  16253     1   0.10961 277566.560000
  16255  16261     1   0.09730 310787.520000
  16256  16259     1   0.09730 310787.520000
  16257  16260     1   0.09730 310787.520000
  16258  16262     1   0.10969 276646.080000
  16258  16263     1   0.10969 276646.080000
  16264  16265     1   0.09730 310787.520000
  16267  16269     1   0.10969 276646.080000
  16268  16270     1   0.10969 276646.080000
  16271  16275     1   0.10969 276646.080000
  16272  16274     1   0.10969 276646.080000
  16273  16276     1   0.10961 277566.560000
  16278  16284     1   0.09730 310787.520000
  16279  16282     1   0.09730 310787.520000
  16280  16283     1   0.09730 310787.520000
  16281  16285     1   0.10969 276646.080000
  16281  16286     1   0.10969 276646.080000
  16287  16288     1   0.09730 310787.520000
  16290  16292     1   0.10969 276646.080000
  16291  16293     1   0.10969 276646.080000
  16294  16298     1   0.10969 276646.080000
  16295  16297     1   0.10969 276646.080000
  16296  16299     1   0.10961 277566.560000
  16301  16307     1   0.09730 310787.520000
  16302  16305     1   0.09730 310787.520000
  16303  16306     1   0.09730 310787.520000
  16304  16308     1   0.10969 276646.080000
  16304  16309     1   0.10969 276646.080000
  16310  16311     1   0.09730 310787.520000
  16313  16315     1   0.10969 276646.080000
  16314  16316     1   0.10969 276646.080000
  16317  16321     1   0.10969 276646.080000
  16318  16320     1   0.10969 276646.080000
  16319  16322     1   0.10961 277566.560000
  16324  16330     1   0.09730 310787.520000
  16325  16328     1   0.09730 310787.520000
  16326  16329     1   0.09730 310787.520000
  16327  16331     1   0.10969 276646.080000
  16327  16332     1   0.10969 276646.080000
  16333  16334     1   0.09730 310787.520000
  16336  16338     1   0.10969 276646.080000
  16337  16339     1   0.10969 276646.080000
  16340  16344     1   0.10969 276646.080000
  16341  16343     1   0.10969 276646.080000
  16342  16345     1   0.10961 277566.560000
  16347  16353     1   0.09730 310787.520000
  16348  16351     1   0.09730 310787.520000
  16349  16352     1   0.09730 310787.520000
  16350  16354     1   0.10969 276646.080000
  16350  16355     1   0.10969 276646.080000
  16356  16357     1   0.09730 310787.520000
  16359  16361     1   0.10969 276646.080000
  16360  16362     1   0.10969 276646.080000
  16363  16367     1   0.10969 276646.080000
  16364  16366     1   0.10969 276646.080000
  16365  16368     1   0.10961 277566.560000
  16370  16376     1   0.09730 310787.520000
  16371  16374     1   0.09730 310787.520000
  16372  16375     1   0.09730 310787.520000
  16373  16377     1   0.10969 276646.080000
  16373  16378     1   0.10969 276646.080000
  16379  16380     1   0.09730 310787.520000
  16382  16384     1   0.10969 276646.080000
  16383  16385     1   0.10969 276646.080000
  16386  16390     1   0.10969 276646.080000
  16387  16389     1   0.10969 276646.080000
  16388  16391     1   0.10961 277566.560000
  16393  16399     1   0.09730 310787.520000
  16394  16397     1   0.09730 310787.520000
  16395  16398     1   0.09730 310787.520000
  16396  16400     1   0.10969 276646.080000
  16396  16401     1   0.10969 276646.080000
  16402  16403     1   0.09730 310787.520000
  16405  16407     1   0.10969 276646.080000
  16406  16408     1   0.10969 276646.080000
  16409  16413     1   0.10969 276646.080000
  16410  16412     1   0.10969 276646.080000
  16411  16414     1   0.10961 277566.560000
  16416  16422     1   0.09730 310787.520000
  16417  16420     1   0.09730 310787.520000
  16418  16421     1   0.09730 310787.520000
  16419  16423     1   0.10969 276646.080000
  16419  16424     1   0.10969 276646.080000
  16425  16426     1   0.09730 310787.520000
  16428  16430     1   0.10969 276646.080000
  16429  16431     1   0.10969 276646.080000
  16432  16436     1   0.10969 276646.080000
  16433  16435     1   0.10969 276646.080000
  16434  16437     1   0.10961 277566.560000
  16439  16445     1   0.09730 310787.520000
  16440  16443     1   0.09730 310787.520000
  16441  16444     1   0.09730 310787.520000
  16442  16446     1   0.10969 276646.080000
  16442  16447     1   0.10969 276646.080000
  16448  16449     1   0.09730 310787.520000
  16451  16453     1   0.10969 276646.080000
  16452  16454     1   0.10969 276646.080000
  16455  16459     1   0.10969 276646.080000
  16456  16458     1   0.10969 276646.080000
  16457  16460     1   0.10961 277566.560000
  16462  16468     1   0.09730 310787.520000
  16463  16466     1   0.09730 310787.520000
  16464  16467     1   0.09730 310787.520000
  16465  16469     1   0.10969 276646.080000
  16465  16470     1   0.10969 276646.080000
  16471  16472     1   0.09730 310787.520000
  16474  16476     1   0.10969 276646.080000
  16475  16477     1   0.10969 276646.080000
  16478  16482     1   0.10969 276646.080000
  16479  16481     1   0.10969 276646.080000
  16480  16483     1   0.10961 277566.560000
  16485  16491     1   0.09730 310787.520000
  16486  16489     1   0.09730 310787.520000
  16487  16490     1   0.09730 310787.520000
  16488  16492     1   0.10969 276646.080000
  16488  16493     1   0.10969 276646.080000
  16494  16495     1   0.09730 310787.520000
  16497  16499     1   0.10969 276646.080000
  16498  16500     1   0.10969 276646.080000
  16501  16505     1   0.10969 276646.080000
  16502  16504     1   0.10969 276646.080000
  16503  16506     1   0.10961 277566.560000
  16508  16514     1   0.09730 310787.520000
  16509  16512     1   0.09730 310787.520000
  16510  16513     1   0.09730 310787.520000
  16511  16515     1   0.10969 276646.080000
  16511  16516     1   0.10969 276646.080000
  16517  16518     1   0.09730 310787.520000
  16520  16522     1   0.10969 276646.080000
  16521  16523     1   0.10969 276646.080000
  16524  16528     1   0.10969 276646.080000
  16525  16527     1   0.10969 276646.080000
  16526  16529     1   0.10961 277566.560000
  16531  16537     1   0.09730 310787.520000
  16532  16535     1   0.09730 310787.520000
  16533  16536     1   0.09730 310787.520000
  16534  16538     1   0.10969 276646.080000
  16534  16539     1   0.10969 276646.080000
  16540  16541     1   0.09730 310787.520000
  16543  16545     1   0.10969 276646.080000
  16544  16546     1   0.10969 276646.080000
  16547  16551     1   0.10969 276646.080000
  16548  16550     1   0.10969 276646.080000
  16549  16552     1   0.10961 277566.560000
  16554  16560     1   0.09730 310787.520000
  16555  16558     1   0.09730 310787.520000
  16556  16559     1   0.09730 310787.520000
  16557  16561     1   0.10969 276646.080000
  16557  16562     1   0.10969 276646.080000
  16563  16564     1   0.09730 310787.520000
  16566  16568     1   0.10969 276646.080000
  16567  16569     1   0.10969 276646.080000
  16570  16574     1   0.10969 276646.080000
  16571  16573     1   0.10969 276646.080000
  16572  16575     1   0.10961 277566.560000
  16577  16583     1   0.09730 310787.520000
  16578  16581     1   0.09730 310787.520000
  16579  16582     1   0.09730 310787.520000
  16580  16584     1   0.10969 276646.080000
  16580  16585     1   0.10969 276646.080000
  16586  16587     1   0.09730 310787.520000
  16589  16591     1   0.10969 276646.080000
  16590  16592     1   0.10969 276646.080000
  16593  16597     1   0.10969 276646.080000
  16594  16596     1   0.10969 276646.080000
  16595  16598     1   0.10961 277566.560000
  16600  16606     1   0.09730 310787.520000
  16601  16604     1   0.09730 310787.520000
  16602  16605     1   0.09730 310787.520000
  16603  16607     1   0.10969 276646.080000
  16603  16608     1   0.10969 276646.080000
  16609  16610     1   0.09730 310787.520000
  16612  16614     1   0.10969 276646.080000
  16613  16615     1   0.10969 276646.080000
  16616  16620     1   0.10969 276646.080000
  16617  16619     1   0.10969 276646.080000
  16618  16621     1   0.10961 277566.560000
  16623  16629     1   0.09730 310787.520000
  16624  16627     1   0.09730 310787.520000
  16625  16628     1   0.09730 310787.520000
  16626  16630     1   0.10969 276646.080000
  16626  16631     1   0.10969 276646.080000
  16632  16633     1   0.09730 310787.520000
  16635  16637     1   0.10969 276646.080000
  16636  16638     1   0.10969 276646.080000
  16639  16643     1   0.10969 276646.080000
  16640  16642     1   0.10969 276646.080000
  16641  16644     1   0.10961 277566.560000
  16646  16652     1   0.09730 310787.520000
  16647  16650     1   0.09730 310787.520000
  16648  16651     1   0.09730 310787.520000
  16649  16653     1   0.10969 276646.080000
  16649  16654     1   0.10969 276646.080000
  16655  16656     1   0.09730 310787.520000
  16658  16660     1   0.10969 276646.080000
  16659  16661     1   0.10969 276646.080000
  16662  16666     1   0.10969 276646.080000
  16663  16665     1   0.10969 276646.080000
  16664  16667     1   0.10961 277566.560000
  16669  16675     1   0.09730 310787.520000
  16670  16673     1   0.09730 310787.520000
  16671  16674     1   0.09730 310787.520000
  16672  16676     1   0.10969 276646.080000
  16672  16677     1   0.10969 276646.080000
  16678  16679     1   0.09730 310787.520000
  16681  16683     1   0.10969 276646.080000
  16682  16684     1   0.10969 276646.080000
  16685  16689     1   0.10969 276646.080000
  16686  16688     1   0.10969 276646.080000
  16687  16690     1   0.10961 277566.560000
  16692  16698     1   0.09730 310787.520000
  16693  16696     1   0.09730 310787.520000
  16694  16697     1   0.09730 310787.520000
  16695  16699     1   0.10969 276646.080000
  16695  16700     1   0.10969 276646.080000
  16701  16702     1   0.09730 310787.520000
  16704  16706     1   0.10969 276646.080000
  16705  16707     1   0.10969 276646.080000
  16708  16712     1   0.10969 276646.080000
  16709  16711     1   0.10969 276646.080000
  16710  16713     1   0.10961 277566.560000
  16715  16721     1   0.09730 310787.520000
  16716  16719     1   0.09730 310787.520000
  16717  16720     1   0.09730 310787.520000
  16718  16722     1   0.10969 276646.080000
  16718  16723     1   0.10969 276646.080000
  16724  16725     1   0.09730 310787.520000
  16727  16729     1   0.10969 276646.080000
  16728  16730     1   0.10969 276646.080000
  16731  16735     1   0.10969 276646.080000
  16732  16734     1   0.10969 276646.080000
  16733  16736     1   0.10961 277566.560000
  16738  16744     1   0.09730 310787.520000
  16739  16742     1   0.09730 310787.520000
  16740  16743     1   0.09730 310787.520000
  16741  16745     1   0.10969 276646.080000
  16741  16746     1   0.10969 276646.080000
  16747  16748     1   0.09730 310787.520000
  16750  16752     1   0.10969 276646.080000
  16751  16753     1   0.10969 276646.080000
  16754  16758     1   0.10969 276646.080000
  16755  16757     1   0.10969 276646.080000
  16756  16759     1   0.10961 277566.560000
  16761  16767     1   0.09730 310787.520000
  16762  16765     1   0.09730 310787.520000
  16763  16766     1   0.09730 310787.520000
  16764  16768     1   0.10969 276646.080000
  16764  16769     1   0.10969 276646.080000
  16770  16771     1   0.09730 310787.520000
  16773  16775     1   0.10969 276646.080000
  16774  16776     1   0.10969 276646.080000
  16777  16781     1   0.10969 276646.080000
  16778  16780     1   0.10969 276646.080000
  16779  16782     1   0.10961 277566.560000
  16784  16790     1   0.09730 310787.520000
  16785  16788     1   0.09730 310787.520000
  16786  16789     1   0.09730 310787.520000
  16787  16791     1   0.10969 276646.080000
  16787  16792     1   0.10969 276646.080000
  16793  16794     1   0.09730 310787.520000
  16796  16798     1   0.10969 276646.080000
  16797  16799     1   0.10969 276646.080000
  16800  16804     1   0.10969 276646.080000
  16801  16803     1   0.10969 276646.080000
  16802  16805     1   0.10961 277566.560000
  16807  16813     1   0.09730 310787.520000
  16808  16811     1   0.09730 310787.520000
  16809  16812     1   0.09730 310787.520000
  16810  16814     1   0.10969 276646.080000
  16810  16815     1   0.10969 276646.080000
  16816  16817     1   0.09730 310787.520000
  16819  16821     1   0.10969 276646.080000
  16820  16822     1   0.10969 276646.080000
  16823  16827     1   0.10969 276646.080000
  16824  16826     1   0.10969 276646.080000
  16825  16828     1   0.10961 277566.560000
  16830  16836     1   0.09730 310787.520000
  16831  16834     1   0.09730 310787.520000
  16832  16835     1   0.09730 310787.520000
  16833  16837     1   0.10969 276646.080000
  16833  16838     1   0.10969 276646.080000
  16839  16840     1   0.09730 310787.520000
  16842  16844     1   0.10969 276646.080000
  16843  16845     1   0.10969 276646.080000
  16846  16850     1   0.10969 276646.080000
  16847  16849     1   0.10969 276646.080000
  16848  16851     1   0.10961 277566.560000
  16853  16859     1   0.09730 310787.520000
  16854  16857     1   0.09730 310787.520000
  16855  16858     1   0.09730 310787.520000
  16856  16860     1   0.10969 276646.080000
  16856  16861     1   0.10969 276646.080000
  16862  16863     1   0.09730 310787.520000
  16865  16867     1   0.10969 276646.080000
  16866  16868     1   0.10969 276646.080000
  16869  16873     1   0.10969 276646.080000
  16870  16872     1   0.10969 276646.080000
  16871  16874     1   0.10961 277566.560000
  16876  16882     1   0.09730 310787.520000
  16877  16880     1   0.09730 310787.520000
  16878  16881     1   0.09730 310787.520000
  16879  16883     1   0.10969 276646.080000
  16879  16884     1   0.10969 276646.080000
  16885  16886     1   0.09730 310787.520000
  16888  16890     1   0.10969 276646.080000
  16889  16891     1   0.10969 276646.080000
  16892  16896     1   0.10969 276646.080000
  16893  16895     1   0.10969 276646.080000
  16894  16897     1   0.10961 277566.560000
  16899  16905     1   0.09730 310787.520000
  16900  16903     1   0.09730 310787.520000
  16901  16904     1   0.09730 310787.520000
  16902  16906     1   0.10969 276646.080000
  16902  16907     1   0.10969 276646.080000
  16908  16909     1   0.09730 310787.520000
  16911  16913     1   0.10969 276646.080000
  16912  16914     1   0.10969 276646.080000
  16915  16919     1   0.10969 276646.080000
  16916  16918     1   0.10969 276646.080000
  16917  16920     1   0.10961 277566.560000
  16922  16928     1   0.09730 310787.520000
  16923  16926     1   0.09730 310787.520000
  16924  16927     1   0.09730 310787.520000
  16925  16929     1   0.10969 276646.080000
  16925  16930     1   0.10969 276646.080000
  16931  16932     1   0.09730 310787.520000
  16934  16936     1   0.10969 276646.080000
  16935  16937     1   0.10969 276646.080000
  16938  16942     1   0.10969 276646.080000
  16939  16941     1   0.10969 276646.080000
  16940  16943     1   0.10961 277566.560000
  16945  16951     1   0.09730 310787.520000
  16946  16949     1   0.09730 310787.520000
  16947  16950     1   0.09730 310787.520000
  16948  16952     1   0.10969 276646.080000
  16948  16953     1   0.10969 276646.080000
  16954  16955     1   0.09730 310787.520000
  16957  16959     1   0.10969 276646.080000
  16958  16960     1   0.10969 276646.080000
  16961  16965     1   0.10969 276646.080000
  16962  16964     1   0.10969 276646.080000
  16963  16966     1   0.10961 277566.560000
  16968  16974     1   0.09730 310787.520000
  16969  16972     1   0.09730 310787.520000
  16970  16973     1   0.09730 310787.520000
  16971  16975     1   0.10969 276646.080000
  16971  16976     1   0.10969 276646.080000
  16977  16978     1   0.09730 310787.520000
  16980  16982     1   0.10969 276646.080000
  16981  16983     1   0.10969 276646.080000
  16984  16988     1   0.10969 276646.080000
  16985  16987     1   0.10969 276646.080000
  16986  16989     1   0.10961 277566.560000
  16991  16997     1   0.09730 310787.520000
  16992  16995     1   0.09730 310787.520000
  16993  16996     1   0.09730 310787.520000
  16994  16998     1   0.10969 276646.080000
  16994  16999     1   0.10969 276646.080000
  17000  17001     1   0.09730 310787.520000
  17003  17005     1   0.10969 276646.080000
  17004  17006     1   0.10969 276646.080000
  17007  17011     1   0.10969 276646.080000
  17008  17010     1   0.10969 276646.080000
  17009  17012     1   0.10961 277566.560000
  17014  17020     1   0.09730 310787.520000
  17015  17018     1   0.09730 310787.520000
  17016  17019     1   0.09730 310787.520000
  17017  17021     1   0.10969 276646.080000
  17017  17022     1   0.10969 276646.080000
  17023  17024     1   0.09730 310787.520000
  17026  17028     1   0.10969 276646.080000
  17027  17029     1   0.10969 276646.080000
  17030  17034     1   0.10969 276646.080000
  17031  17033     1   0.10969 276646.080000
  17032  17035     1   0.10961 277566.560000
  17037  17043     1   0.09730 310787.520000
  17038  17041     1   0.09730 310787.520000
  17039  17042     1   0.09730 310787.520000
  17040  17044     1   0.10969 276646.080000
  17040  17045     1   0.10969 276646.080000
  17046  17047     1   0.09730 310787.520000
  17049  17051     1   0.10969 276646.080000
  17050  17052     1   0.10969 276646.080000
  17053  17057     1   0.10969 276646.080000
  17054  17056     1   0.10969 276646.080000
  17055  17058     1   0.10961 277566.560000
  17060  17066     1   0.09730 310787.520000
  17061  17064     1   0.09730 310787.520000
  17062  17065     1   0.09730 310787.520000
  17063  17067     1   0.10969 276646.080000
  17063  17068     1   0.10969 276646.080000
  17069  17070     1   0.09730 310787.520000
  17072  17074     1   0.10969 276646.080000
  17073  17075     1   0.10969 276646.080000
  17076  17080     1   0.10969 276646.080000
  17077  17079     1   0.10969 276646.080000
  17078  17081     1   0.10961 277566.560000
  17083  17089     1   0.09730 310787.520000
  17084  17087     1   0.09730 310787.520000
  17085  17088     1   0.09730 310787.520000
  17086  17090     1   0.10969 276646.080000
  17086  17091     1   0.10969 276646.080000
  17092  17093     1   0.09730 310787.520000
  17095  17097     1   0.10969 276646.080000
  17096  17098     1   0.10969 276646.080000
  17099  17103     1   0.10969 276646.080000
  17100  17102     1   0.10969 276646.080000
  17101  17104     1   0.10961 277566.560000
  17106  17112     1   0.09730 310787.520000
  17107  17110     1   0.09730 310787.520000
  17108  17111     1   0.09730 310787.520000
  17109  17113     1   0.10969 276646.080000
  17109  17114     1   0.10969 276646.080000
  17115  17116     1   0.09730 310787.520000
  17118  17120     1   0.10969 276646.080000
  17119  17121     1   0.10969 276646.080000
  17122  17126     1   0.10969 276646.080000
  17123  17125     1   0.10969 276646.080000
  17124  17127     1   0.10961 277566.560000
  17129  17135     1   0.09730 310787.520000
  17130  17133     1   0.09730 310787.520000
  17131  17134     1   0.09730 310787.520000
  17132  17136     1   0.10969 276646.080000
  17132  17137     1   0.10969 276646.080000
  17138  17139     1   0.09730 310787.520000
  17141  17143     1   0.10969 276646.080000
  17142  17144     1   0.10969 276646.080000
  17145  17149     1   0.10969 276646.080000
  17146  17148     1   0.10969 276646.080000
  17147  17150     1   0.10961 277566.560000
  17152  17158     1   0.09730 310787.520000
  17153  17156     1   0.09730 310787.520000
  17154  17157     1   0.09730 310787.520000
  17155  17159     1   0.10969 276646.080000
  17155  17160     1   0.10969 276646.080000
  17161  17162     1   0.09730 310787.520000
  17164  17166     1   0.10969 276646.080000
  17165  17167     1   0.10969 276646.080000
  17168  17172     1   0.10969 276646.080000
  17169  17171     1   0.10969 276646.080000
  17170  17173     1   0.10961 277566.560000
  17175  17181     1   0.09730 310787.520000
  17176  17179     1   0.09730 310787.520000
  17177  17180     1   0.09730 310787.520000
  17178  17182     1   0.10969 276646.080000
  17178  17183     1   0.10969 276646.080000
  17184  17185     1   0.09730 310787.520000
  17187  17189     1   0.10969 276646.080000
  17188  17190     1   0.10969 276646.080000
  17191  17195     1   0.10969 276646.080000
  17192  17194     1   0.10969 276646.080000
  17193  17196     1   0.10961 277566.560000
  17198  17204     1   0.09730 310787.520000
  17199  17202     1   0.09730 310787.520000
  17200  17203     1   0.09730 310787.520000
  17201  17205     1   0.10969 276646.080000
  17201  17206     1   0.10969 276646.080000
  17207  17208     1   0.09730 310787.520000
  17210  17212     1   0.10969 276646.080000
  17211  17213     1   0.10969 276646.080000
  17214  17218     1   0.10969 276646.080000
  17215  17217     1   0.10969 276646.080000
  17216  17219     1   0.10961 277566.560000
  17221  17227     1   0.09730 310787.520000
  17222  17225     1   0.09730 310787.520000
  17223  17226     1   0.09730 310787.520000
  17224  17228     1   0.10969 276646.080000
  17224  17229     1   0.10969 276646.080000
  17230  17231     1   0.09730 310787.520000
  17233  17235     1   0.10969 276646.080000
  17234  17236     1   0.10969 276646.080000
  17237  17241     1   0.10969 276646.080000
  17238  17240     1   0.10969 276646.080000
  17239  17242     1   0.10961 277566.560000
  17244  17250     1   0.09730 310787.520000
  17245  17248     1   0.09730 310787.520000
  17246  17249     1   0.09730 310787.520000
  17247  17251     1   0.10969 276646.080000
  17247  17252     1   0.10969 276646.080000
  17253  17254     1   0.09730 310787.520000
  17256  17258     1   0.10969 276646.080000
  17257  17259     1   0.10969 276646.080000
  17260  17264     1   0.10969 276646.080000
  17261  17263     1   0.10969 276646.080000
  17262  17265     1   0.10961 277566.560000
  17267  17273     1   0.09730 310787.520000
  17268  17271     1   0.09730 310787.520000
  17269  17272     1   0.09730 310787.520000
  17270  17274     1   0.10969 276646.080000
  17270  17275     1   0.10969 276646.080000
  17276  17277     1   0.09730 310787.520000
  17279  17281     1   0.10969 276646.080000
  17280  17282     1   0.10969 276646.080000
  17283  17287     1   0.10969 276646.080000
  17284  17286     1   0.10969 276646.080000
  17285  17288     1   0.10961 277566.560000
  17290  17296     1   0.09730 310787.520000
  17291  17294     1   0.09730 310787.520000
  17292  17295     1   0.09730 310787.520000
  17293  17297     1   0.10969 276646.080000
  17293  17298     1   0.10969 276646.080000
  17299  17300     1   0.09730 310787.520000
  17302  17304     1   0.10969 276646.080000
  17303  17305     1   0.10969 276646.080000
  17306  17310     1   0.10969 276646.080000
  17307  17309     1   0.10969 276646.080000
  17308  17311     1   0.10961 277566.560000
  17313  17319     1   0.09730 310787.520000
  17314  17317     1   0.09730 310787.520000
  17315  17318     1   0.09730 310787.520000
  17316  17320     1   0.10969 276646.080000
  17316  17321     1   0.10969 276646.080000
  17322  17323     1   0.09730 310787.520000
  17325  17327     1   0.10969 276646.080000
  17326  17328     1   0.10969 276646.080000
  17329  17333     1   0.10969 276646.080000
  17330  17332     1   0.10969 276646.080000
  17331  17334     1   0.10961 277566.560000
  17336  17342     1   0.09730 310787.520000
  17337  17340     1   0.09730 310787.520000
  17338  17341     1   0.09730 310787.520000
  17339  17343     1   0.10969 276646.080000
  17339  17344     1   0.10969 276646.080000
  17345  17346     1   0.09730 310787.520000
  17348  17350     1   0.10969 276646.080000
  17349  17351     1   0.10969 276646.080000
  17352  17356     1   0.10969 276646.080000
  17353  17355     1   0.10969 276646.080000
  17354  17357     1   0.10961 277566.560000
  17359  17365     1   0.09730 310787.520000
  17360  17363     1   0.09730 310787.520000
  17361  17364     1   0.09730 310787.520000
  17362  17366     1   0.10969 276646.080000
  17362  17367     1   0.10969 276646.080000
  17368  17369     1   0.09730 310787.520000
  17371  17373     1   0.10969 276646.080000
  17372  17374     1   0.10969 276646.080000
  17375  17379     1   0.10969 276646.080000
  17376  17378     1   0.10969 276646.080000
  17377  17380     1   0.10961 277566.560000
  17382  17388     1   0.09730 310787.520000
  17383  17386     1   0.09730 310787.520000
  17384  17387     1   0.09730 310787.520000
  17385  17389     1   0.10969 276646.080000
  17385  17390     1   0.10969 276646.080000
  17391  17392     1   0.09730 310787.520000
  17394  17396     1   0.10969 276646.080000
  17395  17397     1   0.10969 276646.080000
  17398  17402     1   0.10969 276646.080000
  17399  17401     1   0.10969 276646.080000
  17400  17403     1   0.10961 277566.560000
  17405  17411     1   0.09730 310787.520000
  17406  17409     1   0.09730 310787.520000
  17407  17410     1   0.09730 310787.520000
  17408  17412     1   0.10969 276646.080000
  17408  17413     1   0.10969 276646.080000
  17414  17415     1   0.09730 310787.520000
  17417  17419     1   0.10969 276646.080000
  17418  17420     1   0.10969 276646.080000
  17421  17425     1   0.10969 276646.080000
  17422  17424     1   0.10969 276646.080000
  17423  17426     1   0.10961 277566.560000
  17428  17434     1   0.09730 310787.520000
  17429  17432     1   0.09730 310787.520000
  17430  17433     1   0.09730 310787.520000
  17431  17435     1   0.10969 276646.080000
  17431  17436     1   0.10969 276646.080000
  17437  17438     1   0.09730 310787.520000
  17440  17442     1   0.10969 276646.080000
  17441  17443     1   0.10969 276646.080000
  17444  17448     1   0.10969 276646.080000
  17445  17447     1   0.10969 276646.080000
  17446  17449     1   0.10961 277566.560000
  17451  17457     1   0.09730 310787.520000
  17452  17455     1   0.09730 310787.520000
  17453  17456     1   0.09730 310787.520000
  17454  17458     1   0.10969 276646.080000
  17454  17459     1   0.10969 276646.080000
  17460  17461     1   0.09730 310787.520000
  17463  17465     1   0.10969 276646.080000
  17464  17466     1   0.10969 276646.080000
  17467  17471     1   0.10969 276646.080000
  17468  17470     1   0.10969 276646.080000
  17469  17472     1   0.10961 277566.560000
  17474  17480     1   0.09730 310787.520000
  17475  17478     1   0.09730 310787.520000
  17476  17479     1   0.09730 310787.520000
  17477  17481     1   0.10969 276646.080000
  17477  17482     1   0.10969 276646.080000
  17483  17484     1   0.09730 310787.520000
  17486  17488     1   0.10969 276646.080000
  17487  17489     1   0.10969 276646.080000
  17490  17494     1   0.10969 276646.080000
  17491  17493     1   0.10969 276646.080000
  17492  17495     1   0.10961 277566.560000
  17497  17503     1   0.09730 310787.520000
  17498  17501     1   0.09730 310787.520000
  17499  17502     1   0.09730 310787.520000
  17500  17504     1   0.10969 276646.080000
  17500  17505     1   0.10969 276646.080000
  17506  17507     1   0.09730 310787.520000
  17509  17511     1   0.10969 276646.080000
  17510  17512     1   0.10969 276646.080000
  17513  17517     1   0.10969 276646.080000
  17514  17516     1   0.10969 276646.080000
  17515  17518     1   0.10961 277566.560000
  17520  17526     1   0.09730 310787.520000
  17521  17524     1   0.09730 310787.520000
  17522  17525     1   0.09730 310787.520000
  17523  17527     1   0.10969 276646.080000
  17523  17528     1   0.10969 276646.080000
  17529  17530     1   0.09730 310787.520000
  17532  17534     1   0.10969 276646.080000
  17533  17535     1   0.10969 276646.080000
  17536  17540     1   0.10969 276646.080000
  17537  17539     1   0.10969 276646.080000
  17538  17541     1   0.10961 277566.560000
  17543  17549     1   0.09730 310787.520000
  17544  17547     1   0.09730 310787.520000
  17545  17548     1   0.09730 310787.520000
  17546  17550     1   0.10969 276646.080000
  17546  17551     1   0.10969 276646.080000
  17552  17553     1   0.09730 310787.520000
  17555  17557     1   0.10969 276646.080000
  17556  17558     1   0.10969 276646.080000
  17559  17563     1   0.10969 276646.080000
  17560  17562     1   0.10969 276646.080000
  17561  17564     1   0.10961 277566.560000
  17566  17572     1   0.09730 310787.520000
  17567  17570     1   0.09730 310787.520000
  17568  17571     1   0.09730 310787.520000
  17569  17573     1   0.10969 276646.080000
  17569  17574     1   0.10969 276646.080000
  17575  17576     1   0.09730 310787.520000
  17578  17580     1   0.10969 276646.080000
  17579  17581     1   0.10969 276646.080000
  17582  17586     1   0.10969 276646.080000
  17583  17585     1   0.10969 276646.080000
  17584  17587     1   0.10961 277566.560000
  17589  17595     1   0.09730 310787.520000
  17590  17593     1   0.09730 310787.520000
  17591  17594     1   0.09730 310787.520000
  17592  17596     1   0.10969 276646.080000
  17592  17597     1   0.10969 276646.080000
  17598  17599     1   0.09730 310787.520000
  17601  17603     1   0.10969 276646.080000
  17602  17604     1   0.10969 276646.080000
  17605  17609     1   0.10969 276646.080000
  17606  17608     1   0.10969 276646.080000
  17607  17610     1   0.10961 277566.560000
  17612  17618     1   0.09730 310787.520000
  17613  17616     1   0.09730 310787.520000
  17614  17617     1   0.09730 310787.520000
  17615  17619     1   0.10969 276646.080000
  17615  17620     1   0.10969 276646.080000
  17621  17622     1   0.09730 310787.520000
  17624  17626     1   0.10969 276646.080000
  17625  17627     1   0.10969 276646.080000
  17628  17632     1   0.10969 276646.080000
  17629  17631     1   0.10969 276646.080000
  17630  17633     1   0.10961 277566.560000
  17635  17641     1   0.09730 310787.520000
  17636  17639     1   0.09730 310787.520000
  17637  17640     1   0.09730 310787.520000
  17638  17642     1   0.10969 276646.080000
  17638  17643     1   0.10969 276646.080000
  17644  17645     1   0.09730 310787.520000
  17647  17649     1   0.10969 276646.080000
  17648  17650     1   0.10969 276646.080000
  17651  17655     1   0.10969 276646.080000
  17652  17654     1   0.10969 276646.080000
  17653  17656     1   0.10961 277566.560000
  17658  17664     1   0.09730 310787.520000
  17659  17662     1   0.09730 310787.520000
  17660  17663     1   0.09730 310787.520000
  17661  17665     1   0.10969 276646.080000
  17661  17666     1   0.10969 276646.080000
  17667  17668     1   0.09730 310787.520000
  17670  17672     1   0.10969 276646.080000
  17671  17673     1   0.10969 276646.080000
  17674  17678     1   0.10969 276646.080000
  17675  17677     1   0.10969 276646.080000
  17676  17679     1   0.10961 277566.560000
  17681  17687     1   0.09730 310787.520000
  17682  17685     1   0.09730 310787.520000
  17683  17686     1   0.09730 310787.520000
  17684  17688     1   0.10969 276646.080000
  17684  17689     1   0.10969 276646.080000
  17690  17691     1   0.09730 310787.520000
  17693  17695     1   0.10969 276646.080000
  17694  17696     1   0.10969 276646.080000
  17697  17701     1   0.10969 276646.080000
  17698  17700     1   0.10969 276646.080000
  17699  17702     1   0.10961 277566.560000
  17704  17710     1   0.09730 310787.520000
  17705  17708     1   0.09730 310787.520000
  17706  17709     1   0.09730 310787.520000
  17707  17711     1   0.10969 276646.080000
  17707  17712     1   0.10969 276646.080000
  17713  17714     1   0.09730 310787.520000
  17716  17718     1   0.10969 276646.080000
  17717  17719     1   0.10969 276646.080000
  17720  17724     1   0.10969 276646.080000
  17721  17723     1   0.10969 276646.080000
  17722  17725     1   0.10961 277566.560000
  17727  17733     1   0.09730 310787.520000
  17728  17731     1   0.09730 310787.520000
  17729  17732     1   0.09730 310787.520000
  17730  17734     1   0.10969 276646.080000
  17730  17735     1   0.10969 276646.080000
  17736  17737     1   0.09730 310787.520000
  17739  17741     1   0.10969 276646.080000
  17740  17742     1   0.10969 276646.080000
  17743  17747     1   0.10969 276646.080000
  17744  17746     1   0.10969 276646.080000
  17745  17748     1   0.10961 277566.560000
  17750  17756     1   0.09730 310787.520000
  17751  17754     1   0.09730 310787.520000
  17752  17755     1   0.09730 310787.520000
  17753  17757     1   0.10969 276646.080000
  17753  17758     1   0.10969 276646.080000
  17759  17760     1   0.09730 310787.520000
  17762  17764     1   0.10969 276646.080000
  17763  17765     1   0.10969 276646.080000
  17766  17770     1   0.10969 276646.080000
  17767  17769     1   0.10969 276646.080000
  17768  17771     1   0.10961 277566.560000
  17773  17779     1   0.09730 310787.520000
  17774  17777     1   0.09730 310787.520000
  17775  17778     1   0.09730 310787.520000
  17776  17780     1   0.10969 276646.080000
  17776  17781     1   0.10969 276646.080000
  17782  17783     1   0.09730 310787.520000
  17785  17787     1   0.10969 276646.080000
  17786  17788     1   0.10969 276646.080000
  17789  17793     1   0.10969 276646.080000
  17790  17792     1   0.10969 276646.080000
  17791  17794     1   0.10961 277566.560000
  17796  17802     1   0.09730 310787.520000
  17797  17800     1   0.09730 310787.520000
  17798  17801     1   0.09730 310787.520000
  17799  17803     1   0.10969 276646.080000
  17799  17804     1   0.10969 276646.080000
  17805  17806     1   0.09730 310787.520000
  17808  17810     1   0.10969 276646.080000
  17809  17811     1   0.10969 276646.080000
  17812  17816     1   0.10969 276646.080000
  17813  17815     1   0.10969 276646.080000
  17814  17817     1   0.10961 277566.560000
  17819  17825     1   0.09730 310787.520000
  17820  17823     1   0.09730 310787.520000
  17821  17824     1   0.09730 310787.520000
  17822  17826     1   0.10969 276646.080000
  17822  17827     1   0.10969 276646.080000
  17828  17829     1   0.09730 310787.520000
  17831  17833     1   0.10969 276646.080000
  17832  17834     1   0.10969 276646.080000
  17835  17839     1   0.10969 276646.080000
  17836  17838     1   0.10969 276646.080000
  17837  17840     1   0.10961 277566.560000
  17842  17848     1   0.09730 310787.520000
  17843  17846     1   0.09730 310787.520000
  17844  17847     1   0.09730 310787.520000
  17845  17849     1   0.10969 276646.080000
  17845  17850     1   0.10969 276646.080000
  17851  17852     1   0.09730 310787.520000
  17854  17856     1   0.10969 276646.080000
  17855  17857     1   0.10969 276646.080000
  17858  17862     1   0.10969 276646.080000
  17859  17861     1   0.10969 276646.080000
  17860  17863     1   0.10961 277566.560000
  17865  17871     1   0.09730 310787.520000
  17866  17869     1   0.09730 310787.520000
  17867  17870     1   0.09730 310787.520000
  17868  17872     1   0.10969 276646.080000
  17868  17873     1   0.10969 276646.080000
  17874  17875     1   0.09730 310787.520000
  17877  17879     1   0.10969 276646.080000
  17878  17880     1   0.10969 276646.080000
  17881  17885     1   0.10969 276646.080000
  17882  17884     1   0.10969 276646.080000
  17883  17886     1   0.10961 277566.560000
  17888  17894     1   0.09730 310787.520000
  17889  17892     1   0.09730 310787.520000
  17890  17893     1   0.09730 310787.520000
  17891  17895     1   0.10969 276646.080000
  17891  17896     1   0.10969 276646.080000
  17897  17898     1   0.09730 310787.520000
  17900  17902     1   0.10969 276646.080000
  17901  17903     1   0.10969 276646.080000
  17904  17908     1   0.10969 276646.080000
  17905  17907     1   0.10969 276646.080000
  17906  17909     1   0.10961 277566.560000
  17911  17917     1   0.09730 310787.520000
  17912  17915     1   0.09730 310787.520000
  17913  17916     1   0.09730 310787.520000
  17914  17918     1   0.10969 276646.080000
  17914  17919     1   0.10969 276646.080000
  17920  17921     1   0.09730 310787.520000
  17923  17925     1   0.10969 276646.080000
  17924  17926     1   0.10969 276646.080000
  17927  17931     1   0.10969 276646.080000
  17928  17930     1   0.10969 276646.080000
  17929  17932     1   0.10961 277566.560000
  17934  17940     1   0.09730 310787.520000
  17935  17938     1   0.09730 310787.520000
  17936  17939     1   0.09730 310787.520000
  17937  17941     1   0.10969 276646.080000
  17937  17942     1   0.10969 276646.080000
  17943  17944     1   0.09730 310787.520000
  17946  17948     1   0.10969 276646.080000
  17947  17949     1   0.10969 276646.080000
  17950  17954     1   0.10969 276646.080000
  17951  17953     1   0.10969 276646.080000
  17952  17955     1   0.10961 277566.560000
  17957  17963     1   0.09730 310787.520000
  17958  17961     1   0.09730 310787.520000
  17959  17962     1   0.09730 310787.520000
  17960  17964     1   0.10969 276646.080000
  17960  17965     1   0.10969 276646.080000
  17966  17967     1   0.09730 310787.520000
  17969  17971     1   0.10969 276646.080000
  17970  17972     1   0.10969 276646.080000
  17973  17977     1   0.10969 276646.080000
  17974  17976     1   0.10969 276646.080000
  17975  17978     1   0.10961 277566.560000
  17980  17986     1   0.09730 310787.520000
  17981  17984     1   0.09730 310787.520000
  17982  17985     1   0.09730 310787.520000
  17983  17987     1   0.10969 276646.080000
  17983  17988     1   0.10969 276646.080000
  17989  17990     1   0.09730 310787.520000
  17992  17994     1   0.10969 276646.080000
  17993  17995     1   0.10969 276646.080000
  17996  18000     1   0.10969 276646.080000
  17997  17999     1   0.10969 276646.080000
  17998  18001     1   0.10961 277566.560000
  18003  18009     1   0.09730 310787.520000
  18004  18007     1   0.09730 310787.520000
  18005  18008     1   0.09730 310787.520000
  18006  18010     1   0.10969 276646.080000
  18006  18011     1   0.10969 276646.080000
  18012  18013     1   0.09730 310787.520000
  18015  18017     1   0.10969 276646.080000
  18016  18018     1   0.10969 276646.080000
  18019  18023     1   0.10969 276646.080000
  18020  18022     1   0.10969 276646.080000
  18021  18024     1   0.10961 277566.560000
  18026  18032     1   0.09730 310787.520000
  18027  18030     1   0.09730 310787.520000
  18028  18031     1   0.09730 310787.520000
  18029  18033     1   0.10969 276646.080000
  18029  18034     1   0.10969 276646.080000
  18035  18036     1   0.09730 310787.520000
  18038  18040     1   0.10969 276646.080000
  18039  18041     1   0.10969 276646.080000
  18042  18046     1   0.10969 276646.080000
  18043  18045     1   0.10969 276646.080000
  18044  18047     1   0.10961 277566.560000
  18049  18055     1   0.09730 310787.520000
  18050  18053     1   0.09730 310787.520000
  18051  18054     1   0.09730 310787.520000
  18052  18056     1   0.10969 276646.080000
  18052  18057     1   0.10969 276646.080000
  18058  18059     1   0.09730 310787.520000
  18061  18063     1   0.10969 276646.080000
  18062  18064     1   0.10969 276646.080000
  18065  18069     1   0.10969 276646.080000
  18066  18068     1   0.10969 276646.080000
  18067  18070     1   0.10961 277566.560000
  18072  18078     1   0.09730 310787.520000
  18073  18076     1   0.09730 310787.520000
  18074  18077     1   0.09730 310787.520000
  18075  18079     1   0.10969 276646.080000
  18075  18080     1   0.10969 276646.080000
  18081  18082     1   0.09730 310787.520000
  18084  18086     1   0.10969 276646.080000
  18085  18087     1   0.10969 276646.080000
  18088  18092     1   0.10969 276646.080000
  18089  18091     1   0.10969 276646.080000
  18090  18093     1   0.10961 277566.560000
  18095  18101     1   0.09730 310787.520000
  18096  18099     1   0.09730 310787.520000
  18097  18100     1   0.09730 310787.520000
  18098  18102     1   0.10969 276646.080000
  18098  18103     1   0.10969 276646.080000
  18104  18105     1   0.09730 310787.520000
  18107  18109     1   0.10969 276646.080000
  18108  18110     1   0.10969 276646.080000
  18111  18115     1   0.10969 276646.080000
  18112  18114     1   0.10969 276646.080000
  18113  18116     1   0.10961 277566.560000
  18118  18124     1   0.09730 310787.520000
  18119  18122     1   0.09730 310787.520000
  18120  18123     1   0.09730 310787.520000
  18121  18125     1   0.10969 276646.080000
  18121  18126     1   0.10969 276646.080000
  18127  18128     1   0.09730 310787.520000
  18130  18132     1   0.10969 276646.080000
  18131  18133     1   0.10969 276646.080000
  18134  18138     1   0.10969 276646.080000
  18135  18137     1   0.10969 276646.080000
  18136  18139     1   0.10961 277566.560000
  18141  18147     1   0.09730 310787.520000
  18142  18145     1   0.09730 310787.520000
  18143  18146     1   0.09730 310787.520000
  18144  18148     1   0.10969 276646.080000
  18144  18149     1   0.10969 276646.080000
  18150  18151     1   0.09730 310787.520000
  18153  18155     1   0.10969 276646.080000
  18154  18156     1   0.10969 276646.080000
  18157  18161     1   0.10969 276646.080000
  18158  18160     1   0.10969 276646.080000
  18159  18162     1   0.10961 277566.560000
  18164  18170     1   0.09730 310787.520000
  18165  18168     1   0.09730 310787.520000
  18166  18169     1   0.09730 310787.520000
  18167  18171     1   0.10969 276646.080000
  18167  18172     1   0.10969 276646.080000
  18173  18174     1   0.09730 310787.520000
  18176  18178     1   0.10969 276646.080000
  18177  18179     1   0.10969 276646.080000
  18180  18184     1   0.10969 276646.080000
  18181  18183     1   0.10969 276646.080000
  18182  18185     1   0.10961 277566.560000
  18187  18193     1   0.09730 310787.520000
  18188  18191     1   0.09730 310787.520000
  18189  18192     1   0.09730 310787.520000
  18190  18194     1   0.10969 276646.080000
  18190  18195     1   0.10969 276646.080000
  18196  18197     1   0.09730 310787.520000
  18199  18201     1   0.10969 276646.080000
  18200  18202     1   0.10969 276646.080000
  18203  18207     1   0.10969 276646.080000
  18204  18206     1   0.10969 276646.080000
  18205  18208     1   0.10961 277566.560000
  18210  18216     1   0.09730 310787.520000
  18211  18214     1   0.09730 310787.520000
  18212  18215     1   0.09730 310787.520000
  18213  18217     1   0.10969 276646.080000
  18213  18218     1   0.10969 276646.080000
  18219  18220     1   0.09730 310787.520000
  18222  18224     1   0.10969 276646.080000
  18223  18225     1   0.10969 276646.080000
  18226  18230     1   0.10969 276646.080000
  18227  18229     1   0.10969 276646.080000
  18228  18231     1   0.10961 277566.560000
  18233  18239     1   0.09730 310787.520000
  18234  18237     1   0.09730 310787.520000
  18235  18238     1   0.09730 310787.520000
  18236  18240     1   0.10969 276646.080000
  18236  18241     1   0.10969 276646.080000
  18242  18243     1   0.09730 310787.520000
  18245  18247     1   0.10969 276646.080000
  18246  18248     1   0.10969 276646.080000
  18249  18253     1   0.10969 276646.080000
  18250  18252     1   0.10969 276646.080000
  18251  18254     1   0.10961 277566.560000
  18256  18262     1   0.09730 310787.520000
  18257  18260     1   0.09730 310787.520000
  18258  18261     1   0.09730 310787.520000
  18259  18263     1   0.10969 276646.080000
  18259  18264     1   0.10969 276646.080000
  18265  18266     1   0.09730 310787.520000
  18268  18270     1   0.10969 276646.080000
  18269  18271     1   0.10969 276646.080000
  18272  18276     1   0.10969 276646.080000
  18273  18275     1   0.10969 276646.080000
  18274  18277     1   0.10961 277566.560000
  18279  18285     1   0.09730 310787.520000
  18280  18283     1   0.09730 310787.520000
  18281  18284     1   0.09730 310787.520000
  18282  18286     1   0.10969 276646.080000
  18282  18287     1   0.10969 276646.080000
  18288  18289     1   0.09730 310787.520000
  18291  18293     1   0.10969 276646.080000
  18292  18294     1   0.10969 276646.080000
  18295  18299     1   0.10969 276646.080000
  18296  18298     1   0.10969 276646.080000
  18297  18300     1   0.10961 277566.560000
  18302  18308     1   0.09730 310787.520000
  18303  18306     1   0.09730 310787.520000
  18304  18307     1   0.09730 310787.520000
  18305  18309     1   0.10969 276646.080000
  18305  18310     1   0.10969 276646.080000
  18311  18312     1   0.09730 310787.520000
  18314  18316     1   0.10969 276646.080000
  18315  18317     1   0.10969 276646.080000
  18318  18322     1   0.10969 276646.080000
  18319  18321     1   0.10969 276646.080000
  18320  18323     1   0.10961 277566.560000
  18325  18331     1   0.09730 310787.520000
  18326  18329     1   0.09730 310787.520000
  18327  18330     1   0.09730 310787.520000
  18328  18332     1   0.10969 276646.080000
  18328  18333     1   0.10969 276646.080000
  18334  18335     1   0.09730 310787.520000
  18337  18339     1   0.10969 276646.080000
  18338  18340     1   0.10969 276646.080000
  18341  18345     1   0.10969 276646.080000
  18342  18344     1   0.10969 276646.080000
  18343  18346     1   0.10961 277566.560000
  18348  18354     1   0.09730 310787.520000
  18349  18352     1   0.09730 310787.520000
  18350  18353     1   0.09730 310787.520000
  18351  18355     1   0.10969 276646.080000
  18351  18356     1   0.10969 276646.080000
  18357  18358     1   0.09730 310787.520000
  18360  18362     1   0.10969 276646.080000
  18361  18363     1   0.10969 276646.080000
  18364  18368     1   0.10969 276646.080000
  18365  18367     1   0.10969 276646.080000
  18366  18369     1   0.10961 277566.560000
  18371  18377     1   0.09730 310787.520000
  18372  18375     1   0.09730 310787.520000
  18373  18376     1   0.09730 310787.520000
  18374  18378     1   0.10969 276646.080000
  18374  18379     1   0.10969 276646.080000
  18380  18381     1   0.09730 310787.520000
  18383  18385     1   0.10969 276646.080000
  18384  18386     1   0.10969 276646.080000
  18387  18391     1   0.10969 276646.080000
  18388  18390     1   0.10969 276646.080000
  18389  18392     1   0.10961 277566.560000
  18394  18400     1   0.09730 310787.520000
  18395  18398     1   0.09730 310787.520000
  18396  18399     1   0.09730 310787.520000
  18397  18401     1   0.10969 276646.080000
  18397  18402     1   0.10969 276646.080000
  18403  18404     1   0.09730 310787.520000
  18406  18408     1   0.10969 276646.080000
  18407  18409     1   0.10969 276646.080000
  18410  18414     1   0.10969 276646.080000
  18411  18413     1   0.10969 276646.080000
  18412  18415     1   0.10961 277566.560000
  18417  18423     1   0.09730 310787.520000
  18418  18421     1   0.09730 310787.520000
  18419  18422     1   0.09730 310787.520000
  18420  18424     1   0.10969 276646.080000
  18420  18425     1   0.10969 276646.080000
  18426  18427     1   0.09730 310787.520000
  18429  18431     1   0.10969 276646.080000
  18430  18432     1   0.10969 276646.080000
  18433  18437     1   0.10969 276646.080000
  18434  18436     1   0.10969 276646.080000
  18435  18438     1   0.10961 277566.560000
  18440  18446     1   0.09730 310787.520000
  18441  18444     1   0.09730 310787.520000
  18442  18445     1   0.09730 310787.520000
  18443  18447     1   0.10969 276646.080000
  18443  18448     1   0.10969 276646.080000
  18449  18450     1   0.09730 310787.520000
  18452  18454     1   0.10969 276646.080000
  18453  18455     1   0.10969 276646.080000
  18456  18460     1   0.10969 276646.080000
  18457  18459     1   0.10969 276646.080000
  18458  18461     1   0.10961 277566.560000
  18463  18469     1   0.09730 310787.520000
  18464  18467     1   0.09730 310787.520000
  18465  18468     1   0.09730 310787.520000
  18466  18470     1   0.10969 276646.080000
  18466  18471     1   0.10969 276646.080000
  18472  18473     1   0.09730 310787.520000
  18475  18477     1   0.10969 276646.080000
  18476  18478     1   0.10969 276646.080000
  18479  18483     1   0.10969 276646.080000
  18480  18482     1   0.10969 276646.080000
  18481  18484     1   0.10961 277566.560000
  18486  18492     1   0.09730 310787.520000
  18487  18490     1   0.09730 310787.520000
  18488  18491     1   0.09730 310787.520000
  18489  18493     1   0.10969 276646.080000
  18489  18494     1   0.10969 276646.080000
  18495  18496     1   0.09730 310787.520000
  18498  18500     1   0.10969 276646.080000
  18499  18501     1   0.10969 276646.080000
  18502  18506     1   0.10969 276646.080000
  18503  18505     1   0.10969 276646.080000
  18504  18507     1   0.10961 277566.560000
  18509  18515     1   0.09730 310787.520000
  18510  18513     1   0.09730 310787.520000
  18511  18514     1   0.09730 310787.520000
  18512  18516     1   0.10969 276646.080000
  18512  18517     1   0.10969 276646.080000
  18518  18519     1   0.09730 310787.520000
  18521  18523     1   0.10969 276646.080000
  18522  18524     1   0.10969 276646.080000
  18525  18529     1   0.10969 276646.080000
  18526  18528     1   0.10969 276646.080000
  18527  18530     1   0.10961 277566.560000
  18532  18538     1   0.09730 310787.520000
  18533  18536     1   0.09730 310787.520000
  18534  18537     1   0.09730 310787.520000
  18535  18539     1   0.10969 276646.080000
  18535  18540     1   0.10969 276646.080000
  18541  18542     1   0.09730 310787.520000
  18544  18546     1   0.10969 276646.080000
  18545  18547     1   0.10969 276646.080000
  18548  18552     1   0.10969 276646.080000
  18549  18551     1   0.10969 276646.080000
  18550  18553     1   0.10961 277566.560000
  18555  18561     1   0.09730 310787.520000
  18556  18559     1   0.09730 310787.520000
  18557  18560     1   0.09730 310787.520000
  18558  18562     1   0.10969 276646.080000
  18558  18563     1   0.10969 276646.080000
  18564  18565     1   0.09730 310787.520000
  18567  18569     1   0.10969 276646.080000
  18568  18570     1   0.10969 276646.080000
  18571  18575     1   0.10969 276646.080000
  18572  18574     1   0.10969 276646.080000
  18573  18576     1   0.10961 277566.560000
  18578  18584     1   0.09730 310787.520000
  18579  18582     1   0.09730 310787.520000
  18580  18583     1   0.09730 310787.520000
  18581  18585     1   0.10969 276646.080000
  18581  18586     1   0.10969 276646.080000
  18587  18588     1   0.09730 310787.520000
  18590  18592     1   0.10969 276646.080000
  18591  18593     1   0.10969 276646.080000
  18594  18598     1   0.10969 276646.080000
  18595  18597     1   0.10969 276646.080000
  18596  18599     1   0.10961 277566.560000
  18601  18607     1   0.09730 310787.520000
  18602  18605     1   0.09730 310787.520000
  18603  18606     1   0.09730 310787.520000
  18604  18608     1   0.10969 276646.080000
  18604  18609     1   0.10969 276646.080000
  18610  18611     1   0.09730 310787.520000
  18613  18615     1   0.10969 276646.080000
  18614  18616     1   0.10969 276646.080000
  18617  18621     1   0.10969 276646.080000
  18618  18620     1   0.10969 276646.080000
  18619  18622     1   0.10961 277566.560000
  18624  18630     1   0.09730 310787.520000
  18625  18628     1   0.09730 310787.520000
  18626  18629     1   0.09730 310787.520000
  18627  18631     1   0.10969 276646.080000
  18627  18632     1   0.10969 276646.080000
  18633  18634     1   0.09730 310787.520000
  18636  18638     1   0.10969 276646.080000
  18637  18639     1   0.10969 276646.080000
  18640  18644     1   0.10969 276646.080000
  18641  18643     1   0.10969 276646.080000
  18642  18645     1   0.10961 277566.560000
  18647  18653     1   0.09730 310787.520000
  18648  18651     1   0.09730 310787.520000
  18649  18652     1   0.09730 310787.520000
  18650  18654     1   0.10969 276646.080000
  18650  18655     1   0.10969 276646.080000
  18656  18657     1   0.09730 310787.520000
  18659  18661     1   0.10969 276646.080000
  18660  18662     1   0.10969 276646.080000
  18663  18667     1   0.10969 276646.080000
  18664  18666     1   0.10969 276646.080000
  18665  18668     1   0.10961 277566.560000
  18670  18676     1   0.09730 310787.520000
  18671  18674     1   0.09730 310787.520000
  18672  18675     1   0.09730 310787.520000
  18673  18677     1   0.10969 276646.080000
  18673  18678     1   0.10969 276646.080000
  18679  18680     1   0.09730 310787.520000
  18682  18684     1   0.10969 276646.080000
  18683  18685     1   0.10969 276646.080000
  18686  18690     1   0.10969 276646.080000
  18687  18689     1   0.10969 276646.080000
  18688  18691     1   0.10961 277566.560000
  18693  18699     1   0.09730 310787.520000
  18694  18697     1   0.09730 310787.520000
  18695  18698     1   0.09730 310787.520000
  18696  18700     1   0.10969 276646.080000
  18696  18701     1   0.10969 276646.080000
  18702  18703     1   0.09730 310787.520000
  18705  18707     1   0.10969 276646.080000
  18706  18708     1   0.10969 276646.080000
  18709  18713     1   0.10969 276646.080000
  18710  18712     1   0.10969 276646.080000
  18711  18714     1   0.10961 277566.560000
  18716  18722     1   0.09730 310787.520000
  18717  18720     1   0.09730 310787.520000
  18718  18721     1   0.09730 310787.520000
  18719  18723     1   0.10969 276646.080000
  18719  18724     1   0.10969 276646.080000
  18725  18726     1   0.09730 310787.520000
  18728  18730     1   0.10969 276646.080000
  18729  18731     1   0.10969 276646.080000
  18732  18736     1   0.10969 276646.080000
  18733  18735     1   0.10969 276646.080000
  18734  18737     1   0.10961 277566.560000
  18739  18745     1   0.09730 310787.520000
  18740  18743     1   0.09730 310787.520000
  18741  18744     1   0.09730 310787.520000
  18742  18746     1   0.10969 276646.080000
  18742  18747     1   0.10969 276646.080000
  18748  18749     1   0.09730 310787.520000
  18751  18753     1   0.10969 276646.080000
  18752  18754     1   0.10969 276646.080000
  18755  18759     1   0.10969 276646.080000
  18756  18758     1   0.10969 276646.080000
  18757  18760     1   0.10961 277566.560000
  18762  18768     1   0.09730 310787.520000
  18763  18766     1   0.09730 310787.520000
  18764  18767     1   0.09730 310787.520000
  18765  18769     1   0.10969 276646.080000
  18765  18770     1   0.10969 276646.080000
  18771  18772     1   0.09730 310787.520000
  18774  18776     1   0.10969 276646.080000
  18775  18777     1   0.10969 276646.080000
  18778  18782     1   0.10969 276646.080000
  18779  18781     1   0.10969 276646.080000
  18780  18783     1   0.10961 277566.560000
  18785  18791     1   0.09730 310787.520000
  18786  18789     1   0.09730 310787.520000
  18787  18790     1   0.09730 310787.520000
  18788  18792     1   0.10969 276646.080000
  18788  18793     1   0.10969 276646.080000
  18794  18795     1   0.09730 310787.520000
  18797  18799     1   0.10969 276646.080000
  18798  18800     1   0.10969 276646.080000
  18801  18805     1   0.10969 276646.080000
  18802  18804     1   0.10969 276646.080000
  18803  18806     1   0.10961 277566.560000
  18808  18814     1   0.09730 310787.520000
  18809  18812     1   0.09730 310787.520000
  18810  18813     1   0.09730 310787.520000
  18811  18815     1   0.10969 276646.080000
  18811  18816     1   0.10969 276646.080000
  18817  18818     1   0.09730 310787.520000
  18820  18822     1   0.10969 276646.080000
  18821  18823     1   0.10969 276646.080000
  18824  18828     1   0.10969 276646.080000
  18825  18827     1   0.10969 276646.080000
  18826  18829     1   0.10961 277566.560000
  18831  18837     1   0.09730 310787.520000
  18832  18835     1   0.09730 310787.520000
  18833  18836     1   0.09730 310787.520000
  18834  18838     1   0.10969 276646.080000
  18834  18839     1   0.10969 276646.080000
  18840  18841     1   0.09730 310787.520000
  18843  18845     1   0.10969 276646.080000
  18844  18846     1   0.10969 276646.080000
  18847  18851     1   0.10969 276646.080000
  18848  18850     1   0.10969 276646.080000
  18849  18852     1   0.10961 277566.560000
  18854  18860     1   0.09730 310787.520000
  18855  18858     1   0.09730 310787.520000
  18856  18859     1   0.09730 310787.520000
  18857  18861     1   0.10969 276646.080000
  18857  18862     1   0.10969 276646.080000
  18863  18864     1   0.09730 310787.520000
  18866  18868     1   0.10969 276646.080000
  18867  18869     1   0.10969 276646.080000
  18870  18874     1   0.10969 276646.080000
  18871  18873     1   0.10969 276646.080000
  18872  18875     1   0.10961 277566.560000
  18877  18883     1   0.09730 310787.520000
  18878  18881     1   0.09730 310787.520000
  18879  18882     1   0.09730 310787.520000
  18880  18884     1   0.10969 276646.080000
  18880  18885     1   0.10969 276646.080000
  18886  18887     1   0.09730 310787.520000
  18889  18891     1   0.10969 276646.080000
  18890  18892     1   0.10969 276646.080000
  18893  18897     1   0.10969 276646.080000
  18894  18896     1   0.10969 276646.080000
  18895  18898     1   0.10961 277566.560000
  18900  18906     1   0.09730 310787.520000
  18901  18904     1   0.09730 310787.520000
  18902  18905     1   0.09730 310787.520000
  18903  18907     1   0.10969 276646.080000
  18903  18908     1   0.10969 276646.080000
  18909  18910     1   0.09730 310787.520000
  18912  18914     1   0.10969 276646.080000
  18913  18915     1   0.10969 276646.080000
  18916  18920     1   0.10969 276646.080000
  18917  18919     1   0.10969 276646.080000
  18918  18921     1   0.10961 277566.560000
  18923  18929     1   0.09730 310787.520000
  18924  18927     1   0.09730 310787.520000
  18925  18928     1   0.09730 310787.520000
  18926  18930     1   0.10969 276646.080000
  18926  18931     1   0.10969 276646.080000
  18932  18933     1   0.09730 310787.520000
  18935  18937     1   0.10969 276646.080000
  18936  18938     1   0.10969 276646.080000
  18939  18943     1   0.10969 276646.080000
  18940  18942     1   0.10969 276646.080000
  18941  18944     1   0.10961 277566.560000
  18946  18952     1   0.09730 310787.520000
  18947  18950     1   0.09730 310787.520000
  18948  18951     1   0.09730 310787.520000
  18949  18953     1   0.10969 276646.080000
  18949  18954     1   0.10969 276646.080000
  18955  18956     1   0.09730 310787.520000
  18958  18960     1   0.10969 276646.080000
  18959  18961     1   0.10969 276646.080000
  18962  18966     1   0.10969 276646.080000
  18963  18965     1   0.10969 276646.080000
  18964  18967     1   0.10961 277566.560000
  18969  18975     1   0.09730 310787.520000
  18970  18973     1   0.09730 310787.520000
  18971  18974     1   0.09730 310787.520000
  18972  18976     1   0.10969 276646.080000
  18972  18977     1   0.10969 276646.080000
  18978  18979     1   0.09730 310787.520000
  18981  18983     1   0.10969 276646.080000
  18982  18984     1   0.10969 276646.080000
  18985  18989     1   0.10969 276646.080000
  18986  18988     1   0.10969 276646.080000
  18987  18990     1   0.10961 277566.560000
  18992  18998     1   0.09730 310787.520000
  18993  18996     1   0.09730 310787.520000
  18994  18997     1   0.09730 310787.520000
  18995  18999     1   0.10969 276646.080000
  18995  19000     1   0.10969 276646.080000
  19001  19002     1   0.09730 310787.520000
  19004  19006     1   0.10969 276646.080000
  19005  19007     1   0.10969 276646.080000
  19008  19012     1   0.10969 276646.080000
  19009  19011     1   0.10969 276646.080000
  19010  19013     1   0.10961 277566.560000
  19015  19021     1   0.09730 310787.520000
  19016  19019     1   0.09730 310787.520000
  19017  19020     1   0.09730 310787.520000
  19018  19022     1   0.10969 276646.080000
  19018  19023     1   0.10969 276646.080000
  19024  19025     1   0.09730 310787.520000
  19027  19029     1   0.10969 276646.080000
  19028  19030     1   0.10969 276646.080000
  19031  19035     1   0.10969 276646.080000
  19032  19034     1   0.10969 276646.080000
  19033  19036     1   0.10961 277566.560000
  19038  19044     1   0.09730 310787.520000
  19039  19042     1   0.09730 310787.520000
  19040  19043     1   0.09730 310787.520000
  19041  19045     1   0.10969 276646.080000
  19041  19046     1   0.10969 276646.080000
  19047  19048     1   0.09730 310787.520000
  19050  19052     1   0.10969 276646.080000
  19051  19053     1   0.10969 276646.080000
  19054  19058     1   0.10969 276646.080000
  19055  19057     1   0.10969 276646.080000
  19056  19059     1   0.10961 277566.560000
  19061  19067     1   0.09730 310787.520000
  19062  19065     1   0.09730 310787.520000
  19063  19066     1   0.09730 310787.520000
  19064  19068     1   0.10969 276646.080000
  19064  19069     1   0.10969 276646.080000
  19070  19071     1   0.09730 310787.520000
  19073  19075     1   0.10969 276646.080000
  19074  19076     1   0.10969 276646.080000
  19077  19081     1   0.10969 276646.080000
  19078  19080     1   0.10969 276646.080000
  19079  19082     1   0.10961 277566.560000
  19084  19090     1   0.09730 310787.520000
  19085  19088     1   0.09730 310787.520000
  19086  19089     1   0.09730 310787.520000
  19087  19091     1   0.10969 276646.080000
  19087  19092     1   0.10969 276646.080000
  19093  19094     1   0.09730 310787.520000
  19096  19098     1   0.10969 276646.080000
  19097  19099     1   0.10969 276646.080000
  19100  19104     1   0.10969 276646.080000
  19101  19103     1   0.10969 276646.080000
  19102  19105     1   0.10961 277566.560000
  19107  19113     1   0.09730 310787.520000
  19108  19111     1   0.09730 310787.520000
  19109  19112     1   0.09730 310787.520000
  19110  19114     1   0.10969 276646.080000
  19110  19115     1   0.10969 276646.080000
  19116  19117     1   0.09730 310787.520000
  19119  19121     1   0.10969 276646.080000
  19120  19122     1   0.10969 276646.080000
  19123  19127     1   0.10969 276646.080000
  19124  19126     1   0.10969 276646.080000
  19125  19128     1   0.10961 277566.560000
  19130  19136     1   0.09730 310787.520000
  19131  19134     1   0.09730 310787.520000
  19132  19135     1   0.09730 310787.520000
  19133  19137     1   0.10969 276646.080000
  19133  19138     1   0.10969 276646.080000
  19139  19140     1   0.09730 310787.520000
  19142  19144     1   0.10969 276646.080000
  19143  19145     1   0.10969 276646.080000
  19146  19150     1   0.10969 276646.080000
  19147  19149     1   0.10969 276646.080000
  19148  19151     1   0.10961 277566.560000
  19153  19159     1   0.09730 310787.520000
  19154  19157     1   0.09730 310787.520000
  19155  19158     1   0.09730 310787.520000
  19156  19160     1   0.10969 276646.080000
  19156  19161     1   0.10969 276646.080000
  19162  19163     1   0.09730 310787.520000
  19165  19167     1   0.10969 276646.080000
  19166  19168     1   0.10969 276646.080000
  19169  19173     1   0.10969 276646.080000
  19170  19172     1   0.10969 276646.080000
  19171  19174     1   0.10961 277566.560000
  19176  19182     1   0.09730 310787.520000
  19177  19180     1   0.09730 310787.520000
  19178  19181     1   0.09730 310787.520000
  19179  19183     1   0.10969 276646.080000
  19179  19184     1   0.10969 276646.080000
  19185  19186     1   0.09730 310787.520000
  19188  19190     1   0.10969 276646.080000
  19189  19191     1   0.10969 276646.080000
  19192  19196     1   0.10969 276646.080000
  19193  19195     1   0.10969 276646.080000
  19194  19197     1   0.10961 277566.560000
  19199  19205     1   0.09730 310787.520000
  19200  19203     1   0.09730 310787.520000
  19201  19204     1   0.09730 310787.520000
  19202  19206     1   0.10969 276646.080000
  19202  19207     1   0.10969 276646.080000
  19208  19209     1   0.09730 310787.520000
  19211  19213     1   0.10969 276646.080000
  19212  19214     1   0.10969 276646.080000
  19215  19219     1   0.10969 276646.080000
  19216  19218     1   0.10969 276646.080000
  19217  19220     1   0.10961 277566.560000
  19222  19228     1   0.09730 310787.520000
  19223  19226     1   0.09730 310787.520000
  19224  19227     1   0.09730 310787.520000
  19225  19229     1   0.10969 276646.080000
  19225  19230     1   0.10969 276646.080000
  19231  19232     1   0.09730 310787.520000
  19234  19236     1   0.10969 276646.080000
  19235  19237     1   0.10969 276646.080000
  19238  19242     1   0.10969 276646.080000
  19239  19241     1   0.10969 276646.080000
  19240  19243     1   0.10961 277566.560000
  19245  19251     1   0.09730 310787.520000
  19246  19249     1   0.09730 310787.520000
  19247  19250     1   0.09730 310787.520000
  19248  19252     1   0.10969 276646.080000
  19248  19253     1   0.10969 276646.080000
  19254  19255     1   0.09730 310787.520000
  19257  19259     1   0.10969 276646.080000
  19258  19260     1   0.10969 276646.080000
  19261  19265     1   0.10969 276646.080000
  19262  19264     1   0.10969 276646.080000
  19263  19266     1   0.10961 277566.560000
  19268  19274     1   0.09730 310787.520000
  19269  19272     1   0.09730 310787.520000
  19270  19273     1   0.09730 310787.520000
  19271  19275     1   0.10969 276646.080000
  19271  19276     1   0.10969 276646.080000
  19277  19278     1   0.09730 310787.520000
  19280  19282     1   0.10969 276646.080000
  19281  19283     1   0.10969 276646.080000
  19284  19288     1   0.10969 276646.080000
  19285  19287     1   0.10969 276646.080000
  19286  19289     1   0.10961 277566.560000
  19291  19297     1   0.09730 310787.520000
  19292  19295     1   0.09730 310787.520000
  19293  19296     1   0.09730 310787.520000
  19294  19298     1   0.10969 276646.080000
  19294  19299     1   0.10969 276646.080000
  19300  19301     1   0.09730 310787.520000
  19303  19305     1   0.10969 276646.080000
  19304  19306     1   0.10969 276646.080000
  19307  19311     1   0.10969 276646.080000
  19308  19310     1   0.10969 276646.080000
  19309  19312     1   0.10961 277566.560000
  19314  19320     1   0.09730 310787.520000
  19315  19318     1   0.09730 310787.520000
  19316  19319     1   0.09730 310787.520000
  19317  19321     1   0.10969 276646.080000
  19317  19322     1   0.10969 276646.080000
  19323  19324     1   0.09730 310787.520000
  19326  19328     1   0.10969 276646.080000
  19327  19329     1   0.10969 276646.080000
  19330  19334     1   0.10969 276646.080000
  19331  19333     1   0.10969 276646.080000
  19332  19335     1   0.10961 277566.560000
  19337  19343     1   0.09730 310787.520000
  19338  19341     1   0.09730 310787.520000
  19339  19342     1   0.09730 310787.520000
  19340  19344     1   0.10969 276646.080000
  19340  19345     1   0.10969 276646.080000
  19346  19347     1   0.09730 310787.520000
  19349  19351     1   0.10969 276646.080000
  19350  19352     1   0.10969 276646.080000
  19353  19357     1   0.10969 276646.080000
  19354  19356     1   0.10969 276646.080000
  19355  19358     1   0.10961 277566.560000
  19360  19366     1   0.09730 310787.520000
  19361  19364     1   0.09730 310787.520000
  19362  19365     1   0.09730 310787.520000
  19363  19367     1   0.10969 276646.080000
  19363  19368     1   0.10969 276646.080000
  19369  19370     1   0.09730 310787.520000
  19372  19374     1   0.10969 276646.080000
  19373  19375     1   0.10969 276646.080000
  19376  19380     1   0.10969 276646.080000
  19377  19379     1   0.10969 276646.080000
  19378  19381     1   0.10961 277566.560000
  19383  19389     1   0.09730 310787.520000
  19384  19387     1   0.09730 310787.520000
  19385  19388     1   0.09730 310787.520000
  19386  19390     1   0.10969 276646.080000
  19386  19391     1   0.10969 276646.080000
  19392  19393     1   0.09730 310787.520000
  19395  19397     1   0.10969 276646.080000
  19396  19398     1   0.10969 276646.080000
  19399  19403     1   0.10969 276646.080000
  19400  19402     1   0.10969 276646.080000
  19401  19404     1   0.10961 277566.560000
  19406  19412     1   0.09730 310787.520000
  19407  19410     1   0.09730 310787.520000
  19408  19411     1   0.09730 310787.520000
  19409  19413     1   0.10969 276646.080000
  19409  19414     1   0.10969 276646.080000
  19415  19416     1   0.09730 310787.520000
  19418  19420     1   0.10969 276646.080000
  19419  19421     1   0.10969 276646.080000
  19422  19426     1   0.10969 276646.080000
  19423  19425     1   0.10969 276646.080000
  19424  19427     1   0.10961 277566.560000
  19429  19435     1   0.09730 310787.520000
  19430  19433     1   0.09730 310787.520000
  19431  19434     1   0.09730 310787.520000
  19432  19436     1   0.10969 276646.080000
  19432  19437     1   0.10969 276646.080000
  19438  19439     1   0.09730 310787.520000
  19441  19443     1   0.10969 276646.080000
  19442  19444     1   0.10969 276646.080000
  19445  19449     1   0.10969 276646.080000
  19446  19448     1   0.10969 276646.080000
  19447  19450     1   0.10961 277566.560000
  19452  19458     1   0.09730 310787.520000
  19453  19456     1   0.09730 310787.520000
  19454  19457     1   0.09730 310787.520000
  19455  19459     1   0.10969 276646.080000
  19455  19460     1   0.10969 276646.080000
  19461  19462     1   0.09730 310787.520000
  19464  19466     1   0.10969 276646.080000
  19465  19467     1   0.10969 276646.080000
  19468  19472     1   0.10969 276646.080000
  19469  19471     1   0.10969 276646.080000
  19470  19473     1   0.10961 277566.560000
  19475  19481     1   0.09730 310787.520000
  19476  19479     1   0.09730 310787.520000
  19477  19480     1   0.09730 310787.520000
  19478  19482     1   0.10969 276646.080000
  19478  19483     1   0.10969 276646.080000
  19484  19485     1   0.09730 310787.520000
  19487  19489     1   0.10969 276646.080000
  19488  19490     1   0.10969 276646.080000
  19491  19495     1   0.10969 276646.080000
  19492  19494     1   0.10969 276646.080000
  19493  19496     1   0.10961 277566.560000
  19498  19504     1   0.09730 310787.520000
  19499  19502     1   0.09730 310787.520000
  19500  19503     1   0.09730 310787.520000
  19501  19505     1   0.10969 276646.080000
  19501  19506     1   0.10969 276646.080000
  19507  19508     1   0.09730 310787.520000
  19510  19512     1   0.10969 276646.080000
  19511  19513     1   0.10969 276646.080000
  19514  19518     1   0.10969 276646.080000
  19515  19517     1   0.10969 276646.080000
  19516  19519     1   0.10961 277566.560000
  19521  19527     1   0.09730 310787.520000
  19522  19525     1   0.09730 310787.520000
  19523  19526     1   0.09730 310787.520000
  19524  19528     1   0.10969 276646.080000
  19524  19529     1   0.10969 276646.080000
  19530  19531     1   0.09730 310787.520000
  19533  19535     1   0.10969 276646.080000
  19534  19536     1   0.10969 276646.080000
  19537  19541     1   0.10969 276646.080000
  19538  19540     1   0.10969 276646.080000
  19539  19542     1   0.10961 277566.560000
  19544  19550     1   0.09730 310787.520000
  19545  19548     1   0.09730 310787.520000
  19546  19549     1   0.09730 310787.520000
  19547  19551     1   0.10969 276646.080000
  19547  19552     1   0.10969 276646.080000
  19553  19554     1   0.09730 310787.520000
  19556  19558     1   0.10969 276646.080000
  19557  19559     1   0.10969 276646.080000
  19560  19564     1   0.10969 276646.080000
  19561  19563     1   0.10969 276646.080000
  19562  19565     1   0.10961 277566.560000
  19567  19573     1   0.09730 310787.520000
  19568  19571     1   0.09730 310787.520000
  19569  19572     1   0.09730 310787.520000
  19570  19574     1   0.10969 276646.080000
  19570  19575     1   0.10969 276646.080000
  19576  19577     1   0.09730 310787.520000
  19579  19581     1   0.10969 276646.080000
  19580  19582     1   0.10969 276646.080000
  19583  19587     1   0.10969 276646.080000
  19584  19586     1   0.10969 276646.080000
  19585  19588     1   0.10961 277566.560000
  19590  19596     1   0.09730 310787.520000
  19591  19594     1   0.09730 310787.520000
  19592  19595     1   0.09730 310787.520000
  19593  19597     1   0.10969 276646.080000
  19593  19598     1   0.10969 276646.080000
  19599  19600     1   0.09730 310787.520000
  19602  19604     1   0.10969 276646.080000
  19603  19605     1   0.10969 276646.080000
  19606  19610     1   0.10969 276646.080000
  19607  19609     1   0.10969 276646.080000
  19608  19611     1   0.10961 277566.560000
  19613  19619     1   0.09730 310787.520000
  19614  19617     1   0.09730 310787.520000
  19615  19618     1   0.09730 310787.520000
  19616  19620     1   0.10969 276646.080000
  19616  19621     1   0.10969 276646.080000
  19622  19623     1   0.09730 310787.520000
  19625  19627     1   0.10969 276646.080000
  19626  19628     1   0.10969 276646.080000
  19629  19633     1   0.10969 276646.080000
  19630  19632     1   0.10969 276646.080000
  19631  19634     1   0.10961 277566.560000
  19636  19642     1   0.09730 310787.520000
  19637  19640     1   0.09730 310787.520000
  19638  19641     1   0.09730 310787.520000
  19639  19643     1   0.10969 276646.080000
  19639  19644     1   0.10969 276646.080000
  19645  19646     1   0.09730 310787.520000
  19648  19650     1   0.10969 276646.080000
  19649  19651     1   0.10969 276646.080000
  19652  19656     1   0.10969 276646.080000
  19653  19655     1   0.10969 276646.080000
  19654  19657     1   0.10961 277566.560000
  19659  19665     1   0.09730 310787.520000
  19660  19663     1   0.09730 310787.520000
  19661  19664     1   0.09730 310787.520000
  19662  19666     1   0.10969 276646.080000
  19662  19667     1   0.10969 276646.080000
  19668  19669     1   0.09730 310787.520000
  19671  19673     1   0.10969 276646.080000
  19672  19674     1   0.10969 276646.080000
  19675  19679     1   0.10969 276646.080000
  19676  19678     1   0.10969 276646.080000
  19677  19680     1   0.10961 277566.560000
  19682  19688     1   0.09730 310787.520000
  19683  19686     1   0.09730 310787.520000
  19684  19687     1   0.09730 310787.520000
  19685  19689     1   0.10969 276646.080000
  19685  19690     1   0.10969 276646.080000
  19691  19692     1   0.09730 310787.520000
  19694  19696     1   0.10969 276646.080000
  19695  19697     1   0.10969 276646.080000
  19698  19702     1   0.10969 276646.080000
  19699  19701     1   0.10969 276646.080000
  19700  19703     1   0.10961 277566.560000
  19705  19711     1   0.09730 310787.520000
  19706  19709     1   0.09730 310787.520000
  19707  19710     1   0.09730 310787.520000
  19708  19712     1   0.10969 276646.080000
  19708  19713     1   0.10969 276646.080000
  19714  19715     1   0.09730 310787.520000
  19717  19719     1   0.10969 276646.080000
  19718  19720     1   0.10969 276646.080000
  19721  19725     1   0.10969 276646.080000
  19722  19724     1   0.10969 276646.080000
  19723  19726     1   0.10961 277566.560000
  19728  19734     1   0.09730 310787.520000
  19729  19732     1   0.09730 310787.520000
  19730  19733     1   0.09730 310787.520000
  19731  19735     1   0.10969 276646.080000
  19731  19736     1   0.10969 276646.080000
  19737  19738     1   0.09730 310787.520000
  19740  19742     1   0.10969 276646.080000
  19741  19743     1   0.10969 276646.080000
  19744  19748     1   0.10969 276646.080000
  19745  19747     1   0.10969 276646.080000
  19746  19749     1   0.10961 277566.560000
  19751  19757     1   0.09730 310787.520000
  19752  19755     1   0.09730 310787.520000
  19753  19756     1   0.09730 310787.520000
  19754  19758     1   0.10969 276646.080000
  19754  19759     1   0.10969 276646.080000
  19760  19761     1   0.09730 310787.520000
  19763  19765     1   0.10969 276646.080000
  19764  19766     1   0.10969 276646.080000
  19767  19771     1   0.10969 276646.080000
  19768  19770     1   0.10969 276646.080000
  19769  19772     1   0.10961 277566.560000
  19774  19780     1   0.09730 310787.520000
  19775  19778     1   0.09730 310787.520000
  19776  19779     1   0.09730 310787.520000
  19777  19781     1   0.10969 276646.080000
  19777  19782     1   0.10969 276646.080000
  19783  19784     1   0.09730 310787.520000
  19786  19788     1   0.10969 276646.080000
  19787  19789     1   0.10969 276646.080000
  19790  19794     1   0.10969 276646.080000
  19791  19793     1   0.10969 276646.080000
  19792  19795     1   0.10961 277566.560000
  19797  19803     1   0.09730 310787.520000
  19798  19801     1   0.09730 310787.520000
  19799  19802     1   0.09730 310787.520000
  19800  19804     1   0.10969 276646.080000
  19800  19805     1   0.10969 276646.080000
  19806  19807     1   0.09730 310787.520000
  19809  19811     1   0.10969 276646.080000
  19810  19812     1   0.10969 276646.080000
  19813  19817     1   0.10969 276646.080000
  19814  19816     1   0.10969 276646.080000
  19815  19818     1   0.10961 277566.560000
  19820  19826     1   0.09730 310787.520000
  19821  19824     1   0.09730 310787.520000
  19822  19825     1   0.09730 310787.520000
  19823  19827     1   0.10969 276646.080000
  19823  19828     1   0.10969 276646.080000
  19829  19830     1   0.09730 310787.520000
  19832  19834     1   0.10969 276646.080000
  19833  19835     1   0.10969 276646.080000
  19836  19840     1   0.10969 276646.080000
  19837  19839     1   0.10969 276646.080000
  19838  19841     1   0.10961 277566.560000
  19843  19849     1   0.09730 310787.520000
  19844  19847     1   0.09730 310787.520000
  19845  19848     1   0.09730 310787.520000
  19846  19850     1   0.10969 276646.080000
  19846  19851     1   0.10969 276646.080000
  19852  19853     1   0.09730 310787.520000
  19855  19857     1   0.10969 276646.080000
  19856  19858     1   0.10969 276646.080000
  19859  19863     1   0.10969 276646.080000
  19860  19862     1   0.10969 276646.080000
  19861  19864     1   0.10961 277566.560000
  19866  19872     1   0.09730 310787.520000
  19867  19870     1   0.09730 310787.520000
  19868  19871     1   0.09730 310787.520000
  19869  19873     1   0.10969 276646.080000
  19869  19874     1   0.10969 276646.080000
  19875  19876     1   0.09730 310787.520000
  19878  19880     1   0.10969 276646.080000
  19879  19881     1   0.10969 276646.080000
  19882  19886     1   0.10969 276646.080000
  19883  19885     1   0.10969 276646.080000
  19884  19887     1   0.10961 277566.560000
  19889  19895     1   0.09730 310787.520000
  19890  19893     1   0.09730 310787.520000
  19891  19894     1   0.09730 310787.520000
  19892  19896     1   0.10969 276646.080000
  19892  19897     1   0.10969 276646.080000
  19898  19899     1   0.09730 310787.520000
  19901  19903     1   0.10969 276646.080000
  19902  19904     1   0.10969 276646.080000
  19905  19909     1   0.10969 276646.080000
  19906  19908     1   0.10969 276646.080000
  19907  19910     1   0.10961 277566.560000
  19912  19918     1   0.09730 310787.520000
  19913  19916     1   0.09730 310787.520000
  19914  19917     1   0.09730 310787.520000
  19915  19919     1   0.10969 276646.080000
  19915  19920     1   0.10969 276646.080000
  19921  19922     1   0.09730 310787.520000
  19924  19926     1   0.10969 276646.080000
  19925  19927     1   0.10969 276646.080000
  19928  19932     1   0.10969 276646.080000
  19929  19931     1   0.10969 276646.080000
  19930  19933     1   0.10961 277566.560000
  19935  19941     1   0.09730 310787.520000
  19936  19939     1   0.09730 310787.520000
  19937  19940     1   0.09730 310787.520000
  19938  19942     1   0.10969 276646.080000
  19938  19943     1   0.10969 276646.080000
  19944  19945     1   0.09730 310787.520000
  19947  19949     1   0.10969 276646.080000
  19948  19950     1   0.10969 276646.080000
  19951  19955     1   0.10969 276646.080000
  19952  19954     1   0.10969 276646.080000
  19953  19956     1   0.10961 277566.560000
  19958  19964     1   0.09730 310787.520000
  19959  19962     1   0.09730 310787.520000
  19960  19963     1   0.09730 310787.520000
  19961  19965     1   0.10969 276646.080000
  19961  19966     1   0.10969 276646.080000
  19967  19968     1   0.09730 310787.520000
  19970  19972     1   0.10969 276646.080000
  19971  19973     1   0.10969 276646.080000
  19974  19978     1   0.10969 276646.080000
  19975  19977     1   0.10969 276646.080000
  19976  19979     1   0.10961 277566.560000
  19981  19987     1   0.09730 310787.520000
  19982  19985     1   0.09730 310787.520000
  19983  19986     1   0.09730 310787.520000
  19984  19988     1   0.10969 276646.080000
  19984  19989     1   0.10969 276646.080000
  19990  19991     1   0.09730 310787.520000
  19993  19995     1   0.10969 276646.080000
  19994  19996     1   0.10969 276646.080000
  19997  20001     1   0.10969 276646.080000
  19998  20000     1   0.10969 276646.080000
  19999  20002     1   0.10961 277566.560000
  20004  20010     1   0.09730 310787.520000
  20005  20008     1   0.09730 310787.520000
  20006  20009     1   0.09730 310787.520000
  20007  20011     1   0.10969 276646.080000
  20007  20012     1   0.10969 276646.080000
  20013  20014     1   0.09730 310787.520000
  20016  20018     1   0.10969 276646.080000
  20017  20019     1   0.10969 276646.080000
  20020  20024     1   0.10969 276646.080000
  20021  20023     1   0.10969 276646.080000
  20022  20025     1   0.10961 277566.560000
  20027  20033     1   0.09730 310787.520000
  20028  20031     1   0.09730 310787.520000
  20029  20032     1   0.09730 310787.520000
  20030  20034     1   0.10969 276646.080000
  20030  20035     1   0.10969 276646.080000
  20036  20037     1   0.09730 310787.520000
  20039  20041     1   0.10969 276646.080000
  20040  20042     1   0.10969 276646.080000
  20043  20047     1   0.10969 276646.080000
  20044  20046     1   0.10969 276646.080000
  20045  20048     1   0.10961 277566.560000
  20050  20056     1   0.09730 310787.520000
  20051  20054     1   0.09730 310787.520000
  20052  20055     1   0.09730 310787.520000
  20053  20057     1   0.10969 276646.080000
  20053  20058     1   0.10969 276646.080000
  20059  20060     1   0.09730 310787.520000
  20062  20064     1   0.10969 276646.080000
  20063  20065     1   0.10969 276646.080000
  20066  20070     1   0.10969 276646.080000
  20067  20069     1   0.10969 276646.080000
  20068  20071     1   0.10961 277566.560000
  20073  20079     1   0.09730 310787.520000
  20074  20077     1   0.09730 310787.520000
  20075  20078     1   0.09730 310787.520000
  20076  20080     1   0.10969 276646.080000
  20076  20081     1   0.10969 276646.080000
  20082  20083     1   0.09730 310787.520000
  20085  20087     1   0.10969 276646.080000
  20086  20088     1   0.10969 276646.080000
  20089  20093     1   0.10969 276646.080000
  20090  20092     1   0.10969 276646.080000
  20091  20094     1   0.10961 277566.560000
  20096  20102     1   0.09730 310787.520000
  20097  20100     1   0.09730 310787.520000
  20098  20101     1   0.09730 310787.520000
  20099  20103     1   0.10969 276646.080000
  20099  20104     1   0.10969 276646.080000
  20105  20106     1   0.09730 310787.520000
  20108  20110     1   0.10969 276646.080000
  20109  20111     1   0.10969 276646.080000
  20112  20116     1   0.10969 276646.080000
  20113  20115     1   0.10969 276646.080000
  20114  20117     1   0.10961 277566.560000
  20119  20125     1   0.09730 310787.520000
  20120  20123     1   0.09730 310787.520000
  20121  20124     1   0.09730 310787.520000
  20122  20126     1   0.10969 276646.080000
  20122  20127     1   0.10969 276646.080000
  20128  20129     1   0.09730 310787.520000
  20131  20133     1   0.10969 276646.080000
  20132  20134     1   0.10969 276646.080000
  20135  20139     1   0.10969 276646.080000
  20136  20138     1   0.10969 276646.080000
  20137  20140     1   0.10961 277566.560000
  20142  20148     1   0.09730 310787.520000
  20143  20146     1   0.09730 310787.520000
  20144  20147     1   0.09730 310787.520000
  20145  20149     1   0.10969 276646.080000
  20145  20150     1   0.10969 276646.080000
  20151  20152     1   0.09730 310787.520000
  20154  20156     1   0.10969 276646.080000
  20155  20157     1   0.10969 276646.080000
  20158  20162     1   0.10969 276646.080000
  20159  20161     1   0.10969 276646.080000
  20160  20163     1   0.10961 277566.560000
  20165  20171     1   0.09730 310787.520000
  20166  20169     1   0.09730 310787.520000
  20167  20170     1   0.09730 310787.520000
  20168  20172     1   0.10969 276646.080000
  20168  20173     1   0.10969 276646.080000
  20174  20175     1   0.09730 310787.520000
  20177  20179     1   0.10969 276646.080000
  20178  20180     1   0.10969 276646.080000
  20181  20185     1   0.10969 276646.080000
  20182  20184     1   0.10969 276646.080000
  20183  20186     1   0.10961 277566.560000
  20188  20194     1   0.09730 310787.520000
  20189  20192     1   0.09730 310787.520000
  20190  20193     1   0.09730 310787.520000
  20191  20195     1   0.10969 276646.080000
  20191  20196     1   0.10969 276646.080000
  20197  20198     1   0.09730 310787.520000
  20200  20202     1   0.10969 276646.080000
  20201  20203     1   0.10969 276646.080000
  20204  20208     1   0.10969 276646.080000
  20205  20207     1   0.10969 276646.080000
  20206  20209     1   0.10961 277566.560000
  20211  20217     1   0.09730 310787.520000
  20212  20215     1   0.09730 310787.520000
  20213  20216     1   0.09730 310787.520000
  20214  20218     1   0.10969 276646.080000
  20214  20219     1   0.10969 276646.080000
  20220  20221     1   0.09730 310787.520000
  20223  20225     1   0.10969 276646.080000
  20224  20226     1   0.10969 276646.080000
  20227  20231     1   0.10969 276646.080000
  20228  20230     1   0.10969 276646.080000
  20229  20232     1   0.10961 277566.560000
  20234  20240     1   0.09730 310787.520000
  20235  20238     1   0.09730 310787.520000
  20236  20239     1   0.09730 310787.520000
  20237  20241     1   0.10969 276646.080000
  20237  20242     1   0.10969 276646.080000
  20243  20244     1   0.09730 310787.520000
  20246  20248     1   0.10969 276646.080000
  20247  20249     1   0.10969 276646.080000
  20250  20254     1   0.10969 276646.080000
  20251  20253     1   0.10969 276646.080000
  20252  20255     1   0.10961 277566.560000
  20257  20263     1   0.09730 310787.520000
  20258  20261     1   0.09730 310787.520000
  20259  20262     1   0.09730 310787.520000
  20260  20264     1   0.10969 276646.080000
  20260  20265     1   0.10969 276646.080000
  20266  20267     1   0.09730 310787.520000
  20269  20271     1   0.10969 276646.080000
  20270  20272     1   0.10969 276646.080000
  20273  20277     1   0.10969 276646.080000
  20274  20276     1   0.10969 276646.080000
  20275  20278     1   0.10961 277566.560000
  20280  20286     1   0.09730 310787.520000
  20281  20284     1   0.09730 310787.520000
  20282  20285     1   0.09730 310787.520000
  20283  20287     1   0.10969 276646.080000
  20283  20288     1   0.10969 276646.080000
  20289  20290     1   0.09730 310787.520000

[ pairs ]
;    ai     aj funct         c0         c1         c2         c3
      1     26     1
      1     20     1
      1     23     1
      2     17     1
      2     11     1
      2    118     1
      5     14     1
      5     11     1
      5     58     1
      8     14     1
      8     17     1
      8     88     1
     11     79     1
     14    109     1
     17     49     1
     20     40     1
     23     70     1
     26    100     1
     30     55     1
     30     52     1
     30     49     1
     31     46     1
     31     40     1
     31    178     1
     34     43     1
     34     40     1
     34    148     1
     37     43     1
     37     46     1
     37     58     1
     43    169     1
     46    139     1
     52    130     1
     55    160     1
     60     85     1
     60     82     1
     60     79     1
     61     76     1
     61     70     1
     61    238     1
     64     73     1
     64     70     1
     64    208     1
     67     73     1
     67     76     1
     67     88     1
     73    229     1
     76    199     1
     82    190     1
     85    220     1
     90    115     1
     90    112     1
     90    109     1
     91    106     1
     91    100     1
     91    298     1
     94    103     1
     94    100     1
     94    268     1
     97    103     1
     97    106     1
     97    118     1
    103    289     1
    106    259     1
    112    250     1
    115    280     1
    120    145     1
    120    142     1
    120    139     1
    121    136     1
    121    130     1
    121    358     1
    124    133     1
    124    130     1
    124    328     1
    127    133     1
    127    136     1
    127    148     1
    133    349     1
    136    319     1
    142    310     1
    145    340     1
    150    175     1
    150    172     1
    150    169     1
    151    166     1
    151    160     1
    151    418     1
    154    163     1
    154    160     1
    154    388     1
    157    163     1
    157    166     1
    157    178     1
    163    409     1
    166    379     1
    172    370     1
    175    400     1
    180    205     1
    180    202     1
    180    199     1
    181    196     1
    181    190     1
    181    478     1
    184    193     1
    184    190     1
    184    448     1
    187    193     1
    187    196     1
    187    208     1
    193    469     1
    196    439     1
    202    430     1
    205    460     1
    210    235     1
    210    232     1
    210    229     1
    211    226     1
    211    220     1
    211    538     1
    214    223     1
    214    220     1
    214    508     1
    217    223     1
    217    226     1
    217    238     1
    223    529     1
    226    499     1
    232    490     1
    235    520     1
    240    265     1
    240    262     1
    240    259     1
    241    256     1
    241    250     1
    241    598     1
    244    253     1
    244    250     1
    244    568     1
    247    253     1
    247    256     1
    247    268     1
    253    589     1
    256    559     1
    262    550     1
    265    580     1
    270    295     1
    270    292     1
    270    289     1
    271    286     1
    271    280     1
    271    658     1
    274    283     1
    274    280     1
    274    628     1
    277    283     1
    277    286     1
    277    298     1
    283    649     1
    286    619     1
    292    610     1
    295    640     1
    300    325     1
    300    322     1
    300    319     1
    301    316     1
    301    310     1
    301    718     1
    304    313     1
    304    310     1
    304    688     1
    307    313     1
    307    316     1
    307    328     1
    313    709     1
    316    679     1
    322    670     1
    325    700     1
    330    355     1
    330    352     1
    330    349     1
    331    346     1
    331    340     1
    331    778     1
    334    343     1
    334    340     1
    334    748     1
    337    343     1
    337    346     1
    337    358     1
    343    769     1
    346    739     1
    352    730     1
    355    760     1
    360    385     1
    360    382     1
    360    379     1
    361    376     1
    361    370     1
    361    838     1
    364    373     1
    364    370     1
    364    808     1
    367    373     1
    367    376     1
    367    388     1
    373    829     1
    376    799     1
    382    790     1
    385    820     1
    390    415     1
    390    412     1
    390    409     1
    391    406     1
    391    400     1
    391    898     1
    394    403     1
    394    400     1
    394    868     1
    397    403     1
    397    406     1
    397    418     1
    403    889     1
    406    859     1
    412    850     1
    415    880     1
    420    445     1
    420    442     1
    420    439     1
    421    436     1
    421    430     1
    421    958     1
    424    433     1
    424    430     1
    424    928     1
    427    433     1
    427    436     1
    427    448     1
    433    949     1
    436    919     1
    442    910     1
    445    940     1
    450    475     1
    450    472     1
    450    469     1
    451    466     1
    451    460     1
    451   1018     1
    454    463     1
    454    460     1
    454    988     1
    457    463     1
    457    466     1
    457    478     1
    463   1009     1
    466    979     1
    472    970     1
    475   1000     1
    480    505     1
    480    502     1
    480    499     1
    481    496     1
    481    490     1
    481   1078     1
    484    493     1
    484    490     1
    484   1048     1
    487    493     1
    487    496     1
    487    508     1
    493   1069     1
    496   1039     1
    502   1030     1
    505   1060     1
    510    535     1
    510    532     1
    510    529     1
    511    526     1
    511    520     1
    511   1138     1
    514    523     1
    514    520     1
    514   1108     1
    517    523     1
    517    526     1
    517    538     1
    523   1129     1
    526   1099     1
    532   1090     1
    535   1120     1
    540    565     1
    540    562     1
    540    559     1
    541    556     1
    541    550     1
    541   1198     1
    544    553     1
    544    550     1
    544   1168     1
    547    553     1
    547    556     1
    547    568     1
    553   1189     1
    556   1159     1
    562   1150     1
    565   1180     1
    570    595     1
    570    592     1
    570    589     1
    571    586     1
    571    580     1
    571   1258     1
    574    583     1
    574    580     1
    574   1228     1
    577    583     1
    577    586     1
    577    598     1
    583   1249     1
    586   1219     1
    592   1210     1
    595   1240     1
    600    625     1
    600    622     1
    600    619     1
    601    616     1
    601    610     1
    601   1318     1
    604    613     1
    604    610     1
    604   1288     1
    607    613     1
    607    616     1
    607    628     1
    613   1309     1
    616   1279     1
    622   1270     1
    625   1300     1
    630    655     1
    630    652     1
    630    649     1
    631    646     1
    631    640     1
    631   1378     1
    634    643     1
    634    640     1
    634   1348     1
    637    643     1
    637    646     1
    637    658     1
    643   1369     1
    646   1339     1
    652   1330     1
    655   1360     1
    660    685     1
    660    682     1
    660    679     1
    661    676     1
    661    670     1
    661   1438     1
    664    673     1
    664    670     1
    664   1408     1
    667    673     1
    667    676     1
    667    688     1
    673   1429     1
    676   1399     1
    682   1390     1
    685   1420     1
    690    715     1
    690    712     1
    690    709     1
    691    706     1
    691    700     1
    691   1498     1
    694    703     1
    694    700     1
    694   1468     1
    697    703     1
    697    706     1
    697    718     1
    703   1489     1
    706   1459     1
    712   1450     1
    715   1480     1
    720    745     1
    720    742     1
    720    739     1
    721    736     1
    721    730     1
    721   1558     1
    724    733     1
    724    730     1
    724   1528     1
    727    733     1
    727    736     1
    727    748     1
    733   1549     1
    736   1519     1
    742   1510     1
    745   1540     1
    750    775     1
    750    772     1
    750    769     1
    751    766     1
    751    760     1
    751   1618     1
    754    763     1
    754    760     1
    754   1588     1
    757    763     1
    757    766     1
    757    778     1
    763   1609     1
    766   1579     1
    772   1570     1
    775   1600     1
    780    805     1
    780    802     1
    780    799     1
    781    796     1
    781    790     1
    781   1678     1
    784    793     1
    784    790     1
    784   1648     1
    787    793     1
    787    796     1
    787    808     1
    793   1669     1
    796   1639     1
    802   1630     1
    805   1660     1
    810    835     1
    810    832     1
    810    829     1
    811    826     1
    811    820     1
    811   1738     1
    814    823     1
    814    820     1
    814   1708     1
    817    823     1
    817    826     1
    817    838     1
    823   1729     1
    826   1699     1
    832   1690     1
    835   1720     1
    840    865     1
    840    862     1
    840    859     1
    841    856     1
    841    850     1
    841   1798     1
    844    853     1
    844    850     1
    844   1768     1
    847    853     1
    847    856     1
    847    868     1
    853   1789     1
    856   1759     1
    862   1750     1
    865   1780     1
    870    895     1
    870    892     1
    870    889     1
    871    886     1
    871    880     1
    871   1858     1
    874    883     1
    874    880     1
    874   1828     1
    877    883     1
    877    886     1
    877    898     1
    883   1849     1
    886   1819     1
    892   1810     1
    895   1840     1
    900    925     1
    900    922     1
    900    919     1
    901    916     1
    901    910     1
    901   1918     1
    904    913     1
    904    910     1
    904   1888     1
    907    913     1
    907    916     1
    907    928     1
    913   1909     1
    916   1879     1
    922   1870     1
    925   1900     1
    930    955     1
    930    952     1
    930    949     1
    931    946     1
    931    940     1
    931   1978     1
    934    943     1
    934    940     1
    934   1948     1
    937    943     1
    937    946     1
    937    958     1
    943   1969     1
    946   1939     1
    952   1930     1
    955   1960     1
    960    985     1
    960    982     1
    960    979     1
    961    976     1
    961    970     1
    961   2038     1
    964    973     1
    964    970     1
    964   2008     1
    967    973     1
    967    976     1
    967    988     1
    973   2029     1
    976   1999     1
    982   1990     1
    985   2020     1
    990   1015     1
    990   1012     1
    990   1009     1
    991   1006     1
    991   1000     1
    991   2098     1
    994   1003     1
    994   1000     1
    994   2068     1
    997   1003     1
    997   1006     1
    997   1018     1
   1003   2089     1
   1006   2059     1
   1012   2050     1
   1015   2080     1
   1020   1045     1
   1020   1042     1
   1020   1039     1
   1021   1036     1
   1021   1030     1
   1021   2158     1
   1024   1033     1
   1024   1030     1
   1024   2128     1
   1027   1033     1
   1027   1036     1
   1027   1048     1
   1033   2149     1
   1036   2119     1
   1042   2110     1
   1045   2140     1
   1050   1075     1
   1050   1072     1
   1050   1069     1
   1051   1066     1
   1051   1060     1
   1051   2218     1
   1054   1063     1
   1054   1060     1
   1054   2188     1
   1057   1063     1
   1057   1066     1
   1057   1078     1
   1063   2209     1
   1066   2179     1
   1072   2170     1
   1075   2200     1
   1080   1105     1
   1080   1102     1
   1080   1099     1
   1081   1096     1
   1081   1090     1
   1081   2278     1
   1084   1093     1
   1084   1090     1
   1084   2248     1
   1087   1093     1
   1087   1096     1
   1087   1108     1
   1093   2269     1
   1096   2239     1
   1102   2230     1
   1105   2260     1
   1110   1135     1
   1110   1132     1
   1110   1129     1
   1111   1126     1
   1111   1120     1
   1111   2338     1
   1114   1123     1
   1114   1120     1
   1114   2308     1
   1117   1123     1
   1117   1126     1
   1117   1138     1
   1123   2329     1
   1126   2299     1
   1132   2290     1
   1135   2320     1
   1140   1165     1
   1140   1162     1
   1140   1159     1
   1141   1156     1
   1141   1150     1
   1141   2398     1
   1144   1153     1
   1144   1150     1
   1144   2368     1
   1147   1153     1
   1147   1156     1
   1147   1168     1
   1153   2389     1
   1156   2359     1
   1162   2350     1
   1165   2380     1
   1170   1195     1
   1170   1192     1
   1170   1189     1
   1171   1186     1
   1171   1180     1
   1171   2458     1
   1174   1183     1
   1174   1180     1
   1174   2428     1
   1177   1183     1
   1177   1186     1
   1177   1198     1
   1183   2449     1
   1186   2419     1
   1192   2410     1
   1195   2440     1
   1200   1225     1
   1200   1222     1
   1200   1219     1
   1201   1216     1
   1201   1210     1
   1201   2518     1
   1204   1213     1
   1204   1210     1
   1204   2488     1
   1207   1213     1
   1207   1216     1
   1207   1228     1
   1213   2509     1
   1216   2479     1
   1222   2470     1
   1225   2500     1
   1230   1255     1
   1230   1252     1
   1230   1249     1
   1231   1246     1
   1231   1240     1
   1231   2578     1
   1234   1243     1
   1234   1240     1
   1234   2548     1
   1237   1243     1
   1237   1246     1
   1237   1258     1
   1243   2569     1
   1246   2539     1
   1252   2530     1
   1255   2560     1
   1260   1285     1
   1260   1282     1
   1260   1279     1
   1261   1276     1
   1261   1270     1
   1261   2638     1
   1264   1273     1
   1264   1270     1
   1264   2608     1
   1267   1273     1
   1267   1276     1
   1267   1288     1
   1273   2629     1
   1276   2599     1
   1282   2590     1
   1285   2620     1
   1290   1315     1
   1290   1312     1
   1290   1309     1
   1291   1306     1
   1291   1300     1
   1291   2698     1
   1294   1303     1
   1294   1300     1
   1294   2668     1
   1297   1303     1
   1297   1306     1
   1297   1318     1
   1303   2689     1
   1306   2659     1
   1312   2650     1
   1315   2680     1
   1320   1345     1
   1320   1342     1
   1320   1339     1
   1321   1336     1
   1321   1330     1
   1321   2758     1
   1324   1333     1
   1324   1330     1
   1324   2728     1
   1327   1333     1
   1327   1336     1
   1327   1348     1
   1333   2749     1
   1336   2719     1
   1342   2710     1
   1345   2740     1
   1350   1375     1
   1350   1372     1
   1350   1369     1
   1351   1366     1
   1351   1360     1
   1351   2818     1
   1354   1363     1
   1354   1360     1
   1354   2788     1
   1357   1363     1
   1357   1366     1
   1357   1378     1
   1363   2809     1
   1366   2779     1
   1372   2770     1
   1375   2800     1
   1380   1405     1
   1380   1402     1
   1380   1399     1
   1381   1396     1
   1381   1390     1
   1381   2878     1
   1384   1393     1
   1384   1390     1
   1384   2848     1
   1387   1393     1
   1387   1396     1
   1387   1408     1
   1393   2869     1
   1396   2839     1
   1402   2830     1
   1405   2860     1
   1410   1435     1
   1410   1432     1
   1410   1429     1
   1411   1426     1
   1411   1420     1
   1411   2938     1
   1414   1423     1
   1414   1420     1
   1414   2908     1
   1417   1423     1
   1417   1426     1
   1417   1438     1
   1423   2929     1
   1426   2899     1
   1432   2890     1
   1435   2920     1
   1440   1465     1
   1440   1462     1
   1440   1459     1
   1441   1456     1
   1441   1450     1
   1441   2998     1
   1444   1453     1
   1444   1450     1
   1444   2968     1
   1447   1453     1
   1447   1456     1
   1447   1468     1
   1453   2989     1
   1456   2959     1
   1462   2950     1
   1465   2980     1
   1470   1495     1
   1470   1492     1
   1470   1489     1
   1471   1486     1
   1471   1480     1
   1471   3058     1
   1474   1483     1
   1474   1480     1
   1474   3028     1
   1477   1483     1
   1477   1486     1
   1477   1498     1
   1483   3049     1
   1486   3019     1
   1492   3010     1
   1495   3040     1
   1500   1525     1
   1500   1522     1
   1500   1519     1
   1501   1516     1
   1501   1510     1
   1501   3118     1
   1504   1513     1
   1504   1510     1
   1504   3088     1
   1507   1513     1
   1507   1516     1
   1507   1528     1
   1513   3109     1
   1516   3079     1
   1522   3070     1
   1525   3100     1
   1530   1555     1
   1530   1552     1
   1530   1549     1
   1531   1546     1
   1531   1540     1
   1531   3178     1
   1534   1543     1
   1534   1540     1
   1534   3148     1
   1537   1543     1
   1537   1546     1
   1537   1558     1
   1543   3169     1
   1546   3139     1
   1552   3130     1
   1555   3160     1
   1560   1585     1
   1560   1582     1
   1560   1579     1
   1561   1576     1
   1561   1570     1
   1561   3238     1
   1564   1573     1
   1564   1570     1
   1564   3208     1
   1567   1573     1
   1567   1576     1
   1567   1588     1
   1573   3229     1
   1576   3199     1
   1582   3190     1
   1585   3220     1
   1590   1615     1
   1590   1612     1
   1590   1609     1
   1591   1606     1
   1591   1600     1
   1591   3298     1
   1594   1603     1
   1594   1600     1
   1594   3268     1
   1597   1603     1
   1597   1606     1
   1597   1618     1
   1603   3289     1
   1606   3259     1
   1612   3250     1
   1615   3280     1
   1620   1645     1
   1620   1642     1
   1620   1639     1
   1621   1636     1
   1621   1630     1
   1621   3358     1
   1624   1633     1
   1624   1630     1
   1624   3328     1
   1627   1633     1
   1627   1636     1
   1627   1648     1
   1633   3349     1
   1636   3319     1
   1642   3310     1
   1645   3340     1
   1650   1675     1
   1650   1672     1
   1650   1669     1
   1651   1666     1
   1651   1660     1
   1651   3418     1
   1654   1663     1
   1654   1660     1
   1654   3388     1
   1657   1663     1
   1657   1666     1
   1657   1678     1
   1663   3409     1
   1666   3379     1
   1672   3370     1
   1675   3400     1
   1680   1705     1
   1680   1702     1
   1680   1699     1
   1681   1696     1
   1681   1690     1
   1681   3478     1
   1684   1693     1
   1684   1690     1
   1684   3448     1
   1687   1693     1
   1687   1696     1
   1687   1708     1
   1693   3469     1
   1696   3439     1
   1702   3430     1
   1705   3460     1
   1710   1735     1
   1710   1732     1
   1710   1729     1
   1711   1726     1
   1711   1720     1
   1711   3538     1
   1714   1723     1
   1714   1720     1
   1714   3508     1
   1717   1723     1
   1717   1726     1
   1717   1738     1
   1723   3529     1
   1726   3499     1
   1732   3490     1
   1735   3520     1
   1740   1765     1
   1740   1762     1
   1740   1759     1
   1741   1756     1
   1741   1750     1
   1741   3598     1
   1744   1753     1
   1744   1750     1
   1744   3568     1
   1747   1753     1
   1747   1756     1
   1747   1768     1
   1753   3589     1
   1756   3559     1
   1762   3550     1
   1765   3580     1
   1770   1795     1
   1770   1792     1
   1770   1789     1
   1771   1786     1
   1771   1780     1
   1771   3658     1
   1774   1783     1
   1774   1780     1
   1774   3628     1
   1777   1783     1
   1777   1786     1
   1777   1798     1
   1783   3649     1
   1786   3619     1
   1792   3610     1
   1795   3640     1
   1800   1825     1
   1800   1822     1
   1800   1819     1
   1801   1816     1
   1801   1810     1
   1801   3718     1
   1804   1813     1
   1804   1810     1
   1804   3688     1
   1807   1813     1
   1807   1816     1
   1807   1828     1
   1813   3709     1
   1816   3679     1
   1822   3670     1
   1825   3700     1
   1830   1855     1
   1830   1852     1
   1830   1849     1
   1831   1846     1
   1831   1840     1
   1831   3778     1
   1834   1843     1
   1834   1840     1
   1834   3748     1
   1837   1843     1
   1837   1846     1
   1837   1858     1
   1843   3769     1
   1846   3739     1
   1852   3730     1
   1855   3760     1
   1860   1885     1
   1860   1882     1
   1860   1879     1
   1861   1876     1
   1861   1870     1
   1861   3838     1
   1864   1873     1
   1864   1870     1
   1864   3808     1
   1867   1873     1
   1867   1876     1
   1867   1888     1
   1873   3829     1
   1876   3799     1
   1882   3790     1
   1885   3820     1
   1890   1915     1
   1890   1912     1
   1890   1909     1
   1891   1906     1
   1891   1900     1
   1891   3898     1
   1894   1903     1
   1894   1900     1
   1894   3868     1
   1897   1903     1
   1897   1906     1
   1897   1918     1
   1903   3889     1
   1906   3859     1
   1912   3850     1
   1915   3880     1
   1920   1945     1
   1920   1942     1
   1920   1939     1
   1921   1936     1
   1921   1930     1
   1921   3958     1
   1924   1933     1
   1924   1930     1
   1924   3928     1
   1927   1933     1
   1927   1936     1
   1927   1948     1
   1933   3949     1
   1936   3919     1
   1942   3910     1
   1945   3940     1
   1950   1975     1
   1950   1972     1
   1950   1969     1
   1951   1966     1
   1951   1960     1
   1951   4018     1
   1954   1963     1
   1954   1960     1
   1954   3988     1
   1957   1963     1
   1957   1966     1
   1957   1978     1
   1963   4009     1
   1966   3979     1
   1972   3970     1
   1975   4000     1
   1980   2005     1
   1980   2002     1
   1980   1999     1
   1981   1996     1
   1981   1990     1
   1981   4078     1
   1984   1993     1
   1984   1990     1
   1984   4048     1
   1987   1993     1
   1987   1996     1
   1987   2008     1
   1993   4069     1
   1996   4039     1
   2002   4030     1
   2005   4060     1
   2010   2035     1
   2010   2032     1
   2010   2029     1
   2011   2026     1
   2011   2020     1
   2011   4138     1
   2014   2023     1
   2014   2020     1
   2014   4108     1
   2017   2023     1
   2017   2026     1
   2017   2038     1
   2023   4129     1
   2026   4099     1
   2032   4090     1
   2035   4120     1
   2040   2065     1
   2040   2062     1
   2040   2059     1
   2041   2056     1
   2041   2050     1
   2041   4198     1
   2044   2053     1
   2044   2050     1
   2044   4168     1
   2047   2053     1
   2047   2056     1
   2047   2068     1
   2053   4189     1
   2056   4159     1
   2062   4150     1
   2065   4180     1
   2070   2095     1
   2070   2092     1
   2070   2089     1
   2071   2086     1
   2071   2080     1
   2071   4258     1
   2074   2083     1
   2074   2080     1
   2074   4228     1
   2077   2083     1
   2077   2086     1
   2077   2098     1
   2083   4249     1
   2086   4219     1
   2092   4210     1
   2095   4240     1
   2100   2125     1
   2100   2122     1
   2100   2119     1
   2101   2116     1
   2101   2110     1
   2101   4318     1
   2104   2113     1
   2104   2110     1
   2104   4288     1
   2107   2113     1
   2107   2116     1
   2107   2128     1
   2113   4309     1
   2116   4279     1
   2122   4270     1
   2125   4300     1
   2130   2155     1
   2130   2152     1
   2130   2149     1
   2131   2146     1
   2131   2140     1
   2131   4378     1
   2134   2143     1
   2134   2140     1
   2134   4348     1
   2137   2143     1
   2137   2146     1
   2137   2158     1
   2143   4369     1
   2146   4339     1
   2152   4330     1
   2155   4360     1
   2160   2185     1
   2160   2182     1
   2160   2179     1
   2161   2176     1
   2161   2170     1
   2161   4438     1
   2164   2173     1
   2164   2170     1
   2164   4408     1
   2167   2173     1
   2167   2176     1
   2167   2188     1
   2173   4429     1
   2176   4399     1
   2182   4390     1
   2185   4420     1
   2190   2215     1
   2190   2212     1
   2190   2209     1
   2191   2206     1
   2191   2200     1
   2191   4498     1
   2194   2203     1
   2194   2200     1
   2194   4468     1
   2197   2203     1
   2197   2206     1
   2197   2218     1
   2203   4489     1
   2206   4459     1
   2212   4450     1
   2215   4480     1
   2220   2245     1
   2220   2242     1
   2220   2239     1
   2221   2236     1
   2221   2230     1
   2221   4558     1
   2224   2233     1
   2224   2230     1
   2224   4528     1
   2227   2233     1
   2227   2236     1
   2227   2248     1
   2233   4549     1
   2236   4519     1
   2242   4510     1
   2245   4540     1
   2250   2275     1
   2250   2272     1
   2250   2269     1
   2251   2266     1
   2251   2260     1
   2251   4618     1
   2254   2263     1
   2254   2260     1
   2254   4588     1
   2257   2263     1
   2257   2266     1
   2257   2278     1
   2263   4609     1
   2266   4579     1
   2272   4570     1
   2275   4600     1
   2280   2305     1
   2280   2302     1
   2280   2299     1
   2281   2296     1
   2281   2290     1
   2281   4678     1
   2284   2293     1
   2284   2290     1
   2284   4648     1
   2287   2293     1
   2287   2296     1
   2287   2308     1
   2293   4669     1
   2296   4639     1
   2302   4630     1
   2305   4660     1
   2310   2335     1
   2310   2332     1
   2310   2329     1
   2311   2326     1
   2311   2320     1
   2311   4738     1
   2314   2323     1
   2314   2320     1
   2314   4708     1
   2317   2323     1
   2317   2326     1
   2317   2338     1
   2323   4729     1
   2326   4699     1
   2332   4690     1
   2335   4720     1
   2340   2365     1
   2340   2362     1
   2340   2359     1
   2341   2356     1
   2341   2350     1
   2341   4798     1
   2344   2353     1
   2344   2350     1
   2344   4768     1
   2347   2353     1
   2347   2356     1
   2347   2368     1
   2353   4789     1
   2356   4759     1
   2362   4750     1
   2365   4780     1
   2370   2395     1
   2370   2392     1
   2370   2389     1
   2371   2386     1
   2371   2380     1
   2371   4858     1
   2374   2383     1
   2374   2380     1
   2374   4828     1
   2377   2383     1
   2377   2386     1
   2377   2398     1
   2383   4849     1
   2386   4819     1
   2392   4810     1
   2395   4840     1
   2400   2425     1
   2400   2422     1
   2400   2419     1
   2401   2416     1
   2401   2410     1
   2401   4918     1
   2404   2413     1
   2404   2410     1
   2404   4888     1
   2407   2413     1
   2407   2416     1
   2407   2428     1
   2413   4909     1
   2416   4879     1
   2422   4870     1
   2425   4900     1
   2430   2455     1
   2430   2452     1
   2430   2449     1
   2431   2446     1
   2431   2440     1
   2431   4978     1
   2434   2443     1
   2434   2440     1
   2434   4948     1
   2437   2443     1
   2437   2446     1
   2437   2458     1
   2443   4969     1
   2446   4939     1
   2452   4930     1
   2455   4960     1
   2460   2485     1
   2460   2482     1
   2460   2479     1
   2461   2476     1
   2461   2470     1
   2461   5038     1
   2464   2473     1
   2464   2470     1
   2464   5008     1
   2467   2473     1
   2467   2476     1
   2467   2488     1
   2473   5029     1
   2476   4999     1
   2482   4990     1
   2485   5020     1
   2490   2515     1
   2490   2512     1
   2490   2509     1
   2491   2506     1
   2491   2500     1
   2491   5098     1
   2494   2503     1
   2494   2500     1
   2494   5068     1
   2497   2503     1
   2497   2506     1
   2497   2518     1
   2503   5089     1
   2506   5059     1
   2512   5050     1
   2515   5080     1
   2520   2545     1
   2520   2542     1
   2520   2539     1
   2521   2536     1
   2521   2530     1
   2521   5158     1
   2524   2533     1
   2524   2530     1
   2524   5128     1
   2527   2533     1
   2527   2536     1
   2527   2548     1
   2533   5149     1
   2536   5119     1
   2542   5110     1
   2545   5140     1
   2550   2575     1
   2550   2572     1
   2550   2569     1
   2551   2566     1
   2551   2560     1
   2551   5218     1
   2554   2563     1
   2554   2560     1
   2554   5188     1
   2557   2563     1
   2557   2566     1
   2557   2578     1
   2563   5209     1
   2566   5179     1
   2572   5170     1
   2575   5200     1
   2580   2605     1
   2580   2602     1
   2580   2599     1
   2581   2596     1
   2581   2590     1
   2581   5278     1
   2584   2593     1
   2584   2590     1
   2584   5248     1
   2587   2593     1
   2587   2596     1
   2587   2608     1
   2593   5269     1
   2596   5239     1
   2602   5230     1
   2605   5260     1
   2610   2635     1
   2610   2632     1
   2610   2629     1
   2611   2626     1
   2611   2620     1
   2611   5338     1
   2614   2623     1
   2614   2620     1
   2614   5308     1
   2617   2623     1
   2617   2626     1
   2617   2638     1
   2623   5329     1
   2626   5299     1
   2632   5290     1
   2635   5320     1
   2640   2665     1
   2640   2662     1
   2640   2659     1
   2641   2656     1
   2641   2650     1
   2641   5398     1
   2644   2653     1
   2644   2650     1
   2644   5368     1
   2647   2653     1
   2647   2656     1
   2647   2668     1
   2653   5389     1
   2656   5359     1
   2662   5350     1
   2665   5380     1
   2670   2695     1
   2670   2692     1
   2670   2689     1
   2671   2686     1
   2671   2680     1
   2671   5458     1
   2674   2683     1
   2674   2680     1
   2674   5428     1
   2677   2683     1
   2677   2686     1
   2677   2698     1
   2683   5449     1
   2686   5419     1
   2692   5410     1
   2695   5440     1
   2700   2725     1
   2700   2722     1
   2700   2719     1
   2701   2716     1
   2701   2710     1
   2701   5518     1
   2704   2713     1
   2704   2710     1
   2704   5488     1
   2707   2713     1
   2707   2716     1
   2707   2728     1
   2713   5509     1
   2716   5479     1
   2722   5470     1
   2725   5500     1
   2730   2755     1
   2730   2752     1
   2730   2749     1
   2731   2746     1
   2731   2740     1
   2731   5578     1
   2734   2743     1
   2734   2740     1
   2734   5548     1
   2737   2743     1
   2737   2746     1
   2737   2758     1
   2743   5569     1
   2746   5539     1
   2752   5530     1
   2755   5560     1
   2760   2785     1
   2760   2782     1
   2760   2779     1
   2761   2776     1
   2761   2770     1
   2761   5638     1
   2764   2773     1
   2764   2770     1
   2764   5608     1
   2767   2773     1
   2767   2776     1
   2767   2788     1
   2773   5629     1
   2776   5599     1
   2782   5590     1
   2785   5620     1
   2790   2815     1
   2790   2812     1
   2790   2809     1
   2791   2806     1
   2791   2800     1
   2791   5698     1
   2794   2803     1
   2794   2800     1
   2794   5668     1
   2797   2803     1
   2797   2806     1
   2797   2818     1
   2803   5689     1
   2806   5659     1
   2812   5650     1
   2815   5680     1
   2820   2845     1
   2820   2842     1
   2820   2839     1
   2821   2836     1
   2821   2830     1
   2821   5758     1
   2824   2833     1
   2824   2830     1
   2824   5728     1
   2827   2833     1
   2827   2836     1
   2827   2848     1
   2833   5749     1
   2836   5719     1
   2842   5710     1
   2845   5740     1
   2850   2875     1
   2850   2872     1
   2850   2869     1
   2851   2866     1
   2851   2860     1
   2851   5818     1
   2854   2863     1
   2854   2860     1
   2854   5788     1
   2857   2863     1
   2857   2866     1
   2857   2878     1
   2863   5809     1
   2866   5779     1
   2872   5770     1
   2875   5800     1
   2880   2905     1
   2880   2902     1
   2880   2899     1
   2881   2896     1
   2881   2890     1
   2881   5878     1
   2884   2893     1
   2884   2890     1
   2884   5848     1
   2887   2893     1
   2887   2896     1
   2887   2908     1
   2893   5869     1
   2896   5839     1
   2902   5830     1
   2905   5860     1
   2910   2935     1
   2910   2932     1
   2910   2929     1
   2911   2926     1
   2911   2920     1
   2911   5938     1
   2914   2923     1
   2914   2920     1
   2914   5908     1
   2917   2923     1
   2917   2926     1
   2917   2938     1
   2923   5929     1
   2926   5899     1
   2932   5890     1
   2935   5920     1
   2940   2965     1
   2940   2962     1
   2940   2959     1
   2941   2956     1
   2941   2950     1
   2941   5998     1
   2944   2953     1
   2944   2950     1
   2944   5968     1
   2947   2953     1
   2947   2956     1
   2947   2968     1
   2953   5989     1
   2956   5959     1
   2962   5950     1
   2965   5980     1
   2970   2995     1
   2970   2992     1
   2970   2989     1
   2971   2986     1
   2971   2980     1
   2971   6058     1
   2974   2983     1
   2974   2980     1
   2974   6028     1
   2977   2983     1
   2977   2986     1
   2977   2998     1
   2983   6049     1
   2986   6019     1
   2992   6010     1
   2995   6040     1
   3000   3025     1
   3000   3022     1
   3000   3019     1
   3001   3016     1
   3001   3010     1
   3001   6118     1
   3004   3013     1
   3004   3010     1
   3004   6088     1
   3007   3013     1
   3007   3016     1
   3007   3028     1
   3013   6109     1
   3016   6079     1
   3022   6070     1
   3025   6100     1
   3030   3055     1
   3030   3052     1
   3030   3049     1
   3031   3046     1
   3031   3040     1
   3031   6178     1
   3034   3043     1
   3034   3040     1
   3034   6148     1
   3037   3043     1
   3037   3046     1
   3037   3058     1
   3043   6169     1
   3046   6139     1
   3052   6130     1
   3055   6160     1
   3060   3085     1
   3060   3082     1
   3060   3079     1
   3061   3076     1
   3061   3070     1
   3061   6238     1
   3064   3073     1
   3064   3070     1
   3064   6208     1
   3067   3073     1
   3067   3076     1
   3067   3088     1
   3073   6229     1
   3076   6199     1
   3082   6190     1
   3085   6220     1
   3090   3115     1
   3090   3112     1
   3090   3109     1
   3091   3106     1
   3091   3100     1
   3091   6298     1
   3094   3103     1
   3094   3100     1
   3094   6268     1
   3097   3103     1
   3097   3106     1
   3097   3118     1
   3103   6289     1
   3106   6259     1
   3112   6250     1
   3115   6280     1
   3120   3145     1
   3120   3142     1
   3120   3139     1
   3121   3136     1
   3121   3130     1
   3121   6358     1
   3124   3133     1
   3124   3130     1
   3124   6328     1
   3127   3133     1
   3127   3136     1
   3127   3148     1
   3133   6349     1
   3136   6319     1
   3142   6310     1
   3145   6340     1
   3150   3175     1
   3150   3172     1
   3150   3169     1
   3151   3166     1
   3151   3160     1
   3151   6418     1
   3154   3163     1
   3154   3160     1
   3154   6388     1
   3157   3163     1
   3157   3166     1
   3157   3178     1
   3163   6409     1
   3166   6379     1
   3172   6370     1
   3175   6400     1
   3180   3205     1
   3180   3202     1
   3180   3199     1
   3181   3196     1
   3181   3190     1
   3181   6478     1
   3184   3193     1
   3184   3190     1
   3184   6448     1
   3187   3193     1
   3187   3196     1
   3187   3208     1
   3193   6469     1
   3196   6439     1
   3202   6430     1
   3205   6460     1
   3210   3235     1
   3210   3232     1
   3210   3229     1
   3211   3226     1
   3211   3220     1
   3211   6538     1
   3214   3223     1
   3214   3220     1
   3214   6508     1
   3217   3223     1
   3217   3226     1
   3217   3238     1
   3223   6529     1
   3226   6499     1
   3232   6490     1
   3235   6520     1
   3240   3265     1
   3240   3262     1
   3240   3259     1
   3241   3256     1
   3241   3250     1
   3241   6598     1
   3244   3253     1
   3244   3250     1
   3244   6568     1
   3247   3253     1
   3247   3256     1
   3247   3268     1
   3253   6589     1
   3256   6559     1
   3262   6550     1
   3265   6580     1
   3270   3295     1
   3270   3292     1
   3270   3289     1
   3271   3286     1
   3271   3280     1
   3271   6658     1
   3274   3283     1
   3274   3280     1
   3274   6628     1
   3277   3283     1
   3277   3286     1
   3277   3298     1
   3283   6649     1
   3286   6619     1
   3292   6610     1
   3295   6640     1
   3300   3325     1
   3300   3322     1
   3300   3319     1
   3301   3316     1
   3301   3310     1
   3301   6718     1
   3304   3313     1
   3304   3310     1
   3304   6688     1
   3307   3313     1
   3307   3316     1
   3307   3328     1
   3313   6709     1
   3316   6679     1
   3322   6670     1
   3325   6700     1
   3330   3355     1
   3330   3352     1
   3330   3349     1
   3331   3346     1
   3331   3340     1
   3331   6778     1
   3334   3343     1
   3334   3340     1
   3334   6748     1
   3337   3343     1
   3337   3346     1
   3337   3358     1
   3343   6769     1
   3346   6739     1
   3352   6730     1
   3355   6760     1
   3360   3385     1
   3360   3382     1
   3360   3379     1
   3361   3376     1
   3361   3370     1
   3361   6838     1
   3364   3373     1
   3364   3370     1
   3364   6808     1
   3367   3373     1
   3367   3376     1
   3367   3388     1
   3373   6829     1
   3376   6799     1
   3382   6790     1
   3385   6820     1
   3390   3415     1
   3390   3412     1
   3390   3409     1
   3391   3406     1
   3391   3400     1
   3391   6898     1
   3394   3403     1
   3394   3400     1
   3394   6868     1
   3397   3403     1
   3397   3406     1
   3397   3418     1
   3403   6889     1
   3406   6859     1
   3412   6850     1
   3415   6880     1
   3420   3445     1
   3420   3442     1
   3420   3439     1
   3421   3436     1
   3421   3430     1
   3421   6958     1
   3424   3433     1
   3424   3430     1
   3424   6928     1
   3427   3433     1
   3427   3436     1
   3427   3448     1
   3433   6949     1
   3436   6919     1
   3442   6910     1
   3445   6940     1
   3450   3475     1
   3450   3472     1
   3450   3469     1
   3451   3466     1
   3451   3460     1
   3451   7018     1
   3454   3463     1
   3454   3460     1
   3454   6988     1
   3457   3463     1
   3457   3466     1
   3457   3478     1
   3463   7009     1
   3466   6979     1
   3472   6970     1
   3475   7000     1
   3480   3505     1
   3480   3502     1
   3480   3499     1
   3481   3496     1
   3481   3490     1
   3481   7078     1
   3484   3493     1
   3484   3490     1
   3484   7048     1
   3487   3493     1
   3487   3496     1
   3487   3508     1
   3493   7069     1
   3496   7039     1
   3502   7030     1
   3505   7060     1
   3510   3535     1
   3510   3532     1
   3510   3529     1
   3511   3526     1
   3511   3520     1
   3511   7138     1
   3514   3523     1
   3514   3520     1
   3514   7108     1
   3517   3523     1
   3517   3526     1
   3517   3538     1
   3523   7129     1
   3526   7099     1
   3532   7090     1
   3535   7120     1
   3540   3565     1
   3540   3562     1
   3540   3559     1
   3541   3556     1
   3541   3550     1
   3541   7198     1
   3544   3553     1
   3544   3550     1
   3544   7168     1
   3547   3553     1
   3547   3556     1
   3547   3568     1
   3553   7189     1
   3556   7159     1
   3562   7150     1
   3565   7180     1
   3570   3595     1
   3570   3592     1
   3570   3589     1
   3571   3586     1
   3571   3580     1
   3571   7258     1
   3574   3583     1
   3574   3580     1
   3574   7228     1
   3577   3583     1
   3577   3586     1
   3577   3598     1
   3583   7249     1
   3586   7219     1
   3592   7210     1
   3595   7240     1
   3600   3625     1
   3600   3622     1
   3600   3619     1
   3601   3616     1
   3601   3610     1
   3601   7318     1
   3604   3613     1
   3604   3610     1
   3604   7288     1
   3607   3613     1
   3607   3616     1
   3607   3628     1
   3613   7309     1
   3616   7279     1
   3622   7270     1
   3625   7300     1
   3630   3655     1
   3630   3652     1
   3630   3649     1
   3631   3646     1
   3631   3640     1
   3631   7378     1
   3634   3643     1
   3634   3640     1
   3634   7348     1
   3637   3643     1
   3637   3646     1
   3637   3658     1
   3643   7369     1
   3646   7339     1
   3652   7330     1
   3655   7360     1
   3660   3685     1
   3660   3682     1
   3660   3679     1
   3661   3676     1
   3661   3670     1
   3661   7438     1
   3664   3673     1
   3664   3670     1
   3664   7408     1
   3667   3673     1
   3667   3676     1
   3667   3688     1
   3673   7429     1
   3676   7399     1
   3682   7390     1
   3685   7420     1
   3690   3715     1
   3690   3712     1
   3690   3709     1
   3691   3706     1
   3691   3700     1
   3691   7498     1
   3694   3703     1
   3694   3700     1
   3694   7468     1
   3697   3703     1
   3697   3706     1
   3697   3718     1
   3703   7489     1
   3706   7459     1
   3712   7450     1
   3715   7480     1
   3720   3745     1
   3720   3742     1
   3720   3739     1
   3721   3736     1
   3721   3730     1
   3721   7558     1
   3724   3733     1
   3724   3730     1
   3724   7528     1
   3727   3733     1
   3727   3736     1
   3727   3748     1
   3733   7549     1
   3736   7519     1
   3742   7510     1
   3745   7540     1
   3750   3775     1
   3750   3772     1
   3750   3769     1
   3751   3766     1
   3751   3760     1
   3751   7618     1
   3754   3763     1
   3754   3760     1
   3754   7588     1
   3757   3763     1
   3757   3766     1
   3757   3778     1
   3763   7609     1
   3766   7579     1
   3772   7570     1
   3775   7600     1
   3780   3805     1
   3780   3802     1
   3780   3799     1
   3781   3796     1
   3781   3790     1
   3781   7678     1
   3784   3793     1
   3784   3790     1
   3784   7648     1
   3787   3793     1
   3787   3796     1
   3787   3808     1
   3793   7669     1
   3796   7639     1
   3802   7630     1
   3805   7660     1
   3810   3835     1
   3810   3832     1
   3810   3829     1
   3811   3826     1
   3811   3820     1
   3811   7738     1
   3814   3823     1
   3814   3820     1
   3814   7708     1
   3817   3823     1
   3817   3826     1
   3817   3838     1
   3823   7729     1
   3826   7699     1
   3832   7690     1
   3835   7720     1
   3840   3865     1
   3840   3862     1
   3840   3859     1
   3841   3856     1
   3841   3850     1
   3841   7798     1
   3844   3853     1
   3844   3850     1
   3844   7768     1
   3847   3853     1
   3847   3856     1
   3847   3868     1
   3853   7789     1
   3856   7759     1
   3862   7750     1
   3865   7780     1
   3870   3895     1
   3870   3892     1
   3870   3889     1
   3871   3886     1
   3871   3880     1
   3871   7858     1
   3874   3883     1
   3874   3880     1
   3874   7828     1
   3877   3883     1
   3877   3886     1
   3877   3898     1
   3883   7849     1
   3886   7819     1
   3892   7810     1
   3895   7840     1
   3900   3925     1
   3900   3922     1
   3900   3919     1
   3901   3916     1
   3901   3910     1
   3901   7918     1
   3904   3913     1
   3904   3910     1
   3904   7888     1
   3907   3913     1
   3907   3916     1
   3907   3928     1
   3913   7909     1
   3916   7879     1
   3922   7870     1
   3925   7900     1
   3930   3955     1
   3930   3952     1
   3930   3949     1
   3931   3946     1
   3931   3940     1
   3931   7978     1
   3934   3943     1
   3934   3940     1
   3934   7948     1
   3937   3943     1
   3937   3946     1
   3937   3958     1
   3943   7969     1
   3946   7939     1
   3952   7930     1
   3955   7960     1
   3960   3985     1
   3960   3982     1
   3960   3979     1
   3961   3976     1
   3961   3970     1
   3961   8038     1
   3964   3973     1
   3964   3970     1
   3964   8008     1
   3967   3973     1
   3967   3976     1
   3967   3988     1
   3973   8029     1
   3976   7999     1
   3982   7990     1
   3985   8020     1
   3990   4015     1
   3990   4012     1
   3990   4009     1
   3991   4006     1
   3991   4000     1
   3991   8098     1
   3994   4003     1
   3994   4000     1
   3994   8068     1
   3997   4003     1
   3997   4006     1
   3997   4018     1
   4003   8089     1
   4006   8059     1
   4012   8050     1
   4015   8080     1
   4020   4045     1
   4020   4042     1
   4020   4039     1
   4021   4036     1
   4021   4030     1
   4021   8158     1
   4024   4033     1
   4024   4030     1
   4024   8128     1
   4027   4033     1
   4027   4036     1
   4027   4048     1
   4033   8149     1
   4036   8119     1
   4042   8110     1
   4045   8140     1
   4050   4075     1
   4050   4072     1
   4050   4069     1
   4051   4066     1
   4051   4060     1
   4051   8218     1
   4054   4063     1
   4054   4060     1
   4054   8188     1
   4057   4063     1
   4057   4066     1
   4057   4078     1
   4063   8209     1
   4066   8179     1
   4072   8170     1
   4075   8200     1
   4080   4105     1
   4080   4102     1
   4080   4099     1
   4081   4096     1
   4081   4090     1
   4081   8278     1
   4084   4093     1
   4084   4090     1
   4084   8248     1
   4087   4093     1
   4087   4096     1
   4087   4108     1
   4093   8269     1
   4096   8239     1
   4102   8230     1
   4105   8260     1
   4110   4135     1
   4110   4132     1
   4110   4129     1
   4111   4126     1
   4111   4120     1
   4111   8338     1
   4114   4123     1
   4114   4120     1
   4114   8308     1
   4117   4123     1
   4117   4126     1
   4117   4138     1
   4123   8329     1
   4126   8299     1
   4132   8290     1
   4135   8320     1
   4140   4165     1
   4140   4162     1
   4140   4159     1
   4141   4156     1
   4141   4150     1
   4141   8398     1
   4144   4153     1
   4144   4150     1
   4144   8368     1
   4147   4153     1
   4147   4156     1
   4147   4168     1
   4153   8389     1
   4156   8359     1
   4162   8350     1
   4165   8380     1
   4170   4195     1
   4170   4192     1
   4170   4189     1
   4171   4186     1
   4171   4180     1
   4171   8458     1
   4174   4183     1
   4174   4180     1
   4174   8428     1
   4177   4183     1
   4177   4186     1
   4177   4198     1
   4183   8449     1
   4186   8419     1
   4192   8410     1
   4195   8440     1
   4200   4225     1
   4200   4222     1
   4200   4219     1
   4201   4216     1
   4201   4210     1
   4201   8518     1
   4204   4213     1
   4204   4210     1
   4204   8488     1
   4207   4213     1
   4207   4216     1
   4207   4228     1
   4213   8509     1
   4216   8479     1
   4222   8470     1
   4225   8500     1
   4230   4255     1
   4230   4252     1
   4230   4249     1
   4231   4246     1
   4231   4240     1
   4231   8578     1
   4234   4243     1
   4234   4240     1
   4234   8548     1
   4237   4243     1
   4237   4246     1
   4237   4258     1
   4243   8569     1
   4246   8539     1
   4252   8530     1
   4255   8560     1
   4260   4285     1
   4260   4282     1
   4260   4279     1
   4261   4276     1
   4261   4270     1
   4261   8638     1
   4264   4273     1
   4264   4270     1
   4264   8608     1
   4267   4273     1
   4267   4276     1
   4267   4288     1
   4273   8629     1
   4276   8599     1
   4282   8590     1
   4285   8620     1
   4290   4315     1
   4290   4312     1
   4290   4309     1
   4291   4306     1
   4291   4300     1
   4291   8698     1
   4294   4303     1
   4294   4300     1
   4294   8668     1
   4297   4303     1
   4297   4306     1
   4297   4318     1
   4303   8689     1
   4306   8659     1
   4312   8650     1
   4315   8680     1
   4320   4345     1
   4320   4342     1
   4320   4339     1
   4321   4336     1
   4321   4330     1
   4321   8758     1
   4324   4333     1
   4324   4330     1
   4324   8728     1
   4327   4333     1
   4327   4336     1
   4327   4348     1
   4333   8749     1
   4336   8719     1
   4342   8710     1
   4345   8740     1
   4350   4375     1
   4350   4372     1
   4350   4369     1
   4351   4366     1
   4351   4360     1
   4351   8818     1
   4354   4363     1
   4354   4360     1
   4354   8788     1
   4357   4363     1
   4357   4366     1
   4357   4378     1
   4363   8809     1
   4366   8779     1
   4372   8770     1
   4375   8800     1
   4380   4405     1
   4380   4402     1
   4380   4399     1
   4381   4396     1
   4381   4390     1
   4381   8878     1
   4384   4393     1
   4384   4390     1
   4384   8848     1
   4387   4393     1
   4387   4396     1
   4387   4408     1
   4393   8869     1
   4396   8839     1
   4402   8830     1
   4405   8860     1
   4410   4435     1
   4410   4432     1
   4410   4429     1
   4411   4426     1
   4411   4420     1
   4411   8938     1
   4414   4423     1
   4414   4420     1
   4414   8908     1
   4417   4423     1
   4417   4426     1
   4417   4438     1
   4423   8929     1
   4426   8899     1
   4432   8890     1
   4435   8920     1
   4440   4465     1
   4440   4462     1
   4440   4459     1
   4441   4456     1
   4441   4450     1
   4441   8998     1
   4444   4453     1
   4444   4450     1
   4444   8968     1
   4447   4453     1
   4447   4456     1
   4447   4468     1
   4453   8989     1
   4456   8959     1
   4462   8950     1
   4465   8980     1
   4470   4495     1
   4470   4492     1
   4470   4489     1
   4471   4486     1
   4471   4480     1
   4471   9058     1
   4474   4483     1
   4474   4480     1
   4474   9028     1
   4477   4483     1
   4477   4486     1
   4477   4498     1
   4483   9049     1
   4486   9019     1
   4492   9010     1
   4495   9040     1
   4500   4525     1
   4500   4522     1
   4500   4519     1
   4501   4516     1
   4501   4510     1
   4501   9118     1
   4504   4513     1
   4504   4510     1
   4504   9088     1
   4507   4513     1
   4507   4516     1
   4507   4528     1
   4513   9109     1
   4516   9079     1
   4522   9070     1
   4525   9100     1
   4530   4555     1
   4530   4552     1
   4530   4549     1
   4531   4546     1
   4531   4540     1
   4531   9178     1
   4534   4543     1
   4534   4540     1
   4534   9148     1
   4537   4543     1
   4537   4546     1
   4537   4558     1
   4543   9169     1
   4546   9139     1
   4552   9130     1
   4555   9160     1
   4560   4585     1
   4560   4582     1
   4560   4579     1
   4561   4576     1
   4561   4570     1
   4561   9238     1
   4564   4573     1
   4564   4570     1
   4564   9208     1
   4567   4573     1
   4567   4576     1
   4567   4588     1
   4573   9229     1
   4576   9199     1
   4582   9190     1
   4585   9220     1
   4590   4615     1
   4590   4612     1
   4590   4609     1
   4591   4606     1
   4591   4600     1
   4591   9298     1
   4594   4603     1
   4594   4600     1
   4594   9268     1
   4597   4603     1
   4597   4606     1
   4597   4618     1
   4603   9289     1
   4606   9259     1
   4612   9250     1
   4615   9280     1
   4620   4645     1
   4620   4642     1
   4620   4639     1
   4621   4636     1
   4621   4630     1
   4621   9358     1
   4624   4633     1
   4624   4630     1
   4624   9328     1
   4627   4633     1
   4627   4636     1
   4627   4648     1
   4633   9349     1
   4636   9319     1
   4642   9310     1
   4645   9340     1
   4650   4675     1
   4650   4672     1
   4650   4669     1
   4651   4666     1
   4651   4660     1
   4651   9418     1
   4654   4663     1
   4654   4660     1
   4654   9388     1
   4657   4663     1
   4657   4666     1
   4657   4678     1
   4663   9409     1
   4666   9379     1
   4672   9370     1
   4675   9400     1
   4680   4705     1
   4680   4702     1
   4680   4699     1
   4681   4696     1
   4681   4690     1
   4681   9478     1
   4684   4693     1
   4684   4690     1
   4684   9448     1
   4687   4693     1
   4687   4696     1
   4687   4708     1
   4693   9469     1
   4696   9439     1
   4702   9430     1
   4705   9460     1
   4710   4735     1
   4710   4732     1
   4710   4729     1
   4711   4726     1
   4711   4720     1
   4711   9538     1
   4714   4723     1
   4714   4720     1
   4714   9508     1
   4717   4723     1
   4717   4726     1
   4717   4738     1
   4723   9529     1
   4726   9499     1
   4732   9490     1
   4735   9520     1
   4740   4765     1
   4740   4762     1
   4740   4759     1
   4741   4756     1
   4741   4750     1
   4741   9598     1
   4744   4753     1
   4744   4750     1
   4744   9568     1
   4747   4753     1
   4747   4756     1
   4747   4768     1
   4753   9589     1
   4756   9559     1
   4762   9550     1
   4765   9580     1
   4770   4795     1
   4770   4792     1
   4770   4789     1
   4771   4786     1
   4771   4780     1
   4771   9658     1
   4774   4783     1
   4774   4780     1
   4774   9628     1
   4777   4783     1
   4777   4786     1
   4777   4798     1
   4783   9649     1
   4786   9619     1
   4792   9610     1
   4795   9640     1
   4800   4825     1
   4800   4822     1
   4800   4819     1
   4801   4816     1
   4801   4810     1
   4801   9718     1
   4804   4813     1
   4804   4810     1
   4804   9688     1
   4807   4813     1
   4807   4816     1
   4807   4828     1
   4813   9709     1
   4816   9679     1
   4822   9670     1
   4825   9700     1
   4830   4855     1
   4830   4852     1
   4830   4849     1
   4831   4846     1
   4831   4840     1
   4831   9778     1
   4834   4843     1
   4834   4840     1
   4834   9748     1
   4837   4843     1
   4837   4846     1
   4837   4858     1
   4843   9769     1
   4846   9739     1
   4852   9730     1
   4855   9760     1
   4860   4885     1
   4860   4882     1
   4860   4879     1
   4861   4876     1
   4861   4870     1
   4861   9838     1
   4864   4873     1
   4864   4870     1
   4864   9808     1
   4867   4873     1
   4867   4876     1
   4867   4888     1
   4873   9829     1
   4876   9799     1
   4882   9790     1
   4885   9820     1
   4890   4915     1
   4890   4912     1
   4890   4909     1
   4891   4906     1
   4891   4900     1
   4891   9898     1
   4894   4903     1
   4894   4900     1
   4894   9868     1
   4897   4903     1
   4897   4906     1
   4897   4918     1
   4903   9889     1
   4906   9859     1
   4912   9850     1
   4915   9880     1
   4920   4945     1
   4920   4942     1
   4920   4939     1
   4921   4936     1
   4921   4930     1
   4921   9958     1
   4924   4933     1
   4924   4930     1
   4924   9928     1
   4927   4933     1
   4927   4936     1
   4927   4948     1
   4933   9949     1
   4936   9919     1
   4942   9910     1
   4945   9940     1
   4950   4975     1
   4950   4972     1
   4950   4969     1
   4951   4966     1
   4951   4960     1
   4951  10018     1
   4954   4963     1
   4954   4960     1
   4954   9988     1
   4957   4963     1
   4957   4966     1
   4957   4978     1
   4963  10009     1
   4966   9979     1
   4972   9970     1
   4975  10000     1
   4980   5005     1
   4980   5002     1
   4980   4999     1
   4981   4996     1
   4981   4990     1
   4981  10078     1
   4984   4993     1
   4984   4990     1
   4984  10048     1
   4987   4993     1
   4987   4996     1
   4987   5008     1
   4993  10069     1
   4996  10039     1
   5002  10030     1
   5005  10060     1
   5010   5035     1
   5010   5032     1
   5010   5029     1
   5011   5026     1
   5011   5020     1
   5011  10138     1
   5014   5023     1
   5014   5020     1
   5014  10108     1
   5017   5023     1
   5017   5026     1
   5017   5038     1
   5023  10129     1
   5026  10099     1
   5032  10090     1
   5035  10120     1
   5040   5065     1
   5040   5062     1
   5040   5059     1
   5041   5056     1
   5041   5050     1
   5041  10198     1
   5044   5053     1
   5044   5050     1
   5044  10168     1
   5047   5053     1
   5047   5056     1
   5047   5068     1
   5053  10189     1
   5056  10159     1
   5062  10150     1
   5065  10180     1
   5070   5095     1
   5070   5092     1
   5070   5089     1
   5071   5086     1
   5071   5080     1
   5071  10258     1
   5074   5083     1
   5074   5080     1
   5074  10228     1
   5077   5083     1
   5077   5086     1
   5077   5098     1
   5083  10249     1
   5086  10219     1
   5092  10210     1
   5095  10240     1
   5100   5125     1
   5100   5122     1
   5100   5119     1
   5101   5116     1
   5101   5110     1
   5101  10318     1
   5104   5113     1
   5104   5110     1
   5104  10288     1
   5107   5113     1
   5107   5116     1
   5107   5128     1
   5113  10309     1
   5116  10279     1
   5122  10270     1
   5125  10300     1
   5130   5155     1
   5130   5152     1
   5130   5149     1
   5131   5146     1
   5131   5140     1
   5131  10378     1
   5134   5143     1
   5134   5140     1
   5134  10348     1
   5137   5143     1
   5137   5146     1
   5137   5158     1
   5143  10369     1
   5146  10339     1
   5152  10330     1
   5155  10360     1
   5160   5185     1
   5160   5182     1
   5160   5179     1
   5161   5176     1
   5161   5170     1
   5161  10438     1
   5164   5173     1
   5164   5170     1
   5164  10408     1
   5167   5173     1
   5167   5176     1
   5167   5188     1
   5173  10429     1
   5176  10399     1
   5182  10390     1
   5185  10420     1
   5190   5215     1
   5190   5212     1
   5190   5209     1
   5191   5206     1
   5191   5200     1
   5191  10498     1
   5194   5203     1
   5194   5200     1
   5194  10468     1
   5197   5203     1
   5197   5206     1
   5197   5218     1
   5203  10489     1
   5206  10459     1
   5212  10450     1
   5215  10480     1
   5220   5245     1
   5220   5242     1
   5220   5239     1
   5221   5236     1
   5221   5230     1
   5221  10558     1
   5224   5233     1
   5224   5230     1
   5224  10528     1
   5227   5233     1
   5227   5236     1
   5227   5248     1
   5233  10549     1
   5236  10519     1
   5242  10510     1
   5245  10540     1
   5250   5275     1
   5250   5272     1
   5250   5269     1
   5251   5266     1
   5251   5260     1
   5251  10618     1
   5254   5263     1
   5254   5260     1
   5254  10588     1
   5257   5263     1
   5257   5266     1
   5257   5278     1
   5263  10609     1
   5266  10579     1
   5272  10570     1
   5275  10600     1
   5280   5305     1
   5280   5302     1
   5280   5299     1
   5281   5296     1
   5281   5290     1
   5281  10678     1
   5284   5293     1
   5284   5290     1
   5284  10648     1
   5287   5293     1
   5287   5296     1
   5287   5308     1
   5293  10669     1
   5296  10639     1
   5302  10630     1
   5305  10660     1
   5310   5335     1
   5310   5332     1
   5310   5329     1
   5311   5326     1
   5311   5320     1
   5311  10738     1
   5314   5323     1
   5314   5320     1
   5314  10708     1
   5317   5323     1
   5317   5326     1
   5317   5338     1
   5323  10729     1
   5326  10699     1
   5332  10690     1
   5335  10720     1
   5340   5365     1
   5340   5362     1
   5340   5359     1
   5341   5356     1
   5341   5350     1
   5341  10798     1
   5344   5353     1
   5344   5350     1
   5344  10768     1
   5347   5353     1
   5347   5356     1
   5347   5368     1
   5353  10789     1
   5356  10759     1
   5362  10750     1
   5365  10780     1
   5370   5395     1
   5370   5392     1
   5370   5389     1
   5371   5386     1
   5371   5380     1
   5371  10858     1
   5374   5383     1
   5374   5380     1
   5374  10828     1
   5377   5383     1
   5377   5386     1
   5377   5398     1
   5383  10849     1
   5386  10819     1
   5392  10810     1
   5395  10840     1
   5400   5425     1
   5400   5422     1
   5400   5419     1
   5401   5416     1
   5401   5410     1
   5401  10918     1
   5404   5413     1
   5404   5410     1
   5404  10888     1
   5407   5413     1
   5407   5416     1
   5407   5428     1
   5413  10909     1
   5416  10879     1
   5422  10870     1
   5425  10900     1
   5430   5455     1
   5430   5452     1
   5430   5449     1
   5431   5446     1
   5431   5440     1
   5431  10978     1
   5434   5443     1
   5434   5440     1
   5434  10948     1
   5437   5443     1
   5437   5446     1
   5437   5458     1
   5443  10969     1
   5446  10939     1
   5452  10930     1
   5455  10960     1
   5460   5485     1
   5460   5482     1
   5460   5479     1
   5461   5476     1
   5461   5470     1
   5461  11038     1
   5464   5473     1
   5464   5470     1
   5464  11008     1
   5467   5473     1
   5467   5476     1
   5467   5488     1
   5473  11029     1
   5476  10999     1
   5482  10990     1
   5485  11020     1
   5490   5515     1
   5490   5512     1
   5490   5509     1
   5491   5506     1
   5491   5500     1
   5491  11098     1
   5494   5503     1
   5494   5500     1
   5494  11068     1
   5497   5503     1
   5497   5506     1
   5497   5518     1
   5503  11089     1
   5506  11059     1
   5512  11050     1
   5515  11080     1
   5520   5545     1
   5520   5542     1
   5520   5539     1
   5521   5536     1
   5521   5530     1
   5521  11158     1
   5524   5533     1
   5524   5530     1
   5524  11128     1
   5527   5533     1
   5527   5536     1
   5527   5548     1
   5533  11149     1
   5536  11119     1
   5542  11110     1
   5545  11140     1
   5550   5575     1
   5550   5572     1
   5550   5569     1
   5551   5566     1
   5551   5560     1
   5551  11218     1
   5554   5563     1
   5554   5560     1
   5554  11188     1
   5557   5563     1
   5557   5566     1
   5557   5578     1
   5563  11209     1
   5566  11179     1
   5572  11170     1
   5575  11200     1
   5580   5605     1
   5580   5602     1
   5580   5599     1
   5581   5596     1
   5581   5590     1
   5581  11278     1
   5584   5593     1
   5584   5590     1
   5584  11248     1
   5587   5593     1
   5587   5596     1
   5587   5608     1
   5593  11269     1
   5596  11239     1
   5602  11230     1
   5605  11260     1
   5610   5635     1
   5610   5632     1
   5610   5629     1
   5611   5626     1
   5611   5620     1
   5611  11338     1
   5614   5623     1
   5614   5620     1
   5614  11308     1
   5617   5623     1
   5617   5626     1
   5617   5638     1
   5623  11329     1
   5626  11299     1
   5632  11290     1
   5635  11320     1
   5640   5665     1
   5640   5662     1
   5640   5659     1
   5641   5656     1
   5641   5650     1
   5641  11398     1
   5644   5653     1
   5644   5650     1
   5644  11368     1
   5647   5653     1
   5647   5656     1
   5647   5668     1
   5653  11389     1
   5656  11359     1
   5662  11350     1
   5665  11380     1
   5670   5695     1
   5670   5692     1
   5670   5689     1
   5671   5686     1
   5671   5680     1
   5671  11458     1
   5674   5683     1
   5674   5680     1
   5674  11428     1
   5677   5683     1
   5677   5686     1
   5677   5698     1
   5683  11449     1
   5686  11419     1
   5692  11410     1
   5695  11440     1
   5700   5725     1
   5700   5722     1
   5700   5719     1
   5701   5716     1
   5701   5710     1
   5701  11493     1
   5704   5713     1
   5704   5710     1
   5704  11470     1
   5707   5713     1
   5707   5716     1
   5707   5728     1
   5713  11489     1
   5716  11466     1
   5722  11465     1
   5722  11482     1
   5725  11505     1
   5725  11488     1
   5730   5755     1
   5730   5752     1
   5730   5749     1
   5731   5746     1
   5731   5740     1
   5731  11539     1
   5734   5743     1
   5734   5740     1
   5734  11516     1
   5737   5743     1
   5737   5746     1
   5737   5758     1
   5743  11535     1
   5746  11512     1
   5752  11511     1
   5752  11528     1
   5755  11551     1
   5755  11534     1
   5760   5785     1
   5760   5782     1
   5760   5779     1
   5761   5776     1
   5761   5770     1
   5761  11585     1
   5764   5773     1
   5764   5770     1
   5764  11562     1
   5767   5773     1
   5767   5776     1
   5767   5788     1
   5773  11581     1
   5776  11558     1
   5782  11557     1
   5782  11574     1
   5785  11597     1
   5785  11580     1
   5790   5815     1
   5790   5812     1
   5790   5809     1
   5791   5806     1
   5791   5800     1
   5791  11631     1
   5794   5803     1
   5794   5800     1
   5794  11608     1
   5797   5803     1
   5797   5806     1
   5797   5818     1
   5803  11627     1
   5806  11604     1
   5812  11603     1
   5812  11620     1
   5815  11643     1
   5815  11626     1
   5820   5845     1
   5820   5842     1
   5820   5839     1
   5821   5836     1
   5821   5830     1
   5821  11677     1
   5824   5833     1
   5824   5830     1
   5824  11654     1
   5827   5833     1
   5827   5836     1
   5827   5848     1
   5833  11673     1
   5836  11650     1
   5842  11649     1
   5842  11666     1
   5845  11689     1
   5845  11672     1
   5850   5875     1
   5850   5872     1
   5850   5869     1
   5851   5866     1
   5851   5860     1
   5851  11723     1
   5854   5863     1
   5854   5860     1
   5854  11700     1
   5857   5863     1
   5857   5866     1
   5857   5878     1
   5863  11719     1
   5866  11696     1
   5872  11695     1
   5872  11712     1
   5875  11735     1
   5875  11718     1
   5880   5905     1
   5880   5902     1
   5880   5899     1
   5881   5896     1
   5881   5890     1
   5881  11769     1
   5884   5893     1
   5884   5890     1
   5884  11746     1
   5887   5893     1
   5887   5896     1
   5887   5908     1
   5893  11765     1
   5896  11742     1
   5902  11741     1
   5902  11758     1
   5905  11781     1
   5905  11764     1
   5910   5935     1
   5910   5932     1
   5910   5929     1
   5911   5926     1
   5911   5920     1
   5911  11815     1
   5914   5923     1
   5914   5920     1
   5914  11792     1
   5917   5923     1
   5917   5926     1
   5917   5938     1
   5923  11811     1
   5926  11788     1
   5932  11787     1
   5932  11804     1
   5935  11827     1
   5935  11810     1
   5940   5965     1
   5940   5962     1
   5940   5959     1
   5941   5956     1
   5941   5950     1
   5941  11861     1
   5944   5953     1
   5944   5950     1
   5944  11838     1
   5947   5953     1
   5947   5956     1
   5947   5968     1
   5953  11857     1
   5956  11834     1
   5962  11833     1
   5962  11850     1
   5965  11873     1
   5965  11856     1
   5970   5995     1
   5970   5992     1
   5970   5989     1
   5971   5986     1
   5971   5980     1
   5971  11907     1
   5974   5983     1
   5974   5980     1
   5974  11884     1
   5977   5983     1
   5977   5986     1
   5977   5998     1
   5983  11903     1
   5986  11880     1
   5992  11879     1
   5992  11896     1
   5995  11919     1
   5995  11902     1
   6000   6025     1
   6000   6022     1
   6000   6019     1
   6001   6016     1
   6001   6010     1
   6001  11953     1
   6004   6013     1
   6004   6010     1
   6004  11930     1
   6007   6013     1
   6007   6016     1
   6007   6028     1
   6013  11949     1
   6016  11926     1
   6022  11925     1
   6022  11942     1
   6025  11965     1
   6025  11948     1
   6030   6055     1
   6030   6052     1
   6030   6049     1
   6031   6046     1
   6031   6040     1
   6031  11999     1
   6034   6043     1
   6034   6040     1
   6034  11976     1
   6037   6043     1
   6037   6046     1
   6037   6058     1
   6043  11995     1
   6046  11972     1
   6052  11971     1
   6052  11988     1
   6055  12011     1
   6055  11994     1
   6060   6085     1
   6060   6082     1
   6060   6079     1
   6061   6076     1
   6061   6070     1
   6061  12045     1
   6064   6073     1
   6064   6070     1
   6064  12022     1
   6067   6073     1
   6067   6076     1
   6067   6088     1
   6073  12041     1
   6076  12018     1
   6082  12017     1
   6082  12034     1
   6085  12057     1
   6085  12040     1
   6090   6115     1
   6090   6112     1
   6090   6109     1
   6091   6106     1
   6091   6100     1
   6091  12091     1
   6094   6103     1
   6094   6100     1
   6094  12068     1
   6097   6103     1
   6097   6106     1
   6097   6118     1
   6103  12087     1
   6106  12064     1
   6112  12063     1
   6112  12080     1
   6115  12103     1
   6115  12086     1
   6120   6145     1
   6120   6142     1
   6120   6139     1
   6121   6136     1
   6121   6130     1
   6121  12137     1
   6124   6133     1
   6124   6130     1
   6124  12114     1
   6127   6133     1
   6127   6136     1
   6127   6148     1
   6133  12133     1
   6136  12110     1
   6142  12109     1
   6142  12126     1
   6145  12149     1
   6145  12132     1
   6150   6175     1
   6150   6172     1
   6150   6169     1
   6151   6166     1
   6151   6160     1
   6151  12183     1
   6154   6163     1
   6154   6160     1
   6154  12160     1
   6157   6163     1
   6157   6166     1
   6157   6178     1
   6163  12179     1
   6166  12156     1
   6172  12155     1
   6172  12172     1
   6175  12195     1
   6175  12178     1
   6180   6205     1
   6180   6202     1
   6180   6199     1
   6181   6196     1
   6181   6190     1
   6181  12229     1
   6184   6193     1
   6184   6190     1
   6184  12206     1
   6187   6193     1
   6187   6196     1
   6187   6208     1
   6193  12225     1
   6196  12202     1
   6202  12201     1
   6202  12218     1
   6205  12241     1
   6205  12224     1
   6210   6235     1
   6210   6232     1
   6210   6229     1
   6211   6226     1
   6211   6220     1
   6211  12275     1
   6214   6223     1
   6214   6220     1
   6214  12252     1
   6217   6223     1
   6217   6226     1
   6217   6238     1
   6223  12271     1
   6226  12248     1
   6232  12247     1
   6232  12264     1
   6235  12287     1
   6235  12270     1
   6240   6265     1
   6240   6262     1
   6240   6259     1
   6241   6256     1
   6241   6250     1
   6241  12321     1
   6244   6253     1
   6244   6250     1
   6244  12298     1
   6247   6253     1
   6247   6256     1
   6247   6268     1
   6253  12317     1
   6256  12294     1
   6262  12293     1
   6262  12310     1
   6265  12333     1
   6265  12316     1
   6270   6295     1
   6270   6292     1
   6270   6289     1
   6271   6286     1
   6271   6280     1
   6271  12367     1
   6274   6283     1
   6274   6280     1
   6274  12344     1
   6277   6283     1
   6277   6286     1
   6277   6298     1
   6283  12363     1
   6286  12340     1
   6292  12339     1
   6292  12356     1
   6295  12379     1
   6295  12362     1
   6300   6325     1
   6300   6322     1
   6300   6319     1
   6301   6316     1
   6301   6310     1
   6301  12413     1
   6304   6313     1
   6304   6310     1
   6304  12390     1
   6307   6313     1
   6307   6316     1
   6307   6328     1
   6313  12409     1
   6316  12386     1
   6322  12385     1
   6322  12402     1
   6325  12425     1
   6325  12408     1
   6330   6355     1
   6330   6352     1
   6330   6349     1
   6331   6346     1
   6331   6340     1
   6331  12459     1
   6334   6343     1
   6334   6340     1
   6334  12436     1
   6337   6343     1
   6337   6346     1
   6337   6358     1
   6343  12455     1
   6346  12432     1
   6352  12431     1
   6352  12448     1
   6355  12471     1
   6355  12454     1
   6360   6385     1
   6360   6382     1
   6360   6379     1
   6361   6376     1
   6361   6370     1
   6361  12505     1
   6364   6373     1
   6364   6370     1
   6364  12482     1
   6367   6373     1
   6367   6376     1
   6367   6388     1
   6373  12501     1
   6376  12478     1
   6382  12477     1
   6382  12494     1
   6385  12517     1
   6385  12500     1
   6390   6415     1
   6390   6412     1
   6390   6409     1
   6391   6406     1
   6391   6400     1
   6391  12551     1
   6394   6403     1
   6394   6400     1
   6394  12528     1
   6397   6403     1
   6397   6406     1
   6397   6418     1
   6403  12547     1
   6406  12524     1
   6412  12523     1
   6412  12540     1
   6415  12563     1
   6415  12546     1
   6420   6445     1
   6420   6442     1
   6420   6439     1
   6421   6436     1
   6421   6430     1
   6421  12597     1
   6424   6433     1
   6424   6430     1
   6424  12574     1
   6427   6433     1
   6427   6436     1
   6427   6448     1
   6433  12593     1
   6436  12570     1
   6442  12569     1
   6442  12586     1
   6445  12609     1
   6445  12592     1
   6450   6475     1
   6450   6472     1
   6450   6469     1
   6451   6466     1
   6451   6460     1
   6451  12643     1
   6454   6463     1
   6454   6460     1
   6454  12620     1
   6457   6463     1
   6457   6466     1
   6457   6478     1
   6463  12639     1
   6466  12616     1
   6472  12615     1
   6472  12632     1
   6475  12655     1
   6475  12638     1
   6480   6505     1
   6480   6502     1
   6480   6499     1
   6481   6496     1
   6481   6490     1
   6481  12689     1
   6484   6493     1
   6484   6490     1
   6484  12666     1
   6487   6493     1
   6487   6496     1
   6487   6508     1
   6493  12685     1
   6496  12662     1
   6502  12661     1
   6502  12678     1
   6505  12701     1
   6505  12684     1
   6510   6535     1
   6510   6532     1
   6510   6529     1
   6511   6526     1
   6511   6520     1
   6511  12735     1
   6514   6523     1
   6514   6520     1
   6514  12712     1
   6517   6523     1
   6517   6526     1
   6517   6538     1
   6523  12731     1
   6526  12708     1
   6532  12707     1
   6532  12724     1
   6535  12747     1
   6535  12730     1
   6540   6565     1
   6540   6562     1
   6540   6559     1
   6541   6556     1
   6541   6550     1
   6541  12781     1
   6544   6553     1
   6544   6550     1
   6544  12758     1
   6547   6553     1
   6547   6556     1
   6547   6568     1
   6553  12777     1
   6556  12754     1
   6562  12753     1
   6562  12770     1
   6565  12793     1
   6565  12776     1
   6570   6595     1
   6570   6592     1
   6570   6589     1
   6571   6586     1
   6571   6580     1
   6571  12827     1
   6574   6583     1
   6574   6580     1
   6574  12804     1
   6577   6583     1
   6577   6586     1
   6577   6598     1
   6583  12823     1
   6586  12800     1
   6592  12799     1
   6592  12816     1
   6595  12839     1
   6595  12822     1
   6600   6625     1
   6600   6622     1
   6600   6619     1
   6601   6616     1
   6601   6610     1
   6601  12873     1
   6604   6613     1
   6604   6610     1
   6604  12850     1
   6607   6613     1
   6607   6616     1
   6607   6628     1
   6613  12869     1
   6616  12846     1
   6622  12845     1
   6622  12862     1
   6625  12885     1
   6625  12868     1
   6630   6655     1
   6630   6652     1
   6630   6649     1
   6631   6646     1
   6631   6640     1
   6631  12919     1
   6634   6643     1
   6634   6640     1
   6634  12896     1
   6637   6643     1
   6637   6646     1
   6637   6658     1
   6643  12915     1
   6646  12892     1
   6652  12891     1
   6652  12908     1
   6655  12931     1
   6655  12914     1
   6660   6685     1
   6660   6682     1
   6660   6679     1
   6661   6676     1
   6661   6670     1
   6661  12965     1
   6664   6673     1
   6664   6670     1
   6664  12942     1
   6667   6673     1
   6667   6676     1
   6667   6688     1
   6673  12961     1
   6676  12938     1
   6682  12937     1
   6682  12954     1
   6685  12977     1
   6685  12960     1
   6690   6715     1
   6690   6712     1
   6690   6709     1
   6691   6706     1
   6691   6700     1
   6691  13011     1
   6694   6703     1
   6694   6700     1
   6694  12988     1
   6697   6703     1
   6697   6706     1
   6697   6718     1
   6703  13007     1
   6706  12984     1
   6712  12983     1
   6712  13000     1
   6715  13023     1
   6715  13006     1
   6720   6745     1
   6720   6742     1
   6720   6739     1
   6721   6736     1
   6721   6730     1
   6721  13057     1
   6724   6733     1
   6724   6730     1
   6724  13034     1
   6727   6733     1
   6727   6736     1
   6727   6748     1
   6733  13053     1
   6736  13030     1
   6742  13029     1
   6742  13046     1
   6745  13069     1
   6745  13052     1
   6750   6775     1
   6750   6772     1
   6750   6769     1
   6751   6766     1
   6751   6760     1
   6751  13103     1
   6754   6763     1
   6754   6760     1
   6754  13080     1
   6757   6763     1
   6757   6766     1
   6757   6778     1
   6763  13099     1
   6766  13076     1
   6772  13075     1
   6772  13092     1
   6775  13115     1
   6775  13098     1
   6780   6805     1
   6780   6802     1
   6780   6799     1
   6781   6796     1
   6781   6790     1
   6781  13149     1
   6784   6793     1
   6784   6790     1
   6784  13126     1
   6787   6793     1
   6787   6796     1
   6787   6808     1
   6793  13145     1
   6796  13122     1
   6802  13121     1
   6802  13138     1
   6805  13161     1
   6805  13144     1
   6810   6835     1
   6810   6832     1
   6810   6829     1
   6811   6826     1
   6811   6820     1
   6811  13195     1
   6814   6823     1
   6814   6820     1
   6814  13172     1
   6817   6823     1
   6817   6826     1
   6817   6838     1
   6823  13191     1
   6826  13168     1
   6832  13167     1
   6832  13184     1
   6835  13207     1
   6835  13190     1
   6840   6865     1
   6840   6862     1
   6840   6859     1
   6841   6856     1
   6841   6850     1
   6841  13241     1
   6844   6853     1
   6844   6850     1
   6844  13218     1
   6847   6853     1
   6847   6856     1
   6847   6868     1
   6853  13237     1
   6856  13214     1
   6862  13213     1
   6862  13230     1
   6865  13253     1
   6865  13236     1
   6870   6895     1
   6870   6892     1
   6870   6889     1
   6871   6886     1
   6871   6880     1
   6871  13287     1
   6874   6883     1
   6874   6880     1
   6874  13264     1
   6877   6883     1
   6877   6886     1
   6877   6898     1
   6883  13283     1
   6886  13260     1
   6892  13259     1
   6892  13276     1
   6895  13299     1
   6895  13282     1
   6900   6925     1
   6900   6922     1
   6900   6919     1
   6901   6916     1
   6901   6910     1
   6901  13333     1
   6904   6913     1
   6904   6910     1
   6904  13310     1
   6907   6913     1
   6907   6916     1
   6907   6928     1
   6913  13329     1
   6916  13306     1
   6922  13305     1
   6922  13322     1
   6925  13345     1
   6925  13328     1
   6930   6955     1
   6930   6952     1
   6930   6949     1
   6931   6946     1
   6931   6940     1
   6931  13379     1
   6934   6943     1
   6934   6940     1
   6934  13356     1
   6937   6943     1
   6937   6946     1
   6937   6958     1
   6943  13375     1
   6946  13352     1
   6952  13351     1
   6952  13368     1
   6955  13391     1
   6955  13374     1
   6960   6985     1
   6960   6982     1
   6960   6979     1
   6961   6976     1
   6961   6970     1
   6961  13425     1
   6964   6973     1
   6964   6970     1
   6964  13402     1
   6967   6973     1
   6967   6976     1
   6967   6988     1
   6973  13421     1
   6976  13398     1
   6982  13397     1
   6982  13414     1
   6985  13437     1
   6985  13420     1
   6990   7015     1
   6990   7012     1
   6990   7009     1
   6991   7006     1
   6991   7000     1
   6991  13471     1
   6994   7003     1
   6994   7000     1
   6994  13448     1
   6997   7003     1
   6997   7006     1
   6997   7018     1
   7003  13467     1
   7006  13444     1
   7012  13443     1
   7012  13460     1
   7015  13483     1
   7015  13466     1
   7020   7045     1
   7020   7042     1
   7020   7039     1
   7021   7036     1
   7021   7030     1
   7021  13517     1
   7024   7033     1
   7024   7030     1
   7024  13494     1
   7027   7033     1
   7027   7036     1
   7027   7048     1
   7033  13513     1
   7036  13490     1
   7042  13489     1
   7042  13506     1
   7045  13529     1
   7045  13512     1
   7050   7075     1
   7050   7072     1
   7050   7069     1
   7051   7066     1
   7051   7060     1
   7051  13563     1
   7054   7063     1
   7054   7060     1
   7054  13540     1
   7057   7063     1
   7057   7066     1
   7057   7078     1
   7063  13559     1
   7066  13536     1
   7072  13535     1
   7072  13552     1
   7075  13575     1
   7075  13558     1
   7080   7105     1
   7080   7102     1
   7080   7099     1
   7081   7096     1
   7081   7090     1
   7081  13609     1
   7084   7093     1
   7084   7090     1
   7084  13586     1
   7087   7093     1
   7087   7096     1
   7087   7108     1
   7093  13605     1
   7096  13582     1
   7102  13581     1
   7102  13598     1
   7105  13621     1
   7105  13604     1
   7110   7135     1
   7110   7132     1
   7110   7129     1
   7111   7126     1
   7111   7120     1
   7111  13655     1
   7114   7123     1
   7114   7120     1
   7114  13632     1
   7117   7123     1
   7117   7126     1
   7117   7138     1
   7123  13651     1
   7126  13628     1
   7132  13627     1
   7132  13644     1
   7135  13667     1
   7135  13650     1
   7140   7165     1
   7140   7162     1
   7140   7159     1
   7141   7156     1
   7141   7150     1
   7141  13701     1
   7144   7153     1
   7144   7150     1
   7144  13678     1
   7147   7153     1
   7147   7156     1
   7147   7168     1
   7153  13697     1
   7156  13674     1
   7162  13673     1
   7162  13690     1
   7165  13713     1
   7165  13696     1
   7170   7195     1
   7170   7192     1
   7170   7189     1
   7171   7186     1
   7171   7180     1
   7171  13747     1
   7174   7183     1
   7174   7180     1
   7174  13724     1
   7177   7183     1
   7177   7186     1
   7177   7198     1
   7183  13743     1
   7186  13720     1
   7192  13719     1
   7192  13736     1
   7195  13759     1
   7195  13742     1
   7200   7225     1
   7200   7222     1
   7200   7219     1
   7201   7216     1
   7201   7210     1
   7201  13793     1
   7204   7213     1
   7204   7210     1
   7204  13770     1
   7207   7213     1
   7207   7216     1
   7207   7228     1
   7213  13789     1
   7216  13766     1
   7222  13765     1
   7222  13782     1
   7225  13805     1
   7225  13788     1
   7230   7255     1
   7230   7252     1
   7230   7249     1
   7231   7246     1
   7231   7240     1
   7231  13839     1
   7234   7243     1
   7234   7240     1
   7234  13816     1
   7237   7243     1
   7237   7246     1
   7237   7258     1
   7243  13835     1
   7246  13812     1
   7252  13811     1
   7252  13828     1
   7255  13851     1
   7255  13834     1
   7260   7285     1
   7260   7282     1
   7260   7279     1
   7261   7276     1
   7261   7270     1
   7261  13885     1
   7264   7273     1
   7264   7270     1
   7264  13862     1
   7267   7273     1
   7267   7276     1
   7267   7288     1
   7273  13881     1
   7276  13858     1
   7282  13857     1
   7282  13874     1
   7285  13897     1
   7285  13880     1
   7290   7315     1
   7290   7312     1
   7290   7309     1
   7291   7306     1
   7291   7300     1
   7291  13931     1
   7294   7303     1
   7294   7300     1
   7294  13908     1
   7297   7303     1
   7297   7306     1
   7297   7318     1
   7303  13927     1
   7306  13904     1
   7312  13903     1
   7312  13920     1
   7315  13943     1
   7315  13926     1
   7320   7345     1
   7320   7342     1
   7320   7339     1
   7321   7336     1
   7321   7330     1
   7321  13977     1
   7324   7333     1
   7324   7330     1
   7324  13954     1
   7327   7333     1
   7327   7336     1
   7327   7348     1
   7333  13973     1
   7336  13950     1
   7342  13949     1
   7342  13966     1
   7345  13989     1
   7345  13972     1
   7350   7375     1
   7350   7372     1
   7350   7369     1
   7351   7366     1
   7351   7360     1
   7351  14023     1
   7354   7363     1
   7354   7360     1
   7354  14000     1
   7357   7363     1
   7357   7366     1
   7357   7378     1
   7363  14019     1
   7366  13996     1
   7372  13995     1
   7372  14012     1
   7375  14035     1
   7375  14018     1
   7380   7405     1
   7380   7402     1
   7380   7399     1
   7381   7396     1
   7381   7390     1
   7381  14069     1
   7384   7393     1
   7384   7390     1
   7384  14046     1
   7387   7393     1
   7387   7396     1
   7387   7408     1
   7393  14065     1
   7396  14042     1
   7402  14041     1
   7402  14058     1
   7405  14081     1
   7405  14064     1
   7410   7435     1
   7410   7432     1
   7410   7429     1
   7411   7426     1
   7411   7420     1
   7411  14115     1
   7414   7423     1
   7414   7420     1
   7414  14092     1
   7417   7423     1
   7417   7426     1
   7417   7438     1
   7423  14111     1
   7426  14088     1
   7432  14087     1
   7432  14104     1
   7435  14127     1
   7435  14110     1
   7440   7465     1
   7440   7462     1
   7440   7459     1
   7441   7456     1
   7441   7450     1
   7441  14161     1
   7444   7453     1
   7444   7450     1
   7444  14138     1
   7447   7453     1
   7447   7456     1
   7447   7468     1
   7453  14157     1
   7456  14134     1
   7462  14133     1
   7462  14150     1
   7465  14173     1
   7465  14156     1
   7470   7495     1
   7470   7492     1
   7470   7489     1
   7471   7486     1
   7471   7480     1
   7471  14207     1
   7474   7483     1
   7474   7480     1
   7474  14184     1
   7477   7483     1
   7477   7486     1
   7477   7498     1
   7483  14203     1
   7486  14180     1
   7492  14179     1
   7492  14196     1
   7495  14219     1
   7495  14202     1
   7500   7525     1
   7500   7522     1
   7500   7519     1
   7501   7516     1
   7501   7510     1
   7501  14253     1
   7504   7513     1
   7504   7510     1
   7504  14230     1
   7507   7513     1
   7507   7516     1
   7507   7528     1
   7513  14249     1
   7516  14226     1
   7522  14225     1
   7522  14242     1
   7525  14265     1
   7525  14248     1
   7530   7555     1
   7530   7552     1
   7530   7549     1
   7531   7546     1
   7531   7540     1
   7531  14299     1
   7534   7543     1
   7534   7540     1
   7534  14276     1
   7537   7543     1
   7537   7546     1
   7537   7558     1
   7543  14295     1
   7546  14272     1
   7552  14271     1
   7552  14288     1
   7555  14311     1
   7555  14294     1
   7560   7585     1
   7560   7582     1
   7560   7579     1
   7561   7576     1
   7561   7570     1
   7561  14345     1
   7564   7573     1
   7564   7570     1
   7564  14322     1
   7567   7573     1
   7567   7576     1
   7567   7588     1
   7573  14341     1
   7576  14318     1
   7582  14317     1
   7582  14334     1
   7585  14357     1
   7585  14340     1
   7590   7615     1
   7590   7612     1
   7590   7609     1
   7591   7606     1
   7591   7600     1
   7591  14391     1
   7594   7603     1
   7594   7600     1
   7594  14368     1
   7597   7603     1
   7597   7606     1
   7597   7618     1
   7603  14387     1
   7606  14364     1
   7612  14363     1
   7612  14380     1
   7615  14403     1
   7615  14386     1
   7620   7645     1
   7620   7642     1
   7620   7639     1
   7621   7636     1
   7621   7630     1
   7621  14437     1
   7624   7633     1
   7624   7630     1
   7624  14414     1
   7627   7633     1
   7627   7636     1
   7627   7648     1
   7633  14433     1
   7636  14410     1
   7642  14409     1
   7642  14426     1
   7645  14449     1
   7645  14432     1
   7650   7675     1
   7650   7672     1
   7650   7669     1
   7651   7666     1
   7651   7660     1
   7651  14483     1
   7654   7663     1
   7654   7660     1
   7654  14460     1
   7657   7663     1
   7657   7666     1
   7657   7678     1
   7663  14479     1
   7666  14456     1
   7672  14455     1
   7672  14472     1
   7675  14495     1
   7675  14478     1
   7680   7705     1
   7680   7702     1
   7680   7699     1
   7681   7696     1
   7681   7690     1
   7681  14529     1
   7684   7693     1
   7684   7690     1
   7684  14506     1
   7687   7693     1
   7687   7696     1
   7687   7708     1
   7693  14525     1
   7696  14502     1
   7702  14501     1
   7702  14518     1
   7705  14541     1
   7705  14524     1
   7710   7735     1
   7710   7732     1
   7710   7729     1
   7711   7726     1
   7711   7720     1
   7711  14575     1
   7714   7723     1
   7714   7720     1
   7714  14552     1
   7717   7723     1
   7717   7726     1
   7717   7738     1
   7723  14571     1
   7726  14548     1
   7732  14547     1
   7732  14564     1
   7735  14587     1
   7735  14570     1
   7740   7765     1
   7740   7762     1
   7740   7759     1
   7741   7756     1
   7741   7750     1
   7741  14621     1
   7744   7753     1
   7744   7750     1
   7744  14598     1
   7747   7753     1
   7747   7756     1
   7747   7768     1
   7753  14617     1
   7756  14594     1
   7762  14593     1
   7762  14610     1
   7765  14633     1
   7765  14616     1
   7770   7795     1
   7770   7792     1
   7770   7789     1
   7771   7786     1
   7771   7780     1
   7771  14667     1
   7774   7783     1
   7774   7780     1
   7774  14644     1
   7777   7783     1
   7777   7786     1
   7777   7798     1
   7783  14663     1
   7786  14640     1
   7792  14639     1
   7792  14656     1
   7795  14679     1
   7795  14662     1
   7800   7825     1
   7800   7822     1
   7800   7819     1
   7801   7816     1
   7801   7810     1
   7801  14713     1
   7804   7813     1
   7804   7810     1
   7804  14690     1
   7807   7813     1
   7807   7816     1
   7807   7828     1
   7813  14709     1
   7816  14686     1
   7822  14685     1
   7822  14702     1
   7825  14725     1
   7825  14708     1
   7830   7855     1
   7830   7852     1
   7830   7849     1
   7831   7846     1
   7831   7840     1
   7831  14759     1
   7834   7843     1
   7834   7840     1
   7834  14736     1
   7837   7843     1
   7837   7846     1
   7837   7858     1
   7843  14755     1
   7846  14732     1
   7852  14731     1
   7852  14748     1
   7855  14771     1
   7855  14754     1
   7860   7885     1
   7860   7882     1
   7860   7879     1
   7861   7876     1
   7861   7870     1
   7861  14805     1
   7864   7873     1
   7864   7870     1
   7864  14782     1
   7867   7873     1
   7867   7876     1
   7867   7888     1
   7873  14801     1
   7876  14778     1
   7882  14777     1
   7882  14794     1
   7885  14817     1
   7885  14800     1
   7890   7915     1
   7890   7912     1
   7890   7909     1
   7891   7906     1
   7891   7900     1
   7891  14851     1
   7894   7903     1
   7894   7900     1
   7894  14828     1
   7897   7903     1
   7897   7906     1
   7897   7918     1
   7903  14847     1
   7906  14824     1
   7912  14823     1
   7912  14840     1
   7915  14863     1
   7915  14846     1
   7920   7945     1
   7920   7942     1
   7920   7939     1
   7921   7936     1
   7921   7930     1
   7921  14897     1
   7924   7933     1
   7924   7930     1
   7924  14874     1
   7927   7933     1
   7927   7936     1
   7927   7948     1
   7933  14893     1
   7936  14870     1
   7942  14869     1
   7942  14886     1
   7945  14909     1
   7945  14892     1
   7950   7975     1
   7950   7972     1
   7950   7969     1
   7951   7966     1
   7951   7960     1
   7951  14943     1
   7954   7963     1
   7954   7960     1
   7954  14920     1
   7957   7963     1
   7957   7966     1
   7957   7978     1
   7963  14939     1
   7966  14916     1
   7972  14915     1
   7972  14932     1
   7975  14955     1
   7975  14938     1
   7980   8005     1
   7980   8002     1
   7980   7999     1
   7981   7996     1
   7981   7990     1
   7981  14989     1
   7984   7993     1
   7984   7990     1
   7984  14966     1
   7987   7993     1
   7987   7996     1
   7987   8008     1
   7993  14985     1
   7996  14962     1
   8002  14961     1
   8002  14978     1
   8005  15001     1
   8005  14984     1
   8010   8035     1
   8010   8032     1
   8010   8029     1
   8011   8026     1
   8011   8020     1
   8011  15035     1
   8014   8023     1
   8014   8020     1
   8014  15012     1
   8017   8023     1
   8017   8026     1
   8017   8038     1
   8023  15031     1
   8026  15008     1
   8032  15007     1
   8032  15024     1
   8035  15047     1
   8035  15030     1
   8040   8065     1
   8040   8062     1
   8040   8059     1
   8041   8056     1
   8041   8050     1
   8041  15081     1
   8044   8053     1
   8044   8050     1
   8044  15058     1
   8047   8053     1
   8047   8056     1
   8047   8068     1
   8053  15077     1
   8056  15054     1
   8062  15053     1
   8062  15070     1
   8065  15093     1
   8065  15076     1
   8070   8095     1
   8070   8092     1
   8070   8089     1
   8071   8086     1
   8071   8080     1
   8071  15127     1
   8074   8083     1
   8074   8080     1
   8074  15104     1
   8077   8083     1
   8077   8086     1
   8077   8098     1
   8083  15123     1
   8086  15100     1
   8092  15099     1
   8092  15116     1
   8095  15139     1
   8095  15122     1
   8100   8125     1
   8100   8122     1
   8100   8119     1
   8101   8116     1
   8101   8110     1
   8101  15173     1
   8104   8113     1
   8104   8110     1
   8104  15150     1
   8107   8113     1
   8107   8116     1
   8107   8128     1
   8113  15169     1
   8116  15146     1
   8122  15145     1
   8122  15162     1
   8125  15185     1
   8125  15168     1
   8130   8155     1
   8130   8152     1
   8130   8149     1
   8131   8146     1
   8131   8140     1
   8131  15219     1
   8134   8143     1
   8134   8140     1
   8134  15196     1
   8137   8143     1
   8137   8146     1
   8137   8158     1
   8143  15215     1
   8146  15192     1
   8152  15191     1
   8152  15208     1
   8155  15231     1
   8155  15214     1
   8160   8185     1
   8160   8182     1
   8160   8179     1
   8161   8176     1
   8161   8170     1
   8161  15265     1
   8164   8173     1
   8164   8170     1
   8164  15242     1
   8167   8173     1
   8167   8176     1
   8167   8188     1
   8173  15261     1
   8176  15238     1
   8182  15237     1
   8182  15254     1
   8185  15277     1
   8185  15260     1
   8190   8215     1
   8190   8212     1
   8190   8209     1
   8191   8206     1
   8191   8200     1
   8191  15311     1
   8194   8203     1
   8194   8200     1
   8194  15288     1
   8197   8203     1
   8197   8206     1
   8197   8218     1
   8203  15307     1
   8206  15284     1
   8212  15283     1
   8212  15300     1
   8215  15323     1
   8215  15306     1
   8220   8245     1
   8220   8242     1
   8220   8239     1
   8221   8236     1
   8221   8230     1
   8221  15357     1
   8224   8233     1
   8224   8230     1
   8224  15334     1
   8227   8233     1
   8227   8236     1
   8227   8248     1
   8233  15353     1
   8236  15330     1
   8242  15329     1
   8242  15346     1
   8245  15369     1
   8245  15352     1
   8250   8275     1
   8250   8272     1
   8250   8269     1
   8251   8266     1
   8251   8260     1
   8251  15403     1
   8254   8263     1
   8254   8260     1
   8254  15380     1
   8257   8263     1
   8257   8266     1
   8257   8278     1
   8263  15399     1
   8266  15376     1
   8272  15375     1
   8272  15392     1
   8275  15415     1
   8275  15398     1
   8280   8305     1
   8280   8302     1
   8280   8299     1
   8281   8296     1
   8281   8290     1
   8281  15449     1
   8284   8293     1
   8284   8290     1
   8284  15426     1
   8287   8293     1
   8287   8296     1
   8287   8308     1
   8293  15445     1
   8296  15422     1
   8302  15421     1
   8302  15438     1
   8305  15461     1
   8305  15444     1
   8310   8335     1
   8310   8332     1
   8310   8329     1
   8311   8326     1
   8311   8320     1
   8311  15495     1
   8314   8323     1
   8314   8320     1
   8314  15472     1
   8317   8323     1
   8317   8326     1
   8317   8338     1
   8323  15491     1
   8326  15468     1
   8332  15467     1
   8332  15484     1
   8335  15507     1
   8335  15490     1
   8340   8365     1
   8340   8362     1
   8340   8359     1
   8341   8356     1
   8341   8350     1
   8341  15541     1
   8344   8353     1
   8344   8350     1
   8344  15518     1
   8347   8353     1
   8347   8356     1
   8347   8368     1
   8353  15537     1
   8356  15514     1
   8362  15513     1
   8362  15530     1
   8365  15553     1
   8365  15536     1
   8370   8395     1
   8370   8392     1
   8370   8389     1
   8371   8386     1
   8371   8380     1
   8371  15587     1
   8374   8383     1
   8374   8380     1
   8374  15564     1
   8377   8383     1
   8377   8386     1
   8377   8398     1
   8383  15583     1
   8386  15560     1
   8392  15559     1
   8392  15576     1
   8395  15599     1
   8395  15582     1
   8400   8425     1
   8400   8422     1
   8400   8419     1
   8401   8416     1
   8401   8410     1
   8401  15633     1
   8404   8413     1
   8404   8410     1
   8404  15610     1
   8407   8413     1
   8407   8416     1
   8407   8428     1
   8413  15629     1
   8416  15606     1
   8422  15605     1
   8422  15622     1
   8425  15645     1
   8425  15628     1
   8430   8455     1
   8430   8452     1
   8430   8449     1
   8431   8446     1
   8431   8440     1
   8431  15679     1
   8434   8443     1
   8434   8440     1
   8434  15656     1
   8437   8443     1
   8437   8446     1
   8437   8458     1
   8443  15675     1
   8446  15652     1
   8452  15651     1
   8452  15668     1
   8455  15691     1
   8455  15674     1
   8460   8485     1
   8460   8482     1
   8460   8479     1
   8461   8476     1
   8461   8470     1
   8461  15725     1
   8464   8473     1
   8464   8470     1
   8464  15702     1
   8467   8473     1
   8467   8476     1
   8467   8488     1
   8473  15721     1
   8476  15698     1
   8482  15697     1
   8482  15714     1
   8485  15737     1
   8485  15720     1
   8490   8515     1
   8490   8512     1
   8490   8509     1
   8491   8506     1
   8491   8500     1
   8491  15771     1
   8494   8503     1
   8494   8500     1
   8494  15748     1
   8497   8503     1
   8497   8506     1
   8497   8518     1
   8503  15767     1
   8506  15744     1
   8512  15743     1
   8512  15760     1
   8515  15783     1
   8515  15766     1
   8520   8545     1
   8520   8542     1
   8520   8539     1
   8521   8536     1
   8521   8530     1
   8521  15817     1
   8524   8533     1
   8524   8530     1
   8524  15794     1
   8527   8533     1
   8527   8536     1
   8527   8548     1
   8533  15813     1
   8536  15790     1
   8542  15789     1
   8542  15806     1
   8545  15829     1
   8545  15812     1
   8550   8575     1
   8550   8572     1
   8550   8569     1
   8551   8566     1
   8551   8560     1
   8551  15863     1
   8554   8563     1
   8554   8560     1
   8554  15840     1
   8557   8563     1
   8557   8566     1
   8557   8578     1
   8563  15859     1
   8566  15836     1
   8572  15835     1
   8572  15852     1
   8575  15875     1
   8575  15858     1
   8580   8605     1
   8580   8602     1
   8580   8599     1
   8581   8596     1
   8581   8590     1
   8581  15909     1
   8584   8593     1
   8584   8590     1
   8584  15886     1
   8587   8593     1
   8587   8596     1
   8587   8608     1
   8593  15905     1
   8596  15882     1
   8602  15881     1
   8602  15898     1
   8605  15921     1
   8605  15904     1
   8610   8635     1
   8610   8632     1
   8610   8629     1
   8611   8626     1
   8611   8620     1
   8611  15955     1
   8614   8623     1
   8614   8620     1
   8614  15932     1
   8617   8623     1
   8617   8626     1
   8617   8638     1
   8623  15951     1
   8626  15928     1
   8632  15927     1
   8632  15944     1
   8635  15967     1
   8635  15950     1
   8640   8665     1
   8640   8662     1
   8640   8659     1
   8641   8656     1
   8641   8650     1
   8641  16001     1
   8644   8653     1
   8644   8650     1
   8644  15978     1
   8647   8653     1
   8647   8656     1
   8647   8668     1
   8653  15997     1
   8656  15974     1
   8662  15973     1
   8662  15990     1
   8665  16013     1
   8665  15996     1
   8670   8695     1
   8670   8692     1
   8670   8689     1
   8671   8686     1
   8671   8680     1
   8671  16047     1
   8674   8683     1
   8674   8680     1
   8674  16024     1
   8677   8683     1
   8677   8686     1
   8677   8698     1
   8683  16043     1
   8686  16020     1
   8692  16019     1
   8692  16036     1
   8695  16059     1
   8695  16042     1
   8700   8725     1
   8700   8722     1
   8700   8719     1
   8701   8716     1
   8701   8710     1
   8701  16093     1
   8704   8713     1
   8704   8710     1
   8704  16070     1
   8707   8713     1
   8707   8716     1
   8707   8728     1
   8713  16089     1
   8716  16066     1
   8722  16065     1
   8722  16082     1
   8725  16105     1
   8725  16088     1
   8730   8755     1
   8730   8752     1
   8730   8749     1
   8731   8746     1
   8731   8740     1
   8731  16139     1
   8734   8743     1
   8734   8740     1
   8734  16116     1
   8737   8743     1
   8737   8746     1
   8737   8758     1
   8743  16135     1
   8746  16112     1
   8752  16111     1
   8752  16128     1
   8755  16151     1
   8755  16134     1
   8760   8785     1
   8760   8782     1
   8760   8779     1
   8761   8776     1
   8761   8770     1
   8761  16185     1
   8764   8773     1
   8764   8770     1
   8764  16162     1
   8767   8773     1
   8767   8776     1
   8767   8788     1
   8773  16181     1
   8776  16158     1
   8782  16157     1
   8782  16174     1
   8785  16197     1
   8785  16180     1
   8790   8815     1
   8790   8812     1
   8790   8809     1
   8791   8806     1
   8791   8800     1
   8791  16231     1
   8794   8803     1
   8794   8800     1
   8794  16208     1
   8797   8803     1
   8797   8806     1
   8797   8818     1
   8803  16227     1
   8806  16204     1
   8812  16203     1
   8812  16220     1
   8815  16243     1
   8815  16226     1
   8820   8845     1
   8820   8842     1
   8820   8839     1
   8821   8836     1
   8821   8830     1
   8821  16277     1
   8824   8833     1
   8824   8830     1
   8824  16254     1
   8827   8833     1
   8827   8836     1
   8827   8848     1
   8833  16273     1
   8836  16250     1
   8842  16249     1
   8842  16266     1
   8845  16289     1
   8845  16272     1
   8850   8875     1
   8850   8872     1
   8850   8869     1
   8851   8866     1
   8851   8860     1
   8851  16323     1
   8854   8863     1
   8854   8860     1
   8854  16300     1
   8857   8863     1
   8857   8866     1
   8857   8878     1
   8863  16319     1
   8866  16296     1
   8872  16295     1
   8872  16312     1
   8875  16335     1
   8875  16318     1
   8880   8905     1
   8880   8902     1
   8880   8899     1
   8881   8896     1
   8881   8890     1
   8881  16369     1
   8884   8893     1
   8884   8890     1
   8884  16346     1
   8887   8893     1
   8887   8896     1
   8887   8908     1
   8893  16365     1
   8896  16342     1
   8902  16341     1
   8902  16358     1
   8905  16381     1
   8905  16364     1
   8910   8935     1
   8910   8932     1
   8910   8929     1
   8911   8926     1
   8911   8920     1
   8911  16415     1
   8914   8923     1
   8914   8920     1
   8914  16392     1
   8917   8923     1
   8917   8926     1
   8917   8938     1
   8923  16411     1
   8926  16388     1
   8932  16387     1
   8932  16404     1
   8935  16427     1
   8935  16410     1
   8940   8965     1
   8940   8962     1
   8940   8959     1
   8941   8956     1
   8941   8950     1
   8941  16461     1
   8944   8953     1
   8944   8950     1
   8944  16438     1
   8947   8953     1
   8947   8956     1
   8947   8968     1
   8953  16457     1
   8956  16434     1
   8962  16433     1
   8962  16450     1
   8965  16473     1
   8965  16456     1
   8970   8995     1
   8970   8992     1
   8970   8989     1
   8971   8986     1
   8971   8980     1
   8971  16507     1
   8974   8983     1
   8974   8980     1
   8974  16484     1
   8977   8983     1
   8977   8986     1
   8977   8998     1
   8983  16503     1
   8986  16480     1
   8992  16479     1
   8992  16496     1
   8995  16519     1
   8995  16502     1
   9000   9025     1
   9000   9022     1
   9000   9019     1
   9001   9016     1
   9001   9010     1
   9001  16553     1
   9004   9013     1
   9004   9010     1
   9004  16530     1
   9007   9013     1
   9007   9016     1
   9007   9028     1
   9013  16549     1
   9016  16526     1
   9022  16525     1
   9022  16542     1
   9025  16565     1
   9025  16548     1
   9030   9055     1
   9030   9052     1
   9030   9049     1
   9031   9046     1
   9031   9040     1
   9031  16599     1
   9034   9043     1
   9034   9040     1
   9034  16576     1
   9037   9043     1
   9037   9046     1
   9037   9058     1
   9043  16595     1
   9046  16572     1
   9052  16571     1
   9052  16588     1
   9055  16611     1
   9055  16594     1
   9060   9085     1
   9060   9082     1
   9060   9079     1
   9061   9076     1
   9061   9070     1
   9061  16645     1
   9064   9073     1
   9064   9070     1
   9064  16622     1
   9067   9073     1
   9067   9076     1
   9067   9088     1
   9073  16641     1
   9076  16618     1
   9082  16617     1
   9082  16634     1
   9085  16657     1
   9085  16640     1
   9090   9115     1
   9090   9112     1
   9090   9109     1
   9091   9106     1
   9091   9100     1
   9091  16691     1
   9094   9103     1
   9094   9100     1
   9094  16668     1
   9097   9103     1
   9097   9106     1
   9097   9118     1
   9103  16687     1
   9106  16664     1
   9112  16663     1
   9112  16680     1
   9115  16703     1
   9115  16686     1
   9120   9145     1
   9120   9142     1
   9120   9139     1
   9121   9136     1
   9121   9130     1
   9121  16737     1
   9124   9133     1
   9124   9130     1
   9124  16714     1
   9127   9133     1
   9127   9136     1
   9127   9148     1
   9133  16733     1
   9136  16710     1
   9142  16709     1
   9142  16726     1
   9145  16749     1
   9145  16732     1
   9150   9175     1
   9150   9172     1
   9150   9169     1
   9151   9166     1
   9151   9160     1
   9151  16783     1
   9154   9163     1
   9154   9160     1
   9154  16760     1
   9157   9163     1
   9157   9166     1
   9157   9178     1
   9163  16779     1
   9166  16756     1
   9172  16755     1
   9172  16772     1
   9175  16795     1
   9175  16778     1
   9180   9205     1
   9180   9202     1
   9180   9199     1
   9181   9196     1
   9181   9190     1
   9181  16829     1
   9184   9193     1
   9184   9190     1
   9184  16806     1
   9187   9193     1
   9187   9196     1
   9187   9208     1
   9193  16825     1
   9196  16802     1
   9202  16801     1
   9202  16818     1
   9205  16841     1
   9205  16824     1
   9210   9235     1
   9210   9232     1
   9210   9229     1
   9211   9226     1
   9211   9220     1
   9211  16875     1
   9214   9223     1
   9214   9220     1
   9214  16852     1
   9217   9223     1
   9217   9226     1
   9217   9238     1
   9223  16871     1
   9226  16848     1
   9232  16847     1
   9232  16864     1
   9235  16887     1
   9235  16870     1
   9240   9265     1
   9240   9262     1
   9240   9259     1
   9241   9256     1
   9241   9250     1
   9241  16921     1
   9244   9253     1
   9244   9250     1
   9244  16898     1
   9247   9253     1
   9247   9256     1
   9247   9268     1
   9253  16917     1
   9256  16894     1
   9262  16893     1
   9262  16910     1
   9265  16933     1
   9265  16916     1
   9270   9295     1
   9270   9292     1
   9270   9289     1
   9271   9286     1
   9271   9280     1
   9271  16967     1
   9274   9283     1
   9274   9280     1
   9274  16944     1
   9277   9283     1
   9277   9286     1
   9277   9298     1
   9283  16963     1
   9286  16940     1
   9292  16939     1
   9292  16956     1
   9295  16979     1
   9295  16962     1
   9300   9325     1
   9300   9322     1
   9300   9319     1
   9301   9316     1
   9301   9310     1
   9301  17013     1
   9304   9313     1
   9304   9310     1
   9304  16990     1
   9307   9313     1
   9307   9316     1
   9307   9328     1
   9313  17009     1
   9316  16986     1
   9322  16985     1
   9322  17002     1
   9325  17025     1
   9325  17008     1
   9330   9355     1
   9330   9352     1
   9330   9349     1
   9331   9346     1
   9331   9340     1
   9331  17059     1
   9334   9343     1
   9334   9340     1
   9334  17036     1
   9337   9343     1
   9337   9346     1
   9337   9358     1
   9343  17055     1
   9346  17032     1
   9352  17031     1
   9352  17048     1
   9355  17071     1
   9355  17054     1
   9360   9385     1
   9360   9382     1
   9360   9379     1
   9361   9376     1
   9361   9370     1
   9361  17105     1
   9364   9373     1
   9364   9370     1
   9364  17082     1
   9367   9373     1
   9367   9376     1
   9367   9388     1
   9373  17101     1
   9376  17078     1
   9382  17077     1
   9382  17094     1
   9385  17117     1
   9385  17100     1
   9390   9415     1
   9390   9412     1
   9390   9409     1
   9391   9406     1
   9391   9400     1
   9391  17151     1
   9394   9403     1
   9394   9400     1
   9394  17128     1
   9397   9403     1
   9397   9406     1
   9397   9418     1
   9403  17147     1
   9406  17124     1
   9412  17123     1
   9412  17140     1
   9415  17163     1
   9415  17146     1
   9420   9445     1
   9420   9442     1
   9420   9439     1
   9421   9436     1
   9421   9430     1
   9421  17197     1
   9424   9433     1
   9424   9430     1
   9424  17174     1
   9427   9433     1
   9427   9436     1
   9427   9448     1
   9433  17193     1
   9436  17170     1
   9442  17169     1
   9442  17186     1
   9445  17209     1
   9445  17192     1
   9450   9475     1
   9450   9472     1
   9450   9469     1
   9451   9466     1
   9451   9460     1
   9451  17243     1
   9454   9463     1
   9454   9460     1
   9454  17220     1
   9457   9463     1
   9457   9466     1
   9457   9478     1
   9463  17239     1
   9466  17216     1
   9472  17215     1
   9472  17232     1
   9475  17255     1
   9475  17238     1
   9480   9505     1
   9480   9502     1
   9480   9499     1
   9481   9496     1
   9481   9490     1
   9481  17289     1
   9484   9493     1
   9484   9490     1
   9484  17266     1
   9487   9493     1
   9487   9496     1
   9487   9508     1
   9493  17285     1
   9496  17262     1
   9502  17261     1
   9502  17278     1
   9505  17301     1
   9505  17284     1
   9510   9535     1
   9510   9532     1
   9510   9529     1
   9511   9526     1
   9511   9520     1
   9511  17335     1
   9514   9523     1
   9514   9520     1
   9514  17312     1
   9517   9523     1
   9517   9526     1
   9517   9538     1
   9523  17331     1
   9526  17308     1
   9532  17307     1
   9532  17324     1
   9535  17347     1
   9535  17330     1
   9540   9565     1
   9540   9562     1
   9540   9559     1
   9541   9556     1
   9541   9550     1
   9541  17381     1
   9544   9553     1
   9544   9550     1
   9544  17358     1
   9547   9553     1
   9547   9556     1
   9547   9568     1
   9553  17377     1
   9556  17354     1
   9562  17353     1
   9562  17370     1
   9565  17393     1
   9565  17376     1
   9570   9595     1
   9570   9592     1
   9570   9589     1
   9571   9586     1
   9571   9580     1
   9571  17427     1
   9574   9583     1
   9574   9580     1
   9574  17404     1
   9577   9583     1
   9577   9586     1
   9577   9598     1
   9583  17423     1
   9586  17400     1
   9592  17399     1
   9592  17416     1
   9595  17439     1
   9595  17422     1
   9600   9625     1
   9600   9622     1
   9600   9619     1
   9601   9616     1
   9601   9610     1
   9601  17473     1
   9604   9613     1
   9604   9610     1
   9604  17450     1
   9607   9613     1
   9607   9616     1
   9607   9628     1
   9613  17469     1
   9616  17446     1
   9622  17445     1
   9622  17462     1
   9625  17485     1
   9625  17468     1
   9630   9655     1
   9630   9652     1
   9630   9649     1
   9631   9646     1
   9631   9640     1
   9631  17519     1
   9634   9643     1
   9634   9640     1
   9634  17496     1
   9637   9643     1
   9637   9646     1
   9637   9658     1
   9643  17515     1
   9646  17492     1
   9652  17491     1
   9652  17508     1
   9655  17531     1
   9655  17514     1
   9660   9685     1
   9660   9682     1
   9660   9679     1
   9661   9676     1
   9661   9670     1
   9661  17565     1
   9664   9673     1
   9664   9670     1
   9664  17542     1
   9667   9673     1
   9667   9676     1
   9667   9688     1
   9673  17561     1
   9676  17538     1
   9682  17537     1
   9682  17554     1
   9685  17577     1
   9685  17560     1
   9690   9715     1
   9690   9712     1
   9690   9709     1
   9691   9706     1
   9691   9700     1
   9691  17611     1
   9694   9703     1
   9694   9700     1
   9694  17588     1
   9697   9703     1
   9697   9706     1
   9697   9718     1
   9703  17607     1
   9706  17584     1
   9712  17583     1
   9712  17600     1
   9715  17623     1
   9715  17606     1
   9720   9745     1
   9720   9742     1
   9720   9739     1
   9721   9736     1
   9721   9730     1
   9721  17657     1
   9724   9733     1
   9724   9730     1
   9724  17634     1
   9727   9733     1
   9727   9736     1
   9727   9748     1
   9733  17653     1
   9736  17630     1
   9742  17629     1
   9742  17646     1
   9745  17669     1
   9745  17652     1
   9750   9775     1
   9750   9772     1
   9750   9769     1
   9751   9766     1
   9751   9760     1
   9751  17703     1
   9754   9763     1
   9754   9760     1
   9754  17680     1
   9757   9763     1
   9757   9766     1
   9757   9778     1
   9763  17699     1
   9766  17676     1
   9772  17675     1
   9772  17692     1
   9775  17715     1
   9775  17698     1
   9780   9805     1
   9780   9802     1
   9780   9799     1
   9781   9796     1
   9781   9790     1
   9781  17749     1
   9784   9793     1
   9784   9790     1
   9784  17726     1
   9787   9793     1
   9787   9796     1
   9787   9808     1
   9793  17745     1
   9796  17722     1
   9802  17721     1
   9802  17738     1
   9805  17761     1
   9805  17744     1
   9810   9835     1
   9810   9832     1
   9810   9829     1
   9811   9826     1
   9811   9820     1
   9811  17795     1
   9814   9823     1
   9814   9820     1
   9814  17772     1
   9817   9823     1
   9817   9826     1
   9817   9838     1
   9823  17791     1
   9826  17768     1
   9832  17767     1
   9832  17784     1
   9835  17807     1
   9835  17790     1
   9840   9865     1
   9840   9862     1
   9840   9859     1
   9841   9856     1
   9841   9850     1
   9841  17841     1
   9844   9853     1
   9844   9850     1
   9844  17818     1
   9847   9853     1
   9847   9856     1
   9847   9868     1
   9853  17837     1
   9856  17814     1
   9862  17813     1
   9862  17830     1
   9865  17853     1
   9865  17836     1
   9870   9895     1
   9870   9892     1
   9870   9889     1
   9871   9886     1
   9871   9880     1
   9871  17887     1
   9874   9883     1
   9874   9880     1
   9874  17864     1
   9877   9883     1
   9877   9886     1
   9877   9898     1
   9883  17883     1
   9886  17860     1
   9892  17859     1
   9892  17876     1
   9895  17899     1
   9895  17882     1
   9900   9925     1
   9900   9922     1
   9900   9919     1
   9901   9916     1
   9901   9910     1
   9901  17933     1
   9904   9913     1
   9904   9910     1
   9904  17910     1
   9907   9913     1
   9907   9916     1
   9907   9928     1
   9913  17929     1
   9916  17906     1
   9922  17905     1
   9922  17922     1
   9925  17945     1
   9925  17928     1
   9930   9955     1
   9930   9952     1
   9930   9949     1
   9931   9946     1
   9931   9940     1
   9931  17979     1
   9934   9943     1
   9934   9940     1
   9934  17956     1
   9937   9943     1
   9937   9946     1
   9937   9958     1
   9943  17975     1
   9946  17952     1
   9952  17951     1
   9952  17968     1
   9955  17991     1
   9955  17974     1
   9960   9985     1
   9960   9982     1
   9960   9979     1
   9961   9976     1
   9961   9970     1
   9961  18025     1
   9964   9973     1
   9964   9970     1
   9964  18002     1
   9967   9973     1
   9967   9976     1
   9967   9988     1
   9973  18021     1
   9976  17998     1
   9982  17997     1
   9982  18014     1
   9985  18037     1
   9985  18020     1
   9990  10015     1
   9990  10012     1
   9990  10009     1
   9991  10006     1
   9991  10000     1
   9991  18071     1
   9994  10003     1
   9994  10000     1
   9994  18048     1
   9997  10003     1
   9997  10006     1
   9997  10018     1
  10003  18067     1
  10006  18044     1
  10012  18043     1
  10012  18060     1
  10015  18083     1
  10015  18066     1
  10020  10045     1
  10020  10042     1
  10020  10039     1
  10021  10036     1
  10021  10030     1
  10021  18117     1
  10024  10033     1
  10024  10030     1
  10024  18094     1
  10027  10033     1
  10027  10036     1
  10027  10048     1
  10033  18113     1
  10036  18090     1
  10042  18089     1
  10042  18106     1
  10045  18129     1
  10045  18112     1
  10050  10075     1
  10050  10072     1
  10050  10069     1
  10051  10066     1
  10051  10060     1
  10051  18163     1
  10054  10063     1
  10054  10060     1
  10054  18140     1
  10057  10063     1
  10057  10066     1
  10057  10078     1
  10063  18159     1
  10066  18136     1
  10072  18135     1
  10072  18152     1
  10075  18175     1
  10075  18158     1
  10080  10105     1
  10080  10102     1
  10080  10099     1
  10081  10096     1
  10081  10090     1
  10081  18209     1
  10084  10093     1
  10084  10090     1
  10084  18186     1
  10087  10093     1
  10087  10096     1
  10087  10108     1
  10093  18205     1
  10096  18182     1
  10102  18181     1
  10102  18198     1
  10105  18221     1
  10105  18204     1
  10110  10135     1
  10110  10132     1
  10110  10129     1
  10111  10126     1
  10111  10120     1
  10111  18255     1
  10114  10123     1
  10114  10120     1
  10114  18232     1
  10117  10123     1
  10117  10126     1
  10117  10138     1
  10123  18251     1
  10126  18228     1
  10132  18227     1
  10132  18244     1
  10135  18267     1
  10135  18250     1
  10140  10165     1
  10140  10162     1
  10140  10159     1
  10141  10156     1
  10141  10150     1
  10141  18301     1
  10144  10153     1
  10144  10150     1
  10144  18278     1
  10147  10153     1
  10147  10156     1
  10147  10168     1
  10153  18297     1
  10156  18274     1
  10162  18273     1
  10162  18290     1
  10165  18313     1
  10165  18296     1
  10170  10195     1
  10170  10192     1
  10170  10189     1
  10171  10186     1
  10171  10180     1
  10171  18347     1
  10174  10183     1
  10174  10180     1
  10174  18324     1
  10177  10183     1
  10177  10186     1
  10177  10198     1
  10183  18343     1
  10186  18320     1
  10192  18319     1
  10192  18336     1
  10195  18359     1
  10195  18342     1
  10200  10225     1
  10200  10222     1
  10200  10219     1
  10201  10216     1
  10201  10210     1
  10201  18393     1
  10204  10213     1
  10204  10210     1
  10204  18370     1
  10207  10213     1
  10207  10216     1
  10207  10228     1
  10213  18389     1
  10216  18366     1
  10222  18365     1
  10222  18382     1
  10225  18405     1
  10225  18388     1
  10230  10255     1
  10230  10252     1
  10230  10249     1
  10231  10246     1
  10231  10240     1
  10231  18439     1
  10234  10243     1
  10234  10240     1
  10234  18416     1
  10237  10243     1
  10237  10246     1
  10237  10258     1
  10243  18435     1
  10246  18412     1
  10252  18411     1
  10252  18428     1
  10255  18451     1
  10255  18434     1
  10260  10285     1
  10260  10282     1
  10260  10279     1
  10261  10276     1
  10261  10270     1
  10261  18485     1
  10264  10273     1
  10264  10270     1
  10264  18462     1
  10267  10273     1
  10267  10276     1
  10267  10288     1
  10273  18481     1
  10276  18458     1
  10282  18457     1
  10282  18474     1
  10285  18497     1
  10285  18480     1
  10290  10315     1
  10290  10312     1
  10290  10309     1
  10291  10306     1
  10291  10300     1
  10291  18531     1
  10294  10303     1
  10294  10300     1
  10294  18508     1
  10297  10303     1
  10297  10306     1
  10297  10318     1
  10303  18527     1
  10306  18504     1
  10312  18503     1
  10312  18520     1
  10315  18543     1
  10315  18526     1
  10320  10345     1
  10320  10342     1
  10320  10339     1
  10321  10336     1
  10321  10330     1
  10321  18577     1
  10324  10333     1
  10324  10330     1
  10324  18554     1
  10327  10333     1
  10327  10336     1
  10327  10348     1
  10333  18573     1
  10336  18550     1
  10342  18549     1
  10342  18566     1
  10345  18589     1
  10345  18572     1
  10350  10375     1
  10350  10372     1
  10350  10369     1
  10351  10366     1
  10351  10360     1
  10351  18623     1
  10354  10363     1
  10354  10360     1
  10354  18600     1
  10357  10363     1
  10357  10366     1
  10357  10378     1
  10363  18619     1
  10366  18596     1
  10372  18595     1
  10372  18612     1
  10375  18635     1
  10375  18618     1
  10380  10405     1
  10380  10402     1
  10380  10399     1
  10381  10396     1
  10381  10390     1
  10381  18669     1
  10384  10393     1
  10384  10390     1
  10384  18646     1
  10387  10393     1
  10387  10396     1
  10387  10408     1
  10393  18665     1
  10396  18642     1
  10402  18641     1
  10402  18658     1
  10405  18681     1
  10405  18664     1
  10410  10435     1
  10410  10432     1
  10410  10429     1
  10411  10426     1
  10411  10420     1
  10411  18715     1
  10414  10423     1
  10414  10420     1
  10414  18692     1
  10417  10423     1
  10417  10426     1
  10417  10438     1
  10423  18711     1
  10426  18688     1
  10432  18687     1
  10432  18704     1
  10435  18727     1
  10435  18710     1
  10440  10465     1
  10440  10462     1
  10440  10459     1
  10441  10456     1
  10441  10450     1
  10441  18761     1
  10444  10453     1
  10444  10450     1
  10444  18738     1
  10447  10453     1
  10447  10456     1
  10447  10468     1
  10453  18757     1
  10456  18734     1
  10462  18733     1
  10462  18750     1
  10465  18773     1
  10465  18756     1
  10470  10495     1
  10470  10492     1
  10470  10489     1
  10471  10486     1
  10471  10480     1
  10471  18807     1
  10474  10483     1
  10474  10480     1
  10474  18784     1
  10477  10483     1
  10477  10486     1
  10477  10498     1
  10483  18803     1
  10486  18780     1
  10492  18779     1
  10492  18796     1
  10495  18819     1
  10495  18802     1
  10500  10525     1
  10500  10522     1
  10500  10519     1
  10501  10516     1
  10501  10510     1
  10501  18853     1
  10504  10513     1
  10504  10510     1
  10504  18830     1
  10507  10513     1
  10507  10516     1
  10507  10528     1
  10513  18849     1
  10516  18826     1
  10522  18825     1
  10522  18842     1
  10525  18865     1
  10525  18848     1
  10530  10555     1
  10530  10552     1
  10530  10549     1
  10531  10546     1
  10531  10540     1
  10531  18899     1
  10534  10543     1
  10534  10540     1
  10534  18876     1
  10537  10543     1
  10537  10546     1
  10537  10558     1
  10543  18895     1
  10546  18872     1
  10552  18871     1
  10552  18888     1
  10555  18911     1
  10555  18894     1
  10560  10585     1
  10560  10582     1
  10560  10579     1
  10561  10576     1
  10561  10570     1
  10561  18945     1
  10564  10573     1
  10564  10570     1
  10564  18922     1
  10567  10573     1
  10567  10576     1
  10567  10588     1
  10573  18941     1
  10576  18918     1
  10582  18917     1
  10582  18934     1
  10585  18957     1
  10585  18940     1
  10590  10615     1
  10590  10612     1
  10590  10609     1
  10591  10606     1
  10591  10600     1
  10591  18991     1
  10594  10603     1
  10594  10600     1
  10594  18968     1
  10597  10603     1
  10597  10606     1
  10597  10618     1
  10603  18987     1
  10606  18964     1
  10612  18963     1
  10612  18980     1
  10615  19003     1
  10615  18986     1
  10620  10645     1
  10620  10642     1
  10620  10639     1
  10621  10636     1
  10621  10630     1
  10621  19037     1
  10624  10633     1
  10624  10630     1
  10624  19014     1
  10627  10633     1
  10627  10636     1
  10627  10648     1
  10633  19033     1
  10636  19010     1
  10642  19009     1
  10642  19026     1
  10645  19049     1
  10645  19032     1
  10650  10675     1
  10650  10672     1
  10650  10669     1
  10651  10666     1
  10651  10660     1
  10651  19083     1
  10654  10663     1
  10654  10660     1
  10654  19060     1
  10657  10663     1
  10657  10666     1
  10657  10678     1
  10663  19079     1
  10666  19056     1
  10672  19055     1
  10672  19072     1
  10675  19095     1
  10675  19078     1
  10680  10705     1
  10680  10702     1
  10680  10699     1
  10681  10696     1
  10681  10690     1
  10681  19129     1
  10684  10693     1
  10684  10690     1
  10684  19106     1
  10687  10693     1
  10687  10696     1
  10687  10708     1
  10693  19125     1
  10696  19102     1
  10702  19101     1
  10702  19118     1
  10705  19141     1
  10705  19124     1
  10710  10735     1
  10710  10732     1
  10710  10729     1
  10711  10726     1
  10711  10720     1
  10711  19175     1
  10714  10723     1
  10714  10720     1
  10714  19152     1
  10717  10723     1
  10717  10726     1
  10717  10738     1
  10723  19171     1
  10726  19148     1
  10732  19147     1
  10732  19164     1
  10735  19187     1
  10735  19170     1
  10740  10765     1
  10740  10762     1
  10740  10759     1
  10741  10756     1
  10741  10750     1
  10741  19221     1
  10744  10753     1
  10744  10750     1
  10744  19198     1
  10747  10753     1
  10747  10756     1
  10747  10768     1
  10753  19217     1
  10756  19194     1
  10762  19193     1
  10762  19210     1
  10765  19233     1
  10765  19216     1
  10770  10795     1
  10770  10792     1
  10770  10789     1
  10771  10786     1
  10771  10780     1
  10771  19267     1
  10774  10783     1
  10774  10780     1
  10774  19244     1
  10777  10783     1
  10777  10786     1
  10777  10798     1
  10783  19263     1
  10786  19240     1
  10792  19239     1
  10792  19256     1
  10795  19279     1
  10795  19262     1
  10800  10825     1
  10800  10822     1
  10800  10819     1
  10801  10816     1
  10801  10810     1
  10801  19313     1
  10804  10813     1
  10804  10810     1
  10804  19290     1
  10807  10813     1
  10807  10816     1
  10807  10828     1
  10813  19309     1
  10816  19286     1
  10822  19285     1
  10822  19302     1
  10825  19325     1
  10825  19308     1
  10830  10855     1
  10830  10852     1
  10830  10849     1
  10831  10846     1
  10831  10840     1
  10831  19359     1
  10834  10843     1
  10834  10840     1
  10834  19336     1
  10837  10843     1
  10837  10846     1
  10837  10858     1
  10843  19355     1
  10846  19332     1
  10852  19331     1
  10852  19348     1
  10855  19371     1
  10855  19354     1
  10860  10885     1
  10860  10882     1
  10860  10879     1
  10861  10876     1
  10861  10870     1
  10861  19405     1
  10864  10873     1
  10864  10870     1
  10864  19382     1
  10867  10873     1
  10867  10876     1
  10867  10888     1
  10873  19401     1
  10876  19378     1
  10882  19377     1
  10882  19394     1
  10885  19417     1
  10885  19400     1
  10890  10915     1
  10890  10912     1
  10890  10909     1
  10891  10906     1
  10891  10900     1
  10891  19451     1
  10894  10903     1
  10894  10900     1
  10894  19428     1
  10897  10903     1
  10897  10906     1
  10897  10918     1
  10903  19447     1
  10906  19424     1
  10912  19423     1
  10912  19440     1
  10915  19463     1
  10915  19446     1
  10920  10945     1
  10920  10942     1
  10920  10939     1
  10921  10936     1
  10921  10930     1
  10921  19497     1
  10924  10933     1
  10924  10930     1
  10924  19474     1
  10927  10933     1
  10927  10936     1
  10927  10948     1
  10933  19493     1
  10936  19470     1
  10942  19469     1
  10942  19486     1
  10945  19509     1
  10945  19492     1
  10950  10975     1
  10950  10972     1
  10950  10969     1
  10951  10966     1
  10951  10960     1
  10951  19543     1
  10954  10963     1
  10954  10960     1
  10954  19520     1
  10957  10963     1
  10957  10966     1
  10957  10978     1
  10963  19539     1
  10966  19516     1
  10972  19515     1
  10972  19532     1
  10975  19555     1
  10975  19538     1
  10980  11005     1
  10980  11002     1
  10980  10999     1
  10981  10996     1
  10981  10990     1
  10981  19589     1
  10984  10993     1
  10984  10990     1
  10984  19566     1
  10987  10993     1
  10987  10996     1
  10987  11008     1
  10993  19585     1
  10996  19562     1
  11002  19561     1
  11002  19578     1
  11005  19601     1
  11005  19584     1
  11010  11035     1
  11010  11032     1
  11010  11029     1
  11011  11026     1
  11011  11020     1
  11011  19635     1
  11014  11023     1
  11014  11020     1
  11014  19612     1
  11017  11023     1
  11017  11026     1
  11017  11038     1
  11023  19631     1
  11026  19608     1
  11032  19607     1
  11032  19624     1
  11035  19647     1
  11035  19630     1
  11040  11065     1
  11040  11062     1
  11040  11059     1
  11041  11056     1
  11041  11050     1
  11041  19681     1
  11044  11053     1
  11044  11050     1
  11044  19658     1
  11047  11053     1
  11047  11056     1
  11047  11068     1
  11053  19677     1
  11056  19654     1
  11062  19653     1
  11062  19670     1
  11065  19693     1
  11065  19676     1
  11070  11095     1
  11070  11092     1
  11070  11089     1
  11071  11086     1
  11071  11080     1
  11071  19727     1
  11074  11083     1
  11074  11080     1
  11074  19704     1
  11077  11083     1
  11077  11086     1
  11077  11098     1
  11083  19723     1
  11086  19700     1
  11092  19699     1
  11092  19716     1
  11095  19739     1
  11095  19722     1
  11100  11125     1
  11100  11122     1
  11100  11119     1
  11101  11116     1
  11101  11110     1
  11101  19773     1
  11104  11113     1
  11104  11110     1
  11104  19750     1
  11107  11113     1
  11107  11116     1
  11107  11128     1
  11113  19769     1
  11116  19746     1
  11122  19745     1
  11122  19762     1
  11125  19785     1
  11125  19768     1
  11130  11155     1
  11130  11152     1
  11130  11149     1
  11131  11146     1
  11131  11140     1
  11131  19819     1
  11134  11143     1
  11134  11140     1
  11134  19796     1
  11137  11143     1
  11137  11146     1
  11137  11158     1
  11143  19815     1
  11146  19792     1
  11152  19791     1
  11152  19808     1
  11155  19831     1
  11155  19814     1
  11160  11185     1
  11160  11182     1
  11160  11179     1
  11161  11176     1
  11161  11170     1
  11161  19865     1
  11164  11173     1
  11164  11170     1
  11164  19842     1
  11167  11173     1
  11167  11176     1
  11167  11188     1
  11173  19861     1
  11176  19838     1
  11182  19837     1
  11182  19854     1
  11185  19877     1
  11185  19860     1
  11190  11215     1
  11190  11212     1
  11190  11209     1
  11191  11206     1
  11191  11200     1
  11191  19911     1
  11194  11203     1
  11194  11200     1
  11194  19888     1
  11197  11203     1
  11197  11206     1
  11197  11218     1
  11203  19907     1
  11206  19884     1
  11212  19883     1
  11212  19900     1
  11215  19923     1
  11215  19906     1
  11220  11245     1
  11220  11242     1
  11220  11239     1
  11221  11236     1
  11221  11230     1
  11221  19957     1
  11224  11233     1
  11224  11230     1
  11224  19934     1
  11227  11233     1
  11227  11236     1
  11227  11248     1
  11233  19953     1
  11236  19930     1
  11242  19929     1
  11242  19946     1
  11245  19969     1
  11245  19952     1
  11250  11275     1
  11250  11272     1
  11250  11269     1
  11251  11266     1
  11251  11260     1
  11251  20003     1
  11254  11263     1
  11254  11260     1
  11254  19980     1
  11257  11263     1
  11257  11266     1
  11257  11278     1
  11263  19999     1
  11266  19976     1
  11272  19975     1
  11272  19992     1
  11275  20015     1
  11275  19998     1
  11280  11305     1
  11280  11302     1
  11280  11299     1
  11281  11296     1
  11281  11290     1
  11281  20049     1
  11284  11293     1
  11284  11290     1
  11284  20026     1
  11287  11293     1
  11287  11296     1
  11287  11308     1
  11293  20045     1
  11296  20022     1
  11302  20021     1
  11302  20038     1
  11305  20061     1
  11305  20044     1
  11310  11335     1
  11310  11332     1
  11310  11329     1
  11311  11326     1
  11311  11320     1
  11311  20095     1
  11314  11323     1
  11314  11320     1
  11314  20072     1
  11317  11323     1
  11317  11326     1
  11317  11338     1
  11323  20091     1
  11326  20068     1
  11332  20067     1
  11332  20084     1
  11335  20107     1
  11335  20090     1
  11340  11365     1
  11340  11362     1
  11340  11359     1
  11341  11356     1
  11341  11350     1
  11341  20141     1
  11344  11353     1
  11344  11350     1
  11344  20118     1
  11347  11353     1
  11347  11356     1
  11347  11368     1
  11353  20137     1
  11356  20114     1
  11362  20113     1
  11362  20130     1
  11365  20153     1
  11365  20136     1
  11370  11395     1
  11370  11392     1
  11370  11389     1
  11371  11386     1
  11371  11380     1
  11371  20187     1
  11374  11383     1
  11374  11380     1
  11374  20164     1
  11377  11383     1
  11377  11386     1
  11377  11398     1
  11383  20183     1
  11386  20160     1
  11392  20159     1
  11392  20176     1
  11395  20199     1
  11395  20182     1
  11400  11425     1
  11400  11422     1
  11400  11419     1
  11401  11416     1
  11401  11410     1
  11401  20233     1
  11404  11413     1
  11404  11410     1
  11404  20210     1
  11407  11413     1
  11407  11416     1
  11407  11428     1
  11413  20229     1
  11416  20206     1
  11422  20205     1
  11422  20222     1
  11425  20245     1
  11425  20228     1
  11430  11455     1
  11430  11452     1
  11430  11449     1
  11431  11446     1
  11431  11440     1
  11431  20279     1
  11434  11443     1
  11434  11440     1
  11434  20256     1
  11437  11443     1
  11437  11446     1
  11437  11458     1
  11443  20275     1
  11446  20252     1
  11452  20251     1
  11452  20268     1
  11455  20291     1
  11455  20274     1
  11460  11465     1
  11460  11472     1
  11460  11470     1
  11461  11480     1
  11461  11466     1
  11461  11471     1
  11464  11474     1
  11464  11482     1
  11464  11470     1
  11465  11473     1
  11466  11472     1
  11466  11474     1
  11470  11471     1
  11471  11472     1
  11471  11482     1
  11472  11473     1
  11473  11474     1
  11473  11482     1
  11480  11482     1
  11483  11488     1
  11483  11495     1
  11483  11493     1
  11484  11489     1
  11484  11494     1
  11484  11503     1
  11487  11493     1
  11487  11505     1
  11487  11497     1
  11488  11496     1
  11489  11497     1
  11489  11495     1
  11493  11494     1
  11494  11505     1
  11494  11495     1
  11495  11496     1
  11496  11497     1
  11496  11505     1
  11503  11505     1
  11506  11511     1
  11506  11518     1
  11506  11516     1
  11507  11526     1
  11507  11512     1
  11507  11517     1
  11510  11520     1
  11510  11528     1
  11510  11516     1
  11511  11519     1
  11512  11518     1
  11512  11520     1
  11516  11517     1
  11517  11518     1
  11517  11528     1
  11518  11519     1
  11519  11520     1
  11519  11528     1
  11526  11528     1
  11529  11534     1
  11529  11541     1
  11529  11539     1
  11530  11535     1
  11530  11540     1
  11530  11549     1
  11533  11539     1
  11533  11551     1
  11533  11543     1
  11534  11542     1
  11535  11543     1
  11535  11541     1
  11539  11540     1
  11540  11551     1
  11540  11541     1
  11541  11542     1
  11542  11543     1
  11542  11551     1
  11549  11551     1
  11552  11557     1
  11552  11564     1
  11552  11562     1
  11553  11572     1
  11553  11558     1
  11553  11563     1
  11556  11566     1
  11556  11574     1
  11556  11562     1
  11557  11565     1
  11558  11564     1
  11558  11566     1
  11562  11563     1
  11563  11564     1
  11563  11574     1
  11564  11565     1
  11565  11566     1
  11565  11574     1
  11572  11574     1
  11575  11580     1
  11575  11587     1
  11575  11585     1
  11576  11581     1
  11576  11586     1
  11576  11595     1
  11579  11585     1
  11579  11597     1
  11579  11589     1
  11580  11588     1
  11581  11589     1
  11581  11587     1
  11585  11586     1
  11586  11597     1
  11586  11587     1
  11587  11588     1
  11588  11589     1
  11588  11597     1
  11595  11597     1
  11598  11603     1
  11598  11610     1
  11598  11608     1
  11599  11618     1
  11599  11604     1
  11599  11609     1
  11602  11612     1
  11602  11620     1
  11602  11608     1
  11603  11611     1
  11604  11610     1
  11604  11612     1
  11608  11609     1
  11609  11610     1
  11609  11620     1
  11610  11611     1
  11611  11612     1
  11611  11620     1
  11618  11620     1
  11621  11626     1
  11621  11633     1
  11621  11631     1
  11622  11627     1
  11622  11632     1
  11622  11641     1
  11625  11631     1
  11625  11643     1
  11625  11635     1
  11626  11634     1
  11627  11635     1
  11627  11633     1
  11631  11632     1
  11632  11643     1
  11632  11633     1
  11633  11634     1
  11634  11635     1
  11634  11643     1
  11641  11643     1
  11644  11649     1
  11644  11656     1
  11644  11654     1
  11645  11664     1
  11645  11650     1
  11645  11655     1
  11648  11658     1
  11648  11666     1
  11648  11654     1
  11649  11657     1
  11650  11656     1
  11650  11658     1
  11654  11655     1
  11655  11656     1
  11655  11666     1
  11656  11657     1
  11657  11658     1
  11657  11666     1
  11664  11666     1
  11667  11672     1
  11667  11679     1
  11667  11677     1
  11668  11673     1
  11668  11678     1
  11668  11687     1
  11671  11677     1
  11671  11689     1
  11671  11681     1
  11672  11680     1
  11673  11681     1
  11673  11679     1
  11677  11678     1
  11678  11689     1
  11678  11679     1
  11679  11680     1
  11680  11681     1
  11680  11689     1
  11687  11689     1
  11690  11695     1
  11690  11702     1
  11690  11700     1
  11691  11710     1
  11691  11696     1
  11691  11701     1
  11694  11704     1
  11694  11712     1
  11694  11700     1
  11695  11703     1
  11696  11702     1
  11696  11704     1
  11700  11701     1
  11701  11702     1
  11701  11712     1
  11702  11703     1
  11703  11704     1
  11703  11712     1
  11710  11712     1
  11713  11718     1
  11713  11725     1
  11713  11723     1
  11714  11719     1
  11714  11724     1
  11714  11733     1
  11717  11723     1
  11717  11735     1
  11717  11727     1
  11718  11726     1
  11719  11727     1
  11719  11725     1
  11723  11724     1
  11724  11735     1
  11724  11725     1
  11725  11726     1
  11726  11727     1
  11726  11735     1
  11733  11735     1
  11736  11741     1
  11736  11748     1
  11736  11746     1
  11737  11756     1
  11737  11742     1
  11737  11747     1
  11740  11750     1
  11740  11758     1
  11740  11746     1
  11741  11749     1
  11742  11748     1
  11742  11750     1
  11746  11747     1
  11747  11748     1
  11747  11758     1
  11748  11749     1
  11749  11750     1
  11749  11758     1
  11756  11758     1
  11759  11764     1
  11759  11771     1
  11759  11769     1
  11760  11765     1
  11760  11770     1
  11760  11779     1
  11763  11769     1
  11763  11781     1
  11763  11773     1
  11764  11772     1
  11765  11773     1
  11765  11771     1
  11769  11770     1
  11770  11781     1
  11770  11771     1
  11771  11772     1
  11772  11773     1
  11772  11781     1
  11779  11781     1
  11782  11787     1
  11782  11794     1
  11782  11792     1
  11783  11802     1
  11783  11788     1
  11783  11793     1
  11786  11796     1
  11786  11804     1
  11786  11792     1
  11787  11795     1
  11788  11794     1
  11788  11796     1
  11792  11793     1
  11793  11794     1
  11793  11804     1
  11794  11795     1
  11795  11796     1
  11795  11804     1
  11802  11804     1
  11805  11810     1
  11805  11817     1
  11805  11815     1
  11806  11811     1
  11806  11816     1
  11806  11825     1
  11809  11815     1
  11809  11827     1
  11809  11819     1
  11810  11818     1
  11811  11819     1
  11811  11817     1
  11815  11816     1
  11816  11827     1
  11816  11817     1
  11817  11818     1
  11818  11819     1
  11818  11827     1
  11825  11827     1
  11828  11833     1
  11828  11840     1
  11828  11838     1
  11829  11848     1
  11829  11834     1
  11829  11839     1
  11832  11842     1
  11832  11850     1
  11832  11838     1
  11833  11841     1
  11834  11840     1
  11834  11842     1
  11838  11839     1
  11839  11840     1
  11839  11850     1
  11840  11841     1
  11841  11842     1
  11841  11850     1
  11848  11850     1
  11851  11856     1
  11851  11863     1
  11851  11861     1
  11852  11857     1
  11852  11862     1
  11852  11871     1
  11855  11861     1
  11855  11873     1
  11855  11865     1
  11856  11864     1
  11857  11865     1
  11857  11863     1
  11861  11862     1
  11862  11873     1
  11862  11863     1
  11863  11864     1
  11864  11865     1
  11864  11873     1
  11871  11873     1
  11874  11879     1
  11874  11886     1
  11874  11884     1
  11875  11894     1
  11875  11880     1
  11875  11885     1
  11878  11888     1
  11878  11896     1
  11878  11884     1
  11879  11887     1
  11880  11886     1
  11880  11888     1
  11884  11885     1
  11885  11886     1
  11885  11896     1
  11886  11887     1
  11887  11888     1
  11887  11896     1
  11894  11896     1
  11897  11902     1
  11897  11909     1
  11897  11907     1
  11898  11903     1
  11898  11908     1
  11898  11917     1
  11901  11907     1
  11901  11919     1
  11901  11911     1
  11902  11910     1
  11903  11911     1
  11903  11909     1
  11907  11908     1
  11908  11919     1
  11908  11909     1
  11909  11910     1
  11910  11911     1
  11910  11919     1
  11917  11919     1
  11920  11925     1
  11920  11932     1
  11920  11930     1
  11921  11940     1
  11921  11926     1
  11921  11931     1
  11924  11934     1
  11924  11942     1
  11924  11930     1
  11925  11933     1
  11926  11932     1
  11926  11934     1
  11930  11931     1
  11931  11932     1
  11931  11942     1
  11932  11933     1
  11933  11934     1
  11933  11942     1
  11940  11942     1
  11943  11948     1
  11943  11955     1
  11943  11953     1
  11944  11949     1
  11944  11954     1
  11944  11963     1
  11947  11953     1
  11947  11965     1
  11947  11957     1
  11948  11956     1
  11949  11957     1
  11949  11955     1
  11953  11954     1
  11954  11965     1
  11954  11955     1
  11955  11956     1
  11956  11957     1
  11956  11965     1
  11963  11965     1
  11966  11971     1
  11966  11978     1
  11966  11976     1
  11967  11986     1
  11967  11972     1
  11967  11977     1
  11970  11980     1
  11970  11988     1
  11970  11976     1
  11971  11979     1
  11972  11978     1
  11972  11980     1
  11976  11977     1
  11977  11978     1
  11977  11988     1
  11978  11979     1
  11979  11980     1
  11979  11988     1
  11986  11988     1
  11989  11994     1
  11989  12001     1
  11989  11999     1
  11990  11995     1
  11990  12000     1
  11990  12009     1
  11993  11999     1
  11993  12011     1
  11993  12003     1
  11994  12002     1
  11995  12003     1
  11995  12001     1
  11999  12000     1
  12000  12011     1
  12000  12001     1
  12001  12002     1
  12002  12003     1
  12002  12011     1
  12009  12011     1
  12012  12017     1
  12012  12024     1
  12012  12022     1
  12013  12032     1
  12013  12018     1
  12013  12023     1
  12016  12026     1
  12016  12034     1
  12016  12022     1
  12017  12025     1
  12018  12024     1
  12018  12026     1
  12022  12023     1
  12023  12024     1
  12023  12034     1
  12024  12025     1
  12025  12026     1
  12025  12034     1
  12032  12034     1
  12035  12040     1
  12035  12047     1
  12035  12045     1
  12036  12041     1
  12036  12046     1
  12036  12055     1
  12039  12045     1
  12039  12057     1
  12039  12049     1
  12040  12048     1
  12041  12049     1
  12041  12047     1
  12045  12046     1
  12046  12057     1
  12046  12047     1
  12047  12048     1
  12048  12049     1
  12048  12057     1
  12055  12057     1
  12058  12063     1
  12058  12070     1
  12058  12068     1
  12059  12078     1
  12059  12064     1
  12059  12069     1
  12062  12072     1
  12062  12080     1
  12062  12068     1
  12063  12071     1
  12064  12070     1
  12064  12072     1
  12068  12069     1
  12069  12070     1
  12069  12080     1
  12070  12071     1
  12071  12072     1
  12071  12080     1
  12078  12080     1
  12081  12086     1
  12081  12093     1
  12081  12091     1
  12082  12087     1
  12082  12092     1
  12082  12101     1
  12085  12091     1
  12085  12103     1
  12085  12095     1
  12086  12094     1
  12087  12095     1
  12087  12093     1
  12091  12092     1
  12092  12103     1
  12092  12093     1
  12093  12094     1
  12094  12095     1
  12094  12103     1
  12101  12103     1
  12104  12109     1
  12104  12116     1
  12104  12114     1
  12105  12124     1
  12105  12110     1
  12105  12115     1
  12108  12118     1
  12108  12126     1
  12108  12114     1
  12109  12117     1
  12110  12116     1
  12110  12118     1
  12114  12115     1
  12115  12116     1
  12115  12126     1
  12116  12117     1
  12117  12118     1
  12117  12126     1
  12124  12126     1
  12127  12132     1
  12127  12139     1
  12127  12137     1
  12128  12133     1
  12128  12138     1
  12128  12147     1
  12131  12137     1
  12131  12149     1
  12131  12141     1
  12132  12140     1
  12133  12141     1
  12133  12139     1
  12137  12138     1
  12138  12149     1
  12138  12139     1
  12139  12140     1
  12140  12141     1
  12140  12149     1
  12147  12149     1
  12150  12155     1
  12150  12162     1
  12150  12160     1
  12151  12170     1
  12151  12156     1
  12151  12161     1
  12154  12164     1
  12154  12172     1
  12154  12160     1
  12155  12163     1
  12156  12162     1
  12156  12164     1
  12160  12161     1
  12161  12162     1
  12161  12172     1
  12162  12163     1
  12163  12164     1
  12163  12172     1
  12170  12172     1
  12173  12178     1
  12173  12185     1
  12173  12183     1
  12174  12179     1
  12174  12184     1
  12174  12193     1
  12177  12183     1
  12177  12195     1
  12177  12187     1
  12178  12186     1
  12179  12187     1
  12179  12185     1
  12183  12184     1
  12184  12195     1
  12184  12185     1
  12185  12186     1
  12186  12187     1
  12186  12195     1
  12193  12195     1
  12196  12201     1
  12196  12208     1
  12196  12206     1
  12197  12216     1
  12197  12202     1
  12197  12207     1
  12200  12210     1
  12200  12218     1
  12200  12206     1
  12201  12209     1
  12202  12208     1
  12202  12210     1
  12206  12207     1
  12207  12208     1
  12207  12218     1
  12208  12209     1
  12209  12210     1
  12209  12218     1
  12216  12218     1
  12219  12224     1
  12219  12231     1
  12219  12229     1
  12220  12225     1
  12220  12230     1
  12220  12239     1
  12223  12229     1
  12223  12241     1
  12223  12233     1
  12224  12232     1
  12225  12233     1
  12225  12231     1
  12229  12230     1
  12230  12241     1
  12230  12231     1
  12231  12232     1
  12232  12233     1
  12232  12241     1
  12239  12241     1
  12242  12247     1
  12242  12254     1
  12242  12252     1
  12243  12262     1
  12243  12248     1
  12243  12253     1
  12246  12256     1
  12246  12264     1
  12246  12252     1
  12247  12255     1
  12248  12254     1
  12248  12256     1
  12252  12253     1
  12253  12254     1
  12253  12264     1
  12254  12255     1
  12255  12256     1
  12255  12264     1
  12262  12264     1
  12265  12270     1
  12265  12277     1
  12265  12275     1
  12266  12271     1
  12266  12276     1
  12266  12285     1
  12269  12275     1
  12269  12287     1
  12269  12279     1
  12270  12278     1
  12271  12279     1
  12271  12277     1
  12275  12276     1
  12276  12287     1
  12276  12277     1
  12277  12278     1
  12278  12279     1
  12278  12287     1
  12285  12287     1
  12288  12293     1
  12288  12300     1
  12288  12298     1
  12289  12308     1
  12289  12294     1
  12289  12299     1
  12292  12302     1
  12292  12310     1
  12292  12298     1
  12293  12301     1
  12294  12300     1
  12294  12302     1
  12298  12299     1
  12299  12300     1
  12299  12310     1
  12300  12301     1
  12301  12302     1
  12301  12310     1
  12308  12310     1
  12311  12316     1
  12311  12323     1
  12311  12321     1
  12312  12317     1
  12312  12322     1
  12312  12331     1
  12315  12321     1
  12315  12333     1
  12315  12325     1
  12316  12324     1
  12317  12325     1
  12317  12323     1
  12321  12322     1
  12322  12333     1
  12322  12323     1
  12323  12324     1
  12324  12325     1
  12324  12333     1
  12331  12333     1
  12334  12339     1
  12334  12346     1
  12334  12344     1
  12335  12354     1
  12335  12340     1
  12335  12345     1
  12338  12348     1
  12338  12356     1
  12338  12344     1
  12339  12347     1
  12340  12346     1
  12340  12348     1
  12344  12345     1
  12345  12346     1
  12345  12356     1
  12346  12347     1
  12347  12348     1
  12347  12356     1
  12354  12356     1
  12357  12362     1
  12357  12369     1
  12357  12367     1
  12358  12363     1
  12358  12368     1
  12358  12377     1
  12361  12367     1
  12361  12379     1
  12361  12371     1
  12362  12370     1
  12363  12371     1
  12363  12369     1
  12367  12368     1
  12368  12379     1
  12368  12369     1
  12369  12370     1
  12370  12371     1
  12370  12379     1
  12377  12379     1
  12380  12385     1
  12380  12392     1
  12380  12390     1
  12381  12400     1
  12381  12386     1
  12381  12391     1
  12384  12394     1
  12384  12402     1
  12384  12390     1
  12385  12393     1
  12386  12392     1
  12386  12394     1
  12390  12391     1
  12391  12392     1
  12391  12402     1
  12392  12393     1
  12393  12394     1
  12393  12402     1
  12400  12402     1
  12403  12408     1
  12403  12415     1
  12403  12413     1
  12404  12409     1
  12404  12414     1
  12404  12423     1
  12407  12413     1
  12407  12425     1
  12407  12417     1
  12408  12416     1
  12409  12417     1
  12409  12415     1
  12413  12414     1
  12414  12425     1
  12414  12415     1
  12415  12416     1
  12416  12417     1
  12416  12425     1
  12423  12425     1
  12426  12431     1
  12426  12438     1
  12426  12436     1
  12427  12446     1
  12427  12432     1
  12427  12437     1
  12430  12440     1
  12430  12448     1
  12430  12436     1
  12431  12439     1
  12432  12438     1
  12432  12440     1
  12436  12437     1
  12437  12438     1
  12437  12448     1
  12438  12439     1
  12439  12440     1
  12439  12448     1
  12446  12448     1
  12449  12454     1
  12449  12461     1
  12449  12459     1
  12450  12455     1
  12450  12460     1
  12450  12469     1
  12453  12459     1
  12453  12471     1
  12453  12463     1
  12454  12462     1
  12455  12463     1
  12455  12461     1
  12459  12460     1
  12460  12471     1
  12460  12461     1
  12461  12462     1
  12462  12463     1
  12462  12471     1
  12469  12471     1
  12472  12477     1
  12472  12484     1
  12472  12482     1
  12473  12492     1
  12473  12478     1
  12473  12483     1
  12476  12486     1
  12476  12494     1
  12476  12482     1
  12477  12485     1
  12478  12484     1
  12478  12486     1
  12482  12483     1
  12483  12484     1
  12483  12494     1
  12484  12485     1
  12485  12486     1
  12485  12494     1
  12492  12494     1
  12495  12500     1
  12495  12507     1
  12495  12505     1
  12496  12501     1
  12496  12506     1
  12496  12515     1
  12499  12505     1
  12499  12517     1
  12499  12509     1
  12500  12508     1
  12501  12509     1
  12501  12507     1
  12505  12506     1
  12506  12517     1
  12506  12507     1
  12507  12508     1
  12508  12509     1
  12508  12517     1
  12515  12517     1
  12518  12523     1
  12518  12530     1
  12518  12528     1
  12519  12538     1
  12519  12524     1
  12519  12529     1
  12522  12532     1
  12522  12540     1
  12522  12528     1
  12523  12531     1
  12524  12530     1
  12524  12532     1
  12528  12529     1
  12529  12530     1
  12529  12540     1
  12530  12531     1
  12531  12532     1
  12531  12540     1
  12538  12540     1
  12541  12546     1
  12541  12553     1
  12541  12551     1
  12542  12547     1
  12542  12552     1
  12542  12561     1
  12545  12551     1
  12545  12563     1
  12545  12555     1
  12546  12554     1
  12547  12555     1
  12547  12553     1
  12551  12552     1
  12552  12563     1
  12552  12553     1
  12553  12554     1
  12554  12555     1
  12554  12563     1
  12561  12563     1
  12564  12569     1
  12564  12576     1
  12564  12574     1
  12565  12584     1
  12565  12570     1
  12565  12575     1
  12568  12578     1
  12568  12586     1
  12568  12574     1
  12569  12577     1
  12570  12576     1
  12570  12578     1
  12574  12575     1
  12575  12576     1
  12575  12586     1
  12576  12577     1
  12577  12578     1
  12577  12586     1
  12584  12586     1
  12587  12592     1
  12587  12599     1
  12587  12597     1
  12588  12593     1
  12588  12598     1
  12588  12607     1
  12591  12597     1
  12591  12609     1
  12591  12601     1
  12592  12600     1
  12593  12601     1
  12593  12599     1
  12597  12598     1
  12598  12609     1
  12598  12599     1
  12599  12600     1
  12600  12601     1
  12600  12609     1
  12607  12609     1
  12610  12615     1
  12610  12622     1
  12610  12620     1
  12611  12630     1
  12611  12616     1
  12611  12621     1
  12614  12624     1
  12614  12632     1
  12614  12620     1
  12615  12623     1
  12616  12622     1
  12616  12624     1
  12620  12621     1
  12621  12622     1
  12621  12632     1
  12622  12623     1
  12623  12624     1
  12623  12632     1
  12630  12632     1
  12633  12638     1
  12633  12645     1
  12633  12643     1
  12634  12639     1
  12634  12644     1
  12634  12653     1
  12637  12643     1
  12637  12655     1
  12637  12647     1
  12638  12646     1
  12639  12647     1
  12639  12645     1
  12643  12644     1
  12644  12655     1
  12644  12645     1
  12645  12646     1
  12646  12647     1
  12646  12655     1
  12653  12655     1
  12656  12661     1
  12656  12668     1
  12656  12666     1
  12657  12676     1
  12657  12662     1
  12657  12667     1
  12660  12670     1
  12660  12678     1
  12660  12666     1
  12661  12669     1
  12662  12668     1
  12662  12670     1
  12666  12667     1
  12667  12668     1
  12667  12678     1
  12668  12669     1
  12669  12670     1
  12669  12678     1
  12676  12678     1
  12679  12684     1
  12679  12691     1
  12679  12689     1
  12680  12685     1
  12680  12690     1
  12680  12699     1
  12683  12689     1
  12683  12701     1
  12683  12693     1
  12684  12692     1
  12685  12693     1
  12685  12691     1
  12689  12690     1
  12690  12701     1
  12690  12691     1
  12691  12692     1
  12692  12693     1
  12692  12701     1
  12699  12701     1
  12702  12707     1
  12702  12714     1
  12702  12712     1
  12703  12722     1
  12703  12708     1
  12703  12713     1
  12706  12716     1
  12706  12724     1
  12706  12712     1
  12707  12715     1
  12708  12714     1
  12708  12716     1
  12712  12713     1
  12713  12714     1
  12713  12724     1
  12714  12715     1
  12715  12716     1
  12715  12724     1
  12722  12724     1
  12725  12730     1
  12725  12737     1
  12725  12735     1
  12726  12731     1
  12726  12736     1
  12726  12745     1
  12729  12735     1
  12729  12747     1
  12729  12739     1
  12730  12738     1
  12731  12739     1
  12731  12737     1
  12735  12736     1
  12736  12747     1
  12736  12737     1
  12737  12738     1
  12738  12739     1
  12738  12747     1
  12745  12747     1
  12748  12753     1
  12748  12760     1
  12748  12758     1
  12749  12768     1
  12749  12754     1
  12749  12759     1
  12752  12762     1
  12752  12770     1
  12752  12758     1
  12753  12761     1
  12754  12760     1
  12754  12762     1
  12758  12759     1
  12759  12760     1
  12759  12770     1
  12760  12761     1
  12761  12762     1
  12761  12770     1
  12768  12770     1
  12771  12776     1
  12771  12783     1
  12771  12781     1
  12772  12777     1
  12772  12782     1
  12772  12791     1
  12775  12781     1
  12775  12793     1
  12775  12785     1
  12776  12784     1
  12777  12785     1
  12777  12783     1
  12781  12782     1
  12782  12793     1
  12782  12783     1
  12783  12784     1
  12784  12785     1
  12784  12793     1
  12791  12793     1
  12794  12799     1
  12794  12806     1
  12794  12804     1
  12795  12814     1
  12795  12800     1
  12795  12805     1
  12798  12808     1
  12798  12816     1
  12798  12804     1
  12799  12807     1
  12800  12806     1
  12800  12808     1
  12804  12805     1
  12805  12806     1
  12805  12816     1
  12806  12807     1
  12807  12808     1
  12807  12816     1
  12814  12816     1
  12817  12822     1
  12817  12829     1
  12817  12827     1
  12818  12823     1
  12818  12828     1
  12818  12837     1
  12821  12827     1
  12821  12839     1
  12821  12831     1
  12822  12830     1
  12823  12831     1
  12823  12829     1
  12827  12828     1
  12828  12839     1
  12828  12829     1
  12829  12830     1
  12830  12831     1
  12830  12839     1
  12837  12839     1
  12840  12845     1
  12840  12852     1
  12840  12850     1
  12841  12860     1
  12841  12846     1
  12841  12851     1
  12844  12854     1
  12844  12862     1
  12844  12850     1
  12845  12853     1
  12846  12852     1
  12846  12854     1
  12850  12851     1
  12851  12852     1
  12851  12862     1
  12852  12853     1
  12853  12854     1
  12853  12862     1
  12860  12862     1
  12863  12868     1
  12863  12875     1
  12863  12873     1
  12864  12869     1
  12864  12874     1
  12864  12883     1
  12867  12873     1
  12867  12885     1
  12867  12877     1
  12868  12876     1
  12869  12877     1
  12869  12875     1
  12873  12874     1
  12874  12885     1
  12874  12875     1
  12875  12876     1
  12876  12877     1
  12876  12885     1
  12883  12885     1
  12886  12891     1
  12886  12898     1
  12886  12896     1
  12887  12906     1
  12887  12892     1
  12887  12897     1
  12890  12900     1
  12890  12908     1
  12890  12896     1
  12891  12899     1
  12892  12898     1
  12892  12900     1
  12896  12897     1
  12897  12898     1
  12897  12908     1
  12898  12899     1
  12899  12900     1
  12899  12908     1
  12906  12908     1
  12909  12914     1
  12909  12921     1
  12909  12919     1
  12910  12915     1
  12910  12920     1
  12910  12929     1
  12913  12919     1
  12913  12931     1
  12913  12923     1
  12914  12922     1
  12915  12923     1
  12915  12921     1
  12919  12920     1
  12920  12931     1
  12920  12921     1
  12921  12922     1
  12922  12923     1
  12922  12931     1
  12929  12931     1
  12932  12937     1
  12932  12944     1
  12932  12942     1
  12933  12952     1
  12933  12938     1
  12933  12943     1
  12936  12946     1
  12936  12954     1
  12936  12942     1
  12937  12945     1
  12938  12944     1
  12938  12946     1
  12942  12943     1
  12943  12944     1
  12943  12954     1
  12944  12945     1
  12945  12946     1
  12945  12954     1
  12952  12954     1
  12955  12960     1
  12955  12967     1
  12955  12965     1
  12956  12961     1
  12956  12966     1
  12956  12975     1
  12959  12965     1
  12959  12977     1
  12959  12969     1
  12960  12968     1
  12961  12969     1
  12961  12967     1
  12965  12966     1
  12966  12977     1
  12966  12967     1
  12967  12968     1
  12968  12969     1
  12968  12977     1
  12975  12977     1
  12978  12983     1
  12978  12990     1
  12978  12988     1
  12979  12998     1
  12979  12984     1
  12979  12989     1
  12982  12992     1
  12982  13000     1
  12982  12988     1
  12983  12991     1
  12984  12990     1
  12984  12992     1
  12988  12989     1
  12989  12990     1
  12989  13000     1
  12990  12991     1
  12991  12992     1
  12991  13000     1
  12998  13000     1
  13001  13006     1
  13001  13013     1
  13001  13011     1
  13002  13007     1
  13002  13012     1
  13002  13021     1
  13005  13011     1
  13005  13023     1
  13005  13015     1
  13006  13014     1
  13007  13015     1
  13007  13013     1
  13011  13012     1
  13012  13023     1
  13012  13013     1
  13013  13014     1
  13014  13015     1
  13014  13023     1
  13021  13023     1
  13024  13029     1
  13024  13036     1
  13024  13034     1
  13025  13044     1
  13025  13030     1
  13025  13035     1
  13028  13038     1
  13028  13046     1
  13028  13034     1
  13029  13037     1
  13030  13036     1
  13030  13038     1
  13034  13035     1
  13035  13036     1
  13035  13046     1
  13036  13037     1
  13037  13038     1
  13037  13046     1
  13044  13046     1
  13047  13052     1
  13047  13059     1
  13047  13057     1
  13048  13053     1
  13048  13058     1
  13048  13067     1
  13051  13057     1
  13051  13069     1
  13051  13061     1
  13052  13060     1
  13053  13061     1
  13053  13059     1
  13057  13058     1
  13058  13069     1
  13058  13059     1
  13059  13060     1
  13060  13061     1
  13060  13069     1
  13067  13069     1
  13070  13075     1
  13070  13082     1
  13070  13080     1
  13071  13090     1
  13071  13076     1
  13071  13081     1
  13074  13084     1
  13074  13092     1
  13074  13080     1
  13075  13083     1
  13076  13082     1
  13076  13084     1
  13080  13081     1
  13081  13082     1
  13081  13092     1
  13082  13083     1
  13083  13084     1
  13083  13092     1
  13090  13092     1
  13093  13098     1
  13093  13105     1
  13093  13103     1
  13094  13099     1
  13094  13104     1
  13094  13113     1
  13097  13103     1
  13097  13115     1
  13097  13107     1
  13098  13106     1
  13099  13107     1
  13099  13105     1
  13103  13104     1
  13104  13115     1
  13104  13105     1
  13105  13106     1
  13106  13107     1
  13106  13115     1
  13113  13115     1
  13116  13121     1
  13116  13128     1
  13116  13126     1
  13117  13136     1
  13117  13122     1
  13117  13127     1
  13120  13130     1
  13120  13138     1
  13120  13126     1
  13121  13129     1
  13122  13128     1
  13122  13130     1
  13126  13127     1
  13127  13128     1
  13127  13138     1
  13128  13129     1
  13129  13130     1
  13129  13138     1
  13136  13138     1
  13139  13144     1
  13139  13151     1
  13139  13149     1
  13140  13145     1
  13140  13150     1
  13140  13159     1
  13143  13149     1
  13143  13161     1
  13143  13153     1
  13144  13152     1
  13145  13153     1
  13145  13151     1
  13149  13150     1
  13150  13161     1
  13150  13151     1
  13151  13152     1
  13152  13153     1
  13152  13161     1
  13159  13161     1
  13162  13167     1
  13162  13174     1
  13162  13172     1
  13163  13182     1
  13163  13168     1
  13163  13173     1
  13166  13176     1
  13166  13184     1
  13166  13172     1
  13167  13175     1
  13168  13174     1
  13168  13176     1
  13172  13173     1
  13173  13174     1
  13173  13184     1
  13174  13175     1
  13175  13176     1
  13175  13184     1
  13182  13184     1
  13185  13190     1
  13185  13197     1
  13185  13195     1
  13186  13191     1
  13186  13196     1
  13186  13205     1
  13189  13195     1
  13189  13207     1
  13189  13199     1
  13190  13198     1
  13191  13199     1
  13191  13197     1
  13195  13196     1
  13196  13207     1
  13196  13197     1
  13197  13198     1
  13198  13199     1
  13198  13207     1
  13205  13207     1
  13208  13213     1
  13208  13220     1
  13208  13218     1
  13209  13228     1
  13209  13214     1
  13209  13219     1
  13212  13222     1
  13212  13230     1
  13212  13218     1
  13213  13221     1
  13214  13220     1
  13214  13222     1
  13218  13219     1
  13219  13220     1
  13219  13230     1
  13220  13221     1
  13221  13222     1
  13221  13230     1
  13228  13230     1
  13231  13236     1
  13231  13243     1
  13231  13241     1
  13232  13237     1
  13232  13242     1
  13232  13251     1
  13235  13241     1
  13235  13253     1
  13235  13245     1
  13236  13244     1
  13237  13245     1
  13237  13243     1
  13241  13242     1
  13242  13253     1
  13242  13243     1
  13243  13244     1
  13244  13245     1
  13244  13253     1
  13251  13253     1
  13254  13259     1
  13254  13266     1
  13254  13264     1
  13255  13274     1
  13255  13260     1
  13255  13265     1
  13258  13268     1
  13258  13276     1
  13258  13264     1
  13259  13267     1
  13260  13266     1
  13260  13268     1
  13264  13265     1
  13265  13266     1
  13265  13276     1
  13266  13267     1
  13267  13268     1
  13267  13276     1
  13274  13276     1
  13277  13282     1
  13277  13289     1
  13277  13287     1
  13278  13283     1
  13278  13288     1
  13278  13297     1
  13281  13287     1
  13281  13299     1
  13281  13291     1
  13282  13290     1
  13283  13291     1
  13283  13289     1
  13287  13288     1
  13288  13299     1
  13288  13289     1
  13289  13290     1
  13290  13291     1
  13290  13299     1
  13297  13299     1
  13300  13305     1
  13300  13312     1
  13300  13310     1
  13301  13320     1
  13301  13306     1
  13301  13311     1
  13304  13314     1
  13304  13322     1
  13304  13310     1
  13305  13313     1
  13306  13312     1
  13306  13314     1
  13310  13311     1
  13311  13312     1
  13311  13322     1
  13312  13313     1
  13313  13314     1
  13313  13322     1
  13320  13322     1
  13323  13328     1
  13323  13335     1
  13323  13333     1
  13324  13329     1
  13324  13334     1
  13324  13343     1
  13327  13333     1
  13327  13345     1
  13327  13337     1
  13328  13336     1
  13329  13337     1
  13329  13335     1
  13333  13334     1
  13334  13345     1
  13334  13335     1
  13335  13336     1
  13336  13337     1
  13336  13345     1
  13343  13345     1
  13346  13351     1
  13346  13358     1
  13346  13356     1
  13347  13366     1
  13347  13352     1
  13347  13357     1
  13350  13360     1
  13350  13368     1
  13350  13356     1
  13351  13359     1
  13352  13358     1
  13352  13360     1
  13356  13357     1
  13357  13358     1
  13357  13368     1
  13358  13359     1
  13359  13360     1
  13359  13368     1
  13366  13368     1
  13369  13374     1
  13369  13381     1
  13369  13379     1
  13370  13375     1
  13370  13380     1
  13370  13389     1
  13373  13379     1
  13373  13391     1
  13373  13383     1
  13374  13382     1
  13375  13383     1
  13375  13381     1
  13379  13380     1
  13380  13391     1
  13380  13381     1
  13381  13382     1
  13382  13383     1
  13382  13391     1
  13389  13391     1
  13392  13397     1
  13392  13404     1
  13392  13402     1
  13393  13412     1
  13393  13398     1
  13393  13403     1
  13396  13406     1
  13396  13414     1
  13396  13402     1
  13397  13405     1
  13398  13404     1
  13398  13406     1
  13402  13403     1
  13403  13404     1
  13403  13414     1
  13404  13405     1
  13405  13406     1
  13405  13414     1
  13412  13414     1
  13415  13420     1
  13415  13427     1
  13415  13425     1
  13416  13421     1
  13416  13426     1
  13416  13435     1
  13419  13425     1
  13419  13437     1
  13419  13429     1
  13420  13428     1
  13421  13429     1
  13421  13427     1
  13425  13426     1
  13426  13437     1
  13426  13427     1
  13427  13428     1
  13428  13429     1
  13428  13437     1
  13435  13437     1
  13438  13443     1
  13438  13450     1
  13438  13448     1
  13439  13458     1
  13439  13444     1
  13439  13449     1
  13442  13452     1
  13442  13460     1
  13442  13448     1
  13443  13451     1
  13444  13450     1
  13444  13452     1
  13448  13449     1
  13449  13450     1
  13449  13460     1
  13450  13451     1
  13451  13452     1
  13451  13460     1
  13458  13460     1
  13461  13466     1
  13461  13473     1
  13461  13471     1
  13462  13467     1
  13462  13472     1
  13462  13481     1
  13465  13471     1
  13465  13483     1
  13465  13475     1
  13466  13474     1
  13467  13475     1
  13467  13473     1
  13471  13472     1
  13472  13483     1
  13472  13473     1
  13473  13474     1
  13474  13475     1
  13474  13483     1
  13481  13483     1
  13484  13489     1
  13484  13496     1
  13484  13494     1
  13485  13504     1
  13485  13490     1
  13485  13495     1
  13488  13498     1
  13488  13506     1
  13488  13494     1
  13489  13497     1
  13490  13496     1
  13490  13498     1
  13494  13495     1
  13495  13496     1
  13495  13506     1
  13496  13497     1
  13497  13498     1
  13497  13506     1
  13504  13506     1
  13507  13512     1
  13507  13519     1
  13507  13517     1
  13508  13513     1
  13508  13518     1
  13508  13527     1
  13511  13517     1
  13511  13529     1
  13511  13521     1
  13512  13520     1
  13513  13521     1
  13513  13519     1
  13517  13518     1
  13518  13529     1
  13518  13519     1
  13519  13520     1
  13520  13521     1
  13520  13529     1
  13527  13529     1
  13530  13535     1
  13530  13542     1
  13530  13540     1
  13531  13550     1
  13531  13536     1
  13531  13541     1
  13534  13544     1
  13534  13552     1
  13534  13540     1
  13535  13543     1
  13536  13542     1
  13536  13544     1
  13540  13541     1
  13541  13542     1
  13541  13552     1
  13542  13543     1
  13543  13544     1
  13543  13552     1
  13550  13552     1
  13553  13558     1
  13553  13565     1
  13553  13563     1
  13554  13559     1
  13554  13564     1
  13554  13573     1
  13557  13563     1
  13557  13575     1
  13557  13567     1
  13558  13566     1
  13559  13567     1
  13559  13565     1
  13563  13564     1
  13564  13575     1
  13564  13565     1
  13565  13566     1
  13566  13567     1
  13566  13575     1
  13573  13575     1
  13576  13581     1
  13576  13588     1
  13576  13586     1
  13577  13596     1
  13577  13582     1
  13577  13587     1
  13580  13590     1
  13580  13598     1
  13580  13586     1
  13581  13589     1
  13582  13588     1
  13582  13590     1
  13586  13587     1
  13587  13588     1
  13587  13598     1
  13588  13589     1
  13589  13590     1
  13589  13598     1
  13596  13598     1
  13599  13604     1
  13599  13611     1
  13599  13609     1
  13600  13605     1
  13600  13610     1
  13600  13619     1
  13603  13609     1
  13603  13621     1
  13603  13613     1
  13604  13612     1
  13605  13613     1
  13605  13611     1
  13609  13610     1
  13610  13621     1
  13610  13611     1
  13611  13612     1
  13612  13613     1
  13612  13621     1
  13619  13621     1
  13622  13627     1
  13622  13634     1
  13622  13632     1
  13623  13642     1
  13623  13628     1
  13623  13633     1
  13626  13636     1
  13626  13644     1
  13626  13632     1
  13627  13635     1
  13628  13634     1
  13628  13636     1
  13632  13633     1
  13633  13634     1
  13633  13644     1
  13634  13635     1
  13635  13636     1
  13635  13644     1
  13642  13644     1
  13645  13650     1
  13645  13657     1
  13645  13655     1
  13646  13651     1
  13646  13656     1
  13646  13665     1
  13649  13655     1
  13649  13667     1
  13649  13659     1
  13650  13658     1
  13651  13659     1
  13651  13657     1
  13655  13656     1
  13656  13667     1
  13656  13657     1
  13657  13658     1
  13658  13659     1
  13658  13667     1
  13665  13667     1
  13668  13673     1
  13668  13680     1
  13668  13678     1
  13669  13688     1
  13669  13674     1
  13669  13679     1
  13672  13682     1
  13672  13690     1
  13672  13678     1
  13673  13681     1
  13674  13680     1
  13674  13682     1
  13678  13679     1
  13679  13680     1
  13679  13690     1
  13680  13681     1
  13681  13682     1
  13681  13690     1
  13688  13690     1
  13691  13696     1
  13691  13703     1
  13691  13701     1
  13692  13697     1
  13692  13702     1
  13692  13711     1
  13695  13701     1
  13695  13713     1
  13695  13705     1
  13696  13704     1
  13697  13705     1
  13697  13703     1
  13701  13702     1
  13702  13713     1
  13702  13703     1
  13703  13704     1
  13704  13705     1
  13704  13713     1
  13711  13713     1
  13714  13719     1
  13714  13726     1
  13714  13724     1
  13715  13734     1
  13715  13720     1
  13715  13725     1
  13718  13728     1
  13718  13736     1
  13718  13724     1
  13719  13727     1
  13720  13726     1
  13720  13728     1
  13724  13725     1
  13725  13726     1
  13725  13736     1
  13726  13727     1
  13727  13728     1
  13727  13736     1
  13734  13736     1
  13737  13742     1
  13737  13749     1
  13737  13747     1
  13738  13743     1
  13738  13748     1
  13738  13757     1
  13741  13747     1
  13741  13759     1
  13741  13751     1
  13742  13750     1
  13743  13751     1
  13743  13749     1
  13747  13748     1
  13748  13759     1
  13748  13749     1
  13749  13750     1
  13750  13751     1
  13750  13759     1
  13757  13759     1
  13760  13765     1
  13760  13772     1
  13760  13770     1
  13761  13780     1
  13761  13766     1
  13761  13771     1
  13764  13774     1
  13764  13782     1
  13764  13770     1
  13765  13773     1
  13766  13772     1
  13766  13774     1
  13770  13771     1
  13771  13772     1
  13771  13782     1
  13772  13773     1
  13773  13774     1
  13773  13782     1
  13780  13782     1
  13783  13788     1
  13783  13795     1
  13783  13793     1
  13784  13789     1
  13784  13794     1
  13784  13803     1
  13787  13793     1
  13787  13805     1
  13787  13797     1
  13788  13796     1
  13789  13797     1
  13789  13795     1
  13793  13794     1
  13794  13805     1
  13794  13795     1
  13795  13796     1
  13796  13797     1
  13796  13805     1
  13803  13805     1
  13806  13811     1
  13806  13818     1
  13806  13816     1
  13807  13826     1
  13807  13812     1
  13807  13817     1
  13810  13820     1
  13810  13828     1
  13810  13816     1
  13811  13819     1
  13812  13818     1
  13812  13820     1
  13816  13817     1
  13817  13818     1
  13817  13828     1
  13818  13819     1
  13819  13820     1
  13819  13828     1
  13826  13828     1
  13829  13834     1
  13829  13841     1
  13829  13839     1
  13830  13835     1
  13830  13840     1
  13830  13849     1
  13833  13839     1
  13833  13851     1
  13833  13843     1
  13834  13842     1
  13835  13843     1
  13835  13841     1
  13839  13840     1
  13840  13851     1
  13840  13841     1
  13841  13842     1
  13842  13843     1
  13842  13851     1
  13849  13851     1
  13852  13857     1
  13852  13864     1
  13852  13862     1
  13853  13872     1
  13853  13858     1
  13853  13863     1
  13856  13866     1
  13856  13874     1
  13856  13862     1
  13857  13865     1
  13858  13864     1
  13858  13866     1
  13862  13863     1
  13863  13864     1
  13863  13874     1
  13864  13865     1
  13865  13866     1
  13865  13874     1
  13872  13874     1
  13875  13880     1
  13875  13887     1
  13875  13885     1
  13876  13881     1
  13876  13886     1
  13876  13895     1
  13879  13885     1
  13879  13897     1
  13879  13889     1
  13880  13888     1
  13881  13889     1
  13881  13887     1
  13885  13886     1
  13886  13897     1
  13886  13887     1
  13887  13888     1
  13888  13889     1
  13888  13897     1
  13895  13897     1
  13898  13903     1
  13898  13910     1
  13898  13908     1
  13899  13918     1
  13899  13904     1
  13899  13909     1
  13902  13912     1
  13902  13920     1
  13902  13908     1
  13903  13911     1
  13904  13910     1
  13904  13912     1
  13908  13909     1
  13909  13910     1
  13909  13920     1
  13910  13911     1
  13911  13912     1
  13911  13920     1
  13918  13920     1
  13921  13926     1
  13921  13933     1
  13921  13931     1
  13922  13927     1
  13922  13932     1
  13922  13941     1
  13925  13931     1
  13925  13943     1
  13925  13935     1
  13926  13934     1
  13927  13935     1
  13927  13933     1
  13931  13932     1
  13932  13943     1
  13932  13933     1
  13933  13934     1
  13934  13935     1
  13934  13943     1
  13941  13943     1
  13944  13949     1
  13944  13956     1
  13944  13954     1
  13945  13964     1
  13945  13950     1
  13945  13955     1
  13948  13958     1
  13948  13966     1
  13948  13954     1
  13949  13957     1
  13950  13956     1
  13950  13958     1
  13954  13955     1
  13955  13956     1
  13955  13966     1
  13956  13957     1
  13957  13958     1
  13957  13966     1
  13964  13966     1
  13967  13972     1
  13967  13979     1
  13967  13977     1
  13968  13973     1
  13968  13978     1
  13968  13987     1
  13971  13977     1
  13971  13989     1
  13971  13981     1
  13972  13980     1
  13973  13981     1
  13973  13979     1
  13977  13978     1
  13978  13989     1
  13978  13979     1
  13979  13980     1
  13980  13981     1
  13980  13989     1
  13987  13989     1
  13990  13995     1
  13990  14002     1
  13990  14000     1
  13991  14010     1
  13991  13996     1
  13991  14001     1
  13994  14004     1
  13994  14012     1
  13994  14000     1
  13995  14003     1
  13996  14002     1
  13996  14004     1
  14000  14001     1
  14001  14002     1
  14001  14012     1
  14002  14003     1
  14003  14004     1
  14003  14012     1
  14010  14012     1
  14013  14018     1
  14013  14025     1
  14013  14023     1
  14014  14019     1
  14014  14024     1
  14014  14033     1
  14017  14023     1
  14017  14035     1
  14017  14027     1
  14018  14026     1
  14019  14027     1
  14019  14025     1
  14023  14024     1
  14024  14035     1
  14024  14025     1
  14025  14026     1
  14026  14027     1
  14026  14035     1
  14033  14035     1
  14036  14041     1
  14036  14048     1
  14036  14046     1
  14037  14056     1
  14037  14042     1
  14037  14047     1
  14040  14050     1
  14040  14058     1
  14040  14046     1
  14041  14049     1
  14042  14048     1
  14042  14050     1
  14046  14047     1
  14047  14048     1
  14047  14058     1
  14048  14049     1
  14049  14050     1
  14049  14058     1
  14056  14058     1
  14059  14064     1
  14059  14071     1
  14059  14069     1
  14060  14065     1
  14060  14070     1
  14060  14079     1
  14063  14069     1
  14063  14081     1
  14063  14073     1
  14064  14072     1
  14065  14073     1
  14065  14071     1
  14069  14070     1
  14070  14081     1
  14070  14071     1
  14071  14072     1
  14072  14073     1
  14072  14081     1
  14079  14081     1
  14082  14087     1
  14082  14094     1
  14082  14092     1
  14083  14102     1
  14083  14088     1
  14083  14093     1
  14086  14096     1
  14086  14104     1
  14086  14092     1
  14087  14095     1
  14088  14094     1
  14088  14096     1
  14092  14093     1
  14093  14094     1
  14093  14104     1
  14094  14095     1
  14095  14096     1
  14095  14104     1
  14102  14104     1
  14105  14110     1
  14105  14117     1
  14105  14115     1
  14106  14111     1
  14106  14116     1
  14106  14125     1
  14109  14115     1
  14109  14127     1
  14109  14119     1
  14110  14118     1
  14111  14119     1
  14111  14117     1
  14115  14116     1
  14116  14127     1
  14116  14117     1
  14117  14118     1
  14118  14119     1
  14118  14127     1
  14125  14127     1
  14128  14133     1
  14128  14140     1
  14128  14138     1
  14129  14148     1
  14129  14134     1
  14129  14139     1
  14132  14142     1
  14132  14150     1
  14132  14138     1
  14133  14141     1
  14134  14140     1
  14134  14142     1
  14138  14139     1
  14139  14140     1
  14139  14150     1
  14140  14141     1
  14141  14142     1
  14141  14150     1
  14148  14150     1
  14151  14156     1
  14151  14163     1
  14151  14161     1
  14152  14157     1
  14152  14162     1
  14152  14171     1
  14155  14161     1
  14155  14173     1
  14155  14165     1
  14156  14164     1
  14157  14165     1
  14157  14163     1
  14161  14162     1
  14162  14173     1
  14162  14163     1
  14163  14164     1
  14164  14165     1
  14164  14173     1
  14171  14173     1
  14174  14179     1
  14174  14186     1
  14174  14184     1
  14175  14194     1
  14175  14180     1
  14175  14185     1
  14178  14188     1
  14178  14196     1
  14178  14184     1
  14179  14187     1
  14180  14186     1
  14180  14188     1
  14184  14185     1
  14185  14186     1
  14185  14196     1
  14186  14187     1
  14187  14188     1
  14187  14196     1
  14194  14196     1
  14197  14202     1
  14197  14209     1
  14197  14207     1
  14198  14203     1
  14198  14208     1
  14198  14217     1
  14201  14207     1
  14201  14219     1
  14201  14211     1
  14202  14210     1
  14203  14211     1
  14203  14209     1
  14207  14208     1
  14208  14219     1
  14208  14209     1
  14209  14210     1
  14210  14211     1
  14210  14219     1
  14217  14219     1
  14220  14225     1
  14220  14232     1
  14220  14230     1
  14221  14240     1
  14221  14226     1
  14221  14231     1
  14224  14234     1
  14224  14242     1
  14224  14230     1
  14225  14233     1
  14226  14232     1
  14226  14234     1
  14230  14231     1
  14231  14232     1
  14231  14242     1
  14232  14233     1
  14233  14234     1
  14233  14242     1
  14240  14242     1
  14243  14248     1
  14243  14255     1
  14243  14253     1
  14244  14249     1
  14244  14254     1
  14244  14263     1
  14247  14253     1
  14247  14265     1
  14247  14257     1
  14248  14256     1
  14249  14257     1
  14249  14255     1
  14253  14254     1
  14254  14265     1
  14254  14255     1
  14255  14256     1
  14256  14257     1
  14256  14265     1
  14263  14265     1
  14266  14271     1
  14266  14278     1
  14266  14276     1
  14267  14286     1
  14267  14272     1
  14267  14277     1
  14270  14280     1
  14270  14288     1
  14270  14276     1
  14271  14279     1
  14272  14278     1
  14272  14280     1
  14276  14277     1
  14277  14278     1
  14277  14288     1
  14278  14279     1
  14279  14280     1
  14279  14288     1
  14286  14288     1
  14289  14294     1
  14289  14301     1
  14289  14299     1
  14290  14295     1
  14290  14300     1
  14290  14309     1
  14293  14299     1
  14293  14311     1
  14293  14303     1
  14294  14302     1
  14295  14303     1
  14295  14301     1
  14299  14300     1
  14300  14311     1
  14300  14301     1
  14301  14302     1
  14302  14303     1
  14302  14311     1
  14309  14311     1
  14312  14317     1
  14312  14324     1
  14312  14322     1
  14313  14332     1
  14313  14318     1
  14313  14323     1
  14316  14326     1
  14316  14334     1
  14316  14322     1
  14317  14325     1
  14318  14324     1
  14318  14326     1
  14322  14323     1
  14323  14324     1
  14323  14334     1
  14324  14325     1
  14325  14326     1
  14325  14334     1
  14332  14334     1
  14335  14340     1
  14335  14347     1
  14335  14345     1
  14336  14341     1
  14336  14346     1
  14336  14355     1
  14339  14345     1
  14339  14357     1
  14339  14349     1
  14340  14348     1
  14341  14349     1
  14341  14347     1
  14345  14346     1
  14346  14357     1
  14346  14347     1
  14347  14348     1
  14348  14349     1
  14348  14357     1
  14355  14357     1
  14358  14363     1
  14358  14370     1
  14358  14368     1
  14359  14378     1
  14359  14364     1
  14359  14369     1
  14362  14372     1
  14362  14380     1
  14362  14368     1
  14363  14371     1
  14364  14370     1
  14364  14372     1
  14368  14369     1
  14369  14370     1
  14369  14380     1
  14370  14371     1
  14371  14372     1
  14371  14380     1
  14378  14380     1
  14381  14386     1
  14381  14393     1
  14381  14391     1
  14382  14387     1
  14382  14392     1
  14382  14401     1
  14385  14391     1
  14385  14403     1
  14385  14395     1
  14386  14394     1
  14387  14395     1
  14387  14393     1
  14391  14392     1
  14392  14403     1
  14392  14393     1
  14393  14394     1
  14394  14395     1
  14394  14403     1
  14401  14403     1
  14404  14409     1
  14404  14416     1
  14404  14414     1
  14405  14424     1
  14405  14410     1
  14405  14415     1
  14408  14418     1
  14408  14426     1
  14408  14414     1
  14409  14417     1
  14410  14416     1
  14410  14418     1
  14414  14415     1
  14415  14416     1
  14415  14426     1
  14416  14417     1
  14417  14418     1
  14417  14426     1
  14424  14426     1
  14427  14432     1
  14427  14439     1
  14427  14437     1
  14428  14433     1
  14428  14438     1
  14428  14447     1
  14431  14437     1
  14431  14449     1
  14431  14441     1
  14432  14440     1
  14433  14441     1
  14433  14439     1
  14437  14438     1
  14438  14449     1
  14438  14439     1
  14439  14440     1
  14440  14441     1
  14440  14449     1
  14447  14449     1
  14450  14455     1
  14450  14462     1
  14450  14460     1
  14451  14470     1
  14451  14456     1
  14451  14461     1
  14454  14464     1
  14454  14472     1
  14454  14460     1
  14455  14463     1
  14456  14462     1
  14456  14464     1
  14460  14461     1
  14461  14462     1
  14461  14472     1
  14462  14463     1
  14463  14464     1
  14463  14472     1
  14470  14472     1
  14473  14478     1
  14473  14485     1
  14473  14483     1
  14474  14479     1
  14474  14484     1
  14474  14493     1
  14477  14483     1
  14477  14495     1
  14477  14487     1
  14478  14486     1
  14479  14487     1
  14479  14485     1
  14483  14484     1
  14484  14495     1
  14484  14485     1
  14485  14486     1
  14486  14487     1
  14486  14495     1
  14493  14495     1
  14496  14501     1
  14496  14508     1
  14496  14506     1
  14497  14516     1
  14497  14502     1
  14497  14507     1
  14500  14510     1
  14500  14518     1
  14500  14506     1
  14501  14509     1
  14502  14508     1
  14502  14510     1
  14506  14507     1
  14507  14508     1
  14507  14518     1
  14508  14509     1
  14509  14510     1
  14509  14518     1
  14516  14518     1
  14519  14524     1
  14519  14531     1
  14519  14529     1
  14520  14525     1
  14520  14530     1
  14520  14539     1
  14523  14529     1
  14523  14541     1
  14523  14533     1
  14524  14532     1
  14525  14533     1
  14525  14531     1
  14529  14530     1
  14530  14541     1
  14530  14531     1
  14531  14532     1
  14532  14533     1
  14532  14541     1
  14539  14541     1
  14542  14547     1
  14542  14554     1
  14542  14552     1
  14543  14562     1
  14543  14548     1
  14543  14553     1
  14546  14556     1
  14546  14564     1
  14546  14552     1
  14547  14555     1
  14548  14554     1
  14548  14556     1
  14552  14553     1
  14553  14554     1
  14553  14564     1
  14554  14555     1
  14555  14556     1
  14555  14564     1
  14562  14564     1
  14565  14570     1
  14565  14577     1
  14565  14575     1
  14566  14571     1
  14566  14576     1
  14566  14585     1
  14569  14575     1
  14569  14587     1
  14569  14579     1
  14570  14578     1
  14571  14579     1
  14571  14577     1
  14575  14576     1
  14576  14587     1
  14576  14577     1
  14577  14578     1
  14578  14579     1
  14578  14587     1
  14585  14587     1
  14588  14593     1
  14588  14600     1
  14588  14598     1
  14589  14608     1
  14589  14594     1
  14589  14599     1
  14592  14602     1
  14592  14610     1
  14592  14598     1
  14593  14601     1
  14594  14600     1
  14594  14602     1
  14598  14599     1
  14599  14600     1
  14599  14610     1
  14600  14601     1
  14601  14602     1
  14601  14610     1
  14608  14610     1
  14611  14616     1
  14611  14623     1
  14611  14621     1
  14612  14617     1
  14612  14622     1
  14612  14631     1
  14615  14621     1
  14615  14633     1
  14615  14625     1
  14616  14624     1
  14617  14625     1
  14617  14623     1
  14621  14622     1
  14622  14633     1
  14622  14623     1
  14623  14624     1
  14624  14625     1
  14624  14633     1
  14631  14633     1
  14634  14639     1
  14634  14646     1
  14634  14644     1
  14635  14654     1
  14635  14640     1
  14635  14645     1
  14638  14648     1
  14638  14656     1
  14638  14644     1
  14639  14647     1
  14640  14646     1
  14640  14648     1
  14644  14645     1
  14645  14646     1
  14645  14656     1
  14646  14647     1
  14647  14648     1
  14647  14656     1
  14654  14656     1
  14657  14662     1
  14657  14669     1
  14657  14667     1
  14658  14663     1
  14658  14668     1
  14658  14677     1
  14661  14667     1
  14661  14679     1
  14661  14671     1
  14662  14670     1
  14663  14671     1
  14663  14669     1
  14667  14668     1
  14668  14679     1
  14668  14669     1
  14669  14670     1
  14670  14671     1
  14670  14679     1
  14677  14679     1
  14680  14685     1
  14680  14692     1
  14680  14690     1
  14681  14700     1
  14681  14686     1
  14681  14691     1
  14684  14694     1
  14684  14702     1
  14684  14690     1
  14685  14693     1
  14686  14692     1
  14686  14694     1
  14690  14691     1
  14691  14692     1
  14691  14702     1
  14692  14693     1
  14693  14694     1
  14693  14702     1
  14700  14702     1
  14703  14708     1
  14703  14715     1
  14703  14713     1
  14704  14709     1
  14704  14714     1
  14704  14723     1
  14707  14713     1
  14707  14725     1
  14707  14717     1
  14708  14716     1
  14709  14717     1
  14709  14715     1
  14713  14714     1
  14714  14725     1
  14714  14715     1
  14715  14716     1
  14716  14717     1
  14716  14725     1
  14723  14725     1
  14726  14731     1
  14726  14738     1
  14726  14736     1
  14727  14746     1
  14727  14732     1
  14727  14737     1
  14730  14740     1
  14730  14748     1
  14730  14736     1
  14731  14739     1
  14732  14738     1
  14732  14740     1
  14736  14737     1
  14737  14738     1
  14737  14748     1
  14738  14739     1
  14739  14740     1
  14739  14748     1
  14746  14748     1
  14749  14754     1
  14749  14761     1
  14749  14759     1
  14750  14755     1
  14750  14760     1
  14750  14769     1
  14753  14759     1
  14753  14771     1
  14753  14763     1
  14754  14762     1
  14755  14763     1
  14755  14761     1
  14759  14760     1
  14760  14771     1
  14760  14761     1
  14761  14762     1
  14762  14763     1
  14762  14771     1
  14769  14771     1
  14772  14777     1
  14772  14784     1
  14772  14782     1
  14773  14792     1
  14773  14778     1
  14773  14783     1
  14776  14786     1
  14776  14794     1
  14776  14782     1
  14777  14785     1
  14778  14784     1
  14778  14786     1
  14782  14783     1
  14783  14784     1
  14783  14794     1
  14784  14785     1
  14785  14786     1
  14785  14794     1
  14792  14794     1
  14795  14800     1
  14795  14807     1
  14795  14805     1
  14796  14801     1
  14796  14806     1
  14796  14815     1
  14799  14805     1
  14799  14817     1
  14799  14809     1
  14800  14808     1
  14801  14809     1
  14801  14807     1
  14805  14806     1
  14806  14817     1
  14806  14807     1
  14807  14808     1
  14808  14809     1
  14808  14817     1
  14815  14817     1
  14818  14823     1
  14818  14830     1
  14818  14828     1
  14819  14838     1
  14819  14824     1
  14819  14829     1
  14822  14832     1
  14822  14840     1
  14822  14828     1
  14823  14831     1
  14824  14830     1
  14824  14832     1
  14828  14829     1
  14829  14830     1
  14829  14840     1
  14830  14831     1
  14831  14832     1
  14831  14840     1
  14838  14840     1
  14841  14846     1
  14841  14853     1
  14841  14851     1
  14842  14847     1
  14842  14852     1
  14842  14861     1
  14845  14851     1
  14845  14863     1
  14845  14855     1
  14846  14854     1
  14847  14855     1
  14847  14853     1
  14851  14852     1
  14852  14863     1
  14852  14853     1
  14853  14854     1
  14854  14855     1
  14854  14863     1
  14861  14863     1
  14864  14869     1
  14864  14876     1
  14864  14874     1
  14865  14884     1
  14865  14870     1
  14865  14875     1
  14868  14878     1
  14868  14886     1
  14868  14874     1
  14869  14877     1
  14870  14876     1
  14870  14878     1
  14874  14875     1
  14875  14876     1
  14875  14886     1
  14876  14877     1
  14877  14878     1
  14877  14886     1
  14884  14886     1
  14887  14892     1
  14887  14899     1
  14887  14897     1
  14888  14893     1
  14888  14898     1
  14888  14907     1
  14891  14897     1
  14891  14909     1
  14891  14901     1
  14892  14900     1
  14893  14901     1
  14893  14899     1
  14897  14898     1
  14898  14909     1
  14898  14899     1
  14899  14900     1
  14900  14901     1
  14900  14909     1
  14907  14909     1
  14910  14915     1
  14910  14922     1
  14910  14920     1
  14911  14930     1
  14911  14916     1
  14911  14921     1
  14914  14924     1
  14914  14932     1
  14914  14920     1
  14915  14923     1
  14916  14922     1
  14916  14924     1
  14920  14921     1
  14921  14922     1
  14921  14932     1
  14922  14923     1
  14923  14924     1
  14923  14932     1
  14930  14932     1
  14933  14938     1
  14933  14945     1
  14933  14943     1
  14934  14939     1
  14934  14944     1
  14934  14953     1
  14937  14943     1
  14937  14955     1
  14937  14947     1
  14938  14946     1
  14939  14947     1
  14939  14945     1
  14943  14944     1
  14944  14955     1
  14944  14945     1
  14945  14946     1
  14946  14947     1
  14946  14955     1
  14953  14955     1
  14956  14961     1
  14956  14968     1
  14956  14966     1
  14957  14976     1
  14957  14962     1
  14957  14967     1
  14960  14970     1
  14960  14978     1
  14960  14966     1
  14961  14969     1
  14962  14968     1
  14962  14970     1
  14966  14967     1
  14967  14968     1
  14967  14978     1
  14968  14969     1
  14969  14970     1
  14969  14978     1
  14976  14978     1
  14979  14984     1
  14979  14991     1
  14979  14989     1
  14980  14985     1
  14980  14990     1
  14980  14999     1
  14983  14989     1
  14983  15001     1
  14983  14993     1
  14984  14992     1
  14985  14993     1
  14985  14991     1
  14989  14990     1
  14990  15001     1
  14990  14991     1
  14991  14992     1
  14992  14993     1
  14992  15001     1
  14999  15001     1
  15002  15007     1
  15002  15014     1
  15002  15012     1
  15003  15022     1
  15003  15008     1
  15003  15013     1
  15006  15016     1
  15006  15024     1
  15006  15012     1
  15007  15015     1
  15008  15014     1
  15008  15016     1
  15012  15013     1
  15013  15014     1
  15013  15024     1
  15014  15015     1
  15015  15016     1
  15015  15024     1
  15022  15024     1
  15025  15030     1
  15025  15037     1
  15025  15035     1
  15026  15031     1
  15026  15036     1
  15026  15045     1
  15029  15035     1
  15029  15047     1
  15029  15039     1
  15030  15038     1
  15031  15039     1
  15031  15037     1
  15035  15036     1
  15036  15047     1
  15036  15037     1
  15037  15038     1
  15038  15039     1
  15038  15047     1
  15045  15047     1
  15048  15053     1
  15048  15060     1
  15048  15058     1
  15049  15068     1
  15049  15054     1
  15049  15059     1
  15052  15062     1
  15052  15070     1
  15052  15058     1
  15053  15061     1
  15054  15060     1
  15054  15062     1
  15058  15059     1
  15059  15060     1
  15059  15070     1
  15060  15061     1
  15061  15062     1
  15061  15070     1
  15068  15070     1
  15071  15076     1
  15071  15083     1
  15071  15081     1
  15072  15077     1
  15072  15082     1
  15072  15091     1
  15075  15081     1
  15075  15093     1
  15075  15085     1
  15076  15084     1
  15077  15085     1
  15077  15083     1
  15081  15082     1
  15082  15093     1
  15082  15083     1
  15083  15084     1
  15084  15085     1
  15084  15093     1
  15091  15093     1
  15094  15099     1
  15094  15106     1
  15094  15104     1
  15095  15114     1
  15095  15100     1
  15095  15105     1
  15098  15108     1
  15098  15116     1
  15098  15104     1
  15099  15107     1
  15100  15106     1
  15100  15108     1
  15104  15105     1
  15105  15106     1
  15105  15116     1
  15106  15107     1
  15107  15108     1
  15107  15116     1
  15114  15116     1
  15117  15122     1
  15117  15129     1
  15117  15127     1
  15118  15123     1
  15118  15128     1
  15118  15137     1
  15121  15127     1
  15121  15139     1
  15121  15131     1
  15122  15130     1
  15123  15131     1
  15123  15129     1
  15127  15128     1
  15128  15139     1
  15128  15129     1
  15129  15130     1
  15130  15131     1
  15130  15139     1
  15137  15139     1
  15140  15145     1
  15140  15152     1
  15140  15150     1
  15141  15160     1
  15141  15146     1
  15141  15151     1
  15144  15154     1
  15144  15162     1
  15144  15150     1
  15145  15153     1
  15146  15152     1
  15146  15154     1
  15150  15151     1
  15151  15152     1
  15151  15162     1
  15152  15153     1
  15153  15154     1
  15153  15162     1
  15160  15162     1
  15163  15168     1
  15163  15175     1
  15163  15173     1
  15164  15169     1
  15164  15174     1
  15164  15183     1
  15167  15173     1
  15167  15185     1
  15167  15177     1
  15168  15176     1
  15169  15177     1
  15169  15175     1
  15173  15174     1
  15174  15185     1
  15174  15175     1
  15175  15176     1
  15176  15177     1
  15176  15185     1
  15183  15185     1
  15186  15191     1
  15186  15198     1
  15186  15196     1
  15187  15206     1
  15187  15192     1
  15187  15197     1
  15190  15200     1
  15190  15208     1
  15190  15196     1
  15191  15199     1
  15192  15198     1
  15192  15200     1
  15196  15197     1
  15197  15198     1
  15197  15208     1
  15198  15199     1
  15199  15200     1
  15199  15208     1
  15206  15208     1
  15209  15214     1
  15209  15221     1
  15209  15219     1
  15210  15215     1
  15210  15220     1
  15210  15229     1
  15213  15219     1
  15213  15231     1
  15213  15223     1
  15214  15222     1
  15215  15223     1
  15215  15221     1
  15219  15220     1
  15220  15231     1
  15220  15221     1
  15221  15222     1
  15222  15223     1
  15222  15231     1
  15229  15231     1
  15232  15237     1
  15232  15244     1
  15232  15242     1
  15233  15252     1
  15233  15238     1
  15233  15243     1
  15236  15246     1
  15236  15254     1
  15236  15242     1
  15237  15245     1
  15238  15244     1
  15238  15246     1
  15242  15243     1
  15243  15244     1
  15243  15254     1
  15244  15245     1
  15245  15246     1
  15245  15254     1
  15252  15254     1
  15255  15260     1
  15255  15267     1
  15255  15265     1
  15256  15261     1
  15256  15266     1
  15256  15275     1
  15259  15265     1
  15259  15277     1
  15259  15269     1
  15260  15268     1
  15261  15269     1
  15261  15267     1
  15265  15266     1
  15266  15277     1
  15266  15267     1
  15267  15268     1
  15268  15269     1
  15268  15277     1
  15275  15277     1
  15278  15283     1
  15278  15290     1
  15278  15288     1
  15279  15298     1
  15279  15284     1
  15279  15289     1
  15282  15292     1
  15282  15300     1
  15282  15288     1
  15283  15291     1
  15284  15290     1
  15284  15292     1
  15288  15289     1
  15289  15290     1
  15289  15300     1
  15290  15291     1
  15291  15292     1
  15291  15300     1
  15298  15300     1
  15301  15306     1
  15301  15313     1
  15301  15311     1
  15302  15307     1
  15302  15312     1
  15302  15321     1
  15305  15311     1
  15305  15323     1
  15305  15315     1
  15306  15314     1
  15307  15315     1
  15307  15313     1
  15311  15312     1
  15312  15323     1
  15312  15313     1
  15313  15314     1
  15314  15315     1
  15314  15323     1
  15321  15323     1
  15324  15329     1
  15324  15336     1
  15324  15334     1
  15325  15344     1
  15325  15330     1
  15325  15335     1
  15328  15338     1
  15328  15346     1
  15328  15334     1
  15329  15337     1
  15330  15336     1
  15330  15338     1
  15334  15335     1
  15335  15336     1
  15335  15346     1
  15336  15337     1
  15337  15338     1
  15337  15346     1
  15344  15346     1
  15347  15352     1
  15347  15359     1
  15347  15357     1
  15348  15353     1
  15348  15358     1
  15348  15367     1
  15351  15357     1
  15351  15369     1
  15351  15361     1
  15352  15360     1
  15353  15361     1
  15353  15359     1
  15357  15358     1
  15358  15369     1
  15358  15359     1
  15359  15360     1
  15360  15361     1
  15360  15369     1
  15367  15369     1
  15370  15375     1
  15370  15382     1
  15370  15380     1
  15371  15390     1
  15371  15376     1
  15371  15381     1
  15374  15384     1
  15374  15392     1
  15374  15380     1
  15375  15383     1
  15376  15382     1
  15376  15384     1
  15380  15381     1
  15381  15382     1
  15381  15392     1
  15382  15383     1
  15383  15384     1
  15383  15392     1
  15390  15392     1
  15393  15398     1
  15393  15405     1
  15393  15403     1
  15394  15399     1
  15394  15404     1
  15394  15413     1
  15397  15403     1
  15397  15415     1
  15397  15407     1
  15398  15406     1
  15399  15407     1
  15399  15405     1
  15403  15404     1
  15404  15415     1
  15404  15405     1
  15405  15406     1
  15406  15407     1
  15406  15415     1
  15413  15415     1
  15416  15421     1
  15416  15428     1
  15416  15426     1
  15417  15436     1
  15417  15422     1
  15417  15427     1
  15420  15430     1
  15420  15438     1
  15420  15426     1
  15421  15429     1
  15422  15428     1
  15422  15430     1
  15426  15427     1
  15427  15428     1
  15427  15438     1
  15428  15429     1
  15429  15430     1
  15429  15438     1
  15436  15438     1
  15439  15444     1
  15439  15451     1
  15439  15449     1
  15440  15445     1
  15440  15450     1
  15440  15459     1
  15443  15449     1
  15443  15461     1
  15443  15453     1
  15444  15452     1
  15445  15453     1
  15445  15451     1
  15449  15450     1
  15450  15461     1
  15450  15451     1
  15451  15452     1
  15452  15453     1
  15452  15461     1
  15459  15461     1
  15462  15467     1
  15462  15474     1
  15462  15472     1
  15463  15482     1
  15463  15468     1
  15463  15473     1
  15466  15476     1
  15466  15484     1
  15466  15472     1
  15467  15475     1
  15468  15474     1
  15468  15476     1
  15472  15473     1
  15473  15474     1
  15473  15484     1
  15474  15475     1
  15475  15476     1
  15475  15484     1
  15482  15484     1
  15485  15490     1
  15485  15497     1
  15485  15495     1
  15486  15491     1
  15486  15496     1
  15486  15505     1
  15489  15495     1
  15489  15507     1
  15489  15499     1
  15490  15498     1
  15491  15499     1
  15491  15497     1
  15495  15496     1
  15496  15507     1
  15496  15497     1
  15497  15498     1
  15498  15499     1
  15498  15507     1
  15505  15507     1
  15508  15513     1
  15508  15520     1
  15508  15518     1
  15509  15528     1
  15509  15514     1
  15509  15519     1
  15512  15522     1
  15512  15530     1
  15512  15518     1
  15513  15521     1
  15514  15520     1
  15514  15522     1
  15518  15519     1
  15519  15520     1
  15519  15530     1
  15520  15521     1
  15521  15522     1
  15521  15530     1
  15528  15530     1
  15531  15536     1
  15531  15543     1
  15531  15541     1
  15532  15537     1
  15532  15542     1
  15532  15551     1
  15535  15541     1
  15535  15553     1
  15535  15545     1
  15536  15544     1
  15537  15545     1
  15537  15543     1
  15541  15542     1
  15542  15553     1
  15542  15543     1
  15543  15544     1
  15544  15545     1
  15544  15553     1
  15551  15553     1
  15554  15559     1
  15554  15566     1
  15554  15564     1
  15555  15574     1
  15555  15560     1
  15555  15565     1
  15558  15568     1
  15558  15576     1
  15558  15564     1
  15559  15567     1
  15560  15566     1
  15560  15568     1
  15564  15565     1
  15565  15566     1
  15565  15576     1
  15566  15567     1
  15567  15568     1
  15567  15576     1
  15574  15576     1
  15577  15582     1
  15577  15589     1
  15577  15587     1
  15578  15583     1
  15578  15588     1
  15578  15597     1
  15581  15587     1
  15581  15599     1
  15581  15591     1
  15582  15590     1
  15583  15591     1
  15583  15589     1
  15587  15588     1
  15588  15599     1
  15588  15589     1
  15589  15590     1
  15590  15591     1
  15590  15599     1
  15597  15599     1
  15600  15605     1
  15600  15612     1
  15600  15610     1
  15601  15620     1
  15601  15606     1
  15601  15611     1
  15604  15614     1
  15604  15622     1
  15604  15610     1
  15605  15613     1
  15606  15612     1
  15606  15614     1
  15610  15611     1
  15611  15612     1
  15611  15622     1
  15612  15613     1
  15613  15614     1
  15613  15622     1
  15620  15622     1
  15623  15628     1
  15623  15635     1
  15623  15633     1
  15624  15629     1
  15624  15634     1
  15624  15643     1
  15627  15633     1
  15627  15645     1
  15627  15637     1
  15628  15636     1
  15629  15637     1
  15629  15635     1
  15633  15634     1
  15634  15645     1
  15634  15635     1
  15635  15636     1
  15636  15637     1
  15636  15645     1
  15643  15645     1
  15646  15651     1
  15646  15658     1
  15646  15656     1
  15647  15666     1
  15647  15652     1
  15647  15657     1
  15650  15660     1
  15650  15668     1
  15650  15656     1
  15651  15659     1
  15652  15658     1
  15652  15660     1
  15656  15657     1
  15657  15658     1
  15657  15668     1
  15658  15659     1
  15659  15660     1
  15659  15668     1
  15666  15668     1
  15669  15674     1
  15669  15681     1
  15669  15679     1
  15670  15675     1
  15670  15680     1
  15670  15689     1
  15673  15679     1
  15673  15691     1
  15673  15683     1
  15674  15682     1
  15675  15683     1
  15675  15681     1
  15679  15680     1
  15680  15691     1
  15680  15681     1
  15681  15682     1
  15682  15683     1
  15682  15691     1
  15689  15691     1
  15692  15697     1
  15692  15704     1
  15692  15702     1
  15693  15712     1
  15693  15698     1
  15693  15703     1
  15696  15706     1
  15696  15714     1
  15696  15702     1
  15697  15705     1
  15698  15704     1
  15698  15706     1
  15702  15703     1
  15703  15704     1
  15703  15714     1
  15704  15705     1
  15705  15706     1
  15705  15714     1
  15712  15714     1
  15715  15720     1
  15715  15727     1
  15715  15725     1
  15716  15721     1
  15716  15726     1
  15716  15735     1
  15719  15725     1
  15719  15737     1
  15719  15729     1
  15720  15728     1
  15721  15729     1
  15721  15727     1
  15725  15726     1
  15726  15737     1
  15726  15727     1
  15727  15728     1
  15728  15729     1
  15728  15737     1
  15735  15737     1
  15738  15743     1
  15738  15750     1
  15738  15748     1
  15739  15758     1
  15739  15744     1
  15739  15749     1
  15742  15752     1
  15742  15760     1
  15742  15748     1
  15743  15751     1
  15744  15750     1
  15744  15752     1
  15748  15749     1
  15749  15750     1
  15749  15760     1
  15750  15751     1
  15751  15752     1
  15751  15760     1
  15758  15760     1
  15761  15766     1
  15761  15773     1
  15761  15771     1
  15762  15767     1
  15762  15772     1
  15762  15781     1
  15765  15771     1
  15765  15783     1
  15765  15775     1
  15766  15774     1
  15767  15775     1
  15767  15773     1
  15771  15772     1
  15772  15783     1
  15772  15773     1
  15773  15774     1
  15774  15775     1
  15774  15783     1
  15781  15783     1
  15784  15789     1
  15784  15796     1
  15784  15794     1
  15785  15804     1
  15785  15790     1
  15785  15795     1
  15788  15798     1
  15788  15806     1
  15788  15794     1
  15789  15797     1
  15790  15796     1
  15790  15798     1
  15794  15795     1
  15795  15796     1
  15795  15806     1
  15796  15797     1
  15797  15798     1
  15797  15806     1
  15804  15806     1
  15807  15812     1
  15807  15819     1
  15807  15817     1
  15808  15813     1
  15808  15818     1
  15808  15827     1
  15811  15817     1
  15811  15829     1
  15811  15821     1
  15812  15820     1
  15813  15821     1
  15813  15819     1
  15817  15818     1
  15818  15829     1
  15818  15819     1
  15819  15820     1
  15820  15821     1
  15820  15829     1
  15827  15829     1
  15830  15835     1
  15830  15842     1
  15830  15840     1
  15831  15850     1
  15831  15836     1
  15831  15841     1
  15834  15844     1
  15834  15852     1
  15834  15840     1
  15835  15843     1
  15836  15842     1
  15836  15844     1
  15840  15841     1
  15841  15842     1
  15841  15852     1
  15842  15843     1
  15843  15844     1
  15843  15852     1
  15850  15852     1
  15853  15858     1
  15853  15865     1
  15853  15863     1
  15854  15859     1
  15854  15864     1
  15854  15873     1
  15857  15863     1
  15857  15875     1
  15857  15867     1
  15858  15866     1
  15859  15867     1
  15859  15865     1
  15863  15864     1
  15864  15875     1
  15864  15865     1
  15865  15866     1
  15866  15867     1
  15866  15875     1
  15873  15875     1
  15876  15881     1
  15876  15888     1
  15876  15886     1
  15877  15896     1
  15877  15882     1
  15877  15887     1
  15880  15890     1
  15880  15898     1
  15880  15886     1
  15881  15889     1
  15882  15888     1
  15882  15890     1
  15886  15887     1
  15887  15888     1
  15887  15898     1
  15888  15889     1
  15889  15890     1
  15889  15898     1
  15896  15898     1
  15899  15904     1
  15899  15911     1
  15899  15909     1
  15900  15905     1
  15900  15910     1
  15900  15919     1
  15903  15909     1
  15903  15921     1
  15903  15913     1
  15904  15912     1
  15905  15913     1
  15905  15911     1
  15909  15910     1
  15910  15921     1
  15910  15911     1
  15911  15912     1
  15912  15913     1
  15912  15921     1
  15919  15921     1
  15922  15927     1
  15922  15934     1
  15922  15932     1
  15923  15942     1
  15923  15928     1
  15923  15933     1
  15926  15936     1
  15926  15944     1
  15926  15932     1
  15927  15935     1
  15928  15934     1
  15928  15936     1
  15932  15933     1
  15933  15934     1
  15933  15944     1
  15934  15935     1
  15935  15936     1
  15935  15944     1
  15942  15944     1
  15945  15950     1
  15945  15957     1
  15945  15955     1
  15946  15951     1
  15946  15956     1
  15946  15965     1
  15949  15955     1
  15949  15967     1
  15949  15959     1
  15950  15958     1
  15951  15959     1
  15951  15957     1
  15955  15956     1
  15956  15967     1
  15956  15957     1
  15957  15958     1
  15958  15959     1
  15958  15967     1
  15965  15967     1
  15968  15973     1
  15968  15980     1
  15968  15978     1
  15969  15988     1
  15969  15974     1
  15969  15979     1
  15972  15982     1
  15972  15990     1
  15972  15978     1
  15973  15981     1
  15974  15980     1
  15974  15982     1
  15978  15979     1
  15979  15980     1
  15979  15990     1
  15980  15981     1
  15981  15982     1
  15981  15990     1
  15988  15990     1
  15991  15996     1
  15991  16003     1
  15991  16001     1
  15992  15997     1
  15992  16002     1
  15992  16011     1
  15995  16001     1
  15995  16013     1
  15995  16005     1
  15996  16004     1
  15997  16005     1
  15997  16003     1
  16001  16002     1
  16002  16013     1
  16002  16003     1
  16003  16004     1
  16004  16005     1
  16004  16013     1
  16011  16013     1
  16014  16019     1
  16014  16026     1
  16014  16024     1
  16015  16034     1
  16015  16020     1
  16015  16025     1
  16018  16028     1
  16018  16036     1
  16018  16024     1
  16019  16027     1
  16020  16026     1
  16020  16028     1
  16024  16025     1
  16025  16026     1
  16025  16036     1
  16026  16027     1
  16027  16028     1
  16027  16036     1
  16034  16036     1
  16037  16042     1
  16037  16049     1
  16037  16047     1
  16038  16043     1
  16038  16048     1
  16038  16057     1
  16041  16047     1
  16041  16059     1
  16041  16051     1
  16042  16050     1
  16043  16051     1
  16043  16049     1
  16047  16048     1
  16048  16059     1
  16048  16049     1
  16049  16050     1
  16050  16051     1
  16050  16059     1
  16057  16059     1
  16060  16065     1
  16060  16072     1
  16060  16070     1
  16061  16080     1
  16061  16066     1
  16061  16071     1
  16064  16074     1
  16064  16082     1
  16064  16070     1
  16065  16073     1
  16066  16072     1
  16066  16074     1
  16070  16071     1
  16071  16072     1
  16071  16082     1
  16072  16073     1
  16073  16074     1
  16073  16082     1
  16080  16082     1
  16083  16088     1
  16083  16095     1
  16083  16093     1
  16084  16089     1
  16084  16094     1
  16084  16103     1
  16087  16093     1
  16087  16105     1
  16087  16097     1
  16088  16096     1
  16089  16097     1
  16089  16095     1
  16093  16094     1
  16094  16105     1
  16094  16095     1
  16095  16096     1
  16096  16097     1
  16096  16105     1
  16103  16105     1
  16106  16111     1
  16106  16118     1
  16106  16116     1
  16107  16126     1
  16107  16112     1
  16107  16117     1
  16110  16120     1
  16110  16128     1
  16110  16116     1
  16111  16119     1
  16112  16118     1
  16112  16120     1
  16116  16117     1
  16117  16118     1
  16117  16128     1
  16118  16119     1
  16119  16120     1
  16119  16128     1
  16126  16128     1
  16129  16134     1
  16129  16141     1
  16129  16139     1
  16130  16135     1
  16130  16140     1
  16130  16149     1
  16133  16139     1
  16133  16151     1
  16133  16143     1
  16134  16142     1
  16135  16143     1
  16135  16141     1
  16139  16140     1
  16140  16151     1
  16140  16141     1
  16141  16142     1
  16142  16143     1
  16142  16151     1
  16149  16151     1
  16152  16157     1
  16152  16164     1
  16152  16162     1
  16153  16172     1
  16153  16158     1
  16153  16163     1
  16156  16166     1
  16156  16174     1
  16156  16162     1
  16157  16165     1
  16158  16164     1
  16158  16166     1
  16162  16163     1
  16163  16164     1
  16163  16174     1
  16164  16165     1
  16165  16166     1
  16165  16174     1
  16172  16174     1
  16175  16180     1
  16175  16187     1
  16175  16185     1
  16176  16181     1
  16176  16186     1
  16176  16195     1
  16179  16185     1
  16179  16197     1
  16179  16189     1
  16180  16188     1
  16181  16189     1
  16181  16187     1
  16185  16186     1
  16186  16197     1
  16186  16187     1
  16187  16188     1
  16188  16189     1
  16188  16197     1
  16195  16197     1
  16198  16203     1
  16198  16210     1
  16198  16208     1
  16199  16218     1
  16199  16204     1
  16199  16209     1
  16202  16212     1
  16202  16220     1
  16202  16208     1
  16203  16211     1
  16204  16210     1
  16204  16212     1
  16208  16209     1
  16209  16210     1
  16209  16220     1
  16210  16211     1
  16211  16212     1
  16211  16220     1
  16218  16220     1
  16221  16226     1
  16221  16233     1
  16221  16231     1
  16222  16227     1
  16222  16232     1
  16222  16241     1
  16225  16231     1
  16225  16243     1
  16225  16235     1
  16226  16234     1
  16227  16235     1
  16227  16233     1
  16231  16232     1
  16232  16243     1
  16232  16233     1
  16233  16234     1
  16234  16235     1
  16234  16243     1
  16241  16243     1
  16244  16249     1
  16244  16256     1
  16244  16254     1
  16245  16264     1
  16245  16250     1
  16245  16255     1
  16248  16258     1
  16248  16266     1
  16248  16254     1
  16249  16257     1
  16250  16256     1
  16250  16258     1
  16254  16255     1
  16255  16256     1
  16255  16266     1
  16256  16257     1
  16257  16258     1
  16257  16266     1
  16264  16266     1
  16267  16272     1
  16267  16279     1
  16267  16277     1
  16268  16273     1
  16268  16278     1
  16268  16287     1
  16271  16277     1
  16271  16289     1
  16271  16281     1
  16272  16280     1
  16273  16281     1
  16273  16279     1
  16277  16278     1
  16278  16289     1
  16278  16279     1
  16279  16280     1
  16280  16281     1
  16280  16289     1
  16287  16289     1
  16290  16295     1
  16290  16302     1
  16290  16300     1
  16291  16310     1
  16291  16296     1
  16291  16301     1
  16294  16304     1
  16294  16312     1
  16294  16300     1
  16295  16303     1
  16296  16302     1
  16296  16304     1
  16300  16301     1
  16301  16302     1
  16301  16312     1
  16302  16303     1
  16303  16304     1
  16303  16312     1
  16310  16312     1
  16313  16318     1
  16313  16325     1
  16313  16323     1
  16314  16319     1
  16314  16324     1
  16314  16333     1
  16317  16323     1
  16317  16335     1
  16317  16327     1
  16318  16326     1
  16319  16327     1
  16319  16325     1
  16323  16324     1
  16324  16335     1
  16324  16325     1
  16325  16326     1
  16326  16327     1
  16326  16335     1
  16333  16335     1
  16336  16341     1
  16336  16348     1
  16336  16346     1
  16337  16356     1
  16337  16342     1
  16337  16347     1
  16340  16350     1
  16340  16358     1
  16340  16346     1
  16341  16349     1
  16342  16348     1
  16342  16350     1
  16346  16347     1
  16347  16348     1
  16347  16358     1
  16348  16349     1
  16349  16350     1
  16349  16358     1
  16356  16358     1
  16359  16364     1
  16359  16371     1
  16359  16369     1
  16360  16365     1
  16360  16370     1
  16360  16379     1
  16363  16369     1
  16363  16381     1
  16363  16373     1
  16364  16372     1
  16365  16373     1
  16365  16371     1
  16369  16370     1
  16370  16381     1
  16370  16371     1
  16371  16372     1
  16372  16373     1
  16372  16381     1
  16379  16381     1
  16382  16387     1
  16382  16394     1
  16382  16392     1
  16383  16402     1
  16383  16388     1
  16383  16393     1
  16386  16396     1
  16386  16404     1
  16386  16392     1
  16387  16395     1
  16388  16394     1
  16388  16396     1
  16392  16393     1
  16393  16394     1
  16393  16404     1
  16394  16395     1
  16395  16396     1
  16395  16404     1
  16402  16404     1
  16405  16410     1
  16405  16417     1
  16405  16415     1
  16406  16411     1
  16406  16416     1
  16406  16425     1
  16409  16415     1
  16409  16427     1
  16409  16419     1
  16410  16418     1
  16411  16419     1
  16411  16417     1
  16415  16416     1
  16416  16427     1
  16416  16417     1
  16417  16418     1
  16418  16419     1
  16418  16427     1
  16425  16427     1
  16428  16433     1
  16428  16440     1
  16428  16438     1
  16429  16448     1
  16429  16434     1
  16429  16439     1
  16432  16442     1
  16432  16450     1
  16432  16438     1
  16433  16441     1
  16434  16440     1
  16434  16442     1
  16438  16439     1
  16439  16440     1
  16439  16450     1
  16440  16441     1
  16441  16442     1
  16441  16450     1
  16448  16450     1
  16451  16456     1
  16451  16463     1
  16451  16461     1
  16452  16457     1
  16452  16462     1
  16452  16471     1
  16455  16461     1
  16455  16473     1
  16455  16465     1
  16456  16464     1
  16457  16465     1
  16457  16463     1
  16461  16462     1
  16462  16473     1
  16462  16463     1
  16463  16464     1
  16464  16465     1
  16464  16473     1
  16471  16473     1
  16474  16479     1
  16474  16486     1
  16474  16484     1
  16475  16494     1
  16475  16480     1
  16475  16485     1
  16478  16488     1
  16478  16496     1
  16478  16484     1
  16479  16487     1
  16480  16486     1
  16480  16488     1
  16484  16485     1
  16485  16486     1
  16485  16496     1
  16486  16487     1
  16487  16488     1
  16487  16496     1
  16494  16496     1
  16497  16502     1
  16497  16509     1
  16497  16507     1
  16498  16503     1
  16498  16508     1
  16498  16517     1
  16501  16507     1
  16501  16519     1
  16501  16511     1
  16502  16510     1
  16503  16511     1
  16503  16509     1
  16507  16508     1
  16508  16519     1
  16508  16509     1
  16509  16510     1
  16510  16511     1
  16510  16519     1
  16517  16519     1
  16520  16525     1
  16520  16532     1
  16520  16530     1
  16521  16540     1
  16521  16526     1
  16521  16531     1
  16524  16534     1
  16524  16542     1
  16524  16530     1
  16525  16533     1
  16526  16532     1
  16526  16534     1
  16530  16531     1
  16531  16532     1
  16531  16542     1
  16532  16533     1
  16533  16534     1
  16533  16542     1
  16540  16542     1
  16543  16548     1
  16543  16555     1
  16543  16553     1
  16544  16549     1
  16544  16554     1
  16544  16563     1
  16547  16553     1
  16547  16565     1
  16547  16557     1
  16548  16556     1
  16549  16557     1
  16549  16555     1
  16553  16554     1
  16554  16565     1
  16554  16555     1
  16555  16556     1
  16556  16557     1
  16556  16565     1
  16563  16565     1
  16566  16571     1
  16566  16578     1
  16566  16576     1
  16567  16586     1
  16567  16572     1
  16567  16577     1
  16570  16580     1
  16570  16588     1
  16570  16576     1
  16571  16579     1
  16572  16578     1
  16572  16580     1
  16576  16577     1
  16577  16578     1
  16577  16588     1
  16578  16579     1
  16579  16580     1
  16579  16588     1
  16586  16588     1
  16589  16594     1
  16589  16601     1
  16589  16599     1
  16590  16595     1
  16590  16600     1
  16590  16609     1
  16593  16599     1
  16593  16611     1
  16593  16603     1
  16594  16602     1
  16595  16603     1
  16595  16601     1
  16599  16600     1
  16600  16611     1
  16600  16601     1
  16601  16602     1
  16602  16603     1
  16602  16611     1
  16609  16611     1
  16612  16617     1
  16612  16624     1
  16612  16622     1
  16613  16632     1
  16613  16618     1
  16613  16623     1
  16616  16626     1
  16616  16634     1
  16616  16622     1
  16617  16625     1
  16618  16624     1
  16618  16626     1
  16622  16623     1
  16623  16624     1
  16623  16634     1
  16624  16625     1
  16625  16626     1
  16625  16634     1
  16632  16634     1
  16635  16640     1
  16635  16647     1
  16635  16645     1
  16636  16641     1
  16636  16646     1
  16636  16655     1
  16639  16645     1
  16639  16657     1
  16639  16649     1
  16640  16648     1
  16641  16649     1
  16641  16647     1
  16645  16646     1
  16646  16657     1
  16646  16647     1
  16647  16648     1
  16648  16649     1
  16648  16657     1
  16655  16657     1
  16658  16663     1
  16658  16670     1
  16658  16668     1
  16659  16678     1
  16659  16664     1
  16659  16669     1
  16662  16672     1
  16662  16680     1
  16662  16668     1
  16663  16671     1
  16664  16670     1
  16664  16672     1
  16668  16669     1
  16669  16670     1
  16669  16680     1
  16670  16671     1
  16671  16672     1
  16671  16680     1
  16678  16680     1
  16681  16686     1
  16681  16693     1
  16681  16691     1
  16682  16687     1
  16682  16692     1
  16682  16701     1
  16685  16691     1
  16685  16703     1
  16685  16695     1
  16686  16694     1
  16687  16695     1
  16687  16693     1
  16691  16692     1
  16692  16703     1
  16692  16693     1
  16693  16694     1
  16694  16695     1
  16694  16703     1
  16701  16703     1
  16704  16709     1
  16704  16716     1
  16704  16714     1
  16705  16724     1
  16705  16710     1
  16705  16715     1
  16708  16718     1
  16708  16726     1
  16708  16714     1
  16709  16717     1
  16710  16716     1
  16710  16718     1
  16714  16715     1
  16715  16716     1
  16715  16726     1
  16716  16717     1
  16717  16718     1
  16717  16726     1
  16724  16726     1
  16727  16732     1
  16727  16739     1
  16727  16737     1
  16728  16733     1
  16728  16738     1
  16728  16747     1
  16731  16737     1
  16731  16749     1
  16731  16741     1
  16732  16740     1
  16733  16741     1
  16733  16739     1
  16737  16738     1
  16738  16749     1
  16738  16739     1
  16739  16740     1
  16740  16741     1
  16740  16749     1
  16747  16749     1
  16750  16755     1
  16750  16762     1
  16750  16760     1
  16751  16770     1
  16751  16756     1
  16751  16761     1
  16754  16764     1
  16754  16772     1
  16754  16760     1
  16755  16763     1
  16756  16762     1
  16756  16764     1
  16760  16761     1
  16761  16762     1
  16761  16772     1
  16762  16763     1
  16763  16764     1
  16763  16772     1
  16770  16772     1
  16773  16778     1
  16773  16785     1
  16773  16783     1
  16774  16779     1
  16774  16784     1
  16774  16793     1
  16777  16783     1
  16777  16795     1
  16777  16787     1
  16778  16786     1
  16779  16787     1
  16779  16785     1
  16783  16784     1
  16784  16795     1
  16784  16785     1
  16785  16786     1
  16786  16787     1
  16786  16795     1
  16793  16795     1
  16796  16801     1
  16796  16808     1
  16796  16806     1
  16797  16816     1
  16797  16802     1
  16797  16807     1
  16800  16810     1
  16800  16818     1
  16800  16806     1
  16801  16809     1
  16802  16808     1
  16802  16810     1
  16806  16807     1
  16807  16808     1
  16807  16818     1
  16808  16809     1
  16809  16810     1
  16809  16818     1
  16816  16818     1
  16819  16824     1
  16819  16831     1
  16819  16829     1
  16820  16825     1
  16820  16830     1
  16820  16839     1
  16823  16829     1
  16823  16841     1
  16823  16833     1
  16824  16832     1
  16825  16833     1
  16825  16831     1
  16829  16830     1
  16830  16841     1
  16830  16831     1
  16831  16832     1
  16832  16833     1
  16832  16841     1
  16839  16841     1
  16842  16847     1
  16842  16854     1
  16842  16852     1
  16843  16862     1
  16843  16848     1
  16843  16853     1
  16846  16856     1
  16846  16864     1
  16846  16852     1
  16847  16855     1
  16848  16854     1
  16848  16856     1
  16852  16853     1
  16853  16854     1
  16853  16864     1
  16854  16855     1
  16855  16856     1
  16855  16864     1
  16862  16864     1
  16865  16870     1
  16865  16877     1
  16865  16875     1
  16866  16871     1
  16866  16876     1
  16866  16885     1
  16869  16875     1
  16869  16887     1
  16869  16879     1
  16870  16878     1
  16871  16879     1
  16871  16877     1
  16875  16876     1
  16876  16887     1
  16876  16877     1
  16877  16878     1
  16878  16879     1
  16878  16887     1
  16885  16887     1
  16888  16893     1
  16888  16900     1
  16888  16898     1
  16889  16908     1
  16889  16894     1
  16889  16899     1
  16892  16902     1
  16892  16910     1
  16892  16898     1
  16893  16901     1
  16894  16900     1
  16894  16902     1
  16898  16899     1
  16899  16900     1
  16899  16910     1
  16900  16901     1
  16901  16902     1
  16901  16910     1
  16908  16910     1
  16911  16916     1
  16911  16923     1
  16911  16921     1
  16912  16917     1
  16912  16922     1
  16912  16931     1
  16915  16921     1
  16915  16933     1
  16915  16925     1
  16916  16924     1
  16917  16925     1
  16917  16923     1
  16921  16922     1
  16922  16933     1
  16922  16923     1
  16923  16924     1
  16924  16925     1
  16924  16933     1
  16931  16933     1
  16934  16939     1
  16934  16946     1
  16934  16944     1
  16935  16954     1
  16935  16940     1
  16935  16945     1
  16938  16948     1
  16938  16956     1
  16938  16944     1
  16939  16947     1
  16940  16946     1
  16940  16948     1
  16944  16945     1
  16945  16946     1
  16945  16956     1
  16946  16947     1
  16947  16948     1
  16947  16956     1
  16954  16956     1
  16957  16962     1
  16957  16969     1
  16957  16967     1
  16958  16963     1
  16958  16968     1
  16958  16977     1
  16961  16967     1
  16961  16979     1
  16961  16971     1
  16962  16970     1
  16963  16971     1
  16963  16969     1
  16967  16968     1
  16968  16979     1
  16968  16969     1
  16969  16970     1
  16970  16971     1
  16970  16979     1
  16977  16979     1
  16980  16985     1
  16980  16992     1
  16980  16990     1
  16981  17000     1
  16981  16986     1
  16981  16991     1
  16984  16994     1
  16984  17002     1
  16984  16990     1
  16985  16993     1
  16986  16992     1
  16986  16994     1
  16990  16991     1
  16991  16992     1
  16991  17002     1
  16992  16993     1
  16993  16994     1
  16993  17002     1
  17000  17002     1
  17003  17008     1
  17003  17015     1
  17003  17013     1
  17004  17009     1
  17004  17014     1
  17004  17023     1
  17007  17013     1
  17007  17025     1
  17007  17017     1
  17008  17016     1
  17009  17017     1
  17009  17015     1
  17013  17014     1
  17014  17025     1
  17014  17015     1
  17015  17016     1
  17016  17017     1
  17016  17025     1
  17023  17025     1
  17026  17031     1
  17026  17038     1
  17026  17036     1
  17027  17046     1
  17027  17032     1
  17027  17037     1
  17030  17040     1
  17030  17048     1
  17030  17036     1
  17031  17039     1
  17032  17038     1
  17032  17040     1
  17036  17037     1
  17037  17038     1
  17037  17048     1
  17038  17039     1
  17039  17040     1
  17039  17048     1
  17046  17048     1
  17049  17054     1
  17049  17061     1
  17049  17059     1
  17050  17055     1
  17050  17060     1
  17050  17069     1
  17053  17059     1
  17053  17071     1
  17053  17063     1
  17054  17062     1
  17055  17063     1
  17055  17061     1
  17059  17060     1
  17060  17071     1
  17060  17061     1
  17061  17062     1
  17062  17063     1
  17062  17071     1
  17069  17071     1
  17072  17077     1
  17072  17084     1
  17072  17082     1
  17073  17092     1
  17073  17078     1
  17073  17083     1
  17076  17086     1
  17076  17094     1
  17076  17082     1
  17077  17085     1
  17078  17084     1
  17078  17086     1
  17082  17083     1
  17083  17084     1
  17083  17094     1
  17084  17085     1
  17085  17086     1
  17085  17094     1
  17092  17094     1
  17095  17100     1
  17095  17107     1
  17095  17105     1
  17096  17101     1
  17096  17106     1
  17096  17115     1
  17099  17105     1
  17099  17117     1
  17099  17109     1
  17100  17108     1
  17101  17109     1
  17101  17107     1
  17105  17106     1
  17106  17117     1
  17106  17107     1
  17107  17108     1
  17108  17109     1
  17108  17117     1
  17115  17117     1
  17118  17123     1
  17118  17130     1
  17118  17128     1
  17119  17138     1
  17119  17124     1
  17119  17129     1
  17122  17132     1
  17122  17140     1
  17122  17128     1
  17123  17131     1
  17124  17130     1
  17124  17132     1
  17128  17129     1
  17129  17130     1
  17129  17140     1
  17130  17131     1
  17131  17132     1
  17131  17140     1
  17138  17140     1
  17141  17146     1
  17141  17153     1
  17141  17151     1
  17142  17147     1
  17142  17152     1
  17142  17161     1
  17145  17151     1
  17145  17163     1
  17145  17155     1
  17146  17154     1
  17147  17155     1
  17147  17153     1
  17151  17152     1
  17152  17163     1
  17152  17153     1
  17153  17154     1
  17154  17155     1
  17154  17163     1
  17161  17163     1
  17164  17169     1
  17164  17176     1
  17164  17174     1
  17165  17184     1
  17165  17170     1
  17165  17175     1
  17168  17178     1
  17168  17186     1
  17168  17174     1
  17169  17177     1
  17170  17176     1
  17170  17178     1
  17174  17175     1
  17175  17176     1
  17175  17186     1
  17176  17177     1
  17177  17178     1
  17177  17186     1
  17184  17186     1
  17187  17192     1
  17187  17199     1
  17187  17197     1
  17188  17193     1
  17188  17198     1
  17188  17207     1
  17191  17197     1
  17191  17209     1
  17191  17201     1
  17192  17200     1
  17193  17201     1
  17193  17199     1
  17197  17198     1
  17198  17209     1
  17198  17199     1
  17199  17200     1
  17200  17201     1
  17200  17209     1
  17207  17209     1
  17210  17215     1
  17210  17222     1
  17210  17220     1
  17211  17230     1
  17211  17216     1
  17211  17221     1
  17214  17224     1
  17214  17232     1
  17214  17220     1
  17215  17223     1
  17216  17222     1
  17216  17224     1
  17220  17221     1
  17221  17222     1
  17221  17232     1
  17222  17223     1
  17223  17224     1
  17223  17232     1
  17230  17232     1
  17233  17238     1
  17233  17245     1
  17233  17243     1
  17234  17239     1
  17234  17244     1
  17234  17253     1
  17237  17243     1
  17237  17255     1
  17237  17247     1
  17238  17246     1
  17239  17247     1
  17239  17245     1
  17243  17244     1
  17244  17255     1
  17244  17245     1
  17245  17246     1
  17246  17247     1
  17246  17255     1
  17253  17255     1
  17256  17261     1
  17256  17268     1
  17256  17266     1
  17257  17276     1
  17257  17262     1
  17257  17267     1
  17260  17270     1
  17260  17278     1
  17260  17266     1
  17261  17269     1
  17262  17268     1
  17262  17270     1
  17266  17267     1
  17267  17268     1
  17267  17278     1
  17268  17269     1
  17269  17270     1
  17269  17278     1
  17276  17278     1
  17279  17284     1
  17279  17291     1
  17279  17289     1
  17280  17285     1
  17280  17290     1
  17280  17299     1
  17283  17289     1
  17283  17301     1
  17283  17293     1
  17284  17292     1
  17285  17293     1
  17285  17291     1
  17289  17290     1
  17290  17301     1
  17290  17291     1
  17291  17292     1
  17292  17293     1
  17292  17301     1
  17299  17301     1
  17302  17307     1
  17302  17314     1
  17302  17312     1
  17303  17322     1
  17303  17308     1
  17303  17313     1
  17306  17316     1
  17306  17324     1
  17306  17312     1
  17307  17315     1
  17308  17314     1
  17308  17316     1
  17312  17313     1
  17313  17314     1
  17313  17324     1
  17314  17315     1
  17315  17316     1
  17315  17324     1
  17322  17324     1
  17325  17330     1
  17325  17337     1
  17325  17335     1
  17326  17331     1
  17326  17336     1
  17326  17345     1
  17329  17335     1
  17329  17347     1
  17329  17339     1
  17330  17338     1
  17331  17339     1
  17331  17337     1
  17335  17336     1
  17336  17347     1
  17336  17337     1
  17337  17338     1
  17338  17339     1
  17338  17347     1
  17345  17347     1
  17348  17353     1
  17348  17360     1
  17348  17358     1
  17349  17368     1
  17349  17354     1
  17349  17359     1
  17352  17362     1
  17352  17370     1
  17352  17358     1
  17353  17361     1
  17354  17360     1
  17354  17362     1
  17358  17359     1
  17359  17360     1
  17359  17370     1
  17360  17361     1
  17361  17362     1
  17361  17370     1
  17368  17370     1
  17371  17376     1
  17371  17383     1
  17371  17381     1
  17372  17377     1
  17372  17382     1
  17372  17391     1
  17375  17381     1
  17375  17393     1
  17375  17385     1
  17376  17384     1
  17377  17385     1
  17377  17383     1
  17381  17382     1
  17382  17393     1
  17382  17383     1
  17383  17384     1
  17384  17385     1
  17384  17393     1
  17391  17393     1
  17394  17399     1
  17394  17406     1
  17394  17404     1
  17395  17414     1
  17395  17400     1
  17395  17405     1
  17398  17408     1
  17398  17416     1
  17398  17404     1
  17399  17407     1
  17400  17406     1
  17400  17408     1
  17404  17405     1
  17405  17406     1
  17405  17416     1
  17406  17407     1
  17407  17408     1
  17407  17416     1
  17414  17416     1
  17417  17422     1
  17417  17429     1
  17417  17427     1
  17418  17423     1
  17418  17428     1
  17418  17437     1
  17421  17427     1
  17421  17439     1
  17421  17431     1
  17422  17430     1
  17423  17431     1
  17423  17429     1
  17427  17428     1
  17428  17439     1
  17428  17429     1
  17429  17430     1
  17430  17431     1
  17430  17439     1
  17437  17439     1
  17440  17445     1
  17440  17452     1
  17440  17450     1
  17441  17460     1
  17441  17446     1
  17441  17451     1
  17444  17454     1
  17444  17462     1
  17444  17450     1
  17445  17453     1
  17446  17452     1
  17446  17454     1
  17450  17451     1
  17451  17452     1
  17451  17462     1
  17452  17453     1
  17453  17454     1
  17453  17462     1
  17460  17462     1
  17463  17468     1
  17463  17475     1
  17463  17473     1
  17464  17469     1
  17464  17474     1
  17464  17483     1
  17467  17473     1
  17467  17485     1
  17467  17477     1
  17468  17476     1
  17469  17477     1
  17469  17475     1
  17473  17474     1
  17474  17485     1
  17474  17475     1
  17475  17476     1
  17476  17477     1
  17476  17485     1
  17483  17485     1
  17486  17491     1
  17486  17498     1
  17486  17496     1
  17487  17506     1
  17487  17492     1
  17487  17497     1
  17490  17500     1
  17490  17508     1
  17490  17496     1
  17491  17499     1
  17492  17498     1
  17492  17500     1
  17496  17497     1
  17497  17498     1
  17497  17508     1
  17498  17499     1
  17499  17500     1
  17499  17508     1
  17506  17508     1
  17509  17514     1
  17509  17521     1
  17509  17519     1
  17510  17515     1
  17510  17520     1
  17510  17529     1
  17513  17519     1
  17513  17531     1
  17513  17523     1
  17514  17522     1
  17515  17523     1
  17515  17521     1
  17519  17520     1
  17520  17531     1
  17520  17521     1
  17521  17522     1
  17522  17523     1
  17522  17531     1
  17529  17531     1
  17532  17537     1
  17532  17544     1
  17532  17542     1
  17533  17552     1
  17533  17538     1
  17533  17543     1
  17536  17546     1
  17536  17554     1
  17536  17542     1
  17537  17545     1
  17538  17544     1
  17538  17546     1
  17542  17543     1
  17543  17544     1
  17543  17554     1
  17544  17545     1
  17545  17546     1
  17545  17554     1
  17552  17554     1
  17555  17560     1
  17555  17567     1
  17555  17565     1
  17556  17561     1
  17556  17566     1
  17556  17575     1
  17559  17565     1
  17559  17577     1
  17559  17569     1
  17560  17568     1
  17561  17569     1
  17561  17567     1
  17565  17566     1
  17566  17577     1
  17566  17567     1
  17567  17568     1
  17568  17569     1
  17568  17577     1
  17575  17577     1
  17578  17583     1
  17578  17590     1
  17578  17588     1
  17579  17598     1
  17579  17584     1
  17579  17589     1
  17582  17592     1
  17582  17600     1
  17582  17588     1
  17583  17591     1
  17584  17590     1
  17584  17592     1
  17588  17589     1
  17589  17590     1
  17589  17600     1
  17590  17591     1
  17591  17592     1
  17591  17600     1
  17598  17600     1
  17601  17606     1
  17601  17613     1
  17601  17611     1
  17602  17607     1
  17602  17612     1
  17602  17621     1
  17605  17611     1
  17605  17623     1
  17605  17615     1
  17606  17614     1
  17607  17615     1
  17607  17613     1
  17611  17612     1
  17612  17623     1
  17612  17613     1
  17613  17614     1
  17614  17615     1
  17614  17623     1
  17621  17623     1
  17624  17629     1
  17624  17636     1
  17624  17634     1
  17625  17644     1
  17625  17630     1
  17625  17635     1
  17628  17638     1
  17628  17646     1
  17628  17634     1
  17629  17637     1
  17630  17636     1
  17630  17638     1
  17634  17635     1
  17635  17636     1
  17635  17646     1
  17636  17637     1
  17637  17638     1
  17637  17646     1
  17644  17646     1
  17647  17652     1
  17647  17659     1
  17647  17657     1
  17648  17653     1
  17648  17658     1
  17648  17667     1
  17651  17657     1
  17651  17669     1
  17651  17661     1
  17652  17660     1
  17653  17661     1
  17653  17659     1
  17657  17658     1
  17658  17669     1
  17658  17659     1
  17659  17660     1
  17660  17661     1
  17660  17669     1
  17667  17669     1
  17670  17675     1
  17670  17682     1
  17670  17680     1
  17671  17690     1
  17671  17676     1
  17671  17681     1
  17674  17684     1
  17674  17692     1
  17674  17680     1
  17675  17683     1
  17676  17682     1
  17676  17684     1
  17680  17681     1
  17681  17682     1
  17681  17692     1
  17682  17683     1
  17683  17684     1
  17683  17692     1
  17690  17692     1
  17693  17698     1
  17693  17705     1
  17693  17703     1
  17694  17699     1
  17694  17704     1
  17694  17713     1
  17697  17703     1
  17697  17715     1
  17697  17707     1
  17698  17706     1
  17699  17707     1
  17699  17705     1
  17703  17704     1
  17704  17715     1
  17704  17705     1
  17705  17706     1
  17706  17707     1
  17706  17715     1
  17713  17715     1
  17716  17721     1
  17716  17728     1
  17716  17726     1
  17717  17736     1
  17717  17722     1
  17717  17727     1
  17720  17730     1
  17720  17738     1
  17720  17726     1
  17721  17729     1
  17722  17728     1
  17722  17730     1
  17726  17727     1
  17727  17728     1
  17727  17738     1
  17728  17729     1
  17729  17730     1
  17729  17738     1
  17736  17738     1
  17739  17744     1
  17739  17751     1
  17739  17749     1
  17740  17745     1
  17740  17750     1
  17740  17759     1
  17743  17749     1
  17743  17761     1
  17743  17753     1
  17744  17752     1
  17745  17753     1
  17745  17751     1
  17749  17750     1
  17750  17761     1
  17750  17751     1
  17751  17752     1
  17752  17753     1
  17752  17761     1
  17759  17761     1
  17762  17767     1
  17762  17774     1
  17762  17772     1
  17763  17782     1
  17763  17768     1
  17763  17773     1
  17766  17776     1
  17766  17784     1
  17766  17772     1
  17767  17775     1
  17768  17774     1
  17768  17776     1
  17772  17773     1
  17773  17774     1
  17773  17784     1
  17774  17775     1
  17775  17776     1
  17775  17784     1
  17782  17784     1
  17785  17790     1
  17785  17797     1
  17785  17795     1
  17786  17791     1
  17786  17796     1
  17786  17805     1
  17789  17795     1
  17789  17807     1
  17789  17799     1
  17790  17798     1
  17791  17799     1
  17791  17797     1
  17795  17796     1
  17796  17807     1
  17796  17797     1
  17797  17798     1
  17798  17799     1
  17798  17807     1
  17805  17807     1
  17808  17813     1
  17808  17820     1
  17808  17818     1
  17809  17828     1
  17809  17814     1
  17809  17819     1
  17812  17822     1
  17812  17830     1
  17812  17818     1
  17813  17821     1
  17814  17820     1
  17814  17822     1
  17818  17819     1
  17819  17820     1
  17819  17830     1
  17820  17821     1
  17821  17822     1
  17821  17830     1
  17828  17830     1
  17831  17836     1
  17831  17843     1
  17831  17841     1
  17832  17837     1
  17832  17842     1
  17832  17851     1
  17835  17841     1
  17835  17853     1
  17835  17845     1
  17836  17844     1
  17837  17845     1
  17837  17843     1
  17841  17842     1
  17842  17853     1
  17842  17843     1
  17843  17844     1
  17844  17845     1
  17844  17853     1
  17851  17853     1
  17854  17859     1
  17854  17866     1
  17854  17864     1
  17855  17874     1
  17855  17860     1
  17855  17865     1
  17858  17868     1
  17858  17876     1
  17858  17864     1
  17859  17867     1
  17860  17866     1
  17860  17868     1
  17864  17865     1
  17865  17866     1
  17865  17876     1
  17866  17867     1
  17867  17868     1
  17867  17876     1
  17874  17876     1
  17877  17882     1
  17877  17889     1
  17877  17887     1
  17878  17883     1
  17878  17888     1
  17878  17897     1
  17881  17887     1
  17881  17899     1
  17881  17891     1
  17882  17890     1
  17883  17891     1
  17883  17889     1
  17887  17888     1
  17888  17899     1
  17888  17889     1
  17889  17890     1
  17890  17891     1
  17890  17899     1
  17897  17899     1
  17900  17905     1
  17900  17912     1
  17900  17910     1
  17901  17920     1
  17901  17906     1
  17901  17911     1
  17904  17914     1
  17904  17922     1
  17904  17910     1
  17905  17913     1
  17906  17912     1
  17906  17914     1
  17910  17911     1
  17911  17912     1
  17911  17922     1
  17912  17913     1
  17913  17914     1
  17913  17922     1
  17920  17922     1
  17923  17928     1
  17923  17935     1
  17923  17933     1
  17924  17929     1
  17924  17934     1
  17924  17943     1
  17927  17933     1
  17927  17945     1
  17927  17937     1
  17928  17936     1
  17929  17937     1
  17929  17935     1
  17933  17934     1
  17934  17945     1
  17934  17935     1
  17935  17936     1
  17936  17937     1
  17936  17945     1
  17943  17945     1
  17946  17951     1
  17946  17958     1
  17946  17956     1
  17947  17966     1
  17947  17952     1
  17947  17957     1
  17950  17960     1
  17950  17968     1
  17950  17956     1
  17951  17959     1
  17952  17958     1
  17952  17960     1
  17956  17957     1
  17957  17958     1
  17957  17968     1
  17958  17959     1
  17959  17960     1
  17959  17968     1
  17966  17968     1
  17969  17974     1
  17969  17981     1
  17969  17979     1
  17970  17975     1
  17970  17980     1
  17970  17989     1
  17973  17979     1
  17973  17991     1
  17973  17983     1
  17974  17982     1
  17975  17983     1
  17975  17981     1
  17979  17980     1
  17980  17991     1
  17980  17981     1
  17981  17982     1
  17982  17983     1
  17982  17991     1
  17989  17991     1
  17992  17997     1
  17992  18004     1
  17992  18002     1
  17993  18012     1
  17993  17998     1
  17993  18003     1
  17996  18006     1
  17996  18014     1
  17996  18002     1
  17997  18005     1
  17998  18004     1
  17998  18006     1
  18002  18003     1
  18003  18004     1
  18003  18014     1
  18004  18005     1
  18005  18006     1
  18005  18014     1
  18012  18014     1
  18015  18020     1
  18015  18027     1
  18015  18025     1
  18016  18021     1
  18016  18026     1
  18016  18035     1
  18019  18025     1
  18019  18037     1
  18019  18029     1
  18020  18028     1
  18021  18029     1
  18021  18027     1
  18025  18026     1
  18026  18037     1
  18026  18027     1
  18027  18028     1
  18028  18029     1
  18028  18037     1
  18035  18037     1
  18038  18043     1
  18038  18050     1
  18038  18048     1
  18039  18058     1
  18039  18044     1
  18039  18049     1
  18042  18052     1
  18042  18060     1
  18042  18048     1
  18043  18051     1
  18044  18050     1
  18044  18052     1
  18048  18049     1
  18049  18050     1
  18049  18060     1
  18050  18051     1
  18051  18052     1
  18051  18060     1
  18058  18060     1
  18061  18066     1
  18061  18073     1
  18061  18071     1
  18062  18067     1
  18062  18072     1
  18062  18081     1
  18065  18071     1
  18065  18083     1
  18065  18075     1
  18066  18074     1
  18067  18075     1
  18067  18073     1
  18071  18072     1
  18072  18083     1
  18072  18073     1
  18073  18074     1
  18074  18075     1
  18074  18083     1
  18081  18083     1
  18084  18089     1
  18084  18096     1
  18084  18094     1
  18085  18104     1
  18085  18090     1
  18085  18095     1
  18088  18098     1
  18088  18106     1
  18088  18094     1
  18089  18097     1
  18090  18096     1
  18090  18098     1
  18094  18095     1
  18095  18096     1
  18095  18106     1
  18096  18097     1
  18097  18098     1
  18097  18106     1
  18104  18106     1
  18107  18112     1
  18107  18119     1
  18107  18117     1
  18108  18113     1
  18108  18118     1
  18108  18127     1
  18111  18117     1
  18111  18129     1
  18111  18121     1
  18112  18120     1
  18113  18121     1
  18113  18119     1
  18117  18118     1
  18118  18129     1
  18118  18119     1
  18119  18120     1
  18120  18121     1
  18120  18129     1
  18127  18129     1
  18130  18135     1
  18130  18142     1
  18130  18140     1
  18131  18150     1
  18131  18136     1
  18131  18141     1
  18134  18144     1
  18134  18152     1
  18134  18140     1
  18135  18143     1
  18136  18142     1
  18136  18144     1
  18140  18141     1
  18141  18142     1
  18141  18152     1
  18142  18143     1
  18143  18144     1
  18143  18152     1
  18150  18152     1
  18153  18158     1
  18153  18165     1
  18153  18163     1
  18154  18159     1
  18154  18164     1
  18154  18173     1
  18157  18163     1
  18157  18175     1
  18157  18167     1
  18158  18166     1
  18159  18167     1
  18159  18165     1
  18163  18164     1
  18164  18175     1
  18164  18165     1
  18165  18166     1
  18166  18167     1
  18166  18175     1
  18173  18175     1
  18176  18181     1
  18176  18188     1
  18176  18186     1
  18177  18196     1
  18177  18182     1
  18177  18187     1
  18180  18190     1
  18180  18198     1
  18180  18186     1
  18181  18189     1
  18182  18188     1
  18182  18190     1
  18186  18187     1
  18187  18188     1
  18187  18198     1
  18188  18189     1
  18189  18190     1
  18189  18198     1
  18196  18198     1
  18199  18204     1
  18199  18211     1
  18199  18209     1
  18200  18205     1
  18200  18210     1
  18200  18219     1
  18203  18209     1
  18203  18221     1
  18203  18213     1
  18204  18212     1
  18205  18213     1
  18205  18211     1
  18209  18210     1
  18210  18221     1
  18210  18211     1
  18211  18212     1
  18212  18213     1
  18212  18221     1
  18219  18221     1
  18222  18227     1
  18222  18234     1
  18222  18232     1
  18223  18242     1
  18223  18228     1
  18223  18233     1
  18226  18236     1
  18226  18244     1
  18226  18232     1
  18227  18235     1
  18228  18234     1
  18228  18236     1
  18232  18233     1
  18233  18234     1
  18233  18244     1
  18234  18235     1
  18235  18236     1
  18235  18244     1
  18242  18244     1
  18245  18250     1
  18245  18257     1
  18245  18255     1
  18246  18251     1
  18246  18256     1
  18246  18265     1
  18249  18255     1
  18249  18267     1
  18249  18259     1
  18250  18258     1
  18251  18259     1
  18251  18257     1
  18255  18256     1
  18256  18267     1
  18256  18257     1
  18257  18258     1
  18258  18259     1
  18258  18267     1
  18265  18267     1
  18268  18273     1
  18268  18280     1
  18268  18278     1
  18269  18288     1
  18269  18274     1
  18269  18279     1
  18272  18282     1
  18272  18290     1
  18272  18278     1
  18273  18281     1
  18274  18280     1
  18274  18282     1
  18278  18279     1
  18279  18280     1
  18279  18290     1
  18280  18281     1
  18281  18282     1
  18281  18290     1
  18288  18290     1
  18291  18296     1
  18291  18303     1
  18291  18301     1
  18292  18297     1
  18292  18302     1
  18292  18311     1
  18295  18301     1
  18295  18313     1
  18295  18305     1
  18296  18304     1
  18297  18305     1
  18297  18303     1
  18301  18302     1
  18302  18313     1
  18302  18303     1
  18303  18304     1
  18304  18305     1
  18304  18313     1
  18311  18313     1
  18314  18319     1
  18314  18326     1
  18314  18324     1
  18315  18334     1
  18315  18320     1
  18315  18325     1
  18318  18328     1
  18318  18336     1
  18318  18324     1
  18319  18327     1
  18320  18326     1
  18320  18328     1
  18324  18325     1
  18325  18326     1
  18325  18336     1
  18326  18327     1
  18327  18328     1
  18327  18336     1
  18334  18336     1
  18337  18342     1
  18337  18349     1
  18337  18347     1
  18338  18343     1
  18338  18348     1
  18338  18357     1
  18341  18347     1
  18341  18359     1
  18341  18351     1
  18342  18350     1
  18343  18351     1
  18343  18349     1
  18347  18348     1
  18348  18359     1
  18348  18349     1
  18349  18350     1
  18350  18351     1
  18350  18359     1
  18357  18359     1
  18360  18365     1
  18360  18372     1
  18360  18370     1
  18361  18380     1
  18361  18366     1
  18361  18371     1
  18364  18374     1
  18364  18382     1
  18364  18370     1
  18365  18373     1
  18366  18372     1
  18366  18374     1
  18370  18371     1
  18371  18372     1
  18371  18382     1
  18372  18373     1
  18373  18374     1
  18373  18382     1
  18380  18382     1
  18383  18388     1
  18383  18395     1
  18383  18393     1
  18384  18389     1
  18384  18394     1
  18384  18403     1
  18387  18393     1
  18387  18405     1
  18387  18397     1
  18388  18396     1
  18389  18397     1
  18389  18395     1
  18393  18394     1
  18394  18405     1
  18394  18395     1
  18395  18396     1
  18396  18397     1
  18396  18405     1
  18403  18405     1
  18406  18411     1
  18406  18418     1
  18406  18416     1
  18407  18426     1
  18407  18412     1
  18407  18417     1
  18410  18420     1
  18410  18428     1
  18410  18416     1
  18411  18419     1
  18412  18418     1
  18412  18420     1
  18416  18417     1
  18417  18418     1
  18417  18428     1
  18418  18419     1
  18419  18420     1
  18419  18428     1
  18426  18428     1
  18429  18434     1
  18429  18441     1
  18429  18439     1
  18430  18435     1
  18430  18440     1
  18430  18449     1
  18433  18439     1
  18433  18451     1
  18433  18443     1
  18434  18442     1
  18435  18443     1
  18435  18441     1
  18439  18440     1
  18440  18451     1
  18440  18441     1
  18441  18442     1
  18442  18443     1
  18442  18451     1
  18449  18451     1
  18452  18457     1
  18452  18464     1
  18452  18462     1
  18453  18472     1
  18453  18458     1
  18453  18463     1
  18456  18466     1
  18456  18474     1
  18456  18462     1
  18457  18465     1
  18458  18464     1
  18458  18466     1
  18462  18463     1
  18463  18464     1
  18463  18474     1
  18464  18465     1
  18465  18466     1
  18465  18474     1
  18472  18474     1
  18475  18480     1
  18475  18487     1
  18475  18485     1
  18476  18481     1
  18476  18486     1
  18476  18495     1
  18479  18485     1
  18479  18497     1
  18479  18489     1
  18480  18488     1
  18481  18489     1
  18481  18487     1
  18485  18486     1
  18486  18497     1
  18486  18487     1
  18487  18488     1
  18488  18489     1
  18488  18497     1
  18495  18497     1
  18498  18503     1
  18498  18510     1
  18498  18508     1
  18499  18518     1
  18499  18504     1
  18499  18509     1
  18502  18512     1
  18502  18520     1
  18502  18508     1
  18503  18511     1
  18504  18510     1
  18504  18512     1
  18508  18509     1
  18509  18510     1
  18509  18520     1
  18510  18511     1
  18511  18512     1
  18511  18520     1
  18518  18520     1
  18521  18526     1
  18521  18533     1
  18521  18531     1
  18522  18527     1
  18522  18532     1
  18522  18541     1
  18525  18531     1
  18525  18543     1
  18525  18535     1
  18526  18534     1
  18527  18535     1
  18527  18533     1
  18531  18532     1
  18532  18543     1
  18532  18533     1
  18533  18534     1
  18534  18535     1
  18534  18543     1
  18541  18543     1
  18544  18549     1
  18544  18556     1
  18544  18554     1
  18545  18564     1
  18545  18550     1
  18545  18555     1
  18548  18558     1
  18548  18566     1
  18548  18554     1
  18549  18557     1
  18550  18556     1
  18550  18558     1
  18554  18555     1
  18555  18556     1
  18555  18566     1
  18556  18557     1
  18557  18558     1
  18557  18566     1
  18564  18566     1
  18567  18572     1
  18567  18579     1
  18567  18577     1
  18568  18573     1
  18568  18578     1
  18568  18587     1
  18571  18577     1
  18571  18589     1
  18571  18581     1
  18572  18580     1
  18573  18581     1
  18573  18579     1
  18577  18578     1
  18578  18589     1
  18578  18579     1
  18579  18580     1
  18580  18581     1
  18580  18589     1
  18587  18589     1
  18590  18595     1
  18590  18602     1
  18590  18600     1
  18591  18610     1
  18591  18596     1
  18591  18601     1
  18594  18604     1
  18594  18612     1
  18594  18600     1
  18595  18603     1
  18596  18602     1
  18596  18604     1
  18600  18601     1
  18601  18602     1
  18601  18612     1
  18602  18603     1
  18603  18604     1
  18603  18612     1
  18610  18612     1
  18613  18618     1
  18613  18625     1
  18613  18623     1
  18614  18619     1
  18614  18624     1
  18614  18633     1
  18617  18623     1
  18617  18635     1
  18617  18627     1
  18618  18626     1
  18619  18627     1
  18619  18625     1
  18623  18624     1
  18624  18635     1
  18624  18625     1
  18625  18626     1
  18626  18627     1
  18626  18635     1
  18633  18635     1
  18636  18641     1
  18636  18648     1
  18636  18646     1
  18637  18656     1
  18637  18642     1
  18637  18647     1
  18640  18650     1
  18640  18658     1
  18640  18646     1
  18641  18649     1
  18642  18648     1
  18642  18650     1
  18646  18647     1
  18647  18648     1
  18647  18658     1
  18648  18649     1
  18649  18650     1
  18649  18658     1
  18656  18658     1
  18659  18664     1
  18659  18671     1
  18659  18669     1
  18660  18665     1
  18660  18670     1
  18660  18679     1
  18663  18669     1
  18663  18681     1
  18663  18673     1
  18664  18672     1
  18665  18673     1
  18665  18671     1
  18669  18670     1
  18670  18681     1
  18670  18671     1
  18671  18672     1
  18672  18673     1
  18672  18681     1
  18679  18681     1
  18682  18687     1
  18682  18694     1
  18682  18692     1
  18683  18702     1
  18683  18688     1
  18683  18693     1
  18686  18696     1
  18686  18704     1
  18686  18692     1
  18687  18695     1
  18688  18694     1
  18688  18696     1
  18692  18693     1
  18693  18694     1
  18693  18704     1
  18694  18695     1
  18695  18696     1
  18695  18704     1
  18702  18704     1
  18705  18710     1
  18705  18717     1
  18705  18715     1
  18706  18711     1
  18706  18716     1
  18706  18725     1
  18709  18715     1
  18709  18727     1
  18709  18719     1
  18710  18718     1
  18711  18719     1
  18711  18717     1
  18715  18716     1
  18716  18727     1
  18716  18717     1
  18717  18718     1
  18718  18719     1
  18718  18727     1
  18725  18727     1
  18728  18733     1
  18728  18740     1
  18728  18738     1
  18729  18748     1
  18729  18734     1
  18729  18739     1
  18732  18742     1
  18732  18750     1
  18732  18738     1
  18733  18741     1
  18734  18740     1
  18734  18742     1
  18738  18739     1
  18739  18740     1
  18739  18750     1
  18740  18741     1
  18741  18742     1
  18741  18750     1
  18748  18750     1
  18751  18756     1
  18751  18763     1
  18751  18761     1
  18752  18757     1
  18752  18762     1
  18752  18771     1
  18755  18761     1
  18755  18773     1
  18755  18765     1
  18756  18764     1
  18757  18765     1
  18757  18763     1
  18761  18762     1
  18762  18773     1
  18762  18763     1
  18763  18764     1
  18764  18765     1
  18764  18773     1
  18771  18773     1
  18774  18779     1
  18774  18786     1
  18774  18784     1
  18775  18794     1
  18775  18780     1
  18775  18785     1
  18778  18788     1
  18778  18796     1
  18778  18784     1
  18779  18787     1
  18780  18786     1
  18780  18788     1
  18784  18785     1
  18785  18786     1
  18785  18796     1
  18786  18787     1
  18787  18788     1
  18787  18796     1
  18794  18796     1
  18797  18802     1
  18797  18809     1
  18797  18807     1
  18798  18803     1
  18798  18808     1
  18798  18817     1
  18801  18807     1
  18801  18819     1
  18801  18811     1
  18802  18810     1
  18803  18811     1
  18803  18809     1
  18807  18808     1
  18808  18819     1
  18808  18809     1
  18809  18810     1
  18810  18811     1
  18810  18819     1
  18817  18819     1
  18820  18825     1
  18820  18832     1
  18820  18830     1
  18821  18840     1
  18821  18826     1
  18821  18831     1
  18824  18834     1
  18824  18842     1
  18824  18830     1
  18825  18833     1
  18826  18832     1
  18826  18834     1
  18830  18831     1
  18831  18832     1
  18831  18842     1
  18832  18833     1
  18833  18834     1
  18833  18842     1
  18840  18842     1
  18843  18848     1
  18843  18855     1
  18843  18853     1
  18844  18849     1
  18844  18854     1
  18844  18863     1
  18847  18853     1
  18847  18865     1
  18847  18857     1
  18848  18856     1
  18849  18857     1
  18849  18855     1
  18853  18854     1
  18854  18865     1
  18854  18855     1
  18855  18856     1
  18856  18857     1
  18856  18865     1
  18863  18865     1
  18866  18871     1
  18866  18878     1
  18866  18876     1
  18867  18886     1
  18867  18872     1
  18867  18877     1
  18870  18880     1
  18870  18888     1
  18870  18876     1
  18871  18879     1
  18872  18878     1
  18872  18880     1
  18876  18877     1
  18877  18878     1
  18877  18888     1
  18878  18879     1
  18879  18880     1
  18879  18888     1
  18886  18888     1
  18889  18894     1
  18889  18901     1
  18889  18899     1
  18890  18895     1
  18890  18900     1
  18890  18909     1
  18893  18899     1
  18893  18911     1
  18893  18903     1
  18894  18902     1
  18895  18903     1
  18895  18901     1
  18899  18900     1
  18900  18911     1
  18900  18901     1
  18901  18902     1
  18902  18903     1
  18902  18911     1
  18909  18911     1
  18912  18917     1
  18912  18924     1
  18912  18922     1
  18913  18932     1
  18913  18918     1
  18913  18923     1
  18916  18926     1
  18916  18934     1
  18916  18922     1
  18917  18925     1
  18918  18924     1
  18918  18926     1
  18922  18923     1
  18923  18924     1
  18923  18934     1
  18924  18925     1
  18925  18926     1
  18925  18934     1
  18932  18934     1
  18935  18940     1
  18935  18947     1
  18935  18945     1
  18936  18941     1
  18936  18946     1
  18936  18955     1
  18939  18945     1
  18939  18957     1
  18939  18949     1
  18940  18948     1
  18941  18949     1
  18941  18947     1
  18945  18946     1
  18946  18957     1
  18946  18947     1
  18947  18948     1
  18948  18949     1
  18948  18957     1
  18955  18957     1
  18958  18963     1
  18958  18970     1
  18958  18968     1
  18959  18978     1
  18959  18964     1
  18959  18969     1
  18962  18972     1
  18962  18980     1
  18962  18968     1
  18963  18971     1
  18964  18970     1
  18964  18972     1
  18968  18969     1
  18969  18970     1
  18969  18980     1
  18970  18971     1
  18971  18972     1
  18971  18980     1
  18978  18980     1
  18981  18986     1
  18981  18993     1
  18981  18991     1
  18982  18987     1
  18982  18992     1
  18982  19001     1
  18985  18991     1
  18985  19003     1
  18985  18995     1
  18986  18994     1
  18987  18995     1
  18987  18993     1
  18991  18992     1
  18992  19003     1
  18992  18993     1
  18993  18994     1
  18994  18995     1
  18994  19003     1
  19001  19003     1
  19004  19009     1
  19004  19016     1
  19004  19014     1
  19005  19024     1
  19005  19010     1
  19005  19015     1
  19008  19018     1
  19008  19026     1
  19008  19014     1
  19009  19017     1
  19010  19016     1
  19010  19018     1
  19014  19015     1
  19015  19016     1
  19015  19026     1
  19016  19017     1
  19017  19018     1
  19017  19026     1
  19024  19026     1
  19027  19032     1
  19027  19039     1
  19027  19037     1
  19028  19033     1
  19028  19038     1
  19028  19047     1
  19031  19037     1
  19031  19049     1
  19031  19041     1
  19032  19040     1
  19033  19041     1
  19033  19039     1
  19037  19038     1
  19038  19049     1
  19038  19039     1
  19039  19040     1
  19040  19041     1
  19040  19049     1
  19047  19049     1
  19050  19055     1
  19050  19062     1
  19050  19060     1
  19051  19070     1
  19051  19056     1
  19051  19061     1
  19054  19064     1
  19054  19072     1
  19054  19060     1
  19055  19063     1
  19056  19062     1
  19056  19064     1
  19060  19061     1
  19061  19062     1
  19061  19072     1
  19062  19063     1
  19063  19064     1
  19063  19072     1
  19070  19072     1
  19073  19078     1
  19073  19085     1
  19073  19083     1
  19074  19079     1
  19074  19084     1
  19074  19093     1
  19077  19083     1
  19077  19095     1
  19077  19087     1
  19078  19086     1
  19079  19087     1
  19079  19085     1
  19083  19084     1
  19084  19095     1
  19084  19085     1
  19085  19086     1
  19086  19087     1
  19086  19095     1
  19093  19095     1
  19096  19101     1
  19096  19108     1
  19096  19106     1
  19097  19116     1
  19097  19102     1
  19097  19107     1
  19100  19110     1
  19100  19118     1
  19100  19106     1
  19101  19109     1
  19102  19108     1
  19102  19110     1
  19106  19107     1
  19107  19108     1
  19107  19118     1
  19108  19109     1
  19109  19110     1
  19109  19118     1
  19116  19118     1
  19119  19124     1
  19119  19131     1
  19119  19129     1
  19120  19125     1
  19120  19130     1
  19120  19139     1
  19123  19129     1
  19123  19141     1
  19123  19133     1
  19124  19132     1
  19125  19133     1
  19125  19131     1
  19129  19130     1
  19130  19141     1
  19130  19131     1
  19131  19132     1
  19132  19133     1
  19132  19141     1
  19139  19141     1
  19142  19147     1
  19142  19154     1
  19142  19152     1
  19143  19162     1
  19143  19148     1
  19143  19153     1
  19146  19156     1
  19146  19164     1
  19146  19152     1
  19147  19155     1
  19148  19154     1
  19148  19156     1
  19152  19153     1
  19153  19154     1
  19153  19164     1
  19154  19155     1
  19155  19156     1
  19155  19164     1
  19162  19164     1
  19165  19170     1
  19165  19177     1
  19165  19175     1
  19166  19171     1
  19166  19176     1
  19166  19185     1
  19169  19175     1
  19169  19187     1
  19169  19179     1
  19170  19178     1
  19171  19179     1
  19171  19177     1
  19175  19176     1
  19176  19187     1
  19176  19177     1
  19177  19178     1
  19178  19179     1
  19178  19187     1
  19185  19187     1
  19188  19193     1
  19188  19200     1
  19188  19198     1
  19189  19208     1
  19189  19194     1
  19189  19199     1
  19192  19202     1
  19192  19210     1
  19192  19198     1
  19193  19201     1
  19194  19200     1
  19194  19202     1
  19198  19199     1
  19199  19200     1
  19199  19210     1
  19200  19201     1
  19201  19202     1
  19201  19210     1
  19208  19210     1
  19211  19216     1
  19211  19223     1
  19211  19221     1
  19212  19217     1
  19212  19222     1
  19212  19231     1
  19215  19221     1
  19215  19233     1
  19215  19225     1
  19216  19224     1
  19217  19225     1
  19217  19223     1
  19221  19222     1
  19222  19233     1
  19222  19223     1
  19223  19224     1
  19224  19225     1
  19224  19233     1
  19231  19233     1
  19234  19239     1
  19234  19246     1
  19234  19244     1
  19235  19254     1
  19235  19240     1
  19235  19245     1
  19238  19248     1
  19238  19256     1
  19238  19244     1
  19239  19247     1
  19240  19246     1
  19240  19248     1
  19244  19245     1
  19245  19246     1
  19245  19256     1
  19246  19247     1
  19247  19248     1
  19247  19256     1
  19254  19256     1
  19257  19262     1
  19257  19269     1
  19257  19267     1
  19258  19263     1
  19258  19268     1
  19258  19277     1
  19261  19267     1
  19261  19279     1
  19261  19271     1
  19262  19270     1
  19263  19271     1
  19263  19269     1
  19267  19268     1
  19268  19279     1
  19268  19269     1
  19269  19270     1
  19270  19271     1
  19270  19279     1
  19277  19279     1
  19280  19285     1
  19280  19292     1
  19280  19290     1
  19281  19300     1
  19281  19286     1
  19281  19291     1
  19284  19294     1
  19284  19302     1
  19284  19290     1
  19285  19293     1
  19286  19292     1
  19286  19294     1
  19290  19291     1
  19291  19292     1
  19291  19302     1
  19292  19293     1
  19293  19294     1
  19293  19302     1
  19300  19302     1
  19303  19308     1
  19303  19315     1
  19303  19313     1
  19304  19309     1
  19304  19314     1
  19304  19323     1
  19307  19313     1
  19307  19325     1
  19307  19317     1
  19308  19316     1
  19309  19317     1
  19309  19315     1
  19313  19314     1
  19314  19325     1
  19314  19315     1
  19315  19316     1
  19316  19317     1
  19316  19325     1
  19323  19325     1
  19326  19331     1
  19326  19338     1
  19326  19336     1
  19327  19346     1
  19327  19332     1
  19327  19337     1
  19330  19340     1
  19330  19348     1
  19330  19336     1
  19331  19339     1
  19332  19338     1
  19332  19340     1
  19336  19337     1
  19337  19338     1
  19337  19348     1
  19338  19339     1
  19339  19340     1
  19339  19348     1
  19346  19348     1
  19349  19354     1
  19349  19361     1
  19349  19359     1
  19350  19355     1
  19350  19360     1
  19350  19369     1
  19353  19359     1
  19353  19371     1
  19353  19363     1
  19354  19362     1
  19355  19363     1
  19355  19361     1
  19359  19360     1
  19360  19371     1
  19360  19361     1
  19361  19362     1
  19362  19363     1
  19362  19371     1
  19369  19371     1
  19372  19377     1
  19372  19384     1
  19372  19382     1
  19373  19392     1
  19373  19378     1
  19373  19383     1
  19376  19386     1
  19376  19394     1
  19376  19382     1
  19377  19385     1
  19378  19384     1
  19378  19386     1
  19382  19383     1
  19383  19384     1
  19383  19394     1
  19384  19385     1
  19385  19386     1
  19385  19394     1
  19392  19394     1
  19395  19400     1
  19395  19407     1
  19395  19405     1
  19396  19401     1
  19396  19406     1
  19396  19415     1
  19399  19405     1
  19399  19417     1
  19399  19409     1
  19400  19408     1
  19401  19409     1
  19401  19407     1
  19405  19406     1
  19406  19417     1
  19406  19407     1
  19407  19408     1
  19408  19409     1
  19408  19417     1
  19415  19417     1
  19418  19423     1
  19418  19430     1
  19418  19428     1
  19419  19438     1
  19419  19424     1
  19419  19429     1
  19422  19432     1
  19422  19440     1
  19422  19428     1
  19423  19431     1
  19424  19430     1
  19424  19432     1
  19428  19429     1
  19429  19430     1
  19429  19440     1
  19430  19431     1
  19431  19432     1
  19431  19440     1
  19438  19440     1
  19441  19446     1
  19441  19453     1
  19441  19451     1
  19442  19447     1
  19442  19452     1
  19442  19461     1
  19445  19451     1
  19445  19463     1
  19445  19455     1
  19446  19454     1
  19447  19455     1
  19447  19453     1
  19451  19452     1
  19452  19463     1
  19452  19453     1
  19453  19454     1
  19454  19455     1
  19454  19463     1
  19461  19463     1
  19464  19469     1
  19464  19476     1
  19464  19474     1
  19465  19484     1
  19465  19470     1
  19465  19475     1
  19468  19478     1
  19468  19486     1
  19468  19474     1
  19469  19477     1
  19470  19476     1
  19470  19478     1
  19474  19475     1
  19475  19476     1
  19475  19486     1
  19476  19477     1
  19477  19478     1
  19477  19486     1
  19484  19486     1
  19487  19492     1
  19487  19499     1
  19487  19497     1
  19488  19493     1
  19488  19498     1
  19488  19507     1
  19491  19497     1
  19491  19509     1
  19491  19501     1
  19492  19500     1
  19493  19501     1
  19493  19499     1
  19497  19498     1
  19498  19509     1
  19498  19499     1
  19499  19500     1
  19500  19501     1
  19500  19509     1
  19507  19509     1
  19510  19515     1
  19510  19522     1
  19510  19520     1
  19511  19530     1
  19511  19516     1
  19511  19521     1
  19514  19524     1
  19514  19532     1
  19514  19520     1
  19515  19523     1
  19516  19522     1
  19516  19524     1
  19520  19521     1
  19521  19522     1
  19521  19532     1
  19522  19523     1
  19523  19524     1
  19523  19532     1
  19530  19532     1
  19533  19538     1
  19533  19545     1
  19533  19543     1
  19534  19539     1
  19534  19544     1
  19534  19553     1
  19537  19543     1
  19537  19555     1
  19537  19547     1
  19538  19546     1
  19539  19547     1
  19539  19545     1
  19543  19544     1
  19544  19555     1
  19544  19545     1
  19545  19546     1
  19546  19547     1
  19546  19555     1
  19553  19555     1
  19556  19561     1
  19556  19568     1
  19556  19566     1
  19557  19576     1
  19557  19562     1
  19557  19567     1
  19560  19570     1
  19560  19578     1
  19560  19566     1
  19561  19569     1
  19562  19568     1
  19562  19570     1
  19566  19567     1
  19567  19568     1
  19567  19578     1
  19568  19569     1
  19569  19570     1
  19569  19578     1
  19576  19578     1
  19579  19584     1
  19579  19591     1
  19579  19589     1
  19580  19585     1
  19580  19590     1
  19580  19599     1
  19583  19589     1
  19583  19601     1
  19583  19593     1
  19584  19592     1
  19585  19593     1
  19585  19591     1
  19589  19590     1
  19590  19601     1
  19590  19591     1
  19591  19592     1
  19592  19593     1
  19592  19601     1
  19599  19601     1
  19602  19607     1
  19602  19614     1
  19602  19612     1
  19603  19622     1
  19603  19608     1
  19603  19613     1
  19606  19616     1
  19606  19624     1
  19606  19612     1
  19607  19615     1
  19608  19614     1
  19608  19616     1
  19612  19613     1
  19613  19614     1
  19613  19624     1
  19614  19615     1
  19615  19616     1
  19615  19624     1
  19622  19624     1
  19625  19630     1
  19625  19637     1
  19625  19635     1
  19626  19631     1
  19626  19636     1
  19626  19645     1
  19629  19635     1
  19629  19647     1
  19629  19639     1
  19630  19638     1
  19631  19639     1
  19631  19637     1
  19635  19636     1
  19636  19647     1
  19636  19637     1
  19637  19638     1
  19638  19639     1
  19638  19647     1
  19645  19647     1
  19648  19653     1
  19648  19660     1
  19648  19658     1
  19649  19668     1
  19649  19654     1
  19649  19659     1
  19652  19662     1
  19652  19670     1
  19652  19658     1
  19653  19661     1
  19654  19660     1
  19654  19662     1
  19658  19659     1
  19659  19660     1
  19659  19670     1
  19660  19661     1
  19661  19662     1
  19661  19670     1
  19668  19670     1
  19671  19676     1
  19671  19683     1
  19671  19681     1
  19672  19677     1
  19672  19682     1
  19672  19691     1
  19675  19681     1
  19675  19693     1
  19675  19685     1
  19676  19684     1
  19677  19685     1
  19677  19683     1
  19681  19682     1
  19682  19693     1
  19682  19683     1
  19683  19684     1
  19684  19685     1
  19684  19693     1
  19691  19693     1
  19694  19699     1
  19694  19706     1
  19694  19704     1
  19695  19714     1
  19695  19700     1
  19695  19705     1
  19698  19708     1
  19698  19716     1
  19698  19704     1
  19699  19707     1
  19700  19706     1
  19700  19708     1
  19704  19705     1
  19705  19706     1
  19705  19716     1
  19706  19707     1
  19707  19708     1
  19707  19716     1
  19714  19716     1
  19717  19722     1
  19717  19729     1
  19717  19727     1
  19718  19723     1
  19718  19728     1
  19718  19737     1
  19721  19727     1
  19721  19739     1
  19721  19731     1
  19722  19730     1
  19723  19731     1
  19723  19729     1
  19727  19728     1
  19728  19739     1
  19728  19729     1
  19729  19730     1
  19730  19731     1
  19730  19739     1
  19737  19739     1
  19740  19745     1
  19740  19752     1
  19740  19750     1
  19741  19760     1
  19741  19746     1
  19741  19751     1
  19744  19754     1
  19744  19762     1
  19744  19750     1
  19745  19753     1
  19746  19752     1
  19746  19754     1
  19750  19751     1
  19751  19752     1
  19751  19762     1
  19752  19753     1
  19753  19754     1
  19753  19762     1
  19760  19762     1
  19763  19768     1
  19763  19775     1
  19763  19773     1
  19764  19769     1
  19764  19774     1
  19764  19783     1
  19767  19773     1
  19767  19785     1
  19767  19777     1
  19768  19776     1
  19769  19777     1
  19769  19775     1
  19773  19774     1
  19774  19785     1
  19774  19775     1
  19775  19776     1
  19776  19777     1
  19776  19785     1
  19783  19785     1
  19786  19791     1
  19786  19798     1
  19786  19796     1
  19787  19806     1
  19787  19792     1
  19787  19797     1
  19790  19800     1
  19790  19808     1
  19790  19796     1
  19791  19799     1
  19792  19798     1
  19792  19800     1
  19796  19797     1
  19797  19798     1
  19797  19808     1
  19798  19799     1
  19799  19800     1
  19799  19808     1
  19806  19808     1
  19809  19814     1
  19809  19821     1
  19809  19819     1
  19810  19815     1
  19810  19820     1
  19810  19829     1
  19813  19819     1
  19813  19831     1
  19813  19823     1
  19814  19822     1
  19815  19823     1
  19815  19821     1
  19819  19820     1
  19820  19831     1
  19820  19821     1
  19821  19822     1
  19822  19823     1
  19822  19831     1
  19829  19831     1
  19832  19837     1
  19832  19844     1
  19832  19842     1
  19833  19852     1
  19833  19838     1
  19833  19843     1
  19836  19846     1
  19836  19854     1
  19836  19842     1
  19837  19845     1
  19838  19844     1
  19838  19846     1
  19842  19843     1
  19843  19844     1
  19843  19854     1
  19844  19845     1
  19845  19846     1
  19845  19854     1
  19852  19854     1
  19855  19860     1
  19855  19867     1
  19855  19865     1
  19856  19861     1
  19856  19866     1
  19856  19875     1
  19859  19865     1
  19859  19877     1
  19859  19869     1
  19860  19868     1
  19861  19869     1
  19861  19867     1
  19865  19866     1
  19866  19877     1
  19866  19867     1
  19867  19868     1
  19868  19869     1
  19868  19877     1
  19875  19877     1
  19878  19883     1
  19878  19890     1
  19878  19888     1
  19879  19898     1
  19879  19884     1
  19879  19889     1
  19882  19892     1
  19882  19900     1
  19882  19888     1
  19883  19891     1
  19884  19890     1
  19884  19892     1
  19888  19889     1
  19889  19890     1
  19889  19900     1
  19890  19891     1
  19891  19892     1
  19891  19900     1
  19898  19900     1
  19901  19906     1
  19901  19913     1
  19901  19911     1
  19902  19907     1
  19902  19912     1
  19902  19921     1
  19905  19911     1
  19905  19923     1
  19905  19915     1
  19906  19914     1
  19907  19915     1
  19907  19913     1
  19911  19912     1
  19912  19923     1
  19912  19913     1
  19913  19914     1
  19914  19915     1
  19914  19923     1
  19921  19923     1
  19924  19929     1
  19924  19936     1
  19924  19934     1
  19925  19944     1
  19925  19930     1
  19925  19935     1
  19928  19938     1
  19928  19946     1
  19928  19934     1
  19929  19937     1
  19930  19936     1
  19930  19938     1
  19934  19935     1
  19935  19936     1
  19935  19946     1
  19936  19937     1
  19937  19938     1
  19937  19946     1
  19944  19946     1
  19947  19952     1
  19947  19959     1
  19947  19957     1
  19948  19953     1
  19948  19958     1
  19948  19967     1
  19951  19957     1
  19951  19969     1
  19951  19961     1
  19952  19960     1
  19953  19961     1
  19953  19959     1
  19957  19958     1
  19958  19969     1
  19958  19959     1
  19959  19960     1
  19960  19961     1
  19960  19969     1
  19967  19969     1
  19970  19975     1
  19970  19982     1
  19970  19980     1
  19971  19990     1
  19971  19976     1
  19971  19981     1
  19974  19984     1
  19974  19992     1
  19974  19980     1
  19975  19983     1
  19976  19982     1
  19976  19984     1
  19980  19981     1
  19981  19982     1
  19981  19992     1
  19982  19983     1
  19983  19984     1
  19983  19992     1
  19990  19992     1
  19993  19998     1
  19993  20005     1
  19993  20003     1
  19994  19999     1
  19994  20004     1
  19994  20013     1
  19997  20003     1
  19997  20015     1
  19997  20007     1
  19998  20006     1
  19999  20007     1
  19999  20005     1
  20003  20004     1
  20004  20015     1
  20004  20005     1
  20005  20006     1
  20006  20007     1
  20006  20015     1
  20013  20015     1
  20016  20021     1
  20016  20028     1
  20016  20026     1
  20017  20036     1
  20017  20022     1
  20017  20027     1
  20020  20030     1
  20020  20038     1
  20020  20026     1
  20021  20029     1
  20022  20028     1
  20022  20030     1
  20026  20027     1
  20027  20028     1
  20027  20038     1
  20028  20029     1
  20029  20030     1
  20029  20038     1
  20036  20038     1
  20039  20044     1
  20039  20051     1
  20039  20049     1
  20040  20045     1
  20040  20050     1
  20040  20059     1
  20043  20049     1
  20043  20061     1
  20043  20053     1
  20044  20052     1
  20045  20053     1
  20045  20051     1
  20049  20050     1
  20050  20061     1
  20050  20051     1
  20051  20052     1
  20052  20053     1
  20052  20061     1
  20059  20061     1
  20062  20067     1
  20062  20074     1
  20062  20072     1
  20063  20082     1
  20063  20068     1
  20063  20073     1
  20066  20076     1
  20066  20084     1
  20066  20072     1
  20067  20075     1
  20068  20074     1
  20068  20076     1
  20072  20073     1
  20073  20074     1
  20073  20084     1
  20074  20075     1
  20075  20076     1
  20075  20084     1
  20082  20084     1
  20085  20090     1
  20085  20097     1
  20085  20095     1
  20086  20091     1
  20086  20096     1
  20086  20105     1
  20089  20095     1
  20089  20107     1
  20089  20099     1
  20090  20098     1
  20091  20099     1
  20091  20097     1
  20095  20096     1
  20096  20107     1
  20096  20097     1
  20097  20098     1
  20098  20099     1
  20098  20107     1
  20105  20107     1
  20108  20113     1
  20108  20120     1
  20108  20118     1
  20109  20128     1
  20109  20114     1
  20109  20119     1
  20112  20122     1
  20112  20130     1
  20112  20118     1
  20113  20121     1
  20114  20120     1
  20114  20122     1
  20118  20119     1
  20119  20120     1
  20119  20130     1
  20120  20121     1
  20121  20122     1
  20121  20130     1
  20128  20130     1
  20131  20136     1
  20131  20143     1
  20131  20141     1
  20132  20137     1
  20132  20142     1
  20132  20151     1
  20135  20141     1
  20135  20153     1
  20135  20145     1
  20136  20144     1
  20137  20145     1
  20137  20143     1
  20141  20142     1
  20142  20153     1
  20142  20143     1
  20143  20144     1
  20144  20145     1
  20144  20153     1
  20151  20153     1
  20154  20159     1
  20154  20166     1
  20154  20164     1
  20155  20174     1
  20155  20160     1
  20155  20165     1
  20158  20168     1
  20158  20176     1
  20158  20164     1
  20159  20167     1
  20160  20166     1
  20160  20168     1
  20164  20165     1
  20165  20166     1
  20165  20176     1
  20166  20167     1
  20167  20168     1
  20167  20176     1
  20174  20176     1
  20177  20182     1
  20177  20189     1
  20177  20187     1
  20178  20183     1
  20178  20188     1
  20178  20197     1
  20181  20187     1
  20181  20199     1
  20181  20191     1
  20182  20190     1
  20183  20191     1
  20183  20189     1
  20187  20188     1
  20188  20199     1
  20188  20189     1
  20189  20190     1
  20190  20191     1
  20190  20199     1
  20197  20199     1
  20200  20205     1
  20200  20212     1
  20200  20210     1
  20201  20220     1
  20201  20206     1
  20201  20211     1
  20204  20214     1
  20204  20222     1
  20204  20210     1
  20205  20213     1
  20206  20212     1
  20206  20214     1
  20210  20211     1
  20211  20212     1
  20211  20222     1
  20212  20213     1
  20213  20214     1
  20213  20222     1
  20220  20222     1
  20223  20228     1
  20223  20235     1
  20223  20233     1
  20224  20229     1
  20224  20234     1
  20224  20243     1
  20227  20233     1
  20227  20245     1
  20227  20237     1
  20228  20236     1
  20229  20237     1
  20229  20235     1
  20233  20234     1
  20234  20245     1
  20234  20235     1
  20235  20236     1
  20236  20237     1
  20236  20245     1
  20243  20245     1
  20246  20251     1
  20246  20258     1
  20246  20256     1
  20247  20266     1
  20247  20252     1
  20247  20257     1
  20250  20260     1
  20250  20268     1
  20250  20256     1
  20251  20259     1
  20252  20258     1
  20252  20260     1
  20256  20257     1
  20257  20258     1
  20257  20268     1
  20258  20259     1
  20259  20260     1
  20259  20268     1
  20266  20268     1
  20269  20274     1
  20269  20281     1
  20269  20279     1
  20270  20275     1
  20270  20280     1
  20270  20289     1
  20273  20279     1
  20273  20291     1
  20273  20283     1
  20274  20282     1
  20275  20283     1
  20275  20281     1
  20279  20280     1
  20280  20291     1
  20280  20281     1
  20281  20282     1
  20282  20283     1
  20282  20291     1
  20289  20291     1
      1     15     1
      1     16     1
      1     18     1
      1     19     1
      1     12     1
      1     13     1
      2      6     1
      2      7     1
      2      9     1
      2     10     1
      2     27     1
      2     28     1
      5      3     1
      8      3     1
     29      3     1
      3     26     1
      3     15     1
      3     16     1
      5      4     1
      8      4     1
     29      4     1
      4     26     1
      4     15     1
      4     16     1
      5      9     1
      5     10     1
      5     21     1
      5     22     1
      8      6     1
     29      6     1
      6     20     1
      6     18     1
      6     19     1
      8      7     1
     29      7     1
      7     20     1
      7     18     1
      7     19     1
      8     24     1
      8     25     1
     29      9     1
      9     23     1
      9     12     1
      9     13     1
     29     10     1
     10     23     1
     10     12     1
     10     13     1
     29     11     1
     12     88     1
     12     24     1
     12     25     1
     13     88     1
     13     24     1
     13     25     1
     29     14     1
     15    118     1
     15     27     1
     15     28     1
     16    118     1
     16     27     1
     16     28     1
     29     17     1
     18     58     1
     18     21     1
     18     22     1
     19     58     1
     19     21     1
     19     22     1
     20     50     1
     20     51     1
     21     49     1
     22     49     1
     23     80     1
     23     81     1
     24     79     1
     25     79     1
     26    110     1
     26    111     1
     27    109     1
     28    109     1
     30     44     1
     30     45     1
     30     47     1
     30     48     1
     30     41     1
     30     42     1
     31     35     1
     31     36     1
     31     38     1
     31     39     1
     31     56     1
     31     57     1
     32     34     1
     32     37     1
     32     59     1
     32     55     1
     32     44     1
     32     45     1
     33     34     1
     33     37     1
     33     59     1
     33     55     1
     33     44     1
     33     45     1
     34     38     1
     34     39     1
     34     53     1
     34     54     1
     35     37     1
     35     59     1
     35     52     1
     35     47     1
     35     48     1
     36     37     1
     36     59     1
     36     52     1
     36     47     1
     36     48     1
     37     50     1
     37     51     1
     38     59     1
     38     49     1
     38     41     1
     38     42     1
     39     59     1
     39     49     1
     39     41     1
     39     42     1
     40     59     1
     41     58     1
     41     50     1
     41     51     1
     42     58     1
     42     50     1
     42     51     1
     43     59     1
     44    178     1
     44     56     1
     44     57     1
     45    178     1
     45     56     1
     45     57     1
     46     59     1
     47    148     1
     47     53     1
     47     54     1
     48    148     1
     48     53     1
     48     54     1
     52    140     1
     52    141     1
     53    139     1
     54    139     1
     55    170     1
     55    171     1
     56    169     1
     57    169     1
     60     74     1
     60     75     1
     60     77     1
     60     78     1
     60     71     1
     60     72     1
     61     65     1
     61     66     1
     61     68     1
     61     69     1
     61     86     1
     61     87     1
     62     64     1
     62     67     1
     62     89     1
     62     85     1
     62     74     1
     62     75     1
     63     64     1
     63     67     1
     63     89     1
     63     85     1
     63     74     1
     63     75     1
     64     68     1
     64     69     1
     64     83     1
     64     84     1
     65     67     1
     65     89     1
     65     82     1
     65     77     1
     65     78     1
     66     67     1
     66     89     1
     66     82     1
     66     77     1
     66     78     1
     67     80     1
     67     81     1
     68     89     1
     68     79     1
     68     71     1
     68     72     1
     69     89     1
     69     79     1
     69     71     1
     69     72     1
     70     89     1
     71     88     1
     71     80     1
     71     81     1
     72     88     1
     72     80     1
     72     81     1
     73     89     1
     74    238     1
     74     86     1
     74     87     1
     75    238     1
     75     86     1
     75     87     1
     76     89     1
     77    208     1
     77     83     1
     77     84     1
     78    208     1
     78     83     1
     78     84     1
     82    200     1
     82    201     1
     83    199     1
     84    199     1
     85    230     1
     85    231     1
     86    229     1
     87    229     1
     90    104     1
     90    105     1
     90    107     1
     90    108     1
     90    101     1
     90    102     1
     91     95     1
     91     96     1
     91     98     1
     91     99     1
     91    116     1
     91    117     1
     92     94     1
     92     97     1
     92    119     1
     92    115     1
     92    104     1
     92    105     1
     93     94     1
     93     97     1
     93    119     1
     93    115     1
     93    104     1
     93    105     1
     94     98     1
     94     99     1
     94    113     1
     94    114     1
     95     97     1
     95    119     1
     95    112     1
     95    107     1
     95    108     1
     96     97     1
     96    119     1
     96    112     1
     96    107     1
     96    108     1
     97    110     1
     97    111     1
     98    119     1
     98    109     1
     98    101     1
     98    102     1
     99    119     1
     99    109     1
     99    101     1
     99    102     1
    100    119     1
    101    118     1
    101    110     1
    101    111     1
    102    118     1
    102    110     1
    102    111     1
    103    119     1
    104    298     1
    104    116     1
    104    117     1
    105    298     1
    105    116     1
    105    117     1
    106    119     1
    107    268     1
    107    113     1
    107    114     1
    108    268     1
    108    113     1
    108    114     1
    112    260     1
    112    261     1
    113    259     1
    114    259     1
    115    290     1
    115    291     1
    116    289     1
    117    289     1
    120    134     1
    120    135     1
    120    137     1
    120    138     1
    120    131     1
    120    132     1
    121    125     1
    121    126     1
    121    128     1
    121    129     1
    121    146     1
    121    147     1
    122    124     1
    122    127     1
    122    149     1
    122    145     1
    122    134     1
    122    135     1
    123    124     1
    123    127     1
    123    149     1
    123    145     1
    123    134     1
    123    135     1
    124    128     1
    124    129     1
    124    143     1
    124    144     1
    125    127     1
    125    149     1
    125    142     1
    125    137     1
    125    138     1
    126    127     1
    126    149     1
    126    142     1
    126    137     1
    126    138     1
    127    140     1
    127    141     1
    128    149     1
    128    139     1
    128    131     1
    128    132     1
    129    149     1
    129    139     1
    129    131     1
    129    132     1
    130    149     1
    131    148     1
    131    140     1
    131    141     1
    132    148     1
    132    140     1
    132    141     1
    133    149     1
    134    358     1
    134    146     1
    134    147     1
    135    358     1
    135    146     1
    135    147     1
    136    149     1
    137    328     1
    137    143     1
    137    144     1
    138    328     1
    138    143     1
    138    144     1
    142    320     1
    142    321     1
    143    319     1
    144    319     1
    145    350     1
    145    351     1
    146    349     1
    147    349     1
    150    164     1
    150    165     1
    150    167     1
    150    168     1
    150    161     1
    150    162     1
    151    155     1
    151    156     1
    151    158     1
    151    159     1
    151    176     1
    151    177     1
    152    154     1
    152    157     1
    152    179     1
    152    175     1
    152    164     1
    152    165     1
    153    154     1
    153    157     1
    153    179     1
    153    175     1
    153    164     1
    153    165     1
    154    158     1
    154    159     1
    154    173     1
    154    174     1
    155    157     1
    155    179     1
    155    172     1
    155    167     1
    155    168     1
    156    157     1
    156    179     1
    156    172     1
    156    167     1
    156    168     1
    157    170     1
    157    171     1
    158    179     1
    158    169     1
    158    161     1
    158    162     1
    159    179     1
    159    169     1
    159    161     1
    159    162     1
    160    179     1
    161    178     1
    161    170     1
    161    171     1
    162    178     1
    162    170     1
    162    171     1
    163    179     1
    164    418     1
    164    176     1
    164    177     1
    165    418     1
    165    176     1
    165    177     1
    166    179     1
    167    388     1
    167    173     1
    167    174     1
    168    388     1
    168    173     1
    168    174     1
    172    380     1
    172    381     1
    173    379     1
    174    379     1
    175    410     1
    175    411     1
    176    409     1
    177    409     1
    180    194     1
    180    195     1
    180    197     1
    180    198     1
    180    191     1
    180    192     1
    181    185     1
    181    186     1
    181    188     1
    181    189     1
    181    206     1
    181    207     1
    182    184     1
    182    187     1
    182    209     1
    182    205     1
    182    194     1
    182    195     1
    183    184     1
    183    187     1
    183    209     1
    183    205     1
    183    194     1
    183    195     1
    184    188     1
    184    189     1
    184    203     1
    184    204     1
    185    187     1
    185    209     1
    185    202     1
    185    197     1
    185    198     1
    186    187     1
    186    209     1
    186    202     1
    186    197     1
    186    198     1
    187    200     1
    187    201     1
    188    209     1
    188    199     1
    188    191     1
    188    192     1
    189    209     1
    189    199     1
    189    191     1
    189    192     1
    190    209     1
    191    208     1
    191    200     1
    191    201     1
    192    208     1
    192    200     1
    192    201     1
    193    209     1
    194    478     1
    194    206     1
    194    207     1
    195    478     1
    195    206     1
    195    207     1
    196    209     1
    197    448     1
    197    203     1
    197    204     1
    198    448     1
    198    203     1
    198    204     1
    202    440     1
    202    441     1
    203    439     1
    204    439     1
    205    470     1
    205    471     1
    206    469     1
    207    469     1
    210    224     1
    210    225     1
    210    227     1
    210    228     1
    210    221     1
    210    222     1
    211    215     1
    211    216     1
    211    218     1
    211    219     1
    211    236     1
    211    237     1
    212    214     1
    212    217     1
    212    239     1
    212    235     1
    212    224     1
    212    225     1
    213    214     1
    213    217     1
    213    239     1
    213    235     1
    213    224     1
    213    225     1
    214    218     1
    214    219     1
    214    233     1
    214    234     1
    215    217     1
    215    239     1
    215    232     1
    215    227     1
    215    228     1
    216    217     1
    216    239     1
    216    232     1
    216    227     1
    216    228     1
    217    230     1
    217    231     1
    218    239     1
    218    229     1
    218    221     1
    218    222     1
    219    239     1
    219    229     1
    219    221     1
    219    222     1
    220    239     1
    221    238     1
    221    230     1
    221    231     1
    222    238     1
    222    230     1
    222    231     1
    223    239     1
    224    538     1
    224    236     1
    224    237     1
    225    538     1
    225    236     1
    225    237     1
    226    239     1
    227    508     1
    227    233     1
    227    234     1
    228    508     1
    228    233     1
    228    234     1
    232    500     1
    232    501     1
    233    499     1
    234    499     1
    235    530     1
    235    531     1
    236    529     1
    237    529     1
    240    254     1
    240    255     1
    240    257     1
    240    258     1
    240    251     1
    240    252     1
    241    245     1
    241    246     1
    241    248     1
    241    249     1
    241    266     1
    241    267     1
    242    244     1
    242    247     1
    242    269     1
    242    265     1
    242    254     1
    242    255     1
    243    244     1
    243    247     1
    243    269     1
    243    265     1
    243    254     1
    243    255     1
    244    248     1
    244    249     1
    244    263     1
    244    264     1
    245    247     1
    245    269     1
    245    262     1
    245    257     1
    245    258     1
    246    247     1
    246    269     1
    246    262     1
    246    257     1
    246    258     1
    247    260     1
    247    261     1
    248    269     1
    248    259     1
    248    251     1
    248    252     1
    249    269     1
    249    259     1
    249    251     1
    249    252     1
    250    269     1
    251    268     1
    251    260     1
    251    261     1
    252    268     1
    252    260     1
    252    261     1
    253    269     1
    254    598     1
    254    266     1
    254    267     1
    255    598     1
    255    266     1
    255    267     1
    256    269     1
    257    568     1
    257    263     1
    257    264     1
    258    568     1
    258    263     1
    258    264     1
    262    560     1
    262    561     1
    263    559     1
    264    559     1
    265    590     1
    265    591     1
    266    589     1
    267    589     1
    270    284     1
    270    285     1
    270    287     1
    270    288     1
    270    281     1
    270    282     1
    271    275     1
    271    276     1
    271    278     1
    271    279     1
    271    296     1
    271    297     1
    272    274     1
    272    277     1
    272    299     1
    272    295     1
    272    284     1
    272    285     1
    273    274     1
    273    277     1
    273    299     1
    273    295     1
    273    284     1
    273    285     1
    274    278     1
    274    279     1
    274    293     1
    274    294     1
    275    277     1
    275    299     1
    275    292     1
    275    287     1
    275    288     1
    276    277     1
    276    299     1
    276    292     1
    276    287     1
    276    288     1
    277    290     1
    277    291     1
    278    299     1
    278    289     1
    278    281     1
    278    282     1
    279    299     1
    279    289     1
    279    281     1
    279    282     1
    280    299     1
    281    298     1
    281    290     1
    281    291     1
    282    298     1
    282    290     1
    282    291     1
    283    299     1
    284    658     1
    284    296     1
    284    297     1
    285    658     1
    285    296     1
    285    297     1
    286    299     1
    287    628     1
    287    293     1
    287    294     1
    288    628     1
    288    293     1
    288    294     1
    292    620     1
    292    621     1
    293    619     1
    294    619     1
    295    650     1
    295    651     1
    296    649     1
    297    649     1
    300    314     1
    300    315     1
    300    317     1
    300    318     1
    300    311     1
    300    312     1
    301    305     1
    301    306     1
    301    308     1
    301    309     1
    301    326     1
    301    327     1
    302    304     1
    302    307     1
    302    329     1
    302    325     1
    302    314     1
    302    315     1
    303    304     1
    303    307     1
    303    329     1
    303    325     1
    303    314     1
    303    315     1
    304    308     1
    304    309     1
    304    323     1
    304    324     1
    305    307     1
    305    329     1
    305    322     1
    305    317     1
    305    318     1
    306    307     1
    306    329     1
    306    322     1
    306    317     1
    306    318     1
    307    320     1
    307    321     1
    308    329     1
    308    319     1
    308    311     1
    308    312     1
    309    329     1
    309    319     1
    309    311     1
    309    312     1
    310    329     1
    311    328     1
    311    320     1
    311    321     1
    312    328     1
    312    320     1
    312    321     1
    313    329     1
    314    718     1
    314    326     1
    314    327     1
    315    718     1
    315    326     1
    315    327     1
    316    329     1
    317    688     1
    317    323     1
    317    324     1
    318    688     1
    318    323     1
    318    324     1
    322    680     1
    322    681     1
    323    679     1
    324    679     1
    325    710     1
    325    711     1
    326    709     1
    327    709     1
    330    344     1
    330    345     1
    330    347     1
    330    348     1
    330    341     1
    330    342     1
    331    335     1
    331    336     1
    331    338     1
    331    339     1
    331    356     1
    331    357     1
    332    334     1
    332    337     1
    332    359     1
    332    355     1
    332    344     1
    332    345     1
    333    334     1
    333    337     1
    333    359     1
    333    355     1
    333    344     1
    333    345     1
    334    338     1
    334    339     1
    334    353     1
    334    354     1
    335    337     1
    335    359     1
    335    352     1
    335    347     1
    335    348     1
    336    337     1
    336    359     1
    336    352     1
    336    347     1
    336    348     1
    337    350     1
    337    351     1
    338    359     1
    338    349     1
    338    341     1
    338    342     1
    339    359     1
    339    349     1
    339    341     1
    339    342     1
    340    359     1
    341    358     1
    341    350     1
    341    351     1
    342    358     1
    342    350     1
    342    351     1
    343    359     1
    344    778     1
    344    356     1
    344    357     1
    345    778     1
    345    356     1
    345    357     1
    346    359     1
    347    748     1
    347    353     1
    347    354     1
    348    748     1
    348    353     1
    348    354     1
    352    740     1
    352    741     1
    353    739     1
    354    739     1
    355    770     1
    355    771     1
    356    769     1
    357    769     1
    360    374     1
    360    375     1
    360    377     1
    360    378     1
    360    371     1
    360    372     1
    361    365     1
    361    366     1
    361    368     1
    361    369     1
    361    386     1
    361    387     1
    362    364     1
    362    367     1
    362    389     1
    362    385     1
    362    374     1
    362    375     1
    363    364     1
    363    367     1
    363    389     1
    363    385     1
    363    374     1
    363    375     1
    364    368     1
    364    369     1
    364    383     1
    364    384     1
    365    367     1
    365    389     1
    365    382     1
    365    377     1
    365    378     1
    366    367     1
    366    389     1
    366    382     1
    366    377     1
    366    378     1
    367    380     1
    367    381     1
    368    389     1
    368    379     1
    368    371     1
    368    372     1
    369    389     1
    369    379     1
    369    371     1
    369    372     1
    370    389     1
    371    388     1
    371    380     1
    371    381     1
    372    388     1
    372    380     1
    372    381     1
    373    389     1
    374    838     1
    374    386     1
    374    387     1
    375    838     1
    375    386     1
    375    387     1
    376    389     1
    377    808     1
    377    383     1
    377    384     1
    378    808     1
    378    383     1
    378    384     1
    382    800     1
    382    801     1
    383    799     1
    384    799     1
    385    830     1
    385    831     1
    386    829     1
    387    829     1
    390    404     1
    390    405     1
    390    407     1
    390    408     1
    390    401     1
    390    402     1
    391    395     1
    391    396     1
    391    398     1
    391    399     1
    391    416     1
    391    417     1
    392    394     1
    392    397     1
    392    419     1
    392    415     1
    392    404     1
    392    405     1
    393    394     1
    393    397     1
    393    419     1
    393    415     1
    393    404     1
    393    405     1
    394    398     1
    394    399     1
    394    413     1
    394    414     1
    395    397     1
    395    419     1
    395    412     1
    395    407     1
    395    408     1
    396    397     1
    396    419     1
    396    412     1
    396    407     1
    396    408     1
    397    410     1
    397    411     1
    398    419     1
    398    409     1
    398    401     1
    398    402     1
    399    419     1
    399    409     1
    399    401     1
    399    402     1
    400    419     1
    401    418     1
    401    410     1
    401    411     1
    402    418     1
    402    410     1
    402    411     1
    403    419     1
    404    898     1
    404    416     1
    404    417     1
    405    898     1
    405    416     1
    405    417     1
    406    419     1
    407    868     1
    407    413     1
    407    414     1
    408    868     1
    408    413     1
    408    414     1
    412    860     1
    412    861     1
    413    859     1
    414    859     1
    415    890     1
    415    891     1
    416    889     1
    417    889     1
    420    434     1
    420    435     1
    420    437     1
    420    438     1
    420    431     1
    420    432     1
    421    425     1
    421    426     1
    421    428     1
    421    429     1
    421    446     1
    421    447     1
    422    424     1
    422    427     1
    422    449     1
    422    445     1
    422    434     1
    422    435     1
    423    424     1
    423    427     1
    423    449     1
    423    445     1
    423    434     1
    423    435     1
    424    428     1
    424    429     1
    424    443     1
    424    444     1
    425    427     1
    425    449     1
    425    442     1
    425    437     1
    425    438     1
    426    427     1
    426    449     1
    426    442     1
    426    437     1
    426    438     1
    427    440     1
    427    441     1
    428    449     1
    428    439     1
    428    431     1
    428    432     1
    429    449     1
    429    439     1
    429    431     1
    429    432     1
    430    449     1
    431    448     1
    431    440     1
    431    441     1
    432    448     1
    432    440     1
    432    441     1
    433    449     1
    434    958     1
    434    446     1
    434    447     1
    435    958     1
    435    446     1
    435    447     1
    436    449     1
    437    928     1
    437    443     1
    437    444     1
    438    928     1
    438    443     1
    438    444     1
    442    920     1
    442    921     1
    443    919     1
    444    919     1
    445    950     1
    445    951     1
    446    949     1
    447    949     1
    450    464     1
    450    465     1
    450    467     1
    450    468     1
    450    461     1
    450    462     1
    451    455     1
    451    456     1
    451    458     1
    451    459     1
    451    476     1
    451    477     1
    452    454     1
    452    457     1
    452    479     1
    452    475     1
    452    464     1
    452    465     1
    453    454     1
    453    457     1
    453    479     1
    453    475     1
    453    464     1
    453    465     1
    454    458     1
    454    459     1
    454    473     1
    454    474     1
    455    457     1
    455    479     1
    455    472     1
    455    467     1
    455    468     1
    456    457     1
    456    479     1
    456    472     1
    456    467     1
    456    468     1
    457    470     1
    457    471     1
    458    479     1
    458    469     1
    458    461     1
    458    462     1
    459    479     1
    459    469     1
    459    461     1
    459    462     1
    460    479     1
    461    478     1
    461    470     1
    461    471     1
    462    478     1
    462    470     1
    462    471     1
    463    479     1
    464   1018     1
    464    476     1
    464    477     1
    465   1018     1
    465    476     1
    465    477     1
    466    479     1
    467    988     1
    467    473     1
    467    474     1
    468    988     1
    468    473     1
    468    474     1
    472    980     1
    472    981     1
    473    979     1
    474    979     1
    475   1010     1
    475   1011     1
    476   1009     1
    477   1009     1
    480    494     1
    480    495     1
    480    497     1
    480    498     1
    480    491     1
    480    492     1
    481    485     1
    481    486     1
    481    488     1
    481    489     1
    481    506     1
    481    507     1
    482    484     1
    482    487     1
    482    509     1
    482    505     1
    482    494     1
    482    495     1
    483    484     1
    483    487     1
    483    509     1
    483    505     1
    483    494     1
    483    495     1
    484    488     1
    484    489     1
    484    503     1
    484    504     1
    485    487     1
    485    509     1
    485    502     1
    485    497     1
    485    498     1
    486    487     1
    486    509     1
    486    502     1
    486    497     1
    486    498     1
    487    500     1
    487    501     1
    488    509     1
    488    499     1
    488    491     1
    488    492     1
    489    509     1
    489    499     1
    489    491     1
    489    492     1
    490    509     1
    491    508     1
    491    500     1
    491    501     1
    492    508     1
    492    500     1
    492    501     1
    493    509     1
    494   1078     1
    494    506     1
    494    507     1
    495   1078     1
    495    506     1
    495    507     1
    496    509     1
    497   1048     1
    497    503     1
    497    504     1
    498   1048     1
    498    503     1
    498    504     1
    502   1040     1
    502   1041     1
    503   1039     1
    504   1039     1
    505   1070     1
    505   1071     1
    506   1069     1
    507   1069     1
    510    524     1
    510    525     1
    510    527     1
    510    528     1
    510    521     1
    510    522     1
    511    515     1
    511    516     1
    511    518     1
    511    519     1
    511    536     1
    511    537     1
    512    514     1
    512    517     1
    512    539     1
    512    535     1
    512    524     1
    512    525     1
    513    514     1
    513    517     1
    513    539     1
    513    535     1
    513    524     1
    513    525     1
    514    518     1
    514    519     1
    514    533     1
    514    534     1
    515    517     1
    515    539     1
    515    532     1
    515    527     1
    515    528     1
    516    517     1
    516    539     1
    516    532     1
    516    527     1
    516    528     1
    517    530     1
    517    531     1
    518    539     1
    518    529     1
    518    521     1
    518    522     1
    519    539     1
    519    529     1
    519    521     1
    519    522     1
    520    539     1
    521    538     1
    521    530     1
    521    531     1
    522    538     1
    522    530     1
    522    531     1
    523    539     1
    524   1138     1
    524    536     1
    524    537     1
    525   1138     1
    525    536     1
    525    537     1
    526    539     1
    527   1108     1
    527    533     1
    527    534     1
    528   1108     1
    528    533     1
    528    534     1
    532   1100     1
    532   1101     1
    533   1099     1
    534   1099     1
    535   1130     1
    535   1131     1
    536   1129     1
    537   1129     1
    540    554     1
    540    555     1
    540    557     1
    540    558     1
    540    551     1
    540    552     1
    541    545     1
    541    546     1
    541    548     1
    541    549     1
    541    566     1
    541    567     1
    542    544     1
    542    547     1
    542    569     1
    542    565     1
    542    554     1
    542    555     1
    543    544     1
    543    547     1
    543    569     1
    543    565     1
    543    554     1
    543    555     1
    544    548     1
    544    549     1
    544    563     1
    544    564     1
    545    547     1
    545    569     1
    545    562     1
    545    557     1
    545    558     1
    546    547     1
    546    569     1
    546    562     1
    546    557     1
    546    558     1
    547    560     1
    547    561     1
    548    569     1
    548    559     1
    548    551     1
    548    552     1
    549    569     1
    549    559     1
    549    551     1
    549    552     1
    550    569     1
    551    568     1
    551    560     1
    551    561     1
    552    568     1
    552    560     1
    552    561     1
    553    569     1
    554   1198     1
    554    566     1
    554    567     1
    555   1198     1
    555    566     1
    555    567     1
    556    569     1
    557   1168     1
    557    563     1
    557    564     1
    558   1168     1
    558    563     1
    558    564     1
    562   1160     1
    562   1161     1
    563   1159     1
    564   1159     1
    565   1190     1
    565   1191     1
    566   1189     1
    567   1189     1
    570    584     1
    570    585     1
    570    587     1
    570    588     1
    570    581     1
    570    582     1
    571    575     1
    571    576     1
    571    578     1
    571    579     1
    571    596     1
    571    597     1
    572    574     1
    572    577     1
    572    599     1
    572    595     1
    572    584     1
    572    585     1
    573    574     1
    573    577     1
    573    599     1
    573    595     1
    573    584     1
    573    585     1
    574    578     1
    574    579     1
    574    593     1
    574    594     1
    575    577     1
    575    599     1
    575    592     1
    575    587     1
    575    588     1
    576    577     1
    576    599     1
    576    592     1
    576    587     1
    576    588     1
    577    590     1
    577    591     1
    578    599     1
    578    589     1
    578    581     1
    578    582     1
    579    599     1
    579    589     1
    579    581     1
    579    582     1
    580    599     1
    581    598     1
    581    590     1
    581    591     1
    582    598     1
    582    590     1
    582    591     1
    583    599     1
    584   1258     1
    584    596     1
    584    597     1
    585   1258     1
    585    596     1
    585    597     1
    586    599     1
    587   1228     1
    587    593     1
    587    594     1
    588   1228     1
    588    593     1
    588    594     1
    592   1220     1
    592   1221     1
    593   1219     1
    594   1219     1
    595   1250     1
    595   1251     1
    596   1249     1
    597   1249     1
    600    614     1
    600    615     1
    600    617     1
    600    618     1
    600    611     1
    600    612     1
    601    605     1
    601    606     1
    601    608     1
    601    609     1
    601    626     1
    601    627     1
    602    604     1
    602    607     1
    602    629     1
    602    625     1
    602    614     1
    602    615     1
    603    604     1
    603    607     1
    603    629     1
    603    625     1
    603    614     1
    603    615     1
    604    608     1
    604    609     1
    604    623     1
    604    624     1
    605    607     1
    605    629     1
    605    622     1
    605    617     1
    605    618     1
    606    607     1
    606    629     1
    606    622     1
    606    617     1
    606    618     1
    607    620     1
    607    621     1
    608    629     1
    608    619     1
    608    611     1
    608    612     1
    609    629     1
    609    619     1
    609    611     1
    609    612     1
    610    629     1
    611    628     1
    611    620     1
    611    621     1
    612    628     1
    612    620     1
    612    621     1
    613    629     1
    614   1318     1
    614    626     1
    614    627     1
    615   1318     1
    615    626     1
    615    627     1
    616    629     1
    617   1288     1
    617    623     1
    617    624     1
    618   1288     1
    618    623     1
    618    624     1
    622   1280     1
    622   1281     1
    623   1279     1
    624   1279     1
    625   1310     1
    625   1311     1
    626   1309     1
    627   1309     1
    630    644     1
    630    645     1
    630    647     1
    630    648     1
    630    641     1
    630    642     1
    631    635     1
    631    636     1
    631    638     1
    631    639     1
    631    656     1
    631    657     1
    632    634     1
    632    637     1
    632    659     1
    632    655     1
    632    644     1
    632    645     1
    633    634     1
    633    637     1
    633    659     1
    633    655     1
    633    644     1
    633    645     1
    634    638     1
    634    639     1
    634    653     1
    634    654     1
    635    637     1
    635    659     1
    635    652     1
    635    647     1
    635    648     1
    636    637     1
    636    659     1
    636    652     1
    636    647     1
    636    648     1
    637    650     1
    637    651     1
    638    659     1
    638    649     1
    638    641     1
    638    642     1
    639    659     1
    639    649     1
    639    641     1
    639    642     1
    640    659     1
    641    658     1
    641    650     1
    641    651     1
    642    658     1
    642    650     1
    642    651     1
    643    659     1
    644   1378     1
    644    656     1
    644    657     1
    645   1378     1
    645    656     1
    645    657     1
    646    659     1
    647   1348     1
    647    653     1
    647    654     1
    648   1348     1
    648    653     1
    648    654     1
    652   1340     1
    652   1341     1
    653   1339     1
    654   1339     1
    655   1370     1
    655   1371     1
    656   1369     1
    657   1369     1
    660    674     1
    660    675     1
    660    677     1
    660    678     1
    660    671     1
    660    672     1
    661    665     1
    661    666     1
    661    668     1
    661    669     1
    661    686     1
    661    687     1
    662    664     1
    662    667     1
    662    689     1
    662    685     1
    662    674     1
    662    675     1
    663    664     1
    663    667     1
    663    689     1
    663    685     1
    663    674     1
    663    675     1
    664    668     1
    664    669     1
    664    683     1
    664    684     1
    665    667     1
    665    689     1
    665    682     1
    665    677     1
    665    678     1
    666    667     1
    666    689     1
    666    682     1
    666    677     1
    666    678     1
    667    680     1
    667    681     1
    668    689     1
    668    679     1
    668    671     1
    668    672     1
    669    689     1
    669    679     1
    669    671     1
    669    672     1
    670    689     1
    671    688     1
    671    680     1
    671    681     1
    672    688     1
    672    680     1
    672    681     1
    673    689     1
    674   1438     1
    674    686     1
    674    687     1
    675   1438     1
    675    686     1
    675    687     1
    676    689     1
    677   1408     1
    677    683     1
    677    684     1
    678   1408     1
    678    683     1
    678    684     1
    682   1400     1
    682   1401     1
    683   1399     1
    684   1399     1
    685   1430     1
    685   1431     1
    686   1429     1
    687   1429     1
    690    704     1
    690    705     1
    690    707     1
    690    708     1
    690    701     1
    690    702     1
    691    695     1
    691    696     1
    691    698     1
    691    699     1
    691    716     1
    691    717     1
    692    694     1
    692    697     1
    692    719     1
    692    715     1
    692    704     1
    692    705     1
    693    694     1
    693    697     1
    693    719     1
    693    715     1
    693    704     1
    693    705     1
    694    698     1
    694    699     1
    694    713     1
    694    714     1
    695    697     1
    695    719     1
    695    712     1
    695    707     1
    695    708     1
    696    697     1
    696    719     1
    696    712     1
    696    707     1
    696    708     1
    697    710     1
    697    711     1
    698    719     1
    698    709     1
    698    701     1
    698    702     1
    699    719     1
    699    709     1
    699    701     1
    699    702     1
    700    719     1
    701    718     1
    701    710     1
    701    711     1
    702    718     1
    702    710     1
    702    711     1
    703    719     1
    704   1498     1
    704    716     1
    704    717     1
    705   1498     1
    705    716     1
    705    717     1
    706    719     1
    707   1468     1
    707    713     1
    707    714     1
    708   1468     1
    708    713     1
    708    714     1
    712   1460     1
    712   1461     1
    713   1459     1
    714   1459     1
    715   1490     1
    715   1491     1
    716   1489     1
    717   1489     1
    720    734     1
    720    735     1
    720    737     1
    720    738     1
    720    731     1
    720    732     1
    721    725     1
    721    726     1
    721    728     1
    721    729     1
    721    746     1
    721    747     1
    722    724     1
    722    727     1
    722    749     1
    722    745     1
    722    734     1
    722    735     1
    723    724     1
    723    727     1
    723    749     1
    723    745     1
    723    734     1
    723    735     1
    724    728     1
    724    729     1
    724    743     1
    724    744     1
    725    727     1
    725    749     1
    725    742     1
    725    737     1
    725    738     1
    726    727     1
    726    749     1
    726    742     1
    726    737     1
    726    738     1
    727    740     1
    727    741     1
    728    749     1
    728    739     1
    728    731     1
    728    732     1
    729    749     1
    729    739     1
    729    731     1
    729    732     1
    730    749     1
    731    748     1
    731    740     1
    731    741     1
    732    748     1
    732    740     1
    732    741     1
    733    749     1
    734   1558     1
    734    746     1
    734    747     1
    735   1558     1
    735    746     1
    735    747     1
    736    749     1
    737   1528     1
    737    743     1
    737    744     1
    738   1528     1
    738    743     1
    738    744     1
    742   1520     1
    742   1521     1
    743   1519     1
    744   1519     1
    745   1550     1
    745   1551     1
    746   1549     1
    747   1549     1
    750    764     1
    750    765     1
    750    767     1
    750    768     1
    750    761     1
    750    762     1
    751    755     1
    751    756     1
    751    758     1
    751    759     1
    751    776     1
    751    777     1
    752    754     1
    752    757     1
    752    779     1
    752    775     1
    752    764     1
    752    765     1
    753    754     1
    753    757     1
    753    779     1
    753    775     1
    753    764     1
    753    765     1
    754    758     1
    754    759     1
    754    773     1
    754    774     1
    755    757     1
    755    779     1
    755    772     1
    755    767     1
    755    768     1
    756    757     1
    756    779     1
    756    772     1
    756    767     1
    756    768     1
    757    770     1
    757    771     1
    758    779     1
    758    769     1
    758    761     1
    758    762     1
    759    779     1
    759    769     1
    759    761     1
    759    762     1
    760    779     1
    761    778     1
    761    770     1
    761    771     1
    762    778     1
    762    770     1
    762    771     1
    763    779     1
    764   1618     1
    764    776     1
    764    777     1
    765   1618     1
    765    776     1
    765    777     1
    766    779     1
    767   1588     1
    767    773     1
    767    774     1
    768   1588     1
    768    773     1
    768    774     1
    772   1580     1
    772   1581     1
    773   1579     1
    774   1579     1
    775   1610     1
    775   1611     1
    776   1609     1
    777   1609     1
    780    794     1
    780    795     1
    780    797     1
    780    798     1
    780    791     1
    780    792     1
    781    785     1
    781    786     1
    781    788     1
    781    789     1
    781    806     1
    781    807     1
    782    784     1
    782    787     1
    782    809     1
    782    805     1
    782    794     1
    782    795     1
    783    784     1
    783    787     1
    783    809     1
    783    805     1
    783    794     1
    783    795     1
    784    788     1
    784    789     1
    784    803     1
    784    804     1
    785    787     1
    785    809     1
    785    802     1
    785    797     1
    785    798     1
    786    787     1
    786    809     1
    786    802     1
    786    797     1
    786    798     1
    787    800     1
    787    801     1
    788    809     1
    788    799     1
    788    791     1
    788    792     1
    789    809     1
    789    799     1
    789    791     1
    789    792     1
    790    809     1
    791    808     1
    791    800     1
    791    801     1
    792    808     1
    792    800     1
    792    801     1
    793    809     1
    794   1678     1
    794    806     1
    794    807     1
    795   1678     1
    795    806     1
    795    807     1
    796    809     1
    797   1648     1
    797    803     1
    797    804     1
    798   1648     1
    798    803     1
    798    804     1
    802   1640     1
    802   1641     1
    803   1639     1
    804   1639     1
    805   1670     1
    805   1671     1
    806   1669     1
    807   1669     1
    810    824     1
    810    825     1
    810    827     1
    810    828     1
    810    821     1
    810    822     1
    811    815     1
    811    816     1
    811    818     1
    811    819     1
    811    836     1
    811    837     1
    812    814     1
    812    817     1
    812    839     1
    812    835     1
    812    824     1
    812    825     1
    813    814     1
    813    817     1
    813    839     1
    813    835     1
    813    824     1
    813    825     1
    814    818     1
    814    819     1
    814    833     1
    814    834     1
    815    817     1
    815    839     1
    815    832     1
    815    827     1
    815    828     1
    816    817     1
    816    839     1
    816    832     1
    816    827     1
    816    828     1
    817    830     1
    817    831     1
    818    839     1
    818    829     1
    818    821     1
    818    822     1
    819    839     1
    819    829     1
    819    821     1
    819    822     1
    820    839     1
    821    838     1
    821    830     1
    821    831     1
    822    838     1
    822    830     1
    822    831     1
    823    839     1
    824   1738     1
    824    836     1
    824    837     1
    825   1738     1
    825    836     1
    825    837     1
    826    839     1
    827   1708     1
    827    833     1
    827    834     1
    828   1708     1
    828    833     1
    828    834     1
    832   1700     1
    832   1701     1
    833   1699     1
    834   1699     1
    835   1730     1
    835   1731     1
    836   1729     1
    837   1729     1
    840    854     1
    840    855     1
    840    857     1
    840    858     1
    840    851     1
    840    852     1
    841    845     1
    841    846     1
    841    848     1
    841    849     1
    841    866     1
    841    867     1
    842    844     1
    842    847     1
    842    869     1
    842    865     1
    842    854     1
    842    855     1
    843    844     1
    843    847     1
    843    869     1
    843    865     1
    843    854     1
    843    855     1
    844    848     1
    844    849     1
    844    863     1
    844    864     1
    845    847     1
    845    869     1
    845    862     1
    845    857     1
    845    858     1
    846    847     1
    846    869     1
    846    862     1
    846    857     1
    846    858     1
    847    860     1
    847    861     1
    848    869     1
    848    859     1
    848    851     1
    848    852     1
    849    869     1
    849    859     1
    849    851     1
    849    852     1
    850    869     1
    851    868     1
    851    860     1
    851    861     1
    852    868     1
    852    860     1
    852    861     1
    853    869     1
    854   1798     1
    854    866     1
    854    867     1
    855   1798     1
    855    866     1
    855    867     1
    856    869     1
    857   1768     1
    857    863     1
    857    864     1
    858   1768     1
    858    863     1
    858    864     1
    862   1760     1
    862   1761     1
    863   1759     1
    864   1759     1
    865   1790     1
    865   1791     1
    866   1789     1
    867   1789     1
    870    884     1
    870    885     1
    870    887     1
    870    888     1
    870    881     1
    870    882     1
    871    875     1
    871    876     1
    871    878     1
    871    879     1
    871    896     1
    871    897     1
    872    874     1
    872    877     1
    872    899     1
    872    895     1
    872    884     1
    872    885     1
    873    874     1
    873    877     1
    873    899     1
    873    895     1
    873    884     1
    873    885     1
    874    878     1
    874    879     1
    874    893     1
    874    894     1
    875    877     1
    875    899     1
    875    892     1
    875    887     1
    875    888     1
    876    877     1
    876    899     1
    876    892     1
    876    887     1
    876    888     1
    877    890     1
    877    891     1
    878    899     1
    878    889     1
    878    881     1
    878    882     1
    879    899     1
    879    889     1
    879    881     1
    879    882     1
    880    899     1
    881    898     1
    881    890     1
    881    891     1
    882    898     1
    882    890     1
    882    891     1
    883    899     1
    884   1858     1
    884    896     1
    884    897     1
    885   1858     1
    885    896     1
    885    897     1
    886    899     1
    887   1828     1
    887    893     1
    887    894     1
    888   1828     1
    888    893     1
    888    894     1
    892   1820     1
    892   1821     1
    893   1819     1
    894   1819     1
    895   1850     1
    895   1851     1
    896   1849     1
    897   1849     1
    900    914     1
    900    915     1
    900    917     1
    900    918     1
    900    911     1
    900    912     1
    901    905     1
    901    906     1
    901    908     1
    901    909     1
    901    926     1
    901    927     1
    902    904     1
    902    907     1
    902    929     1
    902    925     1
    902    914     1
    902    915     1
    903    904     1
    903    907     1
    903    929     1
    903    925     1
    903    914     1
    903    915     1
    904    908     1
    904    909     1
    904    923     1
    904    924     1
    905    907     1
    905    929     1
    905    922     1
    905    917     1
    905    918     1
    906    907     1
    906    929     1
    906    922     1
    906    917     1
    906    918     1
    907    920     1
    907    921     1
    908    929     1
    908    919     1
    908    911     1
    908    912     1
    909    929     1
    909    919     1
    909    911     1
    909    912     1
    910    929     1
    911    928     1
    911    920     1
    911    921     1
    912    928     1
    912    920     1
    912    921     1
    913    929     1
    914   1918     1
    914    926     1
    914    927     1
    915   1918     1
    915    926     1
    915    927     1
    916    929     1
    917   1888     1
    917    923     1
    917    924     1
    918   1888     1
    918    923     1
    918    924     1
    922   1880     1
    922   1881     1
    923   1879     1
    924   1879     1
    925   1910     1
    925   1911     1
    926   1909     1
    927   1909     1
    930    944     1
    930    945     1
    930    947     1
    930    948     1
    930    941     1
    930    942     1
    931    935     1
    931    936     1
    931    938     1
    931    939     1
    931    956     1
    931    957     1
    932    934     1
    932    937     1
    932    959     1
    932    955     1
    932    944     1
    932    945     1
    933    934     1
    933    937     1
    933    959     1
    933    955     1
    933    944     1
    933    945     1
    934    938     1
    934    939     1
    934    953     1
    934    954     1
    935    937     1
    935    959     1
    935    952     1
    935    947     1
    935    948     1
    936    937     1
    936    959     1
    936    952     1
    936    947     1
    936    948     1
    937    950     1
    937    951     1
    938    959     1
    938    949     1
    938    941     1
    938    942     1
    939    959     1
    939    949     1
    939    941     1
    939    942     1
    940    959     1
    941    958     1
    941    950     1
    941    951     1
    942    958     1
    942    950     1
    942    951     1
    943    959     1
    944   1978     1
    944    956     1
    944    957     1
    945   1978     1
    945    956     1
    945    957     1
    946    959     1
    947   1948     1
    947    953     1
    947    954     1
    948   1948     1
    948    953     1
    948    954     1
    952   1940     1
    952   1941     1
    953   1939     1
    954   1939     1
    955   1970     1
    955   1971     1
    956   1969     1
    957   1969     1
    960    974     1
    960    975     1
    960    977     1
    960    978     1
    960    971     1
    960    972     1
    961    965     1
    961    966     1
    961    968     1
    961    969     1
    961    986     1
    961    987     1
    962    964     1
    962    967     1
    962    989     1
    962    985     1
    962    974     1
    962    975     1
    963    964     1
    963    967     1
    963    989     1
    963    985     1
    963    974     1
    963    975     1
    964    968     1
    964    969     1
    964    983     1
    964    984     1
    965    967     1
    965    989     1
    965    982     1
    965    977     1
    965    978     1
    966    967     1
    966    989     1
    966    982     1
    966    977     1
    966    978     1
    967    980     1
    967    981     1
    968    989     1
    968    979     1
    968    971     1
    968    972     1
    969    989     1
    969    979     1
    969    971     1
    969    972     1
    970    989     1
    971    988     1
    971    980     1
    971    981     1
    972    988     1
    972    980     1
    972    981     1
    973    989     1
    974   2038     1
    974    986     1
    974    987     1
    975   2038     1
    975    986     1
    975    987     1
    976    989     1
    977   2008     1
    977    983     1
    977    984     1
    978   2008     1
    978    983     1
    978    984     1
    982   2000     1
    982   2001     1
    983   1999     1
    984   1999     1
    985   2030     1
    985   2031     1
    986   2029     1
    987   2029     1
    990   1004     1
    990   1005     1
    990   1007     1
    990   1008     1
    990   1001     1
    990   1002     1
    991    995     1
    991    996     1
    991    998     1
    991    999     1
    991   1016     1
    991   1017     1
    992    994     1
    992    997     1
    992   1019     1
    992   1015     1
    992   1004     1
    992   1005     1
    993    994     1
    993    997     1
    993   1019     1
    993   1015     1
    993   1004     1
    993   1005     1
    994    998     1
    994    999     1
    994   1013     1
    994   1014     1
    995    997     1
    995   1019     1
    995   1012     1
    995   1007     1
    995   1008     1
    996    997     1
    996   1019     1
    996   1012     1
    996   1007     1
    996   1008     1
    997   1010     1
    997   1011     1
    998   1019     1
    998   1009     1
    998   1001     1
    998   1002     1
    999   1019     1
    999   1009     1
    999   1001     1
    999   1002     1
   1000   1019     1
   1001   1018     1
   1001   1010     1
   1001   1011     1
   1002   1018     1
   1002   1010     1
   1002   1011     1
   1003   1019     1
   1004   2098     1
   1004   1016     1
   1004   1017     1
   1005   2098     1
   1005   1016     1
   1005   1017     1
   1006   1019     1
   1007   2068     1
   1007   1013     1
   1007   1014     1
   1008   2068     1
   1008   1013     1
   1008   1014     1
   1012   2060     1
   1012   2061     1
   1013   2059     1
   1014   2059     1
   1015   2090     1
   1015   2091     1
   1016   2089     1
   1017   2089     1
   1020   1034     1
   1020   1035     1
   1020   1037     1
   1020   1038     1
   1020   1031     1
   1020   1032     1
   1021   1025     1
   1021   1026     1
   1021   1028     1
   1021   1029     1
   1021   1046     1
   1021   1047     1
   1022   1024     1
   1022   1027     1
   1022   1049     1
   1022   1045     1
   1022   1034     1
   1022   1035     1
   1023   1024     1
   1023   1027     1
   1023   1049     1
   1023   1045     1
   1023   1034     1
   1023   1035     1
   1024   1028     1
   1024   1029     1
   1024   1043     1
   1024   1044     1
   1025   1027     1
   1025   1049     1
   1025   1042     1
   1025   1037     1
   1025   1038     1
   1026   1027     1
   1026   1049     1
   1026   1042     1
   1026   1037     1
   1026   1038     1
   1027   1040     1
   1027   1041     1
   1028   1049     1
   1028   1039     1
   1028   1031     1
   1028   1032     1
   1029   1049     1
   1029   1039     1
   1029   1031     1
   1029   1032     1
   1030   1049     1
   1031   1048     1
   1031   1040     1
   1031   1041     1
   1032   1048     1
   1032   1040     1
   1032   1041     1
   1033   1049     1
   1034   2158     1
   1034   1046     1
   1034   1047     1
   1035   2158     1
   1035   1046     1
   1035   1047     1
   1036   1049     1
   1037   2128     1
   1037   1043     1
   1037   1044     1
   1038   2128     1
   1038   1043     1
   1038   1044     1
   1042   2120     1
   1042   2121     1
   1043   2119     1
   1044   2119     1
   1045   2150     1
   1045   2151     1
   1046   2149     1
   1047   2149     1
   1050   1064     1
   1050   1065     1
   1050   1067     1
   1050   1068     1
   1050   1061     1
   1050   1062     1
   1051   1055     1
   1051   1056     1
   1051   1058     1
   1051   1059     1
   1051   1076     1
   1051   1077     1
   1052   1054     1
   1052   1057     1
   1052   1079     1
   1052   1075     1
   1052   1064     1
   1052   1065     1
   1053   1054     1
   1053   1057     1
   1053   1079     1
   1053   1075     1
   1053   1064     1
   1053   1065     1
   1054   1058     1
   1054   1059     1
   1054   1073     1
   1054   1074     1
   1055   1057     1
   1055   1079     1
   1055   1072     1
   1055   1067     1
   1055   1068     1
   1056   1057     1
   1056   1079     1
   1056   1072     1
   1056   1067     1
   1056   1068     1
   1057   1070     1
   1057   1071     1
   1058   1079     1
   1058   1069     1
   1058   1061     1
   1058   1062     1
   1059   1079     1
   1059   1069     1
   1059   1061     1
   1059   1062     1
   1060   1079     1
   1061   1078     1
   1061   1070     1
   1061   1071     1
   1062   1078     1
   1062   1070     1
   1062   1071     1
   1063   1079     1
   1064   2218     1
   1064   1076     1
   1064   1077     1
   1065   2218     1
   1065   1076     1
   1065   1077     1
   1066   1079     1
   1067   2188     1
   1067   1073     1
   1067   1074     1
   1068   2188     1
   1068   1073     1
   1068   1074     1
   1072   2180     1
   1072   2181     1
   1073   2179     1
   1074   2179     1
   1075   2210     1
   1075   2211     1
   1076   2209     1
   1077   2209     1
   1080   1094     1
   1080   1095     1
   1080   1097     1
   1080   1098     1
   1080   1091     1
   1080   1092     1
   1081   1085     1
   1081   1086     1
   1081   1088     1
   1081   1089     1
   1081   1106     1
   1081   1107     1
   1082   1084     1
   1082   1087     1
   1082   1109     1
   1082   1105     1
   1082   1094     1
   1082   1095     1
   1083   1084     1
   1083   1087     1
   1083   1109     1
   1083   1105     1
   1083   1094     1
   1083   1095     1
   1084   1088     1
   1084   1089     1
   1084   1103     1
   1084   1104     1
   1085   1087     1
   1085   1109     1
   1085   1102     1
   1085   1097     1
   1085   1098     1
   1086   1087     1
   1086   1109     1
   1086   1102     1
   1086   1097     1
   1086   1098     1
   1087   1100     1
   1087   1101     1
   1088   1109     1
   1088   1099     1
   1088   1091     1
   1088   1092     1
   1089   1109     1
   1089   1099     1
   1089   1091     1
   1089   1092     1
   1090   1109     1
   1091   1108     1
   1091   1100     1
   1091   1101     1
   1092   1108     1
   1092   1100     1
   1092   1101     1
   1093   1109     1
   1094   2278     1
   1094   1106     1
   1094   1107     1
   1095   2278     1
   1095   1106     1
   1095   1107     1
   1096   1109     1
   1097   2248     1
   1097   1103     1
   1097   1104     1
   1098   2248     1
   1098   1103     1
   1098   1104     1
   1102   2240     1
   1102   2241     1
   1103   2239     1
   1104   2239     1
   1105   2270     1
   1105   2271     1
   1106   2269     1
   1107   2269     1
   1110   1124     1
   1110   1125     1
   1110   1127     1
   1110   1128     1
   1110   1121     1
   1110   1122     1
   1111   1115     1
   1111   1116     1
   1111   1118     1
   1111   1119     1
   1111   1136     1
   1111   1137     1
   1112   1114     1
   1112   1117     1
   1112   1139     1
   1112   1135     1
   1112   1124     1
   1112   1125     1
   1113   1114     1
   1113   1117     1
   1113   1139     1
   1113   1135     1
   1113   1124     1
   1113   1125     1
   1114   1118     1
   1114   1119     1
   1114   1133     1
   1114   1134     1
   1115   1117     1
   1115   1139     1
   1115   1132     1
   1115   1127     1
   1115   1128     1
   1116   1117     1
   1116   1139     1
   1116   1132     1
   1116   1127     1
   1116   1128     1
   1117   1130     1
   1117   1131     1
   1118   1139     1
   1118   1129     1
   1118   1121     1
   1118   1122     1
   1119   1139     1
   1119   1129     1
   1119   1121     1
   1119   1122     1
   1120   1139     1
   1121   1138     1
   1121   1130     1
   1121   1131     1
   1122   1138     1
   1122   1130     1
   1122   1131     1
   1123   1139     1
   1124   2338     1
   1124   1136     1
   1124   1137     1
   1125   2338     1
   1125   1136     1
   1125   1137     1
   1126   1139     1
   1127   2308     1
   1127   1133     1
   1127   1134     1
   1128   2308     1
   1128   1133     1
   1128   1134     1
   1132   2300     1
   1132   2301     1
   1133   2299     1
   1134   2299     1
   1135   2330     1
   1135   2331     1
   1136   2329     1
   1137   2329     1
   1140   1154     1
   1140   1155     1
   1140   1157     1
   1140   1158     1
   1140   1151     1
   1140   1152     1
   1141   1145     1
   1141   1146     1
   1141   1148     1
   1141   1149     1
   1141   1166     1
   1141   1167     1
   1142   1144     1
   1142   1147     1
   1142   1169     1
   1142   1165     1
   1142   1154     1
   1142   1155     1
   1143   1144     1
   1143   1147     1
   1143   1169     1
   1143   1165     1
   1143   1154     1
   1143   1155     1
   1144   1148     1
   1144   1149     1
   1144   1163     1
   1144   1164     1
   1145   1147     1
   1145   1169     1
   1145   1162     1
   1145   1157     1
   1145   1158     1
   1146   1147     1
   1146   1169     1
   1146   1162     1
   1146   1157     1
   1146   1158     1
   1147   1160     1
   1147   1161     1
   1148   1169     1
   1148   1159     1
   1148   1151     1
   1148   1152     1
   1149   1169     1
   1149   1159     1
   1149   1151     1
   1149   1152     1
   1150   1169     1
   1151   1168     1
   1151   1160     1
   1151   1161     1
   1152   1168     1
   1152   1160     1
   1152   1161     1
   1153   1169     1
   1154   2398     1
   1154   1166     1
   1154   1167     1
   1155   2398     1
   1155   1166     1
   1155   1167     1
   1156   1169     1
   1157   2368     1
   1157   1163     1
   1157   1164     1
   1158   2368     1
   1158   1163     1
   1158   1164     1
   1162   2360     1
   1162   2361     1
   1163   2359     1
   1164   2359     1
   1165   2390     1
   1165   2391     1
   1166   2389     1
   1167   2389     1
   1170   1184     1
   1170   1185     1
   1170   1187     1
   1170   1188     1
   1170   1181     1
   1170   1182     1
   1171   1175     1
   1171   1176     1
   1171   1178     1
   1171   1179     1
   1171   1196     1
   1171   1197     1
   1172   1174     1
   1172   1177     1
   1172   1199     1
   1172   1195     1
   1172   1184     1
   1172   1185     1
   1173   1174     1
   1173   1177     1
   1173   1199     1
   1173   1195     1
   1173   1184     1
   1173   1185     1
   1174   1178     1
   1174   1179     1
   1174   1193     1
   1174   1194     1
   1175   1177     1
   1175   1199     1
   1175   1192     1
   1175   1187     1
   1175   1188     1
   1176   1177     1
   1176   1199     1
   1176   1192     1
   1176   1187     1
   1176   1188     1
   1177   1190     1
   1177   1191     1
   1178   1199     1
   1178   1189     1
   1178   1181     1
   1178   1182     1
   1179   1199     1
   1179   1189     1
   1179   1181     1
   1179   1182     1
   1180   1199     1
   1181   1198     1
   1181   1190     1
   1181   1191     1
   1182   1198     1
   1182   1190     1
   1182   1191     1
   1183   1199     1
   1184   2458     1
   1184   1196     1
   1184   1197     1
   1185   2458     1
   1185   1196     1
   1185   1197     1
   1186   1199     1
   1187   2428     1
   1187   1193     1
   1187   1194     1
   1188   2428     1
   1188   1193     1
   1188   1194     1
   1192   2420     1
   1192   2421     1
   1193   2419     1
   1194   2419     1
   1195   2450     1
   1195   2451     1
   1196   2449     1
   1197   2449     1
   1200   1214     1
   1200   1215     1
   1200   1217     1
   1200   1218     1
   1200   1211     1
   1200   1212     1
   1201   1205     1
   1201   1206     1
   1201   1208     1
   1201   1209     1
   1201   1226     1
   1201   1227     1
   1202   1204     1
   1202   1207     1
   1202   1229     1
   1202   1225     1
   1202   1214     1
   1202   1215     1
   1203   1204     1
   1203   1207     1
   1203   1229     1
   1203   1225     1
   1203   1214     1
   1203   1215     1
   1204   1208     1
   1204   1209     1
   1204   1223     1
   1204   1224     1
   1205   1207     1
   1205   1229     1
   1205   1222     1
   1205   1217     1
   1205   1218     1
   1206   1207     1
   1206   1229     1
   1206   1222     1
   1206   1217     1
   1206   1218     1
   1207   1220     1
   1207   1221     1
   1208   1229     1
   1208   1219     1
   1208   1211     1
   1208   1212     1
   1209   1229     1
   1209   1219     1
   1209   1211     1
   1209   1212     1
   1210   1229     1
   1211   1228     1
   1211   1220     1
   1211   1221     1
   1212   1228     1
   1212   1220     1
   1212   1221     1
   1213   1229     1
   1214   2518     1
   1214   1226     1
   1214   1227     1
   1215   2518     1
   1215   1226     1
   1215   1227     1
   1216   1229     1
   1217   2488     1
   1217   1223     1
   1217   1224     1
   1218   2488     1
   1218   1223     1
   1218   1224     1
   1222   2480     1
   1222   2481     1
   1223   2479     1
   1224   2479     1
   1225   2510     1
   1225   2511     1
   1226   2509     1
   1227   2509     1
   1230   1244     1
   1230   1245     1
   1230   1247     1
   1230   1248     1
   1230   1241     1
   1230   1242     1
   1231   1235     1
   1231   1236     1
   1231   1238     1
   1231   1239     1
   1231   1256     1
   1231   1257     1
   1232   1234     1
   1232   1237     1
   1232   1259     1
   1232   1255     1
   1232   1244     1
   1232   1245     1
   1233   1234     1
   1233   1237     1
   1233   1259     1
   1233   1255     1
   1233   1244     1
   1233   1245     1
   1234   1238     1
   1234   1239     1
   1234   1253     1
   1234   1254     1
   1235   1237     1
   1235   1259     1
   1235   1252     1
   1235   1247     1
   1235   1248     1
   1236   1237     1
   1236   1259     1
   1236   1252     1
   1236   1247     1
   1236   1248     1
   1237   1250     1
   1237   1251     1
   1238   1259     1
   1238   1249     1
   1238   1241     1
   1238   1242     1
   1239   1259     1
   1239   1249     1
   1239   1241     1
   1239   1242     1
   1240   1259     1
   1241   1258     1
   1241   1250     1
   1241   1251     1
   1242   1258     1
   1242   1250     1
   1242   1251     1
   1243   1259     1
   1244   2578     1
   1244   1256     1
   1244   1257     1
   1245   2578     1
   1245   1256     1
   1245   1257     1
   1246   1259     1
   1247   2548     1
   1247   1253     1
   1247   1254     1
   1248   2548     1
   1248   1253     1
   1248   1254     1
   1252   2540     1
   1252   2541     1
   1253   2539     1
   1254   2539     1
   1255   2570     1
   1255   2571     1
   1256   2569     1
   1257   2569     1
   1260   1274     1
   1260   1275     1
   1260   1277     1
   1260   1278     1
   1260   1271     1
   1260   1272     1
   1261   1265     1
   1261   1266     1
   1261   1268     1
   1261   1269     1
   1261   1286     1
   1261   1287     1
   1262   1264     1
   1262   1267     1
   1262   1289     1
   1262   1285     1
   1262   1274     1
   1262   1275     1
   1263   1264     1
   1263   1267     1
   1263   1289     1
   1263   1285     1
   1263   1274     1
   1263   1275     1
   1264   1268     1
   1264   1269     1
   1264   1283     1
   1264   1284     1
   1265   1267     1
   1265   1289     1
   1265   1282     1
   1265   1277     1
   1265   1278     1
   1266   1267     1
   1266   1289     1
   1266   1282     1
   1266   1277     1
   1266   1278     1
   1267   1280     1
   1267   1281     1
   1268   1289     1
   1268   1279     1
   1268   1271     1
   1268   1272     1
   1269   1289     1
   1269   1279     1
   1269   1271     1
   1269   1272     1
   1270   1289     1
   1271   1288     1
   1271   1280     1
   1271   1281     1
   1272   1288     1
   1272   1280     1
   1272   1281     1
   1273   1289     1
   1274   2638     1
   1274   1286     1
   1274   1287     1
   1275   2638     1
   1275   1286     1
   1275   1287     1
   1276   1289     1
   1277   2608     1
   1277   1283     1
   1277   1284     1
   1278   2608     1
   1278   1283     1
   1278   1284     1
   1282   2600     1
   1282   2601     1
   1283   2599     1
   1284   2599     1
   1285   2630     1
   1285   2631     1
   1286   2629     1
   1287   2629     1
   1290   1304     1
   1290   1305     1
   1290   1307     1
   1290   1308     1
   1290   1301     1
   1290   1302     1
   1291   1295     1
   1291   1296     1
   1291   1298     1
   1291   1299     1
   1291   1316     1
   1291   1317     1
   1292   1294     1
   1292   1297     1
   1292   1319     1
   1292   1315     1
   1292   1304     1
   1292   1305     1
   1293   1294     1
   1293   1297     1
   1293   1319     1
   1293   1315     1
   1293   1304     1
   1293   1305     1
   1294   1298     1
   1294   1299     1
   1294   1313     1
   1294   1314     1
   1295   1297     1
   1295   1319     1
   1295   1312     1
   1295   1307     1
   1295   1308     1
   1296   1297     1
   1296   1319     1
   1296   1312     1
   1296   1307     1
   1296   1308     1
   1297   1310     1
   1297   1311     1
   1298   1319     1
   1298   1309     1
   1298   1301     1
   1298   1302     1
   1299   1319     1
   1299   1309     1
   1299   1301     1
   1299   1302     1
   1300   1319     1
   1301   1318     1
   1301   1310     1
   1301   1311     1
   1302   1318     1
   1302   1310     1
   1302   1311     1
   1303   1319     1
   1304   2698     1
   1304   1316     1
   1304   1317     1
   1305   2698     1
   1305   1316     1
   1305   1317     1
   1306   1319     1
   1307   2668     1
   1307   1313     1
   1307   1314     1
   1308   2668     1
   1308   1313     1
   1308   1314     1
   1312   2660     1
   1312   2661     1
   1313   2659     1
   1314   2659     1
   1315   2690     1
   1315   2691     1
   1316   2689     1
   1317   2689     1
   1320   1334     1
   1320   1335     1
   1320   1337     1
   1320   1338     1
   1320   1331     1
   1320   1332     1
   1321   1325     1
   1321   1326     1
   1321   1328     1
   1321   1329     1
   1321   1346     1
   1321   1347     1
   1322   1324     1
   1322   1327     1
   1322   1349     1
   1322   1345     1
   1322   1334     1
   1322   1335     1
   1323   1324     1
   1323   1327     1
   1323   1349     1
   1323   1345     1
   1323   1334     1
   1323   1335     1
   1324   1328     1
   1324   1329     1
   1324   1343     1
   1324   1344     1
   1325   1327     1
   1325   1349     1
   1325   1342     1
   1325   1337     1
   1325   1338     1
   1326   1327     1
   1326   1349     1
   1326   1342     1
   1326   1337     1
   1326   1338     1
   1327   1340     1
   1327   1341     1
   1328   1349     1
   1328   1339     1
   1328   1331     1
   1328   1332     1
   1329   1349     1
   1329   1339     1
   1329   1331     1
   1329   1332     1
   1330   1349     1
   1331   1348     1
   1331   1340     1
   1331   1341     1
   1332   1348     1
   1332   1340     1
   1332   1341     1
   1333   1349     1
   1334   2758     1
   1334   1346     1
   1334   1347     1
   1335   2758     1
   1335   1346     1
   1335   1347     1
   1336   1349     1
   1337   2728     1
   1337   1343     1
   1337   1344     1
   1338   2728     1
   1338   1343     1
   1338   1344     1
   1342   2720     1
   1342   2721     1
   1343   2719     1
   1344   2719     1
   1345   2750     1
   1345   2751     1
   1346   2749     1
   1347   2749     1
   1350   1364     1
   1350   1365     1
   1350   1367     1
   1350   1368     1
   1350   1361     1
   1350   1362     1
   1351   1355     1
   1351   1356     1
   1351   1358     1
   1351   1359     1
   1351   1376     1
   1351   1377     1
   1352   1354     1
   1352   1357     1
   1352   1379     1
   1352   1375     1
   1352   1364     1
   1352   1365     1
   1353   1354     1
   1353   1357     1
   1353   1379     1
   1353   1375     1
   1353   1364     1
   1353   1365     1
   1354   1358     1
   1354   1359     1
   1354   1373     1
   1354   1374     1
   1355   1357     1
   1355   1379     1
   1355   1372     1
   1355   1367     1
   1355   1368     1
   1356   1357     1
   1356   1379     1
   1356   1372     1
   1356   1367     1
   1356   1368     1
   1357   1370     1
   1357   1371     1
   1358   1379     1
   1358   1369     1
   1358   1361     1
   1358   1362     1
   1359   1379     1
   1359   1369     1
   1359   1361     1
   1359   1362     1
   1360   1379     1
   1361   1378     1
   1361   1370     1
   1361   1371     1
   1362   1378     1
   1362   1370     1
   1362   1371     1
   1363   1379     1
   1364   2818     1
   1364   1376     1
   1364   1377     1
   1365   2818     1
   1365   1376     1
   1365   1377     1
   1366   1379     1
   1367   2788     1
   1367   1373     1
   1367   1374     1
   1368   2788     1
   1368   1373     1
   1368   1374     1
   1372   2780     1
   1372   2781     1
   1373   2779     1
   1374   2779     1
   1375   2810     1
   1375   2811     1
   1376   2809     1
   1377   2809     1
   1380   1394     1
   1380   1395     1
   1380   1397     1
   1380   1398     1
   1380   1391     1
   1380   1392     1
   1381   1385     1
   1381   1386     1
   1381   1388     1
   1381   1389     1
   1381   1406     1
   1381   1407     1
   1382   1384     1
   1382   1387     1
   1382   1409     1
   1382   1405     1
   1382   1394     1
   1382   1395     1
   1383   1384     1
   1383   1387     1
   1383   1409     1
   1383   1405     1
   1383   1394     1
   1383   1395     1
   1384   1388     1
   1384   1389     1
   1384   1403     1
   1384   1404     1
   1385   1387     1
   1385   1409     1
   1385   1402     1
   1385   1397     1
   1385   1398     1
   1386   1387     1
   1386   1409     1
   1386   1402     1
   1386   1397     1
   1386   1398     1
   1387   1400     1
   1387   1401     1
   1388   1409     1
   1388   1399     1
   1388   1391     1
   1388   1392     1
   1389   1409     1
   1389   1399     1
   1389   1391     1
   1389   1392     1
   1390   1409     1
   1391   1408     1
   1391   1400     1
   1391   1401     1
   1392   1408     1
   1392   1400     1
   1392   1401     1
   1393   1409     1
   1394   2878     1
   1394   1406     1
   1394   1407     1
   1395   2878     1
   1395   1406     1
   1395   1407     1
   1396   1409     1
   1397   2848     1
   1397   1403     1
   1397   1404     1
   1398   2848     1
   1398   1403     1
   1398   1404     1
   1402   2840     1
   1402   2841     1
   1403   2839     1
   1404   2839     1
   1405   2870     1
   1405   2871     1
   1406   2869     1
   1407   2869     1
   1410   1424     1
   1410   1425     1
   1410   1427     1
   1410   1428     1
   1410   1421     1
   1410   1422     1
   1411   1415     1
   1411   1416     1
   1411   1418     1
   1411   1419     1
   1411   1436     1
   1411   1437     1
   1412   1414     1
   1412   1417     1
   1412   1439     1
   1412   1435     1
   1412   1424     1
   1412   1425     1
   1413   1414     1
   1413   1417     1
   1413   1439     1
   1413   1435     1
   1413   1424     1
   1413   1425     1
   1414   1418     1
   1414   1419     1
   1414   1433     1
   1414   1434     1
   1415   1417     1
   1415   1439     1
   1415   1432     1
   1415   1427     1
   1415   1428     1
   1416   1417     1
   1416   1439     1
   1416   1432     1
   1416   1427     1
   1416   1428     1
   1417   1430     1
   1417   1431     1
   1418   1439     1
   1418   1429     1
   1418   1421     1
   1418   1422     1
   1419   1439     1
   1419   1429     1
   1419   1421     1
   1419   1422     1
   1420   1439     1
   1421   1438     1
   1421   1430     1
   1421   1431     1
   1422   1438     1
   1422   1430     1
   1422   1431     1
   1423   1439     1
   1424   2938     1
   1424   1436     1
   1424   1437     1
   1425   2938     1
   1425   1436     1
   1425   1437     1
   1426   1439     1
   1427   2908     1
   1427   1433     1
   1427   1434     1
   1428   2908     1
   1428   1433     1
   1428   1434     1
   1432   2900     1
   1432   2901     1
   1433   2899     1
   1434   2899     1
   1435   2930     1
   1435   2931     1
   1436   2929     1
   1437   2929     1
   1440   1454     1
   1440   1455     1
   1440   1457     1
   1440   1458     1
   1440   1451     1
   1440   1452     1
   1441   1445     1
   1441   1446     1
   1441   1448     1
   1441   1449     1
   1441   1466     1
   1441   1467     1
   1442   1444     1
   1442   1447     1
   1442   1469     1
   1442   1465     1
   1442   1454     1
   1442   1455     1
   1443   1444     1
   1443   1447     1
   1443   1469     1
   1443   1465     1
   1443   1454     1
   1443   1455     1
   1444   1448     1
   1444   1449     1
   1444   1463     1
   1444   1464     1
   1445   1447     1
   1445   1469     1
   1445   1462     1
   1445   1457     1
   1445   1458     1
   1446   1447     1
   1446   1469     1
   1446   1462     1
   1446   1457     1
   1446   1458     1
   1447   1460     1
   1447   1461     1
   1448   1469     1
   1448   1459     1
   1448   1451     1
   1448   1452     1
   1449   1469     1
   1449   1459     1
   1449   1451     1
   1449   1452     1
   1450   1469     1
   1451   1468     1
   1451   1460     1
   1451   1461     1
   1452   1468     1
   1452   1460     1
   1452   1461     1
   1453   1469     1
   1454   2998     1
   1454   1466     1
   1454   1467     1
   1455   2998     1
   1455   1466     1
   1455   1467     1
   1456   1469     1
   1457   2968     1
   1457   1463     1
   1457   1464     1
   1458   2968     1
   1458   1463     1
   1458   1464     1
   1462   2960     1
   1462   2961     1
   1463   2959     1
   1464   2959     1
   1465   2990     1
   1465   2991     1
   1466   2989     1
   1467   2989     1
   1470   1484     1
   1470   1485     1
   1470   1487     1
   1470   1488     1
   1470   1481     1
   1470   1482     1
   1471   1475     1
   1471   1476     1
   1471   1478     1
   1471   1479     1
   1471   1496     1
   1471   1497     1
   1472   1474     1
   1472   1477     1
   1472   1499     1
   1472   1495     1
   1472   1484     1
   1472   1485     1
   1473   1474     1
   1473   1477     1
   1473   1499     1
   1473   1495     1
   1473   1484     1
   1473   1485     1
   1474   1478     1
   1474   1479     1
   1474   1493     1
   1474   1494     1
   1475   1477     1
   1475   1499     1
   1475   1492     1
   1475   1487     1
   1475   1488     1
   1476   1477     1
   1476   1499     1
   1476   1492     1
   1476   1487     1
   1476   1488     1
   1477   1490     1
   1477   1491     1
   1478   1499     1
   1478   1489     1
   1478   1481     1
   1478   1482     1
   1479   1499     1
   1479   1489     1
   1479   1481     1
   1479   1482     1
   1480   1499     1
   1481   1498     1
   1481   1490     1
   1481   1491     1
   1482   1498     1
   1482   1490     1
   1482   1491     1
   1483   1499     1
   1484   3058     1
   1484   1496     1
   1484   1497     1
   1485   3058     1
   1485   1496     1
   1485   1497     1
   1486   1499     1
   1487   3028     1
   1487   1493     1
   1487   1494     1
   1488   3028     1
   1488   1493     1
   1488   1494     1
   1492   3020     1
   1492   3021     1
   1493   3019     1
   1494   3019     1
   1495   3050     1
   1495   3051     1
   1496   3049     1
   1497   3049     1
   1500   1514     1
   1500   1515     1
   1500   1517     1
   1500   1518     1
   1500   1511     1
   1500   1512     1
   1501   1505     1
   1501   1506     1
   1501   1508     1
   1501   1509     1
   1501   1526     1
   1501   1527     1
   1502   1504     1
   1502   1507     1
   1502   1529     1
   1502   1525     1
   1502   1514     1
   1502   1515     1
   1503   1504     1
   1503   1507     1
   1503   1529     1
   1503   1525     1
   1503   1514     1
   1503   1515     1
   1504   1508     1
   1504   1509     1
   1504   1523     1
   1504   1524     1
   1505   1507     1
   1505   1529     1
   1505   1522     1
   1505   1517     1
   1505   1518     1
   1506   1507     1
   1506   1529     1
   1506   1522     1
   1506   1517     1
   1506   1518     1
   1507   1520     1
   1507   1521     1
   1508   1529     1
   1508   1519     1
   1508   1511     1
   1508   1512     1
   1509   1529     1
   1509   1519     1
   1509   1511     1
   1509   1512     1
   1510   1529     1
   1511   1528     1
   1511   1520     1
   1511   1521     1
   1512   1528     1
   1512   1520     1
   1512   1521     1
   1513   1529     1
   1514   3118     1
   1514   1526     1
   1514   1527     1
   1515   3118     1
   1515   1526     1
   1515   1527     1
   1516   1529     1
   1517   3088     1
   1517   1523     1
   1517   1524     1
   1518   3088     1
   1518   1523     1
   1518   1524     1
   1522   3080     1
   1522   3081     1
   1523   3079     1
   1524   3079     1
   1525   3110     1
   1525   3111     1
   1526   3109     1
   1527   3109     1
   1530   1544     1
   1530   1545     1
   1530   1547     1
   1530   1548     1
   1530   1541     1
   1530   1542     1
   1531   1535     1
   1531   1536     1
   1531   1538     1
   1531   1539     1
   1531   1556     1
   1531   1557     1
   1532   1534     1
   1532   1537     1
   1532   1559     1
   1532   1555     1
   1532   1544     1
   1532   1545     1
   1533   1534     1
   1533   1537     1
   1533   1559     1
   1533   1555     1
   1533   1544     1
   1533   1545     1
   1534   1538     1
   1534   1539     1
   1534   1553     1
   1534   1554     1
   1535   1537     1
   1535   1559     1
   1535   1552     1
   1535   1547     1
   1535   1548     1
   1536   1537     1
   1536   1559     1
   1536   1552     1
   1536   1547     1
   1536   1548     1
   1537   1550     1
   1537   1551     1
   1538   1559     1
   1538   1549     1
   1538   1541     1
   1538   1542     1
   1539   1559     1
   1539   1549     1
   1539   1541     1
   1539   1542     1
   1540   1559     1
   1541   1558     1
   1541   1550     1
   1541   1551     1
   1542   1558     1
   1542   1550     1
   1542   1551     1
   1543   1559     1
   1544   3178     1
   1544   1556     1
   1544   1557     1
   1545   3178     1
   1545   1556     1
   1545   1557     1
   1546   1559     1
   1547   3148     1
   1547   1553     1
   1547   1554     1
   1548   3148     1
   1548   1553     1
   1548   1554     1
   1552   3140     1
   1552   3141     1
   1553   3139     1
   1554   3139     1
   1555   3170     1
   1555   3171     1
   1556   3169     1
   1557   3169     1
   1560   1574     1
   1560   1575     1
   1560   1577     1
   1560   1578     1
   1560   1571     1
   1560   1572     1
   1561   1565     1
   1561   1566     1
   1561   1568     1
   1561   1569     1
   1561   1586     1
   1561   1587     1
   1562   1564     1
   1562   1567     1
   1562   1589     1
   1562   1585     1
   1562   1574     1
   1562   1575     1
   1563   1564     1
   1563   1567     1
   1563   1589     1
   1563   1585     1
   1563   1574     1
   1563   1575     1
   1564   1568     1
   1564   1569     1
   1564   1583     1
   1564   1584     1
   1565   1567     1
   1565   1589     1
   1565   1582     1
   1565   1577     1
   1565   1578     1
   1566   1567     1
   1566   1589     1
   1566   1582     1
   1566   1577     1
   1566   1578     1
   1567   1580     1
   1567   1581     1
   1568   1589     1
   1568   1579     1
   1568   1571     1
   1568   1572     1
   1569   1589     1
   1569   1579     1
   1569   1571     1
   1569   1572     1
   1570   1589     1
   1571   1588     1
   1571   1580     1
   1571   1581     1
   1572   1588     1
   1572   1580     1
   1572   1581     1
   1573   1589     1
   1574   3238     1
   1574   1586     1
   1574   1587     1
   1575   3238     1
   1575   1586     1
   1575   1587     1
   1576   1589     1
   1577   3208     1
   1577   1583     1
   1577   1584     1
   1578   3208     1
   1578   1583     1
   1578   1584     1
   1582   3200     1
   1582   3201     1
   1583   3199     1
   1584   3199     1
   1585   3230     1
   1585   3231     1
   1586   3229     1
   1587   3229     1
   1590   1604     1
   1590   1605     1
   1590   1607     1
   1590   1608     1
   1590   1601     1
   1590   1602     1
   1591   1595     1
   1591   1596     1
   1591   1598     1
   1591   1599     1
   1591   1616     1
   1591   1617     1
   1592   1594     1
   1592   1597     1
   1592   1619     1
   1592   1615     1
   1592   1604     1
   1592   1605     1
   1593   1594     1
   1593   1597     1
   1593   1619     1
   1593   1615     1
   1593   1604     1
   1593   1605     1
   1594   1598     1
   1594   1599     1
   1594   1613     1
   1594   1614     1
   1595   1597     1
   1595   1619     1
   1595   1612     1
   1595   1607     1
   1595   1608     1
   1596   1597     1
   1596   1619     1
   1596   1612     1
   1596   1607     1
   1596   1608     1
   1597   1610     1
   1597   1611     1
   1598   1619     1
   1598   1609     1
   1598   1601     1
   1598   1602     1
   1599   1619     1
   1599   1609     1
   1599   1601     1
   1599   1602     1
   1600   1619     1
   1601   1618     1
   1601   1610     1
   1601   1611     1
   1602   1618     1
   1602   1610     1
   1602   1611     1
   1603   1619     1
   1604   3298     1
   1604   1616     1
   1604   1617     1
   1605   3298     1
   1605   1616     1
   1605   1617     1
   1606   1619     1
   1607   3268     1
   1607   1613     1
   1607   1614     1
   1608   3268     1
   1608   1613     1
   1608   1614     1
   1612   3260     1
   1612   3261     1
   1613   3259     1
   1614   3259     1
   1615   3290     1
   1615   3291     1
   1616   3289     1
   1617   3289     1
   1620   1634     1
   1620   1635     1
   1620   1637     1
   1620   1638     1
   1620   1631     1
   1620   1632     1
   1621   1625     1
   1621   1626     1
   1621   1628     1
   1621   1629     1
   1621   1646     1
   1621   1647     1
   1622   1624     1
   1622   1627     1
   1622   1649     1
   1622   1645     1
   1622   1634     1
   1622   1635     1
   1623   1624     1
   1623   1627     1
   1623   1649     1
   1623   1645     1
   1623   1634     1
   1623   1635     1
   1624   1628     1
   1624   1629     1
   1624   1643     1
   1624   1644     1
   1625   1627     1
   1625   1649     1
   1625   1642     1
   1625   1637     1
   1625   1638     1
   1626   1627     1
   1626   1649     1
   1626   1642     1
   1626   1637     1
   1626   1638     1
   1627   1640     1
   1627   1641     1
   1628   1649     1
   1628   1639     1
   1628   1631     1
   1628   1632     1
   1629   1649     1
   1629   1639     1
   1629   1631     1
   1629   1632     1
   1630   1649     1
   1631   1648     1
   1631   1640     1
   1631   1641     1
   1632   1648     1
   1632   1640     1
   1632   1641     1
   1633   1649     1
   1634   3358     1
   1634   1646     1
   1634   1647     1
   1635   3358     1
   1635   1646     1
   1635   1647     1
   1636   1649     1
   1637   3328     1
   1637   1643     1
   1637   1644     1
   1638   3328     1
   1638   1643     1
   1638   1644     1
   1642   3320     1
   1642   3321     1
   1643   3319     1
   1644   3319     1
   1645   3350     1
   1645   3351     1
   1646   3349     1
   1647   3349     1
   1650   1664     1
   1650   1665     1
   1650   1667     1
   1650   1668     1
   1650   1661     1
   1650   1662     1
   1651   1655     1
   1651   1656     1
   1651   1658     1
   1651   1659     1
   1651   1676     1
   1651   1677     1
   1652   1654     1
   1652   1657     1
   1652   1679     1
   1652   1675     1
   1652   1664     1
   1652   1665     1
   1653   1654     1
   1653   1657     1
   1653   1679     1
   1653   1675     1
   1653   1664     1
   1653   1665     1
   1654   1658     1
   1654   1659     1
   1654   1673     1
   1654   1674     1
   1655   1657     1
   1655   1679     1
   1655   1672     1
   1655   1667     1
   1655   1668     1
   1656   1657     1
   1656   1679     1
   1656   1672     1
   1656   1667     1
   1656   1668     1
   1657   1670     1
   1657   1671     1
   1658   1679     1
   1658   1669     1
   1658   1661     1
   1658   1662     1
   1659   1679     1
   1659   1669     1
   1659   1661     1
   1659   1662     1
   1660   1679     1
   1661   1678     1
   1661   1670     1
   1661   1671     1
   1662   1678     1
   1662   1670     1
   1662   1671     1
   1663   1679     1
   1664   3418     1
   1664   1676     1
   1664   1677     1
   1665   3418     1
   1665   1676     1
   1665   1677     1
   1666   1679     1
   1667   3388     1
   1667   1673     1
   1667   1674     1
   1668   3388     1
   1668   1673     1
   1668   1674     1
   1672   3380     1
   1672   3381     1
   1673   3379     1
   1674   3379     1
   1675   3410     1
   1675   3411     1
   1676   3409     1
   1677   3409     1
   1680   1694     1
   1680   1695     1
   1680   1697     1
   1680   1698     1
   1680   1691     1
   1680   1692     1
   1681   1685     1
   1681   1686     1
   1681   1688     1
   1681   1689     1
   1681   1706     1
   1681   1707     1
   1682   1684     1
   1682   1687     1
   1682   1709     1
   1682   1705     1
   1682   1694     1
   1682   1695     1
   1683   1684     1
   1683   1687     1
   1683   1709     1
   1683   1705     1
   1683   1694     1
   1683   1695     1
   1684   1688     1
   1684   1689     1
   1684   1703     1
   1684   1704     1
   1685   1687     1
   1685   1709     1
   1685   1702     1
   1685   1697     1
   1685   1698     1
   1686   1687     1
   1686   1709     1
   1686   1702     1
   1686   1697     1
   1686   1698     1
   1687   1700     1
   1687   1701     1
   1688   1709     1
   1688   1699     1
   1688   1691     1
   1688   1692     1
   1689   1709     1
   1689   1699     1
   1689   1691     1
   1689   1692     1
   1690   1709     1
   1691   1708     1
   1691   1700     1
   1691   1701     1
   1692   1708     1
   1692   1700     1
   1692   1701     1
   1693   1709     1
   1694   3478     1
   1694   1706     1
   1694   1707     1
   1695   3478     1
   1695   1706     1
   1695   1707     1
   1696   1709     1
   1697   3448     1
   1697   1703     1
   1697   1704     1
   1698   3448     1
   1698   1703     1
   1698   1704     1
   1702   3440     1
   1702   3441     1
   1703   3439     1
   1704   3439     1
   1705   3470     1
   1705   3471     1
   1706   3469     1
   1707   3469     1
   1710   1724     1
   1710   1725     1
   1710   1727     1
   1710   1728     1
   1710   1721     1
   1710   1722     1
   1711   1715     1
   1711   1716     1
   1711   1718     1
   1711   1719     1
   1711   1736     1
   1711   1737     1
   1712   1714     1
   1712   1717     1
   1712   1739     1
   1712   1735     1
   1712   1724     1
   1712   1725     1
   1713   1714     1
   1713   1717     1
   1713   1739     1
   1713   1735     1
   1713   1724     1
   1713   1725     1
   1714   1718     1
   1714   1719     1
   1714   1733     1
   1714   1734     1
   1715   1717     1
   1715   1739     1
   1715   1732     1
   1715   1727     1
   1715   1728     1
   1716   1717     1
   1716   1739     1
   1716   1732     1
   1716   1727     1
   1716   1728     1
   1717   1730     1
   1717   1731     1
   1718   1739     1
   1718   1729     1
   1718   1721     1
   1718   1722     1
   1719   1739     1
   1719   1729     1
   1719   1721     1
   1719   1722     1
   1720   1739     1
   1721   1738     1
   1721   1730     1
   1721   1731     1
   1722   1738     1
   1722   1730     1
   1722   1731     1
   1723   1739     1
   1724   3538     1
   1724   1736     1
   1724   1737     1
   1725   3538     1
   1725   1736     1
   1725   1737     1
   1726   1739     1
   1727   3508     1
   1727   1733     1
   1727   1734     1
   1728   3508     1
   1728   1733     1
   1728   1734     1
   1732   3500     1
   1732   3501     1
   1733   3499     1
   1734   3499     1
   1735   3530     1
   1735   3531     1
   1736   3529     1
   1737   3529     1
   1740   1754     1
   1740   1755     1
   1740   1757     1
   1740   1758     1
   1740   1751     1
   1740   1752     1
   1741   1745     1
   1741   1746     1
   1741   1748     1
   1741   1749     1
   1741   1766     1
   1741   1767     1
   1742   1744     1
   1742   1747     1
   1742   1769     1
   1742   1765     1
   1742   1754     1
   1742   1755     1
   1743   1744     1
   1743   1747     1
   1743   1769     1
   1743   1765     1
   1743   1754     1
   1743   1755     1
   1744   1748     1
   1744   1749     1
   1744   1763     1
   1744   1764     1
   1745   1747     1
   1745   1769     1
   1745   1762     1
   1745   1757     1
   1745   1758     1
   1746   1747     1
   1746   1769     1
   1746   1762     1
   1746   1757     1
   1746   1758     1
   1747   1760     1
   1747   1761     1
   1748   1769     1
   1748   1759     1
   1748   1751     1
   1748   1752     1
   1749   1769     1
   1749   1759     1
   1749   1751     1
   1749   1752     1
   1750   1769     1
   1751   1768     1
   1751   1760     1
   1751   1761     1
   1752   1768     1
   1752   1760     1
   1752   1761     1
   1753   1769     1
   1754   3598     1
   1754   1766     1
   1754   1767     1
   1755   3598     1
   1755   1766     1
   1755   1767     1
   1756   1769     1
   1757   3568     1
   1757   1763     1
   1757   1764     1
   1758   3568     1
   1758   1763     1
   1758   1764     1
   1762   3560     1
   1762   3561     1
   1763   3559     1
   1764   3559     1
   1765   3590     1
   1765   3591     1
   1766   3589     1
   1767   3589     1
   1770   1784     1
   1770   1785     1
   1770   1787     1
   1770   1788     1
   1770   1781     1
   1770   1782     1
   1771   1775     1
   1771   1776     1
   1771   1778     1
   1771   1779     1
   1771   1796     1
   1771   1797     1
   1772   1774     1
   1772   1777     1
   1772   1799     1
   1772   1795     1
   1772   1784     1
   1772   1785     1
   1773   1774     1
   1773   1777     1
   1773   1799     1
   1773   1795     1
   1773   1784     1
   1773   1785     1
   1774   1778     1
   1774   1779     1
   1774   1793     1
   1774   1794     1
   1775   1777     1
   1775   1799     1
   1775   1792     1
   1775   1787     1
   1775   1788     1
   1776   1777     1
   1776   1799     1
   1776   1792     1
   1776   1787     1
   1776   1788     1
   1777   1790     1
   1777   1791     1
   1778   1799     1
   1778   1789     1
   1778   1781     1
   1778   1782     1
   1779   1799     1
   1779   1789     1
   1779   1781     1
   1779   1782     1
   1780   1799     1
   1781   1798     1
   1781   1790     1
   1781   1791     1
   1782   1798     1
   1782   1790     1
   1782   1791     1
   1783   1799     1
   1784   3658     1
   1784   1796     1
   1784   1797     1
   1785   3658     1
   1785   1796     1
   1785   1797     1
   1786   1799     1
   1787   3628     1
   1787   1793     1
   1787   1794     1
   1788   3628     1
   1788   1793     1
   1788   1794     1
   1792   3620     1
   1792   3621     1
   1793   3619     1
   1794   3619     1
   1795   3650     1
   1795   3651     1
   1796   3649     1
   1797   3649     1
   1800   1814     1
   1800   1815     1
   1800   1817     1
   1800   1818     1
   1800   1811     1
   1800   1812     1
   1801   1805     1
   1801   1806     1
   1801   1808     1
   1801   1809     1
   1801   1826     1
   1801   1827     1
   1802   1804     1
   1802   1807     1
   1802   1829     1
   1802   1825     1
   1802   1814     1
   1802   1815     1
   1803   1804     1
   1803   1807     1
   1803   1829     1
   1803   1825     1
   1803   1814     1
   1803   1815     1
   1804   1808     1
   1804   1809     1
   1804   1823     1
   1804   1824     1
   1805   1807     1
   1805   1829     1
   1805   1822     1
   1805   1817     1
   1805   1818     1
   1806   1807     1
   1806   1829     1
   1806   1822     1
   1806   1817     1
   1806   1818     1
   1807   1820     1
   1807   1821     1
   1808   1829     1
   1808   1819     1
   1808   1811     1
   1808   1812     1
   1809   1829     1
   1809   1819     1
   1809   1811     1
   1809   1812     1
   1810   1829     1
   1811   1828     1
   1811   1820     1
   1811   1821     1
   1812   1828     1
   1812   1820     1
   1812   1821     1
   1813   1829     1
   1814   3718     1
   1814   1826     1
   1814   1827     1
   1815   3718     1
   1815   1826     1
   1815   1827     1
   1816   1829     1
   1817   3688     1
   1817   1823     1
   1817   1824     1
   1818   3688     1
   1818   1823     1
   1818   1824     1
   1822   3680     1
   1822   3681     1
   1823   3679     1
   1824   3679     1
   1825   3710     1
   1825   3711     1
   1826   3709     1
   1827   3709     1
   1830   1844     1
   1830   1845     1
   1830   1847     1
   1830   1848     1
   1830   1841     1
   1830   1842     1
   1831   1835     1
   1831   1836     1
   1831   1838     1
   1831   1839     1
   1831   1856     1
   1831   1857     1
   1832   1834     1
   1832   1837     1
   1832   1859     1
   1832   1855     1
   1832   1844     1
   1832   1845     1
   1833   1834     1
   1833   1837     1
   1833   1859     1
   1833   1855     1
   1833   1844     1
   1833   1845     1
   1834   1838     1
   1834   1839     1
   1834   1853     1
   1834   1854     1
   1835   1837     1
   1835   1859     1
   1835   1852     1
   1835   1847     1
   1835   1848     1
   1836   1837     1
   1836   1859     1
   1836   1852     1
   1836   1847     1
   1836   1848     1
   1837   1850     1
   1837   1851     1
   1838   1859     1
   1838   1849     1
   1838   1841     1
   1838   1842     1
   1839   1859     1
   1839   1849     1
   1839   1841     1
   1839   1842     1
   1840   1859     1
   1841   1858     1
   1841   1850     1
   1841   1851     1
   1842   1858     1
   1842   1850     1
   1842   1851     1
   1843   1859     1
   1844   3778     1
   1844   1856     1
   1844   1857     1
   1845   3778     1
   1845   1856     1
   1845   1857     1
   1846   1859     1
   1847   3748     1
   1847   1853     1
   1847   1854     1
   1848   3748     1
   1848   1853     1
   1848   1854     1
   1852   3740     1
   1852   3741     1
   1853   3739     1
   1854   3739     1
   1855   3770     1
   1855   3771     1
   1856   3769     1
   1857   3769     1
   1860   1874     1
   1860   1875     1
   1860   1877     1
   1860   1878     1
   1860   1871     1
   1860   1872     1
   1861   1865     1
   1861   1866     1
   1861   1868     1
   1861   1869     1
   1861   1886     1
   1861   1887     1
   1862   1864     1
   1862   1867     1
   1862   1889     1
   1862   1885     1
   1862   1874     1
   1862   1875     1
   1863   1864     1
   1863   1867     1
   1863   1889     1
   1863   1885     1
   1863   1874     1
   1863   1875     1
   1864   1868     1
   1864   1869     1
   1864   1883     1
   1864   1884     1
   1865   1867     1
   1865   1889     1
   1865   1882     1
   1865   1877     1
   1865   1878     1
   1866   1867     1
   1866   1889     1
   1866   1882     1
   1866   1877     1
   1866   1878     1
   1867   1880     1
   1867   1881     1
   1868   1889     1
   1868   1879     1
   1868   1871     1
   1868   1872     1
   1869   1889     1
   1869   1879     1
   1869   1871     1
   1869   1872     1
   1870   1889     1
   1871   1888     1
   1871   1880     1
   1871   1881     1
   1872   1888     1
   1872   1880     1
   1872   1881     1
   1873   1889     1
   1874   3838     1
   1874   1886     1
   1874   1887     1
   1875   3838     1
   1875   1886     1
   1875   1887     1
   1876   1889     1
   1877   3808     1
   1877   1883     1
   1877   1884     1
   1878   3808     1
   1878   1883     1
   1878   1884     1
   1882   3800     1
   1882   3801     1
   1883   3799     1
   1884   3799     1
   1885   3830     1
   1885   3831     1
   1886   3829     1
   1887   3829     1
   1890   1904     1
   1890   1905     1
   1890   1907     1
   1890   1908     1
   1890   1901     1
   1890   1902     1
   1891   1895     1
   1891   1896     1
   1891   1898     1
   1891   1899     1
   1891   1916     1
   1891   1917     1
   1892   1894     1
   1892   1897     1
   1892   1919     1
   1892   1915     1
   1892   1904     1
   1892   1905     1
   1893   1894     1
   1893   1897     1
   1893   1919     1
   1893   1915     1
   1893   1904     1
   1893   1905     1
   1894   1898     1
   1894   1899     1
   1894   1913     1
   1894   1914     1
   1895   1897     1
   1895   1919     1
   1895   1912     1
   1895   1907     1
   1895   1908     1
   1896   1897     1
   1896   1919     1
   1896   1912     1
   1896   1907     1
   1896   1908     1
   1897   1910     1
   1897   1911     1
   1898   1919     1
   1898   1909     1
   1898   1901     1
   1898   1902     1
   1899   1919     1
   1899   1909     1
   1899   1901     1
   1899   1902     1
   1900   1919     1
   1901   1918     1
   1901   1910     1
   1901   1911     1
   1902   1918     1
   1902   1910     1
   1902   1911     1
   1903   1919     1
   1904   3898     1
   1904   1916     1
   1904   1917     1
   1905   3898     1
   1905   1916     1
   1905   1917     1
   1906   1919     1
   1907   3868     1
   1907   1913     1
   1907   1914     1
   1908   3868     1
   1908   1913     1
   1908   1914     1
   1912   3860     1
   1912   3861     1
   1913   3859     1
   1914   3859     1
   1915   3890     1
   1915   3891     1
   1916   3889     1
   1917   3889     1
   1920   1934     1
   1920   1935     1
   1920   1937     1
   1920   1938     1
   1920   1931     1
   1920   1932     1
   1921   1925     1
   1921   1926     1
   1921   1928     1
   1921   1929     1
   1921   1946     1
   1921   1947     1
   1922   1924     1
   1922   1927     1
   1922   1949     1
   1922   1945     1
   1922   1934     1
   1922   1935     1
   1923   1924     1
   1923   1927     1
   1923   1949     1
   1923   1945     1
   1923   1934     1
   1923   1935     1
   1924   1928     1
   1924   1929     1
   1924   1943     1
   1924   1944     1
   1925   1927     1
   1925   1949     1
   1925   1942     1
   1925   1937     1
   1925   1938     1
   1926   1927     1
   1926   1949     1
   1926   1942     1
   1926   1937     1
   1926   1938     1
   1927   1940     1
   1927   1941     1
   1928   1949     1
   1928   1939     1
   1928   1931     1
   1928   1932     1
   1929   1949     1
   1929   1939     1
   1929   1931     1
   1929   1932     1
   1930   1949     1
   1931   1948     1
   1931   1940     1
   1931   1941     1
   1932   1948     1
   1932   1940     1
   1932   1941     1
   1933   1949     1
   1934   3958     1
   1934   1946     1
   1934   1947     1
   1935   3958     1
   1935   1946     1
   1935   1947     1
   1936   1949     1
   1937   3928     1
   1937   1943     1
   1937   1944     1
   1938   3928     1
   1938   1943     1
   1938   1944     1
   1942   3920     1
   1942   3921     1
   1943   3919     1
   1944   3919     1
   1945   3950     1
   1945   3951     1
   1946   3949     1
   1947   3949     1
   1950   1964     1
   1950   1965     1
   1950   1967     1
   1950   1968     1
   1950   1961     1
   1950   1962     1
   1951   1955     1
   1951   1956     1
   1951   1958     1
   1951   1959     1
   1951   1976     1
   1951   1977     1
   1952   1954     1
   1952   1957     1
   1952   1979     1
   1952   1975     1
   1952   1964     1
   1952   1965     1
   1953   1954     1
   1953   1957     1
   1953   1979     1
   1953   1975     1
   1953   1964     1
   1953   1965     1
   1954   1958     1
   1954   1959     1
   1954   1973     1
   1954   1974     1
   1955   1957     1
   1955   1979     1
   1955   1972     1
   1955   1967     1
   1955   1968     1
   1956   1957     1
   1956   1979     1
   1956   1972     1
   1956   1967     1
   1956   1968     1
   1957   1970     1
   1957   1971     1
   1958   1979     1
   1958   1969     1
   1958   1961     1
   1958   1962     1
   1959   1979     1
   1959   1969     1
   1959   1961     1
   1959   1962     1
   1960   1979     1
   1961   1978     1
   1961   1970     1
   1961   1971     1
   1962   1978     1
   1962   1970     1
   1962   1971     1
   1963   1979     1
   1964   4018     1
   1964   1976     1
   1964   1977     1
   1965   4018     1
   1965   1976     1
   1965   1977     1
   1966   1979     1
   1967   3988     1
   1967   1973     1
   1967   1974     1
   1968   3988     1
   1968   1973     1
   1968   1974     1
   1972   3980     1
   1972   3981     1
   1973   3979     1
   1974   3979     1
   1975   4010     1
   1975   4011     1
   1976   4009     1
   1977   4009     1
   1980   1994     1
   1980   1995     1
   1980   1997     1
   1980   1998     1
   1980   1991     1
   1980   1992     1
   1981   1985     1
   1981   1986     1
   1981   1988     1
   1981   1989     1
   1981   2006     1
   1981   2007     1
   1982   1984     1
   1982   1987     1
   1982   2009     1
   1982   2005     1
   1982   1994     1
   1982   1995     1
   1983   1984     1
   1983   1987     1
   1983   2009     1
   1983   2005     1
   1983   1994     1
   1983   1995     1
   1984   1988     1
   1984   1989     1
   1984   2003     1
   1984   2004     1
   1985   1987     1
   1985   2009     1
   1985   2002     1
   1985   1997     1
   1985   1998     1
   1986   1987     1
   1986   2009     1
   1986   2002     1
   1986   1997     1
   1986   1998     1
   1987   2000     1
   1987   2001     1
   1988   2009     1
   1988   1999     1
   1988   1991     1
   1988   1992     1
   1989   2009     1
   1989   1999     1
   1989   1991     1
   1989   1992     1
   1990   2009     1
   1991   2008     1
   1991   2000     1
   1991   2001     1
   1992   2008     1
   1992   2000     1
   1992   2001     1
   1993   2009     1
   1994   4078     1
   1994   2006     1
   1994   2007     1
   1995   4078     1
   1995   2006     1
   1995   2007     1
   1996   2009     1
   1997   4048     1
   1997   2003     1
   1997   2004     1
   1998   4048     1
   1998   2003     1
   1998   2004     1
   2002   4040     1
   2002   4041     1
   2003   4039     1
   2004   4039     1
   2005   4070     1
   2005   4071     1
   2006   4069     1
   2007   4069     1
   2010   2024     1
   2010   2025     1
   2010   2027     1
   2010   2028     1
   2010   2021     1
   2010   2022     1
   2011   2015     1
   2011   2016     1
   2011   2018     1
   2011   2019     1
   2011   2036     1
   2011   2037     1
   2012   2014     1
   2012   2017     1
   2012   2039     1
   2012   2035     1
   2012   2024     1
   2012   2025     1
   2013   2014     1
   2013   2017     1
   2013   2039     1
   2013   2035     1
   2013   2024     1
   2013   2025     1
   2014   2018     1
   2014   2019     1
   2014   2033     1
   2014   2034     1
   2015   2017     1
   2015   2039     1
   2015   2032     1
   2015   2027     1
   2015   2028     1
   2016   2017     1
   2016   2039     1
   2016   2032     1
   2016   2027     1
   2016   2028     1
   2017   2030     1
   2017   2031     1
   2018   2039     1
   2018   2029     1
   2018   2021     1
   2018   2022     1
   2019   2039     1
   2019   2029     1
   2019   2021     1
   2019   2022     1
   2020   2039     1
   2021   2038     1
   2021   2030     1
   2021   2031     1
   2022   2038     1
   2022   2030     1
   2022   2031     1
   2023   2039     1
   2024   4138     1
   2024   2036     1
   2024   2037     1
   2025   4138     1
   2025   2036     1
   2025   2037     1
   2026   2039     1
   2027   4108     1
   2027   2033     1
   2027   2034     1
   2028   4108     1
   2028   2033     1
   2028   2034     1
   2032   4100     1
   2032   4101     1
   2033   4099     1
   2034   4099     1
   2035   4130     1
   2035   4131     1
   2036   4129     1
   2037   4129     1
   2040   2054     1
   2040   2055     1
   2040   2057     1
   2040   2058     1
   2040   2051     1
   2040   2052     1
   2041   2045     1
   2041   2046     1
   2041   2048     1
   2041   2049     1
   2041   2066     1
   2041   2067     1
   2042   2044     1
   2042   2047     1
   2042   2069     1
   2042   2065     1
   2042   2054     1
   2042   2055     1
   2043   2044     1
   2043   2047     1
   2043   2069     1
   2043   2065     1
   2043   2054     1
   2043   2055     1
   2044   2048     1
   2044   2049     1
   2044   2063     1
   2044   2064     1
   2045   2047     1
   2045   2069     1
   2045   2062     1
   2045   2057     1
   2045   2058     1
   2046   2047     1
   2046   2069     1
   2046   2062     1
   2046   2057     1
   2046   2058     1
   2047   2060     1
   2047   2061     1
   2048   2069     1
   2048   2059     1
   2048   2051     1
   2048   2052     1
   2049   2069     1
   2049   2059     1
   2049   2051     1
   2049   2052     1
   2050   2069     1
   2051   2068     1
   2051   2060     1
   2051   2061     1
   2052   2068     1
   2052   2060     1
   2052   2061     1
   2053   2069     1
   2054   4198     1
   2054   2066     1
   2054   2067     1
   2055   4198     1
   2055   2066     1
   2055   2067     1
   2056   2069     1
   2057   4168     1
   2057   2063     1
   2057   2064     1
   2058   4168     1
   2058   2063     1
   2058   2064     1
   2062   4160     1
   2062   4161     1
   2063   4159     1
   2064   4159     1
   2065   4190     1
   2065   4191     1
   2066   4189     1
   2067   4189     1
   2070   2084     1
   2070   2085     1
   2070   2087     1
   2070   2088     1
   2070   2081     1
   2070   2082     1
   2071   2075     1
   2071   2076     1
   2071   2078     1
   2071   2079     1
   2071   2096     1
   2071   2097     1
   2072   2074     1
   2072   2077     1
   2072   2099     1
   2072   2095     1
   2072   2084     1
   2072   2085     1
   2073   2074     1
   2073   2077     1
   2073   2099     1
   2073   2095     1
   2073   2084     1
   2073   2085     1
   2074   2078     1
   2074   2079     1
   2074   2093     1
   2074   2094     1
   2075   2077     1
   2075   2099     1
   2075   2092     1
   2075   2087     1
   2075   2088     1
   2076   2077     1
   2076   2099     1
   2076   2092     1
   2076   2087     1
   2076   2088     1
   2077   2090     1
   2077   2091     1
   2078   2099     1
   2078   2089     1
   2078   2081     1
   2078   2082     1
   2079   2099     1
   2079   2089     1
   2079   2081     1
   2079   2082     1
   2080   2099     1
   2081   2098     1
   2081   2090     1
   2081   2091     1
   2082   2098     1
   2082   2090     1
   2082   2091     1
   2083   2099     1
   2084   4258     1
   2084   2096     1
   2084   2097     1
   2085   4258     1
   2085   2096     1
   2085   2097     1
   2086   2099     1
   2087   4228     1
   2087   2093     1
   2087   2094     1
   2088   4228     1
   2088   2093     1
   2088   2094     1
   2092   4220     1
   2092   4221     1
   2093   4219     1
   2094   4219     1
   2095   4250     1
   2095   4251     1
   2096   4249     1
   2097   4249     1
   2100   2114     1
   2100   2115     1
   2100   2117     1
   2100   2118     1
   2100   2111     1
   2100   2112     1
   2101   2105     1
   2101   2106     1
   2101   2108     1
   2101   2109     1
   2101   2126     1
   2101   2127     1
   2102   2104     1
   2102   2107     1
   2102   2129     1
   2102   2125     1
   2102   2114     1
   2102   2115     1
   2103   2104     1
   2103   2107     1
   2103   2129     1
   2103   2125     1
   2103   2114     1
   2103   2115     1
   2104   2108     1
   2104   2109     1
   2104   2123     1
   2104   2124     1
   2105   2107     1
   2105   2129     1
   2105   2122     1
   2105   2117     1
   2105   2118     1
   2106   2107     1
   2106   2129     1
   2106   2122     1
   2106   2117     1
   2106   2118     1
   2107   2120     1
   2107   2121     1
   2108   2129     1
   2108   2119     1
   2108   2111     1
   2108   2112     1
   2109   2129     1
   2109   2119     1
   2109   2111     1
   2109   2112     1
   2110   2129     1
   2111   2128     1
   2111   2120     1
   2111   2121     1
   2112   2128     1
   2112   2120     1
   2112   2121     1
   2113   2129     1
   2114   4318     1
   2114   2126     1
   2114   2127     1
   2115   4318     1
   2115   2126     1
   2115   2127     1
   2116   2129     1
   2117   4288     1
   2117   2123     1
   2117   2124     1
   2118   4288     1
   2118   2123     1
   2118   2124     1
   2122   4280     1
   2122   4281     1
   2123   4279     1
   2124   4279     1
   2125   4310     1
   2125   4311     1
   2126   4309     1
   2127   4309     1
   2130   2144     1
   2130   2145     1
   2130   2147     1
   2130   2148     1
   2130   2141     1
   2130   2142     1
   2131   2135     1
   2131   2136     1
   2131   2138     1
   2131   2139     1
   2131   2156     1
   2131   2157     1
   2132   2134     1
   2132   2137     1
   2132   2159     1
   2132   2155     1
   2132   2144     1
   2132   2145     1
   2133   2134     1
   2133   2137     1
   2133   2159     1
   2133   2155     1
   2133   2144     1
   2133   2145     1
   2134   2138     1
   2134   2139     1
   2134   2153     1
   2134   2154     1
   2135   2137     1
   2135   2159     1
   2135   2152     1
   2135   2147     1
   2135   2148     1
   2136   2137     1
   2136   2159     1
   2136   2152     1
   2136   2147     1
   2136   2148     1
   2137   2150     1
   2137   2151     1
   2138   2159     1
   2138   2149     1
   2138   2141     1
   2138   2142     1
   2139   2159     1
   2139   2149     1
   2139   2141     1
   2139   2142     1
   2140   2159     1
   2141   2158     1
   2141   2150     1
   2141   2151     1
   2142   2158     1
   2142   2150     1
   2142   2151     1
   2143   2159     1
   2144   4378     1
   2144   2156     1
   2144   2157     1
   2145   4378     1
   2145   2156     1
   2145   2157     1
   2146   2159     1
   2147   4348     1
   2147   2153     1
   2147   2154     1
   2148   4348     1
   2148   2153     1
   2148   2154     1
   2152   4340     1
   2152   4341     1
   2153   4339     1
   2154   4339     1
   2155   4370     1
   2155   4371     1
   2156   4369     1
   2157   4369     1
   2160   2174     1
   2160   2175     1
   2160   2177     1
   2160   2178     1
   2160   2171     1
   2160   2172     1
   2161   2165     1
   2161   2166     1
   2161   2168     1
   2161   2169     1
   2161   2186     1
   2161   2187     1
   2162   2164     1
   2162   2167     1
   2162   2189     1
   2162   2185     1
   2162   2174     1
   2162   2175     1
   2163   2164     1
   2163   2167     1
   2163   2189     1
   2163   2185     1
   2163   2174     1
   2163   2175     1
   2164   2168     1
   2164   2169     1
   2164   2183     1
   2164   2184     1
   2165   2167     1
   2165   2189     1
   2165   2182     1
   2165   2177     1
   2165   2178     1
   2166   2167     1
   2166   2189     1
   2166   2182     1
   2166   2177     1
   2166   2178     1
   2167   2180     1
   2167   2181     1
   2168   2189     1
   2168   2179     1
   2168   2171     1
   2168   2172     1
   2169   2189     1
   2169   2179     1
   2169   2171     1
   2169   2172     1
   2170   2189     1
   2171   2188     1
   2171   2180     1
   2171   2181     1
   2172   2188     1
   2172   2180     1
   2172   2181     1
   2173   2189     1
   2174   4438     1
   2174   2186     1
   2174   2187     1
   2175   4438     1
   2175   2186     1
   2175   2187     1
   2176   2189     1
   2177   4408     1
   2177   2183     1
   2177   2184     1
   2178   4408     1
   2178   2183     1
   2178   2184     1
   2182   4400     1
   2182   4401     1
   2183   4399     1
   2184   4399     1
   2185   4430     1
   2185   4431     1
   2186   4429     1
   2187   4429     1
   2190   2204     1
   2190   2205     1
   2190   2207     1
   2190   2208     1
   2190   2201     1
   2190   2202     1
   2191   2195     1
   2191   2196     1
   2191   2198     1
   2191   2199     1
   2191   2216     1
   2191   2217     1
   2192   2194     1
   2192   2197     1
   2192   2219     1
   2192   2215     1
   2192   2204     1
   2192   2205     1
   2193   2194     1
   2193   2197     1
   2193   2219     1
   2193   2215     1
   2193   2204     1
   2193   2205     1
   2194   2198     1
   2194   2199     1
   2194   2213     1
   2194   2214     1
   2195   2197     1
   2195   2219     1
   2195   2212     1
   2195   2207     1
   2195   2208     1
   2196   2197     1
   2196   2219     1
   2196   2212     1
   2196   2207     1
   2196   2208     1
   2197   2210     1
   2197   2211     1
   2198   2219     1
   2198   2209     1
   2198   2201     1
   2198   2202     1
   2199   2219     1
   2199   2209     1
   2199   2201     1
   2199   2202     1
   2200   2219     1
   2201   2218     1
   2201   2210     1
   2201   2211     1
   2202   2218     1
   2202   2210     1
   2202   2211     1
   2203   2219     1
   2204   4498     1
   2204   2216     1
   2204   2217     1
   2205   4498     1
   2205   2216     1
   2205   2217     1
   2206   2219     1
   2207   4468     1
   2207   2213     1
   2207   2214     1
   2208   4468     1
   2208   2213     1
   2208   2214     1
   2212   4460     1
   2212   4461     1
   2213   4459     1
   2214   4459     1
   2215   4490     1
   2215   4491     1
   2216   4489     1
   2217   4489     1
   2220   2234     1
   2220   2235     1
   2220   2237     1
   2220   2238     1
   2220   2231     1
   2220   2232     1
   2221   2225     1
   2221   2226     1
   2221   2228     1
   2221   2229     1
   2221   2246     1
   2221   2247     1
   2222   2224     1
   2222   2227     1
   2222   2249     1
   2222   2245     1
   2222   2234     1
   2222   2235     1
   2223   2224     1
   2223   2227     1
   2223   2249     1
   2223   2245     1
   2223   2234     1
   2223   2235     1
   2224   2228     1
   2224   2229     1
   2224   2243     1
   2224   2244     1
   2225   2227     1
   2225   2249     1
   2225   2242     1
   2225   2237     1
   2225   2238     1
   2226   2227     1
   2226   2249     1
   2226   2242     1
   2226   2237     1
   2226   2238     1
   2227   2240     1
   2227   2241     1
   2228   2249     1
   2228   2239     1
   2228   2231     1
   2228   2232     1
   2229   2249     1
   2229   2239     1
   2229   2231     1
   2229   2232     1
   2230   2249     1
   2231   2248     1
   2231   2240     1
   2231   2241     1
   2232   2248     1
   2232   2240     1
   2232   2241     1
   2233   2249     1
   2234   4558     1
   2234   2246     1
   2234   2247     1
   2235   4558     1
   2235   2246     1
   2235   2247     1
   2236   2249     1
   2237   4528     1
   2237   2243     1
   2237   2244     1
   2238   4528     1
   2238   2243     1
   2238   2244     1
   2242   4520     1
   2242   4521     1
   2243   4519     1
   2244   4519     1
   2245   4550     1
   2245   4551     1
   2246   4549     1
   2247   4549     1
   2250   2264     1
   2250   2265     1
   2250   2267     1
   2250   2268     1
   2250   2261     1
   2250   2262     1
   2251   2255     1
   2251   2256     1
   2251   2258     1
   2251   2259     1
   2251   2276     1
   2251   2277     1
   2252   2254     1
   2252   2257     1
   2252   2279     1
   2252   2275     1
   2252   2264     1
   2252   2265     1
   2253   2254     1
   2253   2257     1
   2253   2279     1
   2253   2275     1
   2253   2264     1
   2253   2265     1
   2254   2258     1
   2254   2259     1
   2254   2273     1
   2254   2274     1
   2255   2257     1
   2255   2279     1
   2255   2272     1
   2255   2267     1
   2255   2268     1
   2256   2257     1
   2256   2279     1
   2256   2272     1
   2256   2267     1
   2256   2268     1
   2257   2270     1
   2257   2271     1
   2258   2279     1
   2258   2269     1
   2258   2261     1
   2258   2262     1
   2259   2279     1
   2259   2269     1
   2259   2261     1
   2259   2262     1
   2260   2279     1
   2261   2278     1
   2261   2270     1
   2261   2271     1
   2262   2278     1
   2262   2270     1
   2262   2271     1
   2263   2279     1
   2264   4618     1
   2264   2276     1
   2264   2277     1
   2265   4618     1
   2265   2276     1
   2265   2277     1
   2266   2279     1
   2267   4588     1
   2267   2273     1
   2267   2274     1
   2268   4588     1
   2268   2273     1
   2268   2274     1
   2272   4580     1
   2272   4581     1
   2273   4579     1
   2274   4579     1
   2275   4610     1
   2275   4611     1
   2276   4609     1
   2277   4609     1
   2280   2294     1
   2280   2295     1
   2280   2297     1
   2280   2298     1
   2280   2291     1
   2280   2292     1
   2281   2285     1
   2281   2286     1
   2281   2288     1
   2281   2289     1
   2281   2306     1
   2281   2307     1
   2282   2284     1
   2282   2287     1
   2282   2309     1
   2282   2305     1
   2282   2294     1
   2282   2295     1
   2283   2284     1
   2283   2287     1
   2283   2309     1
   2283   2305     1
   2283   2294     1
   2283   2295     1
   2284   2288     1
   2284   2289     1
   2284   2303     1
   2284   2304     1
   2285   2287     1
   2285   2309     1
   2285   2302     1
   2285   2297     1
   2285   2298     1
   2286   2287     1
   2286   2309     1
   2286   2302     1
   2286   2297     1
   2286   2298     1
   2287   2300     1
   2287   2301     1
   2288   2309     1
   2288   2299     1
   2288   2291     1
   2288   2292     1
   2289   2309     1
   2289   2299     1
   2289   2291     1
   2289   2292     1
   2290   2309     1
   2291   2308     1
   2291   2300     1
   2291   2301     1
   2292   2308     1
   2292   2300     1
   2292   2301     1
   2293   2309     1
   2294   4678     1
   2294   2306     1
   2294   2307     1
   2295   4678     1
   2295   2306     1
   2295   2307     1
   2296   2309     1
   2297   4648     1
   2297   2303     1
   2297   2304     1
   2298   4648     1
   2298   2303     1
   2298   2304     1
   2302   4640     1
   2302   4641     1
   2303   4639     1
   2304   4639     1
   2305   4670     1
   2305   4671     1
   2306   4669     1
   2307   4669     1
   2310   2324     1
   2310   2325     1
   2310   2327     1
   2310   2328     1
   2310   2321     1
   2310   2322     1
   2311   2315     1
   2311   2316     1
   2311   2318     1
   2311   2319     1
   2311   2336     1
   2311   2337     1
   2312   2314     1
   2312   2317     1
   2312   2339     1
   2312   2335     1
   2312   2324     1
   2312   2325     1
   2313   2314     1
   2313   2317     1
   2313   2339     1
   2313   2335     1
   2313   2324     1
   2313   2325     1
   2314   2318     1
   2314   2319     1
   2314   2333     1
   2314   2334     1
   2315   2317     1
   2315   2339     1
   2315   2332     1
   2315   2327     1
   2315   2328     1
   2316   2317     1
   2316   2339     1
   2316   2332     1
   2316   2327     1
   2316   2328     1
   2317   2330     1
   2317   2331     1
   2318   2339     1
   2318   2329     1
   2318   2321     1
   2318   2322     1
   2319   2339     1
   2319   2329     1
   2319   2321     1
   2319   2322     1
   2320   2339     1
   2321   2338     1
   2321   2330     1
   2321   2331     1
   2322   2338     1
   2322   2330     1
   2322   2331     1
   2323   2339     1
   2324   4738     1
   2324   2336     1
   2324   2337     1
   2325   4738     1
   2325   2336     1
   2325   2337     1
   2326   2339     1
   2327   4708     1
   2327   2333     1
   2327   2334     1
   2328   4708     1
   2328   2333     1
   2328   2334     1
   2332   4700     1
   2332   4701     1
   2333   4699     1
   2334   4699     1
   2335   4730     1
   2335   4731     1
   2336   4729     1
   2337   4729     1
   2340   2354     1
   2340   2355     1
   2340   2357     1
   2340   2358     1
   2340   2351     1
   2340   2352     1
   2341   2345     1
   2341   2346     1
   2341   2348     1
   2341   2349     1
   2341   2366     1
   2341   2367     1
   2342   2344     1
   2342   2347     1
   2342   2369     1
   2342   2365     1
   2342   2354     1
   2342   2355     1
   2343   2344     1
   2343   2347     1
   2343   2369     1
   2343   2365     1
   2343   2354     1
   2343   2355     1
   2344   2348     1
   2344   2349     1
   2344   2363     1
   2344   2364     1
   2345   2347     1
   2345   2369     1
   2345   2362     1
   2345   2357     1
   2345   2358     1
   2346   2347     1
   2346   2369     1
   2346   2362     1
   2346   2357     1
   2346   2358     1
   2347   2360     1
   2347   2361     1
   2348   2369     1
   2348   2359     1
   2348   2351     1
   2348   2352     1
   2349   2369     1
   2349   2359     1
   2349   2351     1
   2349   2352     1
   2350   2369     1
   2351   2368     1
   2351   2360     1
   2351   2361     1
   2352   2368     1
   2352   2360     1
   2352   2361     1
   2353   2369     1
   2354   4798     1
   2354   2366     1
   2354   2367     1
   2355   4798     1
   2355   2366     1
   2355   2367     1
   2356   2369     1
   2357   4768     1
   2357   2363     1
   2357   2364     1
   2358   4768     1
   2358   2363     1
   2358   2364     1
   2362   4760     1
   2362   4761     1
   2363   4759     1
   2364   4759     1
   2365   4790     1
   2365   4791     1
   2366   4789     1
   2367   4789     1
   2370   2384     1
   2370   2385     1
   2370   2387     1
   2370   2388     1
   2370   2381     1
   2370   2382     1
   2371   2375     1
   2371   2376     1
   2371   2378     1
   2371   2379     1
   2371   2396     1
   2371   2397     1
   2372   2374     1
   2372   2377     1
   2372   2399     1
   2372   2395     1
   2372   2384     1
   2372   2385     1
   2373   2374     1
   2373   2377     1
   2373   2399     1
   2373   2395     1
   2373   2384     1
   2373   2385     1
   2374   2378     1
   2374   2379     1
   2374   2393     1
   2374   2394     1
   2375   2377     1
   2375   2399     1
   2375   2392     1
   2375   2387     1
   2375   2388     1
   2376   2377     1
   2376   2399     1
   2376   2392     1
   2376   2387     1
   2376   2388     1
   2377   2390     1
   2377   2391     1
   2378   2399     1
   2378   2389     1
   2378   2381     1
   2378   2382     1
   2379   2399     1
   2379   2389     1
   2379   2381     1
   2379   2382     1
   2380   2399     1
   2381   2398     1
   2381   2390     1
   2381   2391     1
   2382   2398     1
   2382   2390     1
   2382   2391     1
   2383   2399     1
   2384   4858     1
   2384   2396     1
   2384   2397     1
   2385   4858     1
   2385   2396     1
   2385   2397     1
   2386   2399     1
   2387   4828     1
   2387   2393     1
   2387   2394     1
   2388   4828     1
   2388   2393     1
   2388   2394     1
   2392   4820     1
   2392   4821     1
   2393   4819     1
   2394   4819     1
   2395   4850     1
   2395   4851     1
   2396   4849     1
   2397   4849     1
   2400   2414     1
   2400   2415     1
   2400   2417     1
   2400   2418     1
   2400   2411     1
   2400   2412     1
   2401   2405     1
   2401   2406     1
   2401   2408     1
   2401   2409     1
   2401   2426     1
   2401   2427     1
   2402   2404     1
   2402   2407     1
   2402   2429     1
   2402   2425     1
   2402   2414     1
   2402   2415     1
   2403   2404     1
   2403   2407     1
   2403   2429     1
   2403   2425     1
   2403   2414     1
   2403   2415     1
   2404   2408     1
   2404   2409     1
   2404   2423     1
   2404   2424     1
   2405   2407     1
   2405   2429     1
   2405   2422     1
   2405   2417     1
   2405   2418     1
   2406   2407     1
   2406   2429     1
   2406   2422     1
   2406   2417     1
   2406   2418     1
   2407   2420     1
   2407   2421     1
   2408   2429     1
   2408   2419     1
   2408   2411     1
   2408   2412     1
   2409   2429     1
   2409   2419     1
   2409   2411     1
   2409   2412     1
   2410   2429     1
   2411   2428     1
   2411   2420     1
   2411   2421     1
   2412   2428     1
   2412   2420     1
   2412   2421     1
   2413   2429     1
   2414   4918     1
   2414   2426     1
   2414   2427     1
   2415   4918     1
   2415   2426     1
   2415   2427     1
   2416   2429     1
   2417   4888     1
   2417   2423     1
   2417   2424     1
   2418   4888     1
   2418   2423     1
   2418   2424     1
   2422   4880     1
   2422   4881     1
   2423   4879     1
   2424   4879     1
   2425   4910     1
   2425   4911     1
   2426   4909     1
   2427   4909     1
   2430   2444     1
   2430   2445     1
   2430   2447     1
   2430   2448     1
   2430   2441     1
   2430   2442     1
   2431   2435     1
   2431   2436     1
   2431   2438     1
   2431   2439     1
   2431   2456     1
   2431   2457     1
   2432   2434     1
   2432   2437     1
   2432   2459     1
   2432   2455     1
   2432   2444     1
   2432   2445     1
   2433   2434     1
   2433   2437     1
   2433   2459     1
   2433   2455     1
   2433   2444     1
   2433   2445     1
   2434   2438     1
   2434   2439     1
   2434   2453     1
   2434   2454     1
   2435   2437     1
   2435   2459     1
   2435   2452     1
   2435   2447     1
   2435   2448     1
   2436   2437     1
   2436   2459     1
   2436   2452     1
   2436   2447     1
   2436   2448     1
   2437   2450     1
   2437   2451     1
   2438   2459     1
   2438   2449     1
   2438   2441     1
   2438   2442     1
   2439   2459     1
   2439   2449     1
   2439   2441     1
   2439   2442     1
   2440   2459     1
   2441   2458     1
   2441   2450     1
   2441   2451     1
   2442   2458     1
   2442   2450     1
   2442   2451     1
   2443   2459     1
   2444   4978     1
   2444   2456     1
   2444   2457     1
   2445   4978     1
   2445   2456     1
   2445   2457     1
   2446   2459     1
   2447   4948     1
   2447   2453     1
   2447   2454     1
   2448   4948     1
   2448   2453     1
   2448   2454     1
   2452   4940     1
   2452   4941     1
   2453   4939     1
   2454   4939     1
   2455   4970     1
   2455   4971     1
   2456   4969     1
   2457   4969     1
   2460   2474     1
   2460   2475     1
   2460   2477     1
   2460   2478     1
   2460   2471     1
   2460   2472     1
   2461   2465     1
   2461   2466     1
   2461   2468     1
   2461   2469     1
   2461   2486     1
   2461   2487     1
   2462   2464     1
   2462   2467     1
   2462   2489     1
   2462   2485     1
   2462   2474     1
   2462   2475     1
   2463   2464     1
   2463   2467     1
   2463   2489     1
   2463   2485     1
   2463   2474     1
   2463   2475     1
   2464   2468     1
   2464   2469     1
   2464   2483     1
   2464   2484     1
   2465   2467     1
   2465   2489     1
   2465   2482     1
   2465   2477     1
   2465   2478     1
   2466   2467     1
   2466   2489     1
   2466   2482     1
   2466   2477     1
   2466   2478     1
   2467   2480     1
   2467   2481     1
   2468   2489     1
   2468   2479     1
   2468   2471     1
   2468   2472     1
   2469   2489     1
   2469   2479     1
   2469   2471     1
   2469   2472     1
   2470   2489     1
   2471   2488     1
   2471   2480     1
   2471   2481     1
   2472   2488     1
   2472   2480     1
   2472   2481     1
   2473   2489     1
   2474   5038     1
   2474   2486     1
   2474   2487     1
   2475   5038     1
   2475   2486     1
   2475   2487     1
   2476   2489     1
   2477   5008     1
   2477   2483     1
   2477   2484     1
   2478   5008     1
   2478   2483     1
   2478   2484     1
   2482   5000     1
   2482   5001     1
   2483   4999     1
   2484   4999     1
   2485   5030     1
   2485   5031     1
   2486   5029     1
   2487   5029     1
   2490   2504     1
   2490   2505     1
   2490   2507     1
   2490   2508     1
   2490   2501     1
   2490   2502     1
   2491   2495     1
   2491   2496     1
   2491   2498     1
   2491   2499     1
   2491   2516     1
   2491   2517     1
   2492   2494     1
   2492   2497     1
   2492   2519     1
   2492   2515     1
   2492   2504     1
   2492   2505     1
   2493   2494     1
   2493   2497     1
   2493   2519     1
   2493   2515     1
   2493   2504     1
   2493   2505     1
   2494   2498     1
   2494   2499     1
   2494   2513     1
   2494   2514     1
   2495   2497     1
   2495   2519     1
   2495   2512     1
   2495   2507     1
   2495   2508     1
   2496   2497     1
   2496   2519     1
   2496   2512     1
   2496   2507     1
   2496   2508     1
   2497   2510     1
   2497   2511     1
   2498   2519     1
   2498   2509     1
   2498   2501     1
   2498   2502     1
   2499   2519     1
   2499   2509     1
   2499   2501     1
   2499   2502     1
   2500   2519     1
   2501   2518     1
   2501   2510     1
   2501   2511     1
   2502   2518     1
   2502   2510     1
   2502   2511     1
   2503   2519     1
   2504   5098     1
   2504   2516     1
   2504   2517     1
   2505   5098     1
   2505   2516     1
   2505   2517     1
   2506   2519     1
   2507   5068     1
   2507   2513     1
   2507   2514     1
   2508   5068     1
   2508   2513     1
   2508   2514     1
   2512   5060     1
   2512   5061     1
   2513   5059     1
   2514   5059     1
   2515   5090     1
   2515   5091     1
   2516   5089     1
   2517   5089     1
   2520   2534     1
   2520   2535     1
   2520   2537     1
   2520   2538     1
   2520   2531     1
   2520   2532     1
   2521   2525     1
   2521   2526     1
   2521   2528     1
   2521   2529     1
   2521   2546     1
   2521   2547     1
   2522   2524     1
   2522   2527     1
   2522   2549     1
   2522   2545     1
   2522   2534     1
   2522   2535     1
   2523   2524     1
   2523   2527     1
   2523   2549     1
   2523   2545     1
   2523   2534     1
   2523   2535     1
   2524   2528     1
   2524   2529     1
   2524   2543     1
   2524   2544     1
   2525   2527     1
   2525   2549     1
   2525   2542     1
   2525   2537     1
   2525   2538     1
   2526   2527     1
   2526   2549     1
   2526   2542     1
   2526   2537     1
   2526   2538     1
   2527   2540     1
   2527   2541     1
   2528   2549     1
   2528   2539     1
   2528   2531     1
   2528   2532     1
   2529   2549     1
   2529   2539     1
   2529   2531     1
   2529   2532     1
   2530   2549     1
   2531   2548     1
   2531   2540     1
   2531   2541     1
   2532   2548     1
   2532   2540     1
   2532   2541     1
   2533   2549     1
   2534   5158     1
   2534   2546     1
   2534   2547     1
   2535   5158     1
   2535   2546     1
   2535   2547     1
   2536   2549     1
   2537   5128     1
   2537   2543     1
   2537   2544     1
   2538   5128     1
   2538   2543     1
   2538   2544     1
   2542   5120     1
   2542   5121     1
   2543   5119     1
   2544   5119     1
   2545   5150     1
   2545   5151     1
   2546   5149     1
   2547   5149     1
   2550   2564     1
   2550   2565     1
   2550   2567     1
   2550   2568     1
   2550   2561     1
   2550   2562     1
   2551   2555     1
   2551   2556     1
   2551   2558     1
   2551   2559     1
   2551   2576     1
   2551   2577     1
   2552   2554     1
   2552   2557     1
   2552   2579     1
   2552   2575     1
   2552   2564     1
   2552   2565     1
   2553   2554     1
   2553   2557     1
   2553   2579     1
   2553   2575     1
   2553   2564     1
   2553   2565     1
   2554   2558     1
   2554   2559     1
   2554   2573     1
   2554   2574     1
   2555   2557     1
   2555   2579     1
   2555   2572     1
   2555   2567     1
   2555   2568     1
   2556   2557     1
   2556   2579     1
   2556   2572     1
   2556   2567     1
   2556   2568     1
   2557   2570     1
   2557   2571     1
   2558   2579     1
   2558   2569     1
   2558   2561     1
   2558   2562     1
   2559   2579     1
   2559   2569     1
   2559   2561     1
   2559   2562     1
   2560   2579     1
   2561   2578     1
   2561   2570     1
   2561   2571     1
   2562   2578     1
   2562   2570     1
   2562   2571     1
   2563   2579     1
   2564   5218     1
   2564   2576     1
   2564   2577     1
   2565   5218     1
   2565   2576     1
   2565   2577     1
   2566   2579     1
   2567   5188     1
   2567   2573     1
   2567   2574     1
   2568   5188     1
   2568   2573     1
   2568   2574     1
   2572   5180     1
   2572   5181     1
   2573   5179     1
   2574   5179     1
   2575   5210     1
   2575   5211     1
   2576   5209     1
   2577   5209     1
   2580   2594     1
   2580   2595     1
   2580   2597     1
   2580   2598     1
   2580   2591     1
   2580   2592     1
   2581   2585     1
   2581   2586     1
   2581   2588     1
   2581   2589     1
   2581   2606     1
   2581   2607     1
   2582   2584     1
   2582   2587     1
   2582   2609     1
   2582   2605     1
   2582   2594     1
   2582   2595     1
   2583   2584     1
   2583   2587     1
   2583   2609     1
   2583   2605     1
   2583   2594     1
   2583   2595     1
   2584   2588     1
   2584   2589     1
   2584   2603     1
   2584   2604     1
   2585   2587     1
   2585   2609     1
   2585   2602     1
   2585   2597     1
   2585   2598     1
   2586   2587     1
   2586   2609     1
   2586   2602     1
   2586   2597     1
   2586   2598     1
   2587   2600     1
   2587   2601     1
   2588   2609     1
   2588   2599     1
   2588   2591     1
   2588   2592     1
   2589   2609     1
   2589   2599     1
   2589   2591     1
   2589   2592     1
   2590   2609     1
   2591   2608     1
   2591   2600     1
   2591   2601     1
   2592   2608     1
   2592   2600     1
   2592   2601     1
   2593   2609     1
   2594   5278     1
   2594   2606     1
   2594   2607     1
   2595   5278     1
   2595   2606     1
   2595   2607     1
   2596   2609     1
   2597   5248     1
   2597   2603     1
   2597   2604     1
   2598   5248     1
   2598   2603     1
   2598   2604     1
   2602   5240     1
   2602   5241     1
   2603   5239     1
   2604   5239     1
   2605   5270     1
   2605   5271     1
   2606   5269     1
   2607   5269     1
   2610   2624     1
   2610   2625     1
   2610   2627     1
   2610   2628     1
   2610   2621     1
   2610   2622     1
   2611   2615     1
   2611   2616     1
   2611   2618     1
   2611   2619     1
   2611   2636     1
   2611   2637     1
   2612   2614     1
   2612   2617     1
   2612   2639     1
   2612   2635     1
   2612   2624     1
   2612   2625     1
   2613   2614     1
   2613   2617     1
   2613   2639     1
   2613   2635     1
   2613   2624     1
   2613   2625     1
   2614   2618     1
   2614   2619     1
   2614   2633     1
   2614   2634     1
   2615   2617     1
   2615   2639     1
   2615   2632     1
   2615   2627     1
   2615   2628     1
   2616   2617     1
   2616   2639     1
   2616   2632     1
   2616   2627     1
   2616   2628     1
   2617   2630     1
   2617   2631     1
   2618   2639     1
   2618   2629     1
   2618   2621     1
   2618   2622     1
   2619   2639     1
   2619   2629     1
   2619   2621     1
   2619   2622     1
   2620   2639     1
   2621   2638     1
   2621   2630     1
   2621   2631     1
   2622   2638     1
   2622   2630     1
   2622   2631     1
   2623   2639     1
   2624   5338     1
   2624   2636     1
   2624   2637     1
   2625   5338     1
   2625   2636     1
   2625   2637     1
   2626   2639     1
   2627   5308     1
   2627   2633     1
   2627   2634     1
   2628   5308     1
   2628   2633     1
   2628   2634     1
   2632   5300     1
   2632   5301     1
   2633   5299     1
   2634   5299     1
   2635   5330     1
   2635   5331     1
   2636   5329     1
   2637   5329     1
   2640   2654     1
   2640   2655     1
   2640   2657     1
   2640   2658     1
   2640   2651     1
   2640   2652     1
   2641   2645     1
   2641   2646     1
   2641   2648     1
   2641   2649     1
   2641   2666     1
   2641   2667     1
   2642   2644     1
   2642   2647     1
   2642   2669     1
   2642   2665     1
   2642   2654     1
   2642   2655     1
   2643   2644     1
   2643   2647     1
   2643   2669     1
   2643   2665     1
   2643   2654     1
   2643   2655     1
   2644   2648     1
   2644   2649     1
   2644   2663     1
   2644   2664     1
   2645   2647     1
   2645   2669     1
   2645   2662     1
   2645   2657     1
   2645   2658     1
   2646   2647     1
   2646   2669     1
   2646   2662     1
   2646   2657     1
   2646   2658     1
   2647   2660     1
   2647   2661     1
   2648   2669     1
   2648   2659     1
   2648   2651     1
   2648   2652     1
   2649   2669     1
   2649   2659     1
   2649   2651     1
   2649   2652     1
   2650   2669     1
   2651   2668     1
   2651   2660     1
   2651   2661     1
   2652   2668     1
   2652   2660     1
   2652   2661     1
   2653   2669     1
   2654   5398     1
   2654   2666     1
   2654   2667     1
   2655   5398     1
   2655   2666     1
   2655   2667     1
   2656   2669     1
   2657   5368     1
   2657   2663     1
   2657   2664     1
   2658   5368     1
   2658   2663     1
   2658   2664     1
   2662   5360     1
   2662   5361     1
   2663   5359     1
   2664   5359     1
   2665   5390     1
   2665   5391     1
   2666   5389     1
   2667   5389     1
   2670   2684     1
   2670   2685     1
   2670   2687     1
   2670   2688     1
   2670   2681     1
   2670   2682     1
   2671   2675     1
   2671   2676     1
   2671   2678     1
   2671   2679     1
   2671   2696     1
   2671   2697     1
   2672   2674     1
   2672   2677     1
   2672   2699     1
   2672   2695     1
   2672   2684     1
   2672   2685     1
   2673   2674     1
   2673   2677     1
   2673   2699     1
   2673   2695     1
   2673   2684     1
   2673   2685     1
   2674   2678     1
   2674   2679     1
   2674   2693     1
   2674   2694     1
   2675   2677     1
   2675   2699     1
   2675   2692     1
   2675   2687     1
   2675   2688     1
   2676   2677     1
   2676   2699     1
   2676   2692     1
   2676   2687     1
   2676   2688     1
   2677   2690     1
   2677   2691     1
   2678   2699     1
   2678   2689     1
   2678   2681     1
   2678   2682     1
   2679   2699     1
   2679   2689     1
   2679   2681     1
   2679   2682     1
   2680   2699     1
   2681   2698     1
   2681   2690     1
   2681   2691     1
   2682   2698     1
   2682   2690     1
   2682   2691     1
   2683   2699     1
   2684   5458     1
   2684   2696     1
   2684   2697     1
   2685   5458     1
   2685   2696     1
   2685   2697     1
   2686   2699     1
   2687   5428     1
   2687   2693     1
   2687   2694     1
   2688   5428     1
   2688   2693     1
   2688   2694     1
   2692   5420     1
   2692   5421     1
   2693   5419     1
   2694   5419     1
   2695   5450     1
   2695   5451     1
   2696   5449     1
   2697   5449     1
   2700   2714     1
   2700   2715     1
   2700   2717     1
   2700   2718     1
   2700   2711     1
   2700   2712     1
   2701   2705     1
   2701   2706     1
   2701   2708     1
   2701   2709     1
   2701   2726     1
   2701   2727     1
   2702   2704     1
   2702   2707     1
   2702   2729     1
   2702   2725     1
   2702   2714     1
   2702   2715     1
   2703   2704     1
   2703   2707     1
   2703   2729     1
   2703   2725     1
   2703   2714     1
   2703   2715     1
   2704   2708     1
   2704   2709     1
   2704   2723     1
   2704   2724     1
   2705   2707     1
   2705   2729     1
   2705   2722     1
   2705   2717     1
   2705   2718     1
   2706   2707     1
   2706   2729     1
   2706   2722     1
   2706   2717     1
   2706   2718     1
   2707   2720     1
   2707   2721     1
   2708   2729     1
   2708   2719     1
   2708   2711     1
   2708   2712     1
   2709   2729     1
   2709   2719     1
   2709   2711     1
   2709   2712     1
   2710   2729     1
   2711   2728     1
   2711   2720     1
   2711   2721     1
   2712   2728     1
   2712   2720     1
   2712   2721     1
   2713   2729     1
   2714   5518     1
   2714   2726     1
   2714   2727     1
   2715   5518     1
   2715   2726     1
   2715   2727     1
   2716   2729     1
   2717   5488     1
   2717   2723     1
   2717   2724     1
   2718   5488     1
   2718   2723     1
   2718   2724     1
   2722   5480     1
   2722   5481     1
   2723   5479     1
   2724   5479     1
   2725   5510     1
   2725   5511     1
   2726   5509     1
   2727   5509     1
   2730   2744     1
   2730   2745     1
   2730   2747     1
   2730   2748     1
   2730   2741     1
   2730   2742     1
   2731   2735     1
   2731   2736     1
   2731   2738     1
   2731   2739     1
   2731   2756     1
   2731   2757     1
   2732   2734     1
   2732   2737     1
   2732   2759     1
   2732   2755     1
   2732   2744     1
   2732   2745     1
   2733   2734     1
   2733   2737     1
   2733   2759     1
   2733   2755     1
   2733   2744     1
   2733   2745     1
   2734   2738     1
   2734   2739     1
   2734   2753     1
   2734   2754     1
   2735   2737     1
   2735   2759     1
   2735   2752     1
   2735   2747     1
   2735   2748     1
   2736   2737     1
   2736   2759     1
   2736   2752     1
   2736   2747     1
   2736   2748     1
   2737   2750     1
   2737   2751     1
   2738   2759     1
   2738   2749     1
   2738   2741     1
   2738   2742     1
   2739   2759     1
   2739   2749     1
   2739   2741     1
   2739   2742     1
   2740   2759     1
   2741   2758     1
   2741   2750     1
   2741   2751     1
   2742   2758     1
   2742   2750     1
   2742   2751     1
   2743   2759     1
   2744   5578     1
   2744   2756     1
   2744   2757     1
   2745   5578     1
   2745   2756     1
   2745   2757     1
   2746   2759     1
   2747   5548     1
   2747   2753     1
   2747   2754     1
   2748   5548     1
   2748   2753     1
   2748   2754     1
   2752   5540     1
   2752   5541     1
   2753   5539     1
   2754   5539     1
   2755   5570     1
   2755   5571     1
   2756   5569     1
   2757   5569     1
   2760   2774     1
   2760   2775     1
   2760   2777     1
   2760   2778     1
   2760   2771     1
   2760   2772     1
   2761   2765     1
   2761   2766     1
   2761   2768     1
   2761   2769     1
   2761   2786     1
   2761   2787     1
   2762   2764     1
   2762   2767     1
   2762   2789     1
   2762   2785     1
   2762   2774     1
   2762   2775     1
   2763   2764     1
   2763   2767     1
   2763   2789     1
   2763   2785     1
   2763   2774     1
   2763   2775     1
   2764   2768     1
   2764   2769     1
   2764   2783     1
   2764   2784     1
   2765   2767     1
   2765   2789     1
   2765   2782     1
   2765   2777     1
   2765   2778     1
   2766   2767     1
   2766   2789     1
   2766   2782     1
   2766   2777     1
   2766   2778     1
   2767   2780     1
   2767   2781     1
   2768   2789     1
   2768   2779     1
   2768   2771     1
   2768   2772     1
   2769   2789     1
   2769   2779     1
   2769   2771     1
   2769   2772     1
   2770   2789     1
   2771   2788     1
   2771   2780     1
   2771   2781     1
   2772   2788     1
   2772   2780     1
   2772   2781     1
   2773   2789     1
   2774   5638     1
   2774   2786     1
   2774   2787     1
   2775   5638     1
   2775   2786     1
   2775   2787     1
   2776   2789     1
   2777   5608     1
   2777   2783     1
   2777   2784     1
   2778   5608     1
   2778   2783     1
   2778   2784     1
   2782   5600     1
   2782   5601     1
   2783   5599     1
   2784   5599     1
   2785   5630     1
   2785   5631     1
   2786   5629     1
   2787   5629     1
   2790   2804     1
   2790   2805     1
   2790   2807     1
   2790   2808     1
   2790   2801     1
   2790   2802     1
   2791   2795     1
   2791   2796     1
   2791   2798     1
   2791   2799     1
   2791   2816     1
   2791   2817     1
   2792   2794     1
   2792   2797     1
   2792   2819     1
   2792   2815     1
   2792   2804     1
   2792   2805     1
   2793   2794     1
   2793   2797     1
   2793   2819     1
   2793   2815     1
   2793   2804     1
   2793   2805     1
   2794   2798     1
   2794   2799     1
   2794   2813     1
   2794   2814     1
   2795   2797     1
   2795   2819     1
   2795   2812     1
   2795   2807     1
   2795   2808     1
   2796   2797     1
   2796   2819     1
   2796   2812     1
   2796   2807     1
   2796   2808     1
   2797   2810     1
   2797   2811     1
   2798   2819     1
   2798   2809     1
   2798   2801     1
   2798   2802     1
   2799   2819     1
   2799   2809     1
   2799   2801     1
   2799   2802     1
   2800   2819     1
   2801   2818     1
   2801   2810     1
   2801   2811     1
   2802   2818     1
   2802   2810     1
   2802   2811     1
   2803   2819     1
   2804   5698     1
   2804   2816     1
   2804   2817     1
   2805   5698     1
   2805   2816     1
   2805   2817     1
   2806   2819     1
   2807   5668     1
   2807   2813     1
   2807   2814     1
   2808   5668     1
   2808   2813     1
   2808   2814     1
   2812   5660     1
   2812   5661     1
   2813   5659     1
   2814   5659     1
   2815   5690     1
   2815   5691     1
   2816   5689     1
   2817   5689     1
   2820   2834     1
   2820   2835     1
   2820   2837     1
   2820   2838     1
   2820   2831     1
   2820   2832     1
   2821   2825     1
   2821   2826     1
   2821   2828     1
   2821   2829     1
   2821   2846     1
   2821   2847     1
   2822   2824     1
   2822   2827     1
   2822   2849     1
   2822   2845     1
   2822   2834     1
   2822   2835     1
   2823   2824     1
   2823   2827     1
   2823   2849     1
   2823   2845     1
   2823   2834     1
   2823   2835     1
   2824   2828     1
   2824   2829     1
   2824   2843     1
   2824   2844     1
   2825   2827     1
   2825   2849     1
   2825   2842     1
   2825   2837     1
   2825   2838     1
   2826   2827     1
   2826   2849     1
   2826   2842     1
   2826   2837     1
   2826   2838     1
   2827   2840     1
   2827   2841     1
   2828   2849     1
   2828   2839     1
   2828   2831     1
   2828   2832     1
   2829   2849     1
   2829   2839     1
   2829   2831     1
   2829   2832     1
   2830   2849     1
   2831   2848     1
   2831   2840     1
   2831   2841     1
   2832   2848     1
   2832   2840     1
   2832   2841     1
   2833   2849     1
   2834   5758     1
   2834   2846     1
   2834   2847     1
   2835   5758     1
   2835   2846     1
   2835   2847     1
   2836   2849     1
   2837   5728     1
   2837   2843     1
   2837   2844     1
   2838   5728     1
   2838   2843     1
   2838   2844     1
   2842   5720     1
   2842   5721     1
   2843   5719     1
   2844   5719     1
   2845   5750     1
   2845   5751     1
   2846   5749     1
   2847   5749     1
   2850   2864     1
   2850   2865     1
   2850   2867     1
   2850   2868     1
   2850   2861     1
   2850   2862     1
   2851   2855     1
   2851   2856     1
   2851   2858     1
   2851   2859     1
   2851   2876     1
   2851   2877     1
   2852   2854     1
   2852   2857     1
   2852   2879     1
   2852   2875     1
   2852   2864     1
   2852   2865     1
   2853   2854     1
   2853   2857     1
   2853   2879     1
   2853   2875     1
   2853   2864     1
   2853   2865     1
   2854   2858     1
   2854   2859     1
   2854   2873     1
   2854   2874     1
   2855   2857     1
   2855   2879     1
   2855   2872     1
   2855   2867     1
   2855   2868     1
   2856   2857     1
   2856   2879     1
   2856   2872     1
   2856   2867     1
   2856   2868     1
   2857   2870     1
   2857   2871     1
   2858   2879     1
   2858   2869     1
   2858   2861     1
   2858   2862     1
   2859   2879     1
   2859   2869     1
   2859   2861     1
   2859   2862     1
   2860   2879     1
   2861   2878     1
   2861   2870     1
   2861   2871     1
   2862   2878     1
   2862   2870     1
   2862   2871     1
   2863   2879     1
   2864   5818     1
   2864   2876     1
   2864   2877     1
   2865   5818     1
   2865   2876     1
   2865   2877     1
   2866   2879     1
   2867   5788     1
   2867   2873     1
   2867   2874     1
   2868   5788     1
   2868   2873     1
   2868   2874     1
   2872   5780     1
   2872   5781     1
   2873   5779     1
   2874   5779     1
   2875   5810     1
   2875   5811     1
   2876   5809     1
   2877   5809     1
   2880   2894     1
   2880   2895     1
   2880   2897     1
   2880   2898     1
   2880   2891     1
   2880   2892     1
   2881   2885     1
   2881   2886     1
   2881   2888     1
   2881   2889     1
   2881   2906     1
   2881   2907     1
   2882   2884     1
   2882   2887     1
   2882   2909     1
   2882   2905     1
   2882   2894     1
   2882   2895     1
   2883   2884     1
   2883   2887     1
   2883   2909     1
   2883   2905     1
   2883   2894     1
   2883   2895     1
   2884   2888     1
   2884   2889     1
   2884   2903     1
   2884   2904     1
   2885   2887     1
   2885   2909     1
   2885   2902     1
   2885   2897     1
   2885   2898     1
   2886   2887     1
   2886   2909     1
   2886   2902     1
   2886   2897     1
   2886   2898     1
   2887   2900     1
   2887   2901     1
   2888   2909     1
   2888   2899     1
   2888   2891     1
   2888   2892     1
   2889   2909     1
   2889   2899     1
   2889   2891     1
   2889   2892     1
   2890   2909     1
   2891   2908     1
   2891   2900     1
   2891   2901     1
   2892   2908     1
   2892   2900     1
   2892   2901     1
   2893   2909     1
   2894   5878     1
   2894   2906     1
   2894   2907     1
   2895   5878     1
   2895   2906     1
   2895   2907     1
   2896   2909     1
   2897   5848     1
   2897   2903     1
   2897   2904     1
   2898   5848     1
   2898   2903     1
   2898   2904     1
   2902   5840     1
   2902   5841     1
   2903   5839     1
   2904   5839     1
   2905   5870     1
   2905   5871     1
   2906   5869     1
   2907   5869     1
   2910   2924     1
   2910   2925     1
   2910   2927     1
   2910   2928     1
   2910   2921     1
   2910   2922     1
   2911   2915     1
   2911   2916     1
   2911   2918     1
   2911   2919     1
   2911   2936     1
   2911   2937     1
   2912   2914     1
   2912   2917     1
   2912   2939     1
   2912   2935     1
   2912   2924     1
   2912   2925     1
   2913   2914     1
   2913   2917     1
   2913   2939     1
   2913   2935     1
   2913   2924     1
   2913   2925     1
   2914   2918     1
   2914   2919     1
   2914   2933     1
   2914   2934     1
   2915   2917     1
   2915   2939     1
   2915   2932     1
   2915   2927     1
   2915   2928     1
   2916   2917     1
   2916   2939     1
   2916   2932     1
   2916   2927     1
   2916   2928     1
   2917   2930     1
   2917   2931     1
   2918   2939     1
   2918   2929     1
   2918   2921     1
   2918   2922     1
   2919   2939     1
   2919   2929     1
   2919   2921     1
   2919   2922     1
   2920   2939     1
   2921   2938     1
   2921   2930     1
   2921   2931     1
   2922   2938     1
   2922   2930     1
   2922   2931     1
   2923   2939     1
   2924   5938     1
   2924   2936     1
   2924   2937     1
   2925   5938     1
   2925   2936     1
   2925   2937     1
   2926   2939     1
   2927   5908     1
   2927   2933     1
   2927   2934     1
   2928   5908     1
   2928   2933     1
   2928   2934     1
   2932   5900     1
   2932   5901     1
   2933   5899     1
   2934   5899     1
   2935   5930     1
   2935   5931     1
   2936   5929     1
   2937   5929     1
   2940   2954     1
   2940   2955     1
   2940   2957     1
   2940   2958     1
   2940   2951     1
   2940   2952     1
   2941   2945     1
   2941   2946     1
   2941   2948     1
   2941   2949     1
   2941   2966     1
   2941   2967     1
   2942   2944     1
   2942   2947     1
   2942   2969     1
   2942   2965     1
   2942   2954     1
   2942   2955     1
   2943   2944     1
   2943   2947     1
   2943   2969     1
   2943   2965     1
   2943   2954     1
   2943   2955     1
   2944   2948     1
   2944   2949     1
   2944   2963     1
   2944   2964     1
   2945   2947     1
   2945   2969     1
   2945   2962     1
   2945   2957     1
   2945   2958     1
   2946   2947     1
   2946   2969     1
   2946   2962     1
   2946   2957     1
   2946   2958     1
   2947   2960     1
   2947   2961     1
   2948   2969     1
   2948   2959     1
   2948   2951     1
   2948   2952     1
   2949   2969     1
   2949   2959     1
   2949   2951     1
   2949   2952     1
   2950   2969     1
   2951   2968     1
   2951   2960     1
   2951   2961     1
   2952   2968     1
   2952   2960     1
   2952   2961     1
   2953   2969     1
   2954   5998     1
   2954   2966     1
   2954   2967     1
   2955   5998     1
   2955   2966     1
   2955   2967     1
   2956   2969     1
   2957   5968     1
   2957   2963     1
   2957   2964     1
   2958   5968     1
   2958   2963     1
   2958   2964     1
   2962   5960     1
   2962   5961     1
   2963   5959     1
   2964   5959     1
   2965   5990     1
   2965   5991     1
   2966   5989     1
   2967   5989     1
   2970   2984     1
   2970   2985     1
   2970   2987     1
   2970   2988     1
   2970   2981     1
   2970   2982     1
   2971   2975     1
   2971   2976     1
   2971   2978     1
   2971   2979     1
   2971   2996     1
   2971   2997     1
   2972   2974     1
   2972   2977     1
   2972   2999     1
   2972   2995     1
   2972   2984     1
   2972   2985     1
   2973   2974     1
   2973   2977     1
   2973   2999     1
   2973   2995     1
   2973   2984     1
   2973   2985     1
   2974   2978     1
   2974   2979     1
   2974   2993     1
   2974   2994     1
   2975   2977     1
   2975   2999     1
   2975   2992     1
   2975   2987     1
   2975   2988     1
   2976   2977     1
   2976   2999     1
   2976   2992     1
   2976   2987     1
   2976   2988     1
   2977   2990     1
   2977   2991     1
   2978   2999     1
   2978   2989     1
   2978   2981     1
   2978   2982     1
   2979   2999     1
   2979   2989     1
   2979   2981     1
   2979   2982     1
   2980   2999     1
   2981   2998     1
   2981   2990     1
   2981   2991     1
   2982   2998     1
   2982   2990     1
   2982   2991     1
   2983   2999     1
   2984   6058     1
   2984   2996     1
   2984   2997     1
   2985   6058     1
   2985   2996     1
   2985   2997     1
   2986   2999     1
   2987   6028     1
   2987   2993     1
   2987   2994     1
   2988   6028     1
   2988   2993     1
   2988   2994     1
   2992   6020     1
   2992   6021     1
   2993   6019     1
   2994   6019     1
   2995   6050     1
   2995   6051     1
   2996   6049     1
   2997   6049     1
   3000   3014     1
   3000   3015     1
   3000   3017     1
   3000   3018     1
   3000   3011     1
   3000   3012     1
   3001   3005     1
   3001   3006     1
   3001   3008     1
   3001   3009     1
   3001   3026     1
   3001   3027     1
   3002   3004     1
   3002   3007     1
   3002   3029     1
   3002   3025     1
   3002   3014     1
   3002   3015     1
   3003   3004     1
   3003   3007     1
   3003   3029     1
   3003   3025     1
   3003   3014     1
   3003   3015     1
   3004   3008     1
   3004   3009     1
   3004   3023     1
   3004   3024     1
   3005   3007     1
   3005   3029     1
   3005   3022     1
   3005   3017     1
   3005   3018     1
   3006   3007     1
   3006   3029     1
   3006   3022     1
   3006   3017     1
   3006   3018     1
   3007   3020     1
   3007   3021     1
   3008   3029     1
   3008   3019     1
   3008   3011     1
   3008   3012     1
   3009   3029     1
   3009   3019     1
   3009   3011     1
   3009   3012     1
   3010   3029     1
   3011   3028     1
   3011   3020     1
   3011   3021     1
   3012   3028     1
   3012   3020     1
   3012   3021     1
   3013   3029     1
   3014   6118     1
   3014   3026     1
   3014   3027     1
   3015   6118     1
   3015   3026     1
   3015   3027     1
   3016   3029     1
   3017   6088     1
   3017   3023     1
   3017   3024     1
   3018   6088     1
   3018   3023     1
   3018   3024     1
   3022   6080     1
   3022   6081     1
   3023   6079     1
   3024   6079     1
   3025   6110     1
   3025   6111     1
   3026   6109     1
   3027   6109     1
   3030   3044     1
   3030   3045     1
   3030   3047     1
   3030   3048     1
   3030   3041     1
   3030   3042     1
   3031   3035     1
   3031   3036     1
   3031   3038     1
   3031   3039     1
   3031   3056     1
   3031   3057     1
   3032   3034     1
   3032   3037     1
   3032   3059     1
   3032   3055     1
   3032   3044     1
   3032   3045     1
   3033   3034     1
   3033   3037     1
   3033   3059     1
   3033   3055     1
   3033   3044     1
   3033   3045     1
   3034   3038     1
   3034   3039     1
   3034   3053     1
   3034   3054     1
   3035   3037     1
   3035   3059     1
   3035   3052     1
   3035   3047     1
   3035   3048     1
   3036   3037     1
   3036   3059     1
   3036   3052     1
   3036   3047     1
   3036   3048     1
   3037   3050     1
   3037   3051     1
   3038   3059     1
   3038   3049     1
   3038   3041     1
   3038   3042     1
   3039   3059     1
   3039   3049     1
   3039   3041     1
   3039   3042     1
   3040   3059     1
   3041   3058     1
   3041   3050     1
   3041   3051     1
   3042   3058     1
   3042   3050     1
   3042   3051     1
   3043   3059     1
   3044   6178     1
   3044   3056     1
   3044   3057     1
   3045   6178     1
   3045   3056     1
   3045   3057     1
   3046   3059     1
   3047   6148     1
   3047   3053     1
   3047   3054     1
   3048   6148     1
   3048   3053     1
   3048   3054     1
   3052   6140     1
   3052   6141     1
   3053   6139     1
   3054   6139     1
   3055   6170     1
   3055   6171     1
   3056   6169     1
   3057   6169     1
   3060   3074     1
   3060   3075     1
   3060   3077     1
   3060   3078     1
   3060   3071     1
   3060   3072     1
   3061   3065     1
   3061   3066     1
   3061   3068     1
   3061   3069     1
   3061   3086     1
   3061   3087     1
   3062   3064     1
   3062   3067     1
   3062   3089     1
   3062   3085     1
   3062   3074     1
   3062   3075     1
   3063   3064     1
   3063   3067     1
   3063   3089     1
   3063   3085     1
   3063   3074     1
   3063   3075     1
   3064   3068     1
   3064   3069     1
   3064   3083     1
   3064   3084     1
   3065   3067     1
   3065   3089     1
   3065   3082     1
   3065   3077     1
   3065   3078     1
   3066   3067     1
   3066   3089     1
   3066   3082     1
   3066   3077     1
   3066   3078     1
   3067   3080     1
   3067   3081     1
   3068   3089     1
   3068   3079     1
   3068   3071     1
   3068   3072     1
   3069   3089     1
   3069   3079     1
   3069   3071     1
   3069   3072     1
   3070   3089     1
   3071   3088     1
   3071   3080     1
   3071   3081     1
   3072   3088     1
   3072   3080     1
   3072   3081     1
   3073   3089     1
   3074   6238     1
   3074   3086     1
   3074   3087     1
   3075   6238     1
   3075   3086     1
   3075   3087     1
   3076   3089     1
   3077   6208     1
   3077   3083     1
   3077   3084     1
   3078   6208     1
   3078   3083     1
   3078   3084     1
   3082   6200     1
   3082   6201     1
   3083   6199     1
   3084   6199     1
   3085   6230     1
   3085   6231     1
   3086   6229     1
   3087   6229     1
   3090   3104     1
   3090   3105     1
   3090   3107     1
   3090   3108     1
   3090   3101     1
   3090   3102     1
   3091   3095     1
   3091   3096     1
   3091   3098     1
   3091   3099     1
   3091   3116     1
   3091   3117     1
   3092   3094     1
   3092   3097     1
   3092   3119     1
   3092   3115     1
   3092   3104     1
   3092   3105     1
   3093   3094     1
   3093   3097     1
   3093   3119     1
   3093   3115     1
   3093   3104     1
   3093   3105     1
   3094   3098     1
   3094   3099     1
   3094   3113     1
   3094   3114     1
   3095   3097     1
   3095   3119     1
   3095   3112     1
   3095   3107     1
   3095   3108     1
   3096   3097     1
   3096   3119     1
   3096   3112     1
   3096   3107     1
   3096   3108     1
   3097   3110     1
   3097   3111     1
   3098   3119     1
   3098   3109     1
   3098   3101     1
   3098   3102     1
   3099   3119     1
   3099   3109     1
   3099   3101     1
   3099   3102     1
   3100   3119     1
   3101   3118     1
   3101   3110     1
   3101   3111     1
   3102   3118     1
   3102   3110     1
   3102   3111     1
   3103   3119     1
   3104   6298     1
   3104   3116     1
   3104   3117     1
   3105   6298     1
   3105   3116     1
   3105   3117     1
   3106   3119     1
   3107   6268     1
   3107   3113     1
   3107   3114     1
   3108   6268     1
   3108   3113     1
   3108   3114     1
   3112   6260     1
   3112   6261     1
   3113   6259     1
   3114   6259     1
   3115   6290     1
   3115   6291     1
   3116   6289     1
   3117   6289     1
   3120   3134     1
   3120   3135     1
   3120   3137     1
   3120   3138     1
   3120   3131     1
   3120   3132     1
   3121   3125     1
   3121   3126     1
   3121   3128     1
   3121   3129     1
   3121   3146     1
   3121   3147     1
   3122   3124     1
   3122   3127     1
   3122   3149     1
   3122   3145     1
   3122   3134     1
   3122   3135     1
   3123   3124     1
   3123   3127     1
   3123   3149     1
   3123   3145     1
   3123   3134     1
   3123   3135     1
   3124   3128     1
   3124   3129     1
   3124   3143     1
   3124   3144     1
   3125   3127     1
   3125   3149     1
   3125   3142     1
   3125   3137     1
   3125   3138     1
   3126   3127     1
   3126   3149     1
   3126   3142     1
   3126   3137     1
   3126   3138     1
   3127   3140     1
   3127   3141     1
   3128   3149     1
   3128   3139     1
   3128   3131     1
   3128   3132     1
   3129   3149     1
   3129   3139     1
   3129   3131     1
   3129   3132     1
   3130   3149     1
   3131   3148     1
   3131   3140     1
   3131   3141     1
   3132   3148     1
   3132   3140     1
   3132   3141     1
   3133   3149     1
   3134   6358     1
   3134   3146     1
   3134   3147     1
   3135   6358     1
   3135   3146     1
   3135   3147     1
   3136   3149     1
   3137   6328     1
   3137   3143     1
   3137   3144     1
   3138   6328     1
   3138   3143     1
   3138   3144     1
   3142   6320     1
   3142   6321     1
   3143   6319     1
   3144   6319     1
   3145   6350     1
   3145   6351     1
   3146   6349     1
   3147   6349     1
   3150   3164     1
   3150   3165     1
   3150   3167     1
   3150   3168     1
   3150   3161     1
   3150   3162     1
   3151   3155     1
   3151   3156     1
   3151   3158     1
   3151   3159     1
   3151   3176     1
   3151   3177     1
   3152   3154     1
   3152   3157     1
   3152   3179     1
   3152   3175     1
   3152   3164     1
   3152   3165     1
   3153   3154     1
   3153   3157     1
   3153   3179     1
   3153   3175     1
   3153   3164     1
   3153   3165     1
   3154   3158     1
   3154   3159     1
   3154   3173     1
   3154   3174     1
   3155   3157     1
   3155   3179     1
   3155   3172     1
   3155   3167     1
   3155   3168     1
   3156   3157     1
   3156   3179     1
   3156   3172     1
   3156   3167     1
   3156   3168     1
   3157   3170     1
   3157   3171     1
   3158   3179     1
   3158   3169     1
   3158   3161     1
   3158   3162     1
   3159   3179     1
   3159   3169     1
   3159   3161     1
   3159   3162     1
   3160   3179     1
   3161   3178     1
   3161   3170     1
   3161   3171     1
   3162   3178     1
   3162   3170     1
   3162   3171     1
   3163   3179     1
   3164   6418     1
   3164   3176     1
   3164   3177     1
   3165   6418     1
   3165   3176     1
   3165   3177     1
   3166   3179     1
   3167   6388     1
   3167   3173     1
   3167   3174     1
   3168   6388     1
   3168   3173     1
   3168   3174     1
   3172   6380     1
   3172   6381     1
   3173   6379     1
   3174   6379     1
   3175   6410     1
   3175   6411     1
   3176   6409     1
   3177   6409     1
   3180   3194     1
   3180   3195     1
   3180   3197     1
   3180   3198     1
   3180   3191     1
   3180   3192     1
   3181   3185     1
   3181   3186     1
   3181   3188     1
   3181   3189     1
   3181   3206     1
   3181   3207     1
   3182   3184     1
   3182   3187     1
   3182   3209     1
   3182   3205     1
   3182   3194     1
   3182   3195     1
   3183   3184     1
   3183   3187     1
   3183   3209     1
   3183   3205     1
   3183   3194     1
   3183   3195     1
   3184   3188     1
   3184   3189     1
   3184   3203     1
   3184   3204     1
   3185   3187     1
   3185   3209     1
   3185   3202     1
   3185   3197     1
   3185   3198     1
   3186   3187     1
   3186   3209     1
   3186   3202     1
   3186   3197     1
   3186   3198     1
   3187   3200     1
   3187   3201     1
   3188   3209     1
   3188   3199     1
   3188   3191     1
   3188   3192     1
   3189   3209     1
   3189   3199     1
   3189   3191     1
   3189   3192     1
   3190   3209     1
   3191   3208     1
   3191   3200     1
   3191   3201     1
   3192   3208     1
   3192   3200     1
   3192   3201     1
   3193   3209     1
   3194   6478     1
   3194   3206     1
   3194   3207     1
   3195   6478     1
   3195   3206     1
   3195   3207     1
   3196   3209     1
   3197   6448     1
   3197   3203     1
   3197   3204     1
   3198   6448     1
   3198   3203     1
   3198   3204     1
   3202   6440     1
   3202   6441     1
   3203   6439     1
   3204   6439     1
   3205   6470     1
   3205   6471     1
   3206   6469     1
   3207   6469     1
   3210   3224     1
   3210   3225     1
   3210   3227     1
   3210   3228     1
   3210   3221     1
   3210   3222     1
   3211   3215     1
   3211   3216     1
   3211   3218     1
   3211   3219     1
   3211   3236     1
   3211   3237     1
   3212   3214     1
   3212   3217     1
   3212   3239     1
   3212   3235     1
   3212   3224     1
   3212   3225     1
   3213   3214     1
   3213   3217     1
   3213   3239     1
   3213   3235     1
   3213   3224     1
   3213   3225     1
   3214   3218     1
   3214   3219     1
   3214   3233     1
   3214   3234     1
   3215   3217     1
   3215   3239     1
   3215   3232     1
   3215   3227     1
   3215   3228     1
   3216   3217     1
   3216   3239     1
   3216   3232     1
   3216   3227     1
   3216   3228     1
   3217   3230     1
   3217   3231     1
   3218   3239     1
   3218   3229     1
   3218   3221     1
   3218   3222     1
   3219   3239     1
   3219   3229     1
   3219   3221     1
   3219   3222     1
   3220   3239     1
   3221   3238     1
   3221   3230     1
   3221   3231     1
   3222   3238     1
   3222   3230     1
   3222   3231     1
   3223   3239     1
   3224   6538     1
   3224   3236     1
   3224   3237     1
   3225   6538     1
   3225   3236     1
   3225   3237     1
   3226   3239     1
   3227   6508     1
   3227   3233     1
   3227   3234     1
   3228   6508     1
   3228   3233     1
   3228   3234     1
   3232   6500     1
   3232   6501     1
   3233   6499     1
   3234   6499     1
   3235   6530     1
   3235   6531     1
   3236   6529     1
   3237   6529     1
   3240   3254     1
   3240   3255     1
   3240   3257     1
   3240   3258     1
   3240   3251     1
   3240   3252     1
   3241   3245     1
   3241   3246     1
   3241   3248     1
   3241   3249     1
   3241   3266     1
   3241   3267     1
   3242   3244     1
   3242   3247     1
   3242   3269     1
   3242   3265     1
   3242   3254     1
   3242   3255     1
   3243   3244     1
   3243   3247     1
   3243   3269     1
   3243   3265     1
   3243   3254     1
   3243   3255     1
   3244   3248     1
   3244   3249     1
   3244   3263     1
   3244   3264     1
   3245   3247     1
   3245   3269     1
   3245   3262     1
   3245   3257     1
   3245   3258     1
   3246   3247     1
   3246   3269     1
   3246   3262     1
   3246   3257     1
   3246   3258     1
   3247   3260     1
   3247   3261     1
   3248   3269     1
   3248   3259     1
   3248   3251     1
   3248   3252     1
   3249   3269     1
   3249   3259     1
   3249   3251     1
   3249   3252     1
   3250   3269     1
   3251   3268     1
   3251   3260     1
   3251   3261     1
   3252   3268     1
   3252   3260     1
   3252   3261     1
   3253   3269     1
   3254   6598     1
   3254   3266     1
   3254   3267     1
   3255   6598     1
   3255   3266     1
   3255   3267     1
   3256   3269     1
   3257   6568     1
   3257   3263     1
   3257   3264     1
   3258   6568     1
   3258   3263     1
   3258   3264     1
   3262   6560     1
   3262   6561     1
   3263   6559     1
   3264   6559     1
   3265   6590     1
   3265   6591     1
   3266   6589     1
   3267   6589     1
   3270   3284     1
   3270   3285     1
   3270   3287     1
   3270   3288     1
   3270   3281     1
   3270   3282     1
   3271   3275     1
   3271   3276     1
   3271   3278     1
   3271   3279     1
   3271   3296     1
   3271   3297     1
   3272   3274     1
   3272   3277     1
   3272   3299     1
   3272   3295     1
   3272   3284     1
   3272   3285     1
   3273   3274     1
   3273   3277     1
   3273   3299     1
   3273   3295     1
   3273   3284     1
   3273   3285     1
   3274   3278     1
   3274   3279     1
   3274   3293     1
   3274   3294     1
   3275   3277     1
   3275   3299     1
   3275   3292     1
   3275   3287     1
   3275   3288     1
   3276   3277     1
   3276   3299     1
   3276   3292     1
   3276   3287     1
   3276   3288     1
   3277   3290     1
   3277   3291     1
   3278   3299     1
   3278   3289     1
   3278   3281     1
   3278   3282     1
   3279   3299     1
   3279   3289     1
   3279   3281     1
   3279   3282     1
   3280   3299     1
   3281   3298     1
   3281   3290     1
   3281   3291     1
   3282   3298     1
   3282   3290     1
   3282   3291     1
   3283   3299     1
   3284   6658     1
   3284   3296     1
   3284   3297     1
   3285   6658     1
   3285   3296     1
   3285   3297     1
   3286   3299     1
   3287   6628     1
   3287   3293     1
   3287   3294     1
   3288   6628     1
   3288   3293     1
   3288   3294     1
   3292   6620     1
   3292   6621     1
   3293   6619     1
   3294   6619     1
   3295   6650     1
   3295   6651     1
   3296   6649     1
   3297   6649     1
   3300   3314     1
   3300   3315     1
   3300   3317     1
   3300   3318     1
   3300   3311     1
   3300   3312     1
   3301   3305     1
   3301   3306     1
   3301   3308     1
   3301   3309     1
   3301   3326     1
   3301   3327     1
   3302   3304     1
   3302   3307     1
   3302   3329     1
   3302   3325     1
   3302   3314     1
   3302   3315     1
   3303   3304     1
   3303   3307     1
   3303   3329     1
   3303   3325     1
   3303   3314     1
   3303   3315     1
   3304   3308     1
   3304   3309     1
   3304   3323     1
   3304   3324     1
   3305   3307     1
   3305   3329     1
   3305   3322     1
   3305   3317     1
   3305   3318     1
   3306   3307     1
   3306   3329     1
   3306   3322     1
   3306   3317     1
   3306   3318     1
   3307   3320     1
   3307   3321     1
   3308   3329     1
   3308   3319     1
   3308   3311     1
   3308   3312     1
   3309   3329     1
   3309   3319     1
   3309   3311     1
   3309   3312     1
   3310   3329     1
   3311   3328     1
   3311   3320     1
   3311   3321     1
   3312   3328     1
   3312   3320     1
   3312   3321     1
   3313   3329     1
   3314   6718     1
   3314   3326     1
   3314   3327     1
   3315   6718     1
   3315   3326     1
   3315   3327     1
   3316   3329     1
   3317   6688     1
   3317   3323     1
   3317   3324     1
   3318   6688     1
   3318   3323     1
   3318   3324     1
   3322   6680     1
   3322   6681     1
   3323   6679     1
   3324   6679     1
   3325   6710     1
   3325   6711     1
   3326   6709     1
   3327   6709     1
   3330   3344     1
   3330   3345     1
   3330   3347     1
   3330   3348     1
   3330   3341     1
   3330   3342     1
   3331   3335     1
   3331   3336     1
   3331   3338     1
   3331   3339     1
   3331   3356     1
   3331   3357     1
   3332   3334     1
   3332   3337     1
   3332   3359     1
   3332   3355     1
   3332   3344     1
   3332   3345     1
   3333   3334     1
   3333   3337     1
   3333   3359     1
   3333   3355     1
   3333   3344     1
   3333   3345     1
   3334   3338     1
   3334   3339     1
   3334   3353     1
   3334   3354     1
   3335   3337     1
   3335   3359     1
   3335   3352     1
   3335   3347     1
   3335   3348     1
   3336   3337     1
   3336   3359     1
   3336   3352     1
   3336   3347     1
   3336   3348     1
   3337   3350     1
   3337   3351     1
   3338   3359     1
   3338   3349     1
   3338   3341     1
   3338   3342     1
   3339   3359     1
   3339   3349     1
   3339   3341     1
   3339   3342     1
   3340   3359     1
   3341   3358     1
   3341   3350     1
   3341   3351     1
   3342   3358     1
   3342   3350     1
   3342   3351     1
   3343   3359     1
   3344   6778     1
   3344   3356     1
   3344   3357     1
   3345   6778     1
   3345   3356     1
   3345   3357     1
   3346   3359     1
   3347   6748     1
   3347   3353     1
   3347   3354     1
   3348   6748     1
   3348   3353     1
   3348   3354     1
   3352   6740     1
   3352   6741     1
   3353   6739     1
   3354   6739     1
   3355   6770     1
   3355   6771     1
   3356   6769     1
   3357   6769     1
   3360   3374     1
   3360   3375     1
   3360   3377     1
   3360   3378     1
   3360   3371     1
   3360   3372     1
   3361   3365     1
   3361   3366     1
   3361   3368     1
   3361   3369     1
   3361   3386     1
   3361   3387     1
   3362   3364     1
   3362   3367     1
   3362   3389     1
   3362   3385     1
   3362   3374     1
   3362   3375     1
   3363   3364     1
   3363   3367     1
   3363   3389     1
   3363   3385     1
   3363   3374     1
   3363   3375     1
   3364   3368     1
   3364   3369     1
   3364   3383     1
   3364   3384     1
   3365   3367     1
   3365   3389     1
   3365   3382     1
   3365   3377     1
   3365   3378     1
   3366   3367     1
   3366   3389     1
   3366   3382     1
   3366   3377     1
   3366   3378     1
   3367   3380     1
   3367   3381     1
   3368   3389     1
   3368   3379     1
   3368   3371     1
   3368   3372     1
   3369   3389     1
   3369   3379     1
   3369   3371     1
   3369   3372     1
   3370   3389     1
   3371   3388     1
   3371   3380     1
   3371   3381     1
   3372   3388     1
   3372   3380     1
   3372   3381     1
   3373   3389     1
   3374   6838     1
   3374   3386     1
   3374   3387     1
   3375   6838     1
   3375   3386     1
   3375   3387     1
   3376   3389     1
   3377   6808     1
   3377   3383     1
   3377   3384     1
   3378   6808     1
   3378   3383     1
   3378   3384     1
   3382   6800     1
   3382   6801     1
   3383   6799     1
   3384   6799     1
   3385   6830     1
   3385   6831     1
   3386   6829     1
   3387   6829     1
   3390   3404     1
   3390   3405     1
   3390   3407     1
   3390   3408     1
   3390   3401     1
   3390   3402     1
   3391   3395     1
   3391   3396     1
   3391   3398     1
   3391   3399     1
   3391   3416     1
   3391   3417     1
   3392   3394     1
   3392   3397     1
   3392   3419     1
   3392   3415     1
   3392   3404     1
   3392   3405     1
   3393   3394     1
   3393   3397     1
   3393   3419     1
   3393   3415     1
   3393   3404     1
   3393   3405     1
   3394   3398     1
   3394   3399     1
   3394   3413     1
   3394   3414     1
   3395   3397     1
   3395   3419     1
   3395   3412     1
   3395   3407     1
   3395   3408     1
   3396   3397     1
   3396   3419     1
   3396   3412     1
   3396   3407     1
   3396   3408     1
   3397   3410     1
   3397   3411     1
   3398   3419     1
   3398   3409     1
   3398   3401     1
   3398   3402     1
   3399   3419     1
   3399   3409     1
   3399   3401     1
   3399   3402     1
   3400   3419     1
   3401   3418     1
   3401   3410     1
   3401   3411     1
   3402   3418     1
   3402   3410     1
   3402   3411     1
   3403   3419     1
   3404   6898     1
   3404   3416     1
   3404   3417     1
   3405   6898     1
   3405   3416     1
   3405   3417     1
   3406   3419     1
   3407   6868     1
   3407   3413     1
   3407   3414     1
   3408   6868     1
   3408   3413     1
   3408   3414     1
   3412   6860     1
   3412   6861     1
   3413   6859     1
   3414   6859     1
   3415   6890     1
   3415   6891     1
   3416   6889     1
   3417   6889     1
   3420   3434     1
   3420   3435     1
   3420   3437     1
   3420   3438     1
   3420   3431     1
   3420   3432     1
   3421   3425     1
   3421   3426     1
   3421   3428     1
   3421   3429     1
   3421   3446     1
   3421   3447     1
   3422   3424     1
   3422   3427     1
   3422   3449     1
   3422   3445     1
   3422   3434     1
   3422   3435     1
   3423   3424     1
   3423   3427     1
   3423   3449     1
   3423   3445     1
   3423   3434     1
   3423   3435     1
   3424   3428     1
   3424   3429     1
   3424   3443     1
   3424   3444     1
   3425   3427     1
   3425   3449     1
   3425   3442     1
   3425   3437     1
   3425   3438     1
   3426   3427     1
   3426   3449     1
   3426   3442     1
   3426   3437     1
   3426   3438     1
   3427   3440     1
   3427   3441     1
   3428   3449     1
   3428   3439     1
   3428   3431     1
   3428   3432     1
   3429   3449     1
   3429   3439     1
   3429   3431     1
   3429   3432     1
   3430   3449     1
   3431   3448     1
   3431   3440     1
   3431   3441     1
   3432   3448     1
   3432   3440     1
   3432   3441     1
   3433   3449     1
   3434   6958     1
   3434   3446     1
   3434   3447     1
   3435   6958     1
   3435   3446     1
   3435   3447     1
   3436   3449     1
   3437   6928     1
   3437   3443     1
   3437   3444     1
   3438   6928     1
   3438   3443     1
   3438   3444     1
   3442   6920     1
   3442   6921     1
   3443   6919     1
   3444   6919     1
   3445   6950     1
   3445   6951     1
   3446   6949     1
   3447   6949     1
   3450   3464     1
   3450   3465     1
   3450   3467     1
   3450   3468     1
   3450   3461     1
   3450   3462     1
   3451   3455     1
   3451   3456     1
   3451   3458     1
   3451   3459     1
   3451   3476     1
   3451   3477     1
   3452   3454     1
   3452   3457     1
   3452   3479     1
   3452   3475     1
   3452   3464     1
   3452   3465     1
   3453   3454     1
   3453   3457     1
   3453   3479     1
   3453   3475     1
   3453   3464     1
   3453   3465     1
   3454   3458     1
   3454   3459     1
   3454   3473     1
   3454   3474     1
   3455   3457     1
   3455   3479     1
   3455   3472     1
   3455   3467     1
   3455   3468     1
   3456   3457     1
   3456   3479     1
   3456   3472     1
   3456   3467     1
   3456   3468     1
   3457   3470     1
   3457   3471     1
   3458   3479     1
   3458   3469     1
   3458   3461     1
   3458   3462     1
   3459   3479     1
   3459   3469     1
   3459   3461     1
   3459   3462     1
   3460   3479     1
   3461   3478     1
   3461   3470     1
   3461   3471     1
   3462   3478     1
   3462   3470     1
   3462   3471     1
   3463   3479     1
   3464   7018     1
   3464   3476     1
   3464   3477     1
   3465   7018     1
   3465   3476     1
   3465   3477     1
   3466   3479     1
   3467   6988     1
   3467   3473     1
   3467   3474     1
   3468   6988     1
   3468   3473     1
   3468   3474     1
   3472   6980     1
   3472   6981     1
   3473   6979     1
   3474   6979     1
   3475   7010     1
   3475   7011     1
   3476   7009     1
   3477   7009     1
   3480   3494     1
   3480   3495     1
   3480   3497     1
   3480   3498     1
   3480   3491     1
   3480   3492     1
   3481   3485     1
   3481   3486     1
   3481   3488     1
   3481   3489     1
   3481   3506     1
   3481   3507     1
   3482   3484     1
   3482   3487     1
   3482   3509     1
   3482   3505     1
   3482   3494     1
   3482   3495     1
   3483   3484     1
   3483   3487     1
   3483   3509     1
   3483   3505     1
   3483   3494     1
   3483   3495     1
   3484   3488     1
   3484   3489     1
   3484   3503     1
   3484   3504     1
   3485   3487     1
   3485   3509     1
   3485   3502     1
   3485   3497     1
   3485   3498     1
   3486   3487     1
   3486   3509     1
   3486   3502     1
   3486   3497     1
   3486   3498     1
   3487   3500     1
   3487   3501     1
   3488   3509     1
   3488   3499     1
   3488   3491     1
   3488   3492     1
   3489   3509     1
   3489   3499     1
   3489   3491     1
   3489   3492     1
   3490   3509     1
   3491   3508     1
   3491   3500     1
   3491   3501     1
   3492   3508     1
   3492   3500     1
   3492   3501     1
   3493   3509     1
   3494   7078     1
   3494   3506     1
   3494   3507     1
   3495   7078     1
   3495   3506     1
   3495   3507     1
   3496   3509     1
   3497   7048     1
   3497   3503     1
   3497   3504     1
   3498   7048     1
   3498   3503     1
   3498   3504     1
   3502   7040     1
   3502   7041     1
   3503   7039     1
   3504   7039     1
   3505   7070     1
   3505   7071     1
   3506   7069     1
   3507   7069     1
   3510   3524     1
   3510   3525     1
   3510   3527     1
   3510   3528     1
   3510   3521     1
   3510   3522     1
   3511   3515     1
   3511   3516     1
   3511   3518     1
   3511   3519     1
   3511   3536     1
   3511   3537     1
   3512   3514     1
   3512   3517     1
   3512   3539     1
   3512   3535     1
   3512   3524     1
   3512   3525     1
   3513   3514     1
   3513   3517     1
   3513   3539     1
   3513   3535     1
   3513   3524     1
   3513   3525     1
   3514   3518     1
   3514   3519     1
   3514   3533     1
   3514   3534     1
   3515   3517     1
   3515   3539     1
   3515   3532     1
   3515   3527     1
   3515   3528     1
   3516   3517     1
   3516   3539     1
   3516   3532     1
   3516   3527     1
   3516   3528     1
   3517   3530     1
   3517   3531     1
   3518   3539     1
   3518   3529     1
   3518   3521     1
   3518   3522     1
   3519   3539     1
   3519   3529     1
   3519   3521     1
   3519   3522     1
   3520   3539     1
   3521   3538     1
   3521   3530     1
   3521   3531     1
   3522   3538     1
   3522   3530     1
   3522   3531     1
   3523   3539     1
   3524   7138     1
   3524   3536     1
   3524   3537     1
   3525   7138     1
   3525   3536     1
   3525   3537     1
   3526   3539     1
   3527   7108     1
   3527   3533     1
   3527   3534     1
   3528   7108     1
   3528   3533     1
   3528   3534     1
   3532   7100     1
   3532   7101     1
   3533   7099     1
   3534   7099     1
   3535   7130     1
   3535   7131     1
   3536   7129     1
   3537   7129     1
   3540   3554     1
   3540   3555     1
   3540   3557     1
   3540   3558     1
   3540   3551     1
   3540   3552     1
   3541   3545     1
   3541   3546     1
   3541   3548     1
   3541   3549     1
   3541   3566     1
   3541   3567     1
   3542   3544     1
   3542   3547     1
   3542   3569     1
   3542   3565     1
   3542   3554     1
   3542   3555     1
   3543   3544     1
   3543   3547     1
   3543   3569     1
   3543   3565     1
   3543   3554     1
   3543   3555     1
   3544   3548     1
   3544   3549     1
   3544   3563     1
   3544   3564     1
   3545   3547     1
   3545   3569     1
   3545   3562     1
   3545   3557     1
   3545   3558     1
   3546   3547     1
   3546   3569     1
   3546   3562     1
   3546   3557     1
   3546   3558     1
   3547   3560     1
   3547   3561     1
   3548   3569     1
   3548   3559     1
   3548   3551     1
   3548   3552     1
   3549   3569     1
   3549   3559     1
   3549   3551     1
   3549   3552     1
   3550   3569     1
   3551   3568     1
   3551   3560     1
   3551   3561     1
   3552   3568     1
   3552   3560     1
   3552   3561     1
   3553   3569     1
   3554   7198     1
   3554   3566     1
   3554   3567     1
   3555   7198     1
   3555   3566     1
   3555   3567     1
   3556   3569     1
   3557   7168     1
   3557   3563     1
   3557   3564     1
   3558   7168     1
   3558   3563     1
   3558   3564     1
   3562   7160     1
   3562   7161     1
   3563   7159     1
   3564   7159     1
   3565   7190     1
   3565   7191     1
   3566   7189     1
   3567   7189     1
   3570   3584     1
   3570   3585     1
   3570   3587     1
   3570   3588     1
   3570   3581     1
   3570   3582     1
   3571   3575     1
   3571   3576     1
   3571   3578     1
   3571   3579     1
   3571   3596     1
   3571   3597     1
   3572   3574     1
   3572   3577     1
   3572   3599     1
   3572   3595     1
   3572   3584     1
   3572   3585     1
   3573   3574     1
   3573   3577     1
   3573   3599     1
   3573   3595     1
   3573   3584     1
   3573   3585     1
   3574   3578     1
   3574   3579     1
   3574   3593     1
   3574   3594     1
   3575   3577     1
   3575   3599     1
   3575   3592     1
   3575   3587     1
   3575   3588     1
   3576   3577     1
   3576   3599     1
   3576   3592     1
   3576   3587     1
   3576   3588     1
   3577   3590     1
   3577   3591     1
   3578   3599     1
   3578   3589     1
   3578   3581     1
   3578   3582     1
   3579   3599     1
   3579   3589     1
   3579   3581     1
   3579   3582     1
   3580   3599     1
   3581   3598     1
   3581   3590     1
   3581   3591     1
   3582   3598     1
   3582   3590     1
   3582   3591     1
   3583   3599     1
   3584   7258     1
   3584   3596     1
   3584   3597     1
   3585   7258     1
   3585   3596     1
   3585   3597     1
   3586   3599     1
   3587   7228     1
   3587   3593     1
   3587   3594     1
   3588   7228     1
   3588   3593     1
   3588   3594     1
   3592   7220     1
   3592   7221     1
   3593   7219     1
   3594   7219     1
   3595   7250     1
   3595   7251     1
   3596   7249     1
   3597   7249     1
   3600   3614     1
   3600   3615     1
   3600   3617     1
   3600   3618     1
   3600   3611     1
   3600   3612     1
   3601   3605     1
   3601   3606     1
   3601   3608     1
   3601   3609     1
   3601   3626     1
   3601   3627     1
   3602   3604     1
   3602   3607     1
   3602   3629     1
   3602   3625     1
   3602   3614     1
   3602   3615     1
   3603   3604     1
   3603   3607     1
   3603   3629     1
   3603   3625     1
   3603   3614     1
   3603   3615     1
   3604   3608     1
   3604   3609     1
   3604   3623     1
   3604   3624     1
   3605   3607     1
   3605   3629     1
   3605   3622     1
   3605   3617     1
   3605   3618     1
   3606   3607     1
   3606   3629     1
   3606   3622     1
   3606   3617     1
   3606   3618     1
   3607   3620     1
   3607   3621     1
   3608   3629     1
   3608   3619     1
   3608   3611     1
   3608   3612     1
   3609   3629     1
   3609   3619     1
   3609   3611     1
   3609   3612     1
   3610   3629     1
   3611   3628     1
   3611   3620     1
   3611   3621     1
   3612   3628     1
   3612   3620     1
   3612   3621     1
   3613   3629     1
   3614   7318     1
   3614   3626     1
   3614   3627     1
   3615   7318     1
   3615   3626     1
   3615   3627     1
   3616   3629     1
   3617   7288     1
   3617   3623     1
   3617   3624     1
   3618   7288     1
   3618   3623     1
   3618   3624     1
   3622   7280     1
   3622   7281     1
   3623   7279     1
   3624   7279     1
   3625   7310     1
   3625   7311     1
   3626   7309     1
   3627   7309     1
   3630   3644     1
   3630   3645     1
   3630   3647     1
   3630   3648     1
   3630   3641     1
   3630   3642     1
   3631   3635     1
   3631   3636     1
   3631   3638     1
   3631   3639     1
   3631   3656     1
   3631   3657     1
   3632   3634     1
   3632   3637     1
   3632   3659     1
   3632   3655     1
   3632   3644     1
   3632   3645     1
   3633   3634     1
   3633   3637     1
   3633   3659     1
   3633   3655     1
   3633   3644     1
   3633   3645     1
   3634   3638     1
   3634   3639     1
   3634   3653     1
   3634   3654     1
   3635   3637     1
   3635   3659     1
   3635   3652     1
   3635   3647     1
   3635   3648     1
   3636   3637     1
   3636   3659     1
   3636   3652     1
   3636   3647     1
   3636   3648     1
   3637   3650     1
   3637   3651     1
   3638   3659     1
   3638   3649     1
   3638   3641     1
   3638   3642     1
   3639   3659     1
   3639   3649     1
   3639   3641     1
   3639   3642     1
   3640   3659     1
   3641   3658     1
   3641   3650     1
   3641   3651     1
   3642   3658     1
   3642   3650     1
   3642   3651     1
   3643   3659     1
   3644   7378     1
   3644   3656     1
   3644   3657     1
   3645   7378     1
   3645   3656     1
   3645   3657     1
   3646   3659     1
   3647   7348     1
   3647   3653     1
   3647   3654     1
   3648   7348     1
   3648   3653     1
   3648   3654     1
   3652   7340     1
   3652   7341     1
   3653   7339     1
   3654   7339     1
   3655   7370     1
   3655   7371     1
   3656   7369     1
   3657   7369     1
   3660   3674     1
   3660   3675     1
   3660   3677     1
   3660   3678     1
   3660   3671     1
   3660   3672     1
   3661   3665     1
   3661   3666     1
   3661   3668     1
   3661   3669     1
   3661   3686     1
   3661   3687     1
   3662   3664     1
   3662   3667     1
   3662   3689     1
   3662   3685     1
   3662   3674     1
   3662   3675     1
   3663   3664     1
   3663   3667     1
   3663   3689     1
   3663   3685     1
   3663   3674     1
   3663   3675     1
   3664   3668     1
   3664   3669     1
   3664   3683     1
   3664   3684     1
   3665   3667     1
   3665   3689     1
   3665   3682     1
   3665   3677     1
   3665   3678     1
   3666   3667     1
   3666   3689     1
   3666   3682     1
   3666   3677     1
   3666   3678     1
   3667   3680     1
   3667   3681     1
   3668   3689     1
   3668   3679     1
   3668   3671     1
   3668   3672     1
   3669   3689     1
   3669   3679     1
   3669   3671     1
   3669   3672     1
   3670   3689     1
   3671   3688     1
   3671   3680     1
   3671   3681     1
   3672   3688     1
   3672   3680     1
   3672   3681     1
   3673   3689     1
   3674   7438     1
   3674   3686     1
   3674   3687     1
   3675   7438     1
   3675   3686     1
   3675   3687     1
   3676   3689     1
   3677   7408     1
   3677   3683     1
   3677   3684     1
   3678   7408     1
   3678   3683     1
   3678   3684     1
   3682   7400     1
   3682   7401     1
   3683   7399     1
   3684   7399     1
   3685   7430     1
   3685   7431     1
   3686   7429     1
   3687   7429     1
   3690   3704     1
   3690   3705     1
   3690   3707     1
   3690   3708     1
   3690   3701     1
   3690   3702     1
   3691   3695     1
   3691   3696     1
   3691   3698     1
   3691   3699     1
   3691   3716     1
   3691   3717     1
   3692   3694     1
   3692   3697     1
   3692   3719     1
   3692   3715     1
   3692   3704     1
   3692   3705     1
   3693   3694     1
   3693   3697     1
   3693   3719     1
   3693   3715     1
   3693   3704     1
   3693   3705     1
   3694   3698     1
   3694   3699     1
   3694   3713     1
   3694   3714     1
   3695   3697     1
   3695   3719     1
   3695   3712     1
   3695   3707     1
   3695   3708     1
   3696   3697     1
   3696   3719     1
   3696   3712     1
   3696   3707     1
   3696   3708     1
   3697   3710     1
   3697   3711     1
   3698   3719     1
   3698   3709     1
   3698   3701     1
   3698   3702     1
   3699   3719     1
   3699   3709     1
   3699   3701     1
   3699   3702     1
   3700   3719     1
   3701   3718     1
   3701   3710     1
   3701   3711     1
   3702   3718     1
   3702   3710     1
   3702   3711     1
   3703   3719     1
   3704   7498     1
   3704   3716     1
   3704   3717     1
   3705   7498     1
   3705   3716     1
   3705   3717     1
   3706   3719     1
   3707   7468     1
   3707   3713     1
   3707   3714     1
   3708   7468     1
   3708   3713     1
   3708   3714     1
   3712   7460     1
   3712   7461     1
   3713   7459     1
   3714   7459     1
   3715   7490     1
   3715   7491     1
   3716   7489     1
   3717   7489     1
   3720   3734     1
   3720   3735     1
   3720   3737     1
   3720   3738     1
   3720   3731     1
   3720   3732     1
   3721   3725     1
   3721   3726     1
   3721   3728     1
   3721   3729     1
   3721   3746     1
   3721   3747     1
   3722   3724     1
   3722   3727     1
   3722   3749     1
   3722   3745     1
   3722   3734     1
   3722   3735     1
   3723   3724     1
   3723   3727     1
   3723   3749     1
   3723   3745     1
   3723   3734     1
   3723   3735     1
   3724   3728     1
   3724   3729     1
   3724   3743     1
   3724   3744     1
   3725   3727     1
   3725   3749     1
   3725   3742     1
   3725   3737     1
   3725   3738     1
   3726   3727     1
   3726   3749     1
   3726   3742     1
   3726   3737     1
   3726   3738     1
   3727   3740     1
   3727   3741     1
   3728   3749     1
   3728   3739     1
   3728   3731     1
   3728   3732     1
   3729   3749     1
   3729   3739     1
   3729   3731     1
   3729   3732     1
   3730   3749     1
   3731   3748     1
   3731   3740     1
   3731   3741     1
   3732   3748     1
   3732   3740     1
   3732   3741     1
   3733   3749     1
   3734   7558     1
   3734   3746     1
   3734   3747     1
   3735   7558     1
   3735   3746     1
   3735   3747     1
   3736   3749     1
   3737   7528     1
   3737   3743     1
   3737   3744     1
   3738   7528     1
   3738   3743     1
   3738   3744     1
   3742   7520     1
   3742   7521     1
   3743   7519     1
   3744   7519     1
   3745   7550     1
   3745   7551     1
   3746   7549     1
   3747   7549     1
   3750   3764     1
   3750   3765     1
   3750   3767     1
   3750   3768     1
   3750   3761     1
   3750   3762     1
   3751   3755     1
   3751   3756     1
   3751   3758     1
   3751   3759     1
   3751   3776     1
   3751   3777     1
   3752   3754     1
   3752   3757     1
   3752   3779     1
   3752   3775     1
   3752   3764     1
   3752   3765     1
   3753   3754     1
   3753   3757     1
   3753   3779     1
   3753   3775     1
   3753   3764     1
   3753   3765     1
   3754   3758     1
   3754   3759     1
   3754   3773     1
   3754   3774     1
   3755   3757     1
   3755   3779     1
   3755   3772     1
   3755   3767     1
   3755   3768     1
   3756   3757     1
   3756   3779     1
   3756   3772     1
   3756   3767     1
   3756   3768     1
   3757   3770     1
   3757   3771     1
   3758   3779     1
   3758   3769     1
   3758   3761     1
   3758   3762     1
   3759   3779     1
   3759   3769     1
   3759   3761     1
   3759   3762     1
   3760   3779     1
   3761   3778     1
   3761   3770     1
   3761   3771     1
   3762   3778     1
   3762   3770     1
   3762   3771     1
   3763   3779     1
   3764   7618     1
   3764   3776     1
   3764   3777     1
   3765   7618     1
   3765   3776     1
   3765   3777     1
   3766   3779     1
   3767   7588     1
   3767   3773     1
   3767   3774     1
   3768   7588     1
   3768   3773     1
   3768   3774     1
   3772   7580     1
   3772   7581     1
   3773   7579     1
   3774   7579     1
   3775   7610     1
   3775   7611     1
   3776   7609     1
   3777   7609     1
   3780   3794     1
   3780   3795     1
   3780   3797     1
   3780   3798     1
   3780   3791     1
   3780   3792     1
   3781   3785     1
   3781   3786     1
   3781   3788     1
   3781   3789     1
   3781   3806     1
   3781   3807     1
   3782   3784     1
   3782   3787     1
   3782   3809     1
   3782   3805     1
   3782   3794     1
   3782   3795     1
   3783   3784     1
   3783   3787     1
   3783   3809     1
   3783   3805     1
   3783   3794     1
   3783   3795     1
   3784   3788     1
   3784   3789     1
   3784   3803     1
   3784   3804     1
   3785   3787     1
   3785   3809     1
   3785   3802     1
   3785   3797     1
   3785   3798     1
   3786   3787     1
   3786   3809     1
   3786   3802     1
   3786   3797     1
   3786   3798     1
   3787   3800     1
   3787   3801     1
   3788   3809     1
   3788   3799     1
   3788   3791     1
   3788   3792     1
   3789   3809     1
   3789   3799     1
   3789   3791     1
   3789   3792     1
   3790   3809     1
   3791   3808     1
   3791   3800     1
   3791   3801     1
   3792   3808     1
   3792   3800     1
   3792   3801     1
   3793   3809     1
   3794   7678     1
   3794   3806     1
   3794   3807     1
   3795   7678     1
   3795   3806     1
   3795   3807     1
   3796   3809     1
   3797   7648     1
   3797   3803     1
   3797   3804     1
   3798   7648     1
   3798   3803     1
   3798   3804     1
   3802   7640     1
   3802   7641     1
   3803   7639     1
   3804   7639     1
   3805   7670     1
   3805   7671     1
   3806   7669     1
   3807   7669     1
   3810   3824     1
   3810   3825     1
   3810   3827     1
   3810   3828     1
   3810   3821     1
   3810   3822     1
   3811   3815     1
   3811   3816     1
   3811   3818     1
   3811   3819     1
   3811   3836     1
   3811   3837     1
   3812   3814     1
   3812   3817     1
   3812   3839     1
   3812   3835     1
   3812   3824     1
   3812   3825     1
   3813   3814     1
   3813   3817     1
   3813   3839     1
   3813   3835     1
   3813   3824     1
   3813   3825     1
   3814   3818     1
   3814   3819     1
   3814   3833     1
   3814   3834     1
   3815   3817     1
   3815   3839     1
   3815   3832     1
   3815   3827     1
   3815   3828     1
   3816   3817     1
   3816   3839     1
   3816   3832     1
   3816   3827     1
   3816   3828     1
   3817   3830     1
   3817   3831     1
   3818   3839     1
   3818   3829     1
   3818   3821     1
   3818   3822     1
   3819   3839     1
   3819   3829     1
   3819   3821     1
   3819   3822     1
   3820   3839     1
   3821   3838     1
   3821   3830     1
   3821   3831     1
   3822   3838     1
   3822   3830     1
   3822   3831     1
   3823   3839     1
   3824   7738     1
   3824   3836     1
   3824   3837     1
   3825   7738     1
   3825   3836     1
   3825   3837     1
   3826   3839     1
   3827   7708     1
   3827   3833     1
   3827   3834     1
   3828   7708     1
   3828   3833     1
   3828   3834     1
   3832   7700     1
   3832   7701     1
   3833   7699     1
   3834   7699     1
   3835   7730     1
   3835   7731     1
   3836   7729     1
   3837   7729     1
   3840   3854     1
   3840   3855     1
   3840   3857     1
   3840   3858     1
   3840   3851     1
   3840   3852     1
   3841   3845     1
   3841   3846     1
   3841   3848     1
   3841   3849     1
   3841   3866     1
   3841   3867     1
   3842   3844     1
   3842   3847     1
   3842   3869     1
   3842   3865     1
   3842   3854     1
   3842   3855     1
   3843   3844     1
   3843   3847     1
   3843   3869     1
   3843   3865     1
   3843   3854     1
   3843   3855     1
   3844   3848     1
   3844   3849     1
   3844   3863     1
   3844   3864     1
   3845   3847     1
   3845   3869     1
   3845   3862     1
   3845   3857     1
   3845   3858     1
   3846   3847     1
   3846   3869     1
   3846   3862     1
   3846   3857     1
   3846   3858     1
   3847   3860     1
   3847   3861     1
   3848   3869     1
   3848   3859     1
   3848   3851     1
   3848   3852     1
   3849   3869     1
   3849   3859     1
   3849   3851     1
   3849   3852     1
   3850   3869     1
   3851   3868     1
   3851   3860     1
   3851   3861     1
   3852   3868     1
   3852   3860     1
   3852   3861     1
   3853   3869     1
   3854   7798     1
   3854   3866     1
   3854   3867     1
   3855   7798     1
   3855   3866     1
   3855   3867     1
   3856   3869     1
   3857   7768     1
   3857   3863     1
   3857   3864     1
   3858   7768     1
   3858   3863     1
   3858   3864     1
   3862   7760     1
   3862   7761     1
   3863   7759     1
   3864   7759     1
   3865   7790     1
   3865   7791     1
   3866   7789     1
   3867   7789     1
   3870   3884     1
   3870   3885     1
   3870   3887     1
   3870   3888     1
   3870   3881     1
   3870   3882     1
   3871   3875     1
   3871   3876     1
   3871   3878     1
   3871   3879     1
   3871   3896     1
   3871   3897     1
   3872   3874     1
   3872   3877     1
   3872   3899     1
   3872   3895     1
   3872   3884     1
   3872   3885     1
   3873   3874     1
   3873   3877     1
   3873   3899     1
   3873   3895     1
   3873   3884     1
   3873   3885     1
   3874   3878     1
   3874   3879     1
   3874   3893     1
   3874   3894     1
   3875   3877     1
   3875   3899     1
   3875   3892     1
   3875   3887     1
   3875   3888     1
   3876   3877     1
   3876   3899     1
   3876   3892     1
   3876   3887     1
   3876   3888     1
   3877   3890     1
   3877   3891     1
   3878   3899     1
   3878   3889     1
   3878   3881     1
   3878   3882     1
   3879   3899     1
   3879   3889     1
   3879   3881     1
   3879   3882     1
   3880   3899     1
   3881   3898     1
   3881   3890     1
   3881   3891     1
   3882   3898     1
   3882   3890     1
   3882   3891     1
   3883   3899     1
   3884   7858     1
   3884   3896     1
   3884   3897     1
   3885   7858     1
   3885   3896     1
   3885   3897     1
   3886   3899     1
   3887   7828     1
   3887   3893     1
   3887   3894     1
   3888   7828     1
   3888   3893     1
   3888   3894     1
   3892   7820     1
   3892   7821     1
   3893   7819     1
   3894   7819     1
   3895   7850     1
   3895   7851     1
   3896   7849     1
   3897   7849     1
   3900   3914     1
   3900   3915     1
   3900   3917     1
   3900   3918     1
   3900   3911     1
   3900   3912     1
   3901   3905     1
   3901   3906     1
   3901   3908     1
   3901   3909     1
   3901   3926     1
   3901   3927     1
   3902   3904     1
   3902   3907     1
   3902   3929     1
   3902   3925     1
   3902   3914     1
   3902   3915     1
   3903   3904     1
   3903   3907     1
   3903   3929     1
   3903   3925     1
   3903   3914     1
   3903   3915     1
   3904   3908     1
   3904   3909     1
   3904   3923     1
   3904   3924     1
   3905   3907     1
   3905   3929     1
   3905   3922     1
   3905   3917     1
   3905   3918     1
   3906   3907     1
   3906   3929     1
   3906   3922     1
   3906   3917     1
   3906   3918     1
   3907   3920     1
   3907   3921     1
   3908   3929     1
   3908   3919     1
   3908   3911     1
   3908   3912     1
   3909   3929     1
   3909   3919     1
   3909   3911     1
   3909   3912     1
   3910   3929     1
   3911   3928     1
   3911   3920     1
   3911   3921     1
   3912   3928     1
   3912   3920     1
   3912   3921     1
   3913   3929     1
   3914   7918     1
   3914   3926     1
   3914   3927     1
   3915   7918     1
   3915   3926     1
   3915   3927     1
   3916   3929     1
   3917   7888     1
   3917   3923     1
   3917   3924     1
   3918   7888     1
   3918   3923     1
   3918   3924     1
   3922   7880     1
   3922   7881     1
   3923   7879     1
   3924   7879     1
   3925   7910     1
   3925   7911     1
   3926   7909     1
   3927   7909     1
   3930   3944     1
   3930   3945     1
   3930   3947     1
   3930   3948     1
   3930   3941     1
   3930   3942     1
   3931   3935     1
   3931   3936     1
   3931   3938     1
   3931   3939     1
   3931   3956     1
   3931   3957     1
   3932   3934     1
   3932   3937     1
   3932   3959     1
   3932   3955     1
   3932   3944     1
   3932   3945     1
   3933   3934     1
   3933   3937     1
   3933   3959     1
   3933   3955     1
   3933   3944     1
   3933   3945     1
   3934   3938     1
   3934   3939     1
   3934   3953     1
   3934   3954     1
   3935   3937     1
   3935   3959     1
   3935   3952     1
   3935   3947     1
   3935   3948     1
   3936   3937     1
   3936   3959     1
   3936   3952     1
   3936   3947     1
   3936   3948     1
   3937   3950     1
   3937   3951     1
   3938   3959     1
   3938   3949     1
   3938   3941     1
   3938   3942     1
   3939   3959     1
   3939   3949     1
   3939   3941     1
   3939   3942     1
   3940   3959     1
   3941   3958     1
   3941   3950     1
   3941   3951     1
   3942   3958     1
   3942   3950     1
   3942   3951     1
   3943   3959     1
   3944   7978     1
   3944   3956     1
   3944   3957     1
   3945   7978     1
   3945   3956     1
   3945   3957     1
   3946   3959     1
   3947   7948     1
   3947   3953     1
   3947   3954     1
   3948   7948     1
   3948   3953     1
   3948   3954     1
   3952   7940     1
   3952   7941     1
   3953   7939     1
   3954   7939     1
   3955   7970     1
   3955   7971     1
   3956   7969     1
   3957   7969     1
   3960   3974     1
   3960   3975     1
   3960   3977     1
   3960   3978     1
   3960   3971     1
   3960   3972     1
   3961   3965     1
   3961   3966     1
   3961   3968     1
   3961   3969     1
   3961   3986     1
   3961   3987     1
   3962   3964     1
   3962   3967     1
   3962   3989     1
   3962   3985     1
   3962   3974     1
   3962   3975     1
   3963   3964     1
   3963   3967     1
   3963   3989     1
   3963   3985     1
   3963   3974     1
   3963   3975     1
   3964   3968     1
   3964   3969     1
   3964   3983     1
   3964   3984     1
   3965   3967     1
   3965   3989     1
   3965   3982     1
   3965   3977     1
   3965   3978     1
   3966   3967     1
   3966   3989     1
   3966   3982     1
   3966   3977     1
   3966   3978     1
   3967   3980     1
   3967   3981     1
   3968   3989     1
   3968   3979     1
   3968   3971     1
   3968   3972     1
   3969   3989     1
   3969   3979     1
   3969   3971     1
   3969   3972     1
   3970   3989     1
   3971   3988     1
   3971   3980     1
   3971   3981     1
   3972   3988     1
   3972   3980     1
   3972   3981     1
   3973   3989     1
   3974   8038     1
   3974   3986     1
   3974   3987     1
   3975   8038     1
   3975   3986     1
   3975   3987     1
   3976   3989     1
   3977   8008     1
   3977   3983     1
   3977   3984     1
   3978   8008     1
   3978   3983     1
   3978   3984     1
   3982   8000     1
   3982   8001     1
   3983   7999     1
   3984   7999     1
   3985   8030     1
   3985   8031     1
   3986   8029     1
   3987   8029     1
   3990   4004     1
   3990   4005     1
   3990   4007     1
   3990   4008     1
   3990   4001     1
   3990   4002     1
   3991   3995     1
   3991   3996     1
   3991   3998     1
   3991   3999     1
   3991   4016     1
   3991   4017     1
   3992   3994     1
   3992   3997     1
   3992   4019     1
   3992   4015     1
   3992   4004     1
   3992   4005     1
   3993   3994     1
   3993   3997     1
   3993   4019     1
   3993   4015     1
   3993   4004     1
   3993   4005     1
   3994   3998     1
   3994   3999     1
   3994   4013     1
   3994   4014     1
   3995   3997     1
   3995   4019     1
   3995   4012     1
   3995   4007     1
   3995   4008     1
   3996   3997     1
   3996   4019     1
   3996   4012     1
   3996   4007     1
   3996   4008     1
   3997   4010     1
   3997   4011     1
   3998   4019     1
   3998   4009     1
   3998   4001     1
   3998   4002     1
   3999   4019     1
   3999   4009     1
   3999   4001     1
   3999   4002     1
   4000   4019     1
   4001   4018     1
   4001   4010     1
   4001   4011     1
   4002   4018     1
   4002   4010     1
   4002   4011     1
   4003   4019     1
   4004   8098     1
   4004   4016     1
   4004   4017     1
   4005   8098     1
   4005   4016     1
   4005   4017     1
   4006   4019     1
   4007   8068     1
   4007   4013     1
   4007   4014     1
   4008   8068     1
   4008   4013     1
   4008   4014     1
   4012   8060     1
   4012   8061     1
   4013   8059     1
   4014   8059     1
   4015   8090     1
   4015   8091     1
   4016   8089     1
   4017   8089     1
   4020   4034     1
   4020   4035     1
   4020   4037     1
   4020   4038     1
   4020   4031     1
   4020   4032     1
   4021   4025     1
   4021   4026     1
   4021   4028     1
   4021   4029     1
   4021   4046     1
   4021   4047     1
   4022   4024     1
   4022   4027     1
   4022   4049     1
   4022   4045     1
   4022   4034     1
   4022   4035     1
   4023   4024     1
   4023   4027     1
   4023   4049     1
   4023   4045     1
   4023   4034     1
   4023   4035     1
   4024   4028     1
   4024   4029     1
   4024   4043     1
   4024   4044     1
   4025   4027     1
   4025   4049     1
   4025   4042     1
   4025   4037     1
   4025   4038     1
   4026   4027     1
   4026   4049     1
   4026   4042     1
   4026   4037     1
   4026   4038     1
   4027   4040     1
   4027   4041     1
   4028   4049     1
   4028   4039     1
   4028   4031     1
   4028   4032     1
   4029   4049     1
   4029   4039     1
   4029   4031     1
   4029   4032     1
   4030   4049     1
   4031   4048     1
   4031   4040     1
   4031   4041     1
   4032   4048     1
   4032   4040     1
   4032   4041     1
   4033   4049     1
   4034   8158     1
   4034   4046     1
   4034   4047     1
   4035   8158     1
   4035   4046     1
   4035   4047     1
   4036   4049     1
   4037   8128     1
   4037   4043     1
   4037   4044     1
   4038   8128     1
   4038   4043     1
   4038   4044     1
   4042   8120     1
   4042   8121     1
   4043   8119     1
   4044   8119     1
   4045   8150     1
   4045   8151     1
   4046   8149     1
   4047   8149     1
   4050   4064     1
   4050   4065     1
   4050   4067     1
   4050   4068     1
   4050   4061     1
   4050   4062     1
   4051   4055     1
   4051   4056     1
   4051   4058     1
   4051   4059     1
   4051   4076     1
   4051   4077     1
   4052   4054     1
   4052   4057     1
   4052   4079     1
   4052   4075     1
   4052   4064     1
   4052   4065     1
   4053   4054     1
   4053   4057     1
   4053   4079     1
   4053   4075     1
   4053   4064     1
   4053   4065     1
   4054   4058     1
   4054   4059     1
   4054   4073     1
   4054   4074     1
   4055   4057     1
   4055   4079     1
   4055   4072     1
   4055   4067     1
   4055   4068     1
   4056   4057     1
   4056   4079     1
   4056   4072     1
   4056   4067     1
   4056   4068     1
   4057   4070     1
   4057   4071     1
   4058   4079     1
   4058   4069     1
   4058   4061     1
   4058   4062     1
   4059   4079     1
   4059   4069     1
   4059   4061     1
   4059   4062     1
   4060   4079     1
   4061   4078     1
   4061   4070     1
   4061   4071     1
   4062   4078     1
   4062   4070     1
   4062   4071     1
   4063   4079     1
   4064   8218     1
   4064   4076     1
   4064   4077     1
   4065   8218     1
   4065   4076     1
   4065   4077     1
   4066   4079     1
   4067   8188     1
   4067   4073     1
   4067   4074     1
   4068   8188     1
   4068   4073     1
   4068   4074     1
   4072   8180     1
   4072   8181     1
   4073   8179     1
   4074   8179     1
   4075   8210     1
   4075   8211     1
   4076   8209     1
   4077   8209     1
   4080   4094     1
   4080   4095     1
   4080   4097     1
   4080   4098     1
   4080   4091     1
   4080   4092     1
   4081   4085     1
   4081   4086     1
   4081   4088     1
   4081   4089     1
   4081   4106     1
   4081   4107     1
   4082   4084     1
   4082   4087     1
   4082   4109     1
   4082   4105     1
   4082   4094     1
   4082   4095     1
   4083   4084     1
   4083   4087     1
   4083   4109     1
   4083   4105     1
   4083   4094     1
   4083   4095     1
   4084   4088     1
   4084   4089     1
   4084   4103     1
   4084   4104     1
   4085   4087     1
   4085   4109     1
   4085   4102     1
   4085   4097     1
   4085   4098     1
   4086   4087     1
   4086   4109     1
   4086   4102     1
   4086   4097     1
   4086   4098     1
   4087   4100     1
   4087   4101     1
   4088   4109     1
   4088   4099     1
   4088   4091     1
   4088   4092     1
   4089   4109     1
   4089   4099     1
   4089   4091     1
   4089   4092     1
   4090   4109     1
   4091   4108     1
   4091   4100     1
   4091   4101     1
   4092   4108     1
   4092   4100     1
   4092   4101     1
   4093   4109     1
   4094   8278     1
   4094   4106     1
   4094   4107     1
   4095   8278     1
   4095   4106     1
   4095   4107     1
   4096   4109     1
   4097   8248     1
   4097   4103     1
   4097   4104     1
   4098   8248     1
   4098   4103     1
   4098   4104     1
   4102   8240     1
   4102   8241     1
   4103   8239     1
   4104   8239     1
   4105   8270     1
   4105   8271     1
   4106   8269     1
   4107   8269     1
   4110   4124     1
   4110   4125     1
   4110   4127     1
   4110   4128     1
   4110   4121     1
   4110   4122     1
   4111   4115     1
   4111   4116     1
   4111   4118     1
   4111   4119     1
   4111   4136     1
   4111   4137     1
   4112   4114     1
   4112   4117     1
   4112   4139     1
   4112   4135     1
   4112   4124     1
   4112   4125     1
   4113   4114     1
   4113   4117     1
   4113   4139     1
   4113   4135     1
   4113   4124     1
   4113   4125     1
   4114   4118     1
   4114   4119     1
   4114   4133     1
   4114   4134     1
   4115   4117     1
   4115   4139     1
   4115   4132     1
   4115   4127     1
   4115   4128     1
   4116   4117     1
   4116   4139     1
   4116   4132     1
   4116   4127     1
   4116   4128     1
   4117   4130     1
   4117   4131     1
   4118   4139     1
   4118   4129     1
   4118   4121     1
   4118   4122     1
   4119   4139     1
   4119   4129     1
   4119   4121     1
   4119   4122     1
   4120   4139     1
   4121   4138     1
   4121   4130     1
   4121   4131     1
   4122   4138     1
   4122   4130     1
   4122   4131     1
   4123   4139     1
   4124   8338     1
   4124   4136     1
   4124   4137     1
   4125   8338     1
   4125   4136     1
   4125   4137     1
   4126   4139     1
   4127   8308     1
   4127   4133     1
   4127   4134     1
   4128   8308     1
   4128   4133     1
   4128   4134     1
   4132   8300     1
   4132   8301     1
   4133   8299     1
   4134   8299     1
   4135   8330     1
   4135   8331     1
   4136   8329     1
   4137   8329     1
   4140   4154     1
   4140   4155     1
   4140   4157     1
   4140   4158     1
   4140   4151     1
   4140   4152     1
   4141   4145     1
   4141   4146     1
   4141   4148     1
   4141   4149     1
   4141   4166     1
   4141   4167     1
   4142   4144     1
   4142   4147     1
   4142   4169     1
   4142   4165     1
   4142   4154     1
   4142   4155     1
   4143   4144     1
   4143   4147     1
   4143   4169     1
   4143   4165     1
   4143   4154     1
   4143   4155     1
   4144   4148     1
   4144   4149     1
   4144   4163     1
   4144   4164     1
   4145   4147     1
   4145   4169     1
   4145   4162     1
   4145   4157     1
   4145   4158     1
   4146   4147     1
   4146   4169     1
   4146   4162     1
   4146   4157     1
   4146   4158     1
   4147   4160     1
   4147   4161     1
   4148   4169     1
   4148   4159     1
   4148   4151     1
   4148   4152     1
   4149   4169     1
   4149   4159     1
   4149   4151     1
   4149   4152     1
   4150   4169     1
   4151   4168     1
   4151   4160     1
   4151   4161     1
   4152   4168     1
   4152   4160     1
   4152   4161     1
   4153   4169     1
   4154   8398     1
   4154   4166     1
   4154   4167     1
   4155   8398     1
   4155   4166     1
   4155   4167     1
   4156   4169     1
   4157   8368     1
   4157   4163     1
   4157   4164     1
   4158   8368     1
   4158   4163     1
   4158   4164     1
   4162   8360     1
   4162   8361     1
   4163   8359     1
   4164   8359     1
   4165   8390     1
   4165   8391     1
   4166   8389     1
   4167   8389     1
   4170   4184     1
   4170   4185     1
   4170   4187     1
   4170   4188     1
   4170   4181     1
   4170   4182     1
   4171   4175     1
   4171   4176     1
   4171   4178     1
   4171   4179     1
   4171   4196     1
   4171   4197     1
   4172   4174     1
   4172   4177     1
   4172   4199     1
   4172   4195     1
   4172   4184     1
   4172   4185     1
   4173   4174     1
   4173   4177     1
   4173   4199     1
   4173   4195     1
   4173   4184     1
   4173   4185     1
   4174   4178     1
   4174   4179     1
   4174   4193     1
   4174   4194     1
   4175   4177     1
   4175   4199     1
   4175   4192     1
   4175   4187     1
   4175   4188     1
   4176   4177     1
   4176   4199     1
   4176   4192     1
   4176   4187     1
   4176   4188     1
   4177   4190     1
   4177   4191     1
   4178   4199     1
   4178   4189     1
   4178   4181     1
   4178   4182     1
   4179   4199     1
   4179   4189     1
   4179   4181     1
   4179   4182     1
   4180   4199     1
   4181   4198     1
   4181   4190     1
   4181   4191     1
   4182   4198     1
   4182   4190     1
   4182   4191     1
   4183   4199     1
   4184   8458     1
   4184   4196     1
   4184   4197     1
   4185   8458     1
   4185   4196     1
   4185   4197     1
   4186   4199     1
   4187   8428     1
   4187   4193     1
   4187   4194     1
   4188   8428     1
   4188   4193     1
   4188   4194     1
   4192   8420     1
   4192   8421     1
   4193   8419     1
   4194   8419     1
   4195   8450     1
   4195   8451     1
   4196   8449     1
   4197   8449     1
   4200   4214     1
   4200   4215     1
   4200   4217     1
   4200   4218     1
   4200   4211     1
   4200   4212     1
   4201   4205     1
   4201   4206     1
   4201   4208     1
   4201   4209     1
   4201   4226     1
   4201   4227     1
   4202   4204     1
   4202   4207     1
   4202   4229     1
   4202   4225     1
   4202   4214     1
   4202   4215     1
   4203   4204     1
   4203   4207     1
   4203   4229     1
   4203   4225     1
   4203   4214     1
   4203   4215     1
   4204   4208     1
   4204   4209     1
   4204   4223     1
   4204   4224     1
   4205   4207     1
   4205   4229     1
   4205   4222     1
   4205   4217     1
   4205   4218     1
   4206   4207     1
   4206   4229     1
   4206   4222     1
   4206   4217     1
   4206   4218     1
   4207   4220     1
   4207   4221     1
   4208   4229     1
   4208   4219     1
   4208   4211     1
   4208   4212     1
   4209   4229     1
   4209   4219     1
   4209   4211     1
   4209   4212     1
   4210   4229     1
   4211   4228     1
   4211   4220     1
   4211   4221     1
   4212   4228     1
   4212   4220     1
   4212   4221     1
   4213   4229     1
   4214   8518     1
   4214   4226     1
   4214   4227     1
   4215   8518     1
   4215   4226     1
   4215   4227     1
   4216   4229     1
   4217   8488     1
   4217   4223     1
   4217   4224     1
   4218   8488     1
   4218   4223     1
   4218   4224     1
   4222   8480     1
   4222   8481     1
   4223   8479     1
   4224   8479     1
   4225   8510     1
   4225   8511     1
   4226   8509     1
   4227   8509     1
   4230   4244     1
   4230   4245     1
   4230   4247     1
   4230   4248     1
   4230   4241     1
   4230   4242     1
   4231   4235     1
   4231   4236     1
   4231   4238     1
   4231   4239     1
   4231   4256     1
   4231   4257     1
   4232   4234     1
   4232   4237     1
   4232   4259     1
   4232   4255     1
   4232   4244     1
   4232   4245     1
   4233   4234     1
   4233   4237     1
   4233   4259     1
   4233   4255     1
   4233   4244     1
   4233   4245     1
   4234   4238     1
   4234   4239     1
   4234   4253     1
   4234   4254     1
   4235   4237     1
   4235   4259     1
   4235   4252     1
   4235   4247     1
   4235   4248     1
   4236   4237     1
   4236   4259     1
   4236   4252     1
   4236   4247     1
   4236   4248     1
   4237   4250     1
   4237   4251     1
   4238   4259     1
   4238   4249     1
   4238   4241     1
   4238   4242     1
   4239   4259     1
   4239   4249     1
   4239   4241     1
   4239   4242     1
   4240   4259     1
   4241   4258     1
   4241   4250     1
   4241   4251     1
   4242   4258     1
   4242   4250     1
   4242   4251     1
   4243   4259     1
   4244   8578     1
   4244   4256     1
   4244   4257     1
   4245   8578     1
   4245   4256     1
   4245   4257     1
   4246   4259     1
   4247   8548     1
   4247   4253     1
   4247   4254     1
   4248   8548     1
   4248   4253     1
   4248   4254     1
   4252   8540     1
   4252   8541     1
   4253   8539     1
   4254   8539     1
   4255   8570     1
   4255   8571     1
   4256   8569     1
   4257   8569     1
   4260   4274     1
   4260   4275     1
   4260   4277     1
   4260   4278     1
   4260   4271     1
   4260   4272     1
   4261   4265     1
   4261   4266     1
   4261   4268     1
   4261   4269     1
   4261   4286     1
   4261   4287     1
   4262   4264     1
   4262   4267     1
   4262   4289     1
   4262   4285     1
   4262   4274     1
   4262   4275     1
   4263   4264     1
   4263   4267     1
   4263   4289     1
   4263   4285     1
   4263   4274     1
   4263   4275     1
   4264   4268     1
   4264   4269     1
   4264   4283     1
   4264   4284     1
   4265   4267     1
   4265   4289     1
   4265   4282     1
   4265   4277     1
   4265   4278     1
   4266   4267     1
   4266   4289     1
   4266   4282     1
   4266   4277     1
   4266   4278     1
   4267   4280     1
   4267   4281     1
   4268   4289     1
   4268   4279     1
   4268   4271     1
   4268   4272     1
   4269   4289     1
   4269   4279     1
   4269   4271     1
   4269   4272     1
   4270   4289     1
   4271   4288     1
   4271   4280     1
   4271   4281     1
   4272   4288     1
   4272   4280     1
   4272   4281     1
   4273   4289     1
   4274   8638     1
   4274   4286     1
   4274   4287     1
   4275   8638     1
   4275   4286     1
   4275   4287     1
   4276   4289     1
   4277   8608     1
   4277   4283     1
   4277   4284     1
   4278   8608     1
   4278   4283     1
   4278   4284     1
   4282   8600     1
   4282   8601     1
   4283   8599     1
   4284   8599     1
   4285   8630     1
   4285   8631     1
   4286   8629     1
   4287   8629     1
   4290   4304     1
   4290   4305     1
   4290   4307     1
   4290   4308     1
   4290   4301     1
   4290   4302     1
   4291   4295     1
   4291   4296     1
   4291   4298     1
   4291   4299     1
   4291   4316     1
   4291   4317     1
   4292   4294     1
   4292   4297     1
   4292   4319     1
   4292   4315     1
   4292   4304     1
   4292   4305     1
   4293   4294     1
   4293   4297     1
   4293   4319     1
   4293   4315     1
   4293   4304     1
   4293   4305     1
   4294   4298     1
   4294   4299     1
   4294   4313     1
   4294   4314     1
   4295   4297     1
   4295   4319     1
   4295   4312     1
   4295   4307     1
   4295   4308     1
   4296   4297     1
   4296   4319     1
   4296   4312     1
   4296   4307     1
   4296   4308     1
   4297   4310     1
   4297   4311     1
   4298   4319     1
   4298   4309     1
   4298   4301     1
   4298   4302     1
   4299   4319     1
   4299   4309     1
   4299   4301     1
   4299   4302     1
   4300   4319     1
   4301   4318     1
   4301   4310     1
   4301   4311     1
   4302   4318     1
   4302   4310     1
   4302   4311     1
   4303   4319     1
   4304   8698     1
   4304   4316     1
   4304   4317     1
   4305   8698     1
   4305   4316     1
   4305   4317     1
   4306   4319     1
   4307   8668     1
   4307   4313     1
   4307   4314     1
   4308   8668     1
   4308   4313     1
   4308   4314     1
   4312   8660     1
   4312   8661     1
   4313   8659     1
   4314   8659     1
   4315   8690     1
   4315   8691     1
   4316   8689     1
   4317   8689     1
   4320   4334     1
   4320   4335     1
   4320   4337     1
   4320   4338     1
   4320   4331     1
   4320   4332     1
   4321   4325     1
   4321   4326     1
   4321   4328     1
   4321   4329     1
   4321   4346     1
   4321   4347     1
   4322   4324     1
   4322   4327     1
   4322   4349     1
   4322   4345     1
   4322   4334     1
   4322   4335     1
   4323   4324     1
   4323   4327     1
   4323   4349     1
   4323   4345     1
   4323   4334     1
   4323   4335     1
   4324   4328     1
   4324   4329     1
   4324   4343     1
   4324   4344     1
   4325   4327     1
   4325   4349     1
   4325   4342     1
   4325   4337     1
   4325   4338     1
   4326   4327     1
   4326   4349     1
   4326   4342     1
   4326   4337     1
   4326   4338     1
   4327   4340     1
   4327   4341     1
   4328   4349     1
   4328   4339     1
   4328   4331     1
   4328   4332     1
   4329   4349     1
   4329   4339     1
   4329   4331     1
   4329   4332     1
   4330   4349     1
   4331   4348     1
   4331   4340     1
   4331   4341     1
   4332   4348     1
   4332   4340     1
   4332   4341     1
   4333   4349     1
   4334   8758     1
   4334   4346     1
   4334   4347     1
   4335   8758     1
   4335   4346     1
   4335   4347     1
   4336   4349     1
   4337   8728     1
   4337   4343     1
   4337   4344     1
   4338   8728     1
   4338   4343     1
   4338   4344     1
   4342   8720     1
   4342   8721     1
   4343   8719     1
   4344   8719     1
   4345   8750     1
   4345   8751     1
   4346   8749     1
   4347   8749     1
   4350   4364     1
   4350   4365     1
   4350   4367     1
   4350   4368     1
   4350   4361     1
   4350   4362     1
   4351   4355     1
   4351   4356     1
   4351   4358     1
   4351   4359     1
   4351   4376     1
   4351   4377     1
   4352   4354     1
   4352   4357     1
   4352   4379     1
   4352   4375     1
   4352   4364     1
   4352   4365     1
   4353   4354     1
   4353   4357     1
   4353   4379     1
   4353   4375     1
   4353   4364     1
   4353   4365     1
   4354   4358     1
   4354   4359     1
   4354   4373     1
   4354   4374     1
   4355   4357     1
   4355   4379     1
   4355   4372     1
   4355   4367     1
   4355   4368     1
   4356   4357     1
   4356   4379     1
   4356   4372     1
   4356   4367     1
   4356   4368     1
   4357   4370     1
   4357   4371     1
   4358   4379     1
   4358   4369     1
   4358   4361     1
   4358   4362     1
   4359   4379     1
   4359   4369     1
   4359   4361     1
   4359   4362     1
   4360   4379     1
   4361   4378     1
   4361   4370     1
   4361   4371     1
   4362   4378     1
   4362   4370     1
   4362   4371     1
   4363   4379     1
   4364   8818     1
   4364   4376     1
   4364   4377     1
   4365   8818     1
   4365   4376     1
   4365   4377     1
   4366   4379     1
   4367   8788     1
   4367   4373     1
   4367   4374     1
   4368   8788     1
   4368   4373     1
   4368   4374     1
   4372   8780     1
   4372   8781     1
   4373   8779     1
   4374   8779     1
   4375   8810     1
   4375   8811     1
   4376   8809     1
   4377   8809     1
   4380   4394     1
   4380   4395     1
   4380   4397     1
   4380   4398     1
   4380   4391     1
   4380   4392     1
   4381   4385     1
   4381   4386     1
   4381   4388     1
   4381   4389     1
   4381   4406     1
   4381   4407     1
   4382   4384     1
   4382   4387     1
   4382   4409     1
   4382   4405     1
   4382   4394     1
   4382   4395     1
   4383   4384     1
   4383   4387     1
   4383   4409     1
   4383   4405     1
   4383   4394     1
   4383   4395     1
   4384   4388     1
   4384   4389     1
   4384   4403     1
   4384   4404     1
   4385   4387     1
   4385   4409     1
   4385   4402     1
   4385   4397     1
   4385   4398     1
   4386   4387     1
   4386   4409     1
   4386   4402     1
   4386   4397     1
   4386   4398     1
   4387   4400     1
   4387   4401     1
   4388   4409     1
   4388   4399     1
   4388   4391     1
   4388   4392     1
   4389   4409     1
   4389   4399     1
   4389   4391     1
   4389   4392     1
   4390   4409     1
   4391   4408     1
   4391   4400     1
   4391   4401     1
   4392   4408     1
   4392   4400     1
   4392   4401     1
   4393   4409     1
   4394   8878     1
   4394   4406     1
   4394   4407     1
   4395   8878     1
   4395   4406     1
   4395   4407     1
   4396   4409     1
   4397   8848     1
   4397   4403     1
   4397   4404     1
   4398   8848     1
   4398   4403     1
   4398   4404     1
   4402   8840     1
   4402   8841     1
   4403   8839     1
   4404   8839     1
   4405   8870     1
   4405   8871     1
   4406   8869     1
   4407   8869     1
   4410   4424     1
   4410   4425     1
   4410   4427     1
   4410   4428     1
   4410   4421     1
   4410   4422     1
   4411   4415     1
   4411   4416     1
   4411   4418     1
   4411   4419     1
   4411   4436     1
   4411   4437     1
   4412   4414     1
   4412   4417     1
   4412   4439     1
   4412   4435     1
   4412   4424     1
   4412   4425     1
   4413   4414     1
   4413   4417     1
   4413   4439     1
   4413   4435     1
   4413   4424     1
   4413   4425     1
   4414   4418     1
   4414   4419     1
   4414   4433     1
   4414   4434     1
   4415   4417     1
   4415   4439     1
   4415   4432     1
   4415   4427     1
   4415   4428     1
   4416   4417     1
   4416   4439     1
   4416   4432     1
   4416   4427     1
   4416   4428     1
   4417   4430     1
   4417   4431     1
   4418   4439     1
   4418   4429     1
   4418   4421     1
   4418   4422     1
   4419   4439     1
   4419   4429     1
   4419   4421     1
   4419   4422     1
   4420   4439     1
   4421   4438     1
   4421   4430     1
   4421   4431     1
   4422   4438     1
   4422   4430     1
   4422   4431     1
   4423   4439     1
   4424   8938     1
   4424   4436     1
   4424   4437     1
   4425   8938     1
   4425   4436     1
   4425   4437     1
   4426   4439     1
   4427   8908     1
   4427   4433     1
   4427   4434     1
   4428   8908     1
   4428   4433     1
   4428   4434     1
   4432   8900     1
   4432   8901     1
   4433   8899     1
   4434   8899     1
   4435   8930     1
   4435   8931     1
   4436   8929     1
   4437   8929     1
   4440   4454     1
   4440   4455     1
   4440   4457     1
   4440   4458     1
   4440   4451     1
   4440   4452     1
   4441   4445     1
   4441   4446     1
   4441   4448     1
   4441   4449     1
   4441   4466     1
   4441   4467     1
   4442   4444     1
   4442   4447     1
   4442   4469     1
   4442   4465     1
   4442   4454     1
   4442   4455     1
   4443   4444     1
   4443   4447     1
   4443   4469     1
   4443   4465     1
   4443   4454     1
   4443   4455     1
   4444   4448     1
   4444   4449     1
   4444   4463     1
   4444   4464     1
   4445   4447     1
   4445   4469     1
   4445   4462     1
   4445   4457     1
   4445   4458     1
   4446   4447     1
   4446   4469     1
   4446   4462     1
   4446   4457     1
   4446   4458     1
   4447   4460     1
   4447   4461     1
   4448   4469     1
   4448   4459     1
   4448   4451     1
   4448   4452     1
   4449   4469     1
   4449   4459     1
   4449   4451     1
   4449   4452     1
   4450   4469     1
   4451   4468     1
   4451   4460     1
   4451   4461     1
   4452   4468     1
   4452   4460     1
   4452   4461     1
   4453   4469     1
   4454   8998     1
   4454   4466     1
   4454   4467     1
   4455   8998     1
   4455   4466     1
   4455   4467     1
   4456   4469     1
   4457   8968     1
   4457   4463     1
   4457   4464     1
   4458   8968     1
   4458   4463     1
   4458   4464     1
   4462   8960     1
   4462   8961     1
   4463   8959     1
   4464   8959     1
   4465   8990     1
   4465   8991     1
   4466   8989     1
   4467   8989     1
   4470   4484     1
   4470   4485     1
   4470   4487     1
   4470   4488     1
   4470   4481     1
   4470   4482     1
   4471   4475     1
   4471   4476     1
   4471   4478     1
   4471   4479     1
   4471   4496     1
   4471   4497     1
   4472   4474     1
   4472   4477     1
   4472   4499     1
   4472   4495     1
   4472   4484     1
   4472   4485     1
   4473   4474     1
   4473   4477     1
   4473   4499     1
   4473   4495     1
   4473   4484     1
   4473   4485     1
   4474   4478     1
   4474   4479     1
   4474   4493     1
   4474   4494     1
   4475   4477     1
   4475   4499     1
   4475   4492     1
   4475   4487     1
   4475   4488     1
   4476   4477     1
   4476   4499     1
   4476   4492     1
   4476   4487     1
   4476   4488     1
   4477   4490     1
   4477   4491     1
   4478   4499     1
   4478   4489     1
   4478   4481     1
   4478   4482     1
   4479   4499     1
   4479   4489     1
   4479   4481     1
   4479   4482     1
   4480   4499     1
   4481   4498     1
   4481   4490     1
   4481   4491     1
   4482   4498     1
   4482   4490     1
   4482   4491     1
   4483   4499     1
   4484   9058     1
   4484   4496     1
   4484   4497     1
   4485   9058     1
   4485   4496     1
   4485   4497     1
   4486   4499     1
   4487   9028     1
   4487   4493     1
   4487   4494     1
   4488   9028     1
   4488   4493     1
   4488   4494     1
   4492   9020     1
   4492   9021     1
   4493   9019     1
   4494   9019     1
   4495   9050     1
   4495   9051     1
   4496   9049     1
   4497   9049     1
   4500   4514     1
   4500   4515     1
   4500   4517     1
   4500   4518     1
   4500   4511     1
   4500   4512     1
   4501   4505     1
   4501   4506     1
   4501   4508     1
   4501   4509     1
   4501   4526     1
   4501   4527     1
   4502   4504     1
   4502   4507     1
   4502   4529     1
   4502   4525     1
   4502   4514     1
   4502   4515     1
   4503   4504     1
   4503   4507     1
   4503   4529     1
   4503   4525     1
   4503   4514     1
   4503   4515     1
   4504   4508     1
   4504   4509     1
   4504   4523     1
   4504   4524     1
   4505   4507     1
   4505   4529     1
   4505   4522     1
   4505   4517     1
   4505   4518     1
   4506   4507     1
   4506   4529     1
   4506   4522     1
   4506   4517     1
   4506   4518     1
   4507   4520     1
   4507   4521     1
   4508   4529     1
   4508   4519     1
   4508   4511     1
   4508   4512     1
   4509   4529     1
   4509   4519     1
   4509   4511     1
   4509   4512     1
   4510   4529     1
   4511   4528     1
   4511   4520     1
   4511   4521     1
   4512   4528     1
   4512   4520     1
   4512   4521     1
   4513   4529     1
   4514   9118     1
   4514   4526     1
   4514   4527     1
   4515   9118     1
   4515   4526     1
   4515   4527     1
   4516   4529     1
   4517   9088     1
   4517   4523     1
   4517   4524     1
   4518   9088     1
   4518   4523     1
   4518   4524     1
   4522   9080     1
   4522   9081     1
   4523   9079     1
   4524   9079     1
   4525   9110     1
   4525   9111     1
   4526   9109     1
   4527   9109     1
   4530   4544     1
   4530   4545     1
   4530   4547     1
   4530   4548     1
   4530   4541     1
   4530   4542     1
   4531   4535     1
   4531   4536     1
   4531   4538     1
   4531   4539     1
   4531   4556     1
   4531   4557     1
   4532   4534     1
   4532   4537     1
   4532   4559     1
   4532   4555     1
   4532   4544     1
   4532   4545     1
   4533   4534     1
   4533   4537     1
   4533   4559     1
   4533   4555     1
   4533   4544     1
   4533   4545     1
   4534   4538     1
   4534   4539     1
   4534   4553     1
   4534   4554     1
   4535   4537     1
   4535   4559     1
   4535   4552     1
   4535   4547     1
   4535   4548     1
   4536   4537     1
   4536   4559     1
   4536   4552     1
   4536   4547     1
   4536   4548     1
   4537   4550     1
   4537   4551     1
   4538   4559     1
   4538   4549     1
   4538   4541     1
   4538   4542     1
   4539   4559     1
   4539   4549     1
   4539   4541     1
   4539   4542     1
   4540   4559     1
   4541   4558     1
   4541   4550     1
   4541   4551     1
   4542   4558     1
   4542   4550     1
   4542   4551     1
   4543   4559     1
   4544   9178     1
   4544   4556     1
   4544   4557     1
   4545   9178     1
   4545   4556     1
   4545   4557     1
   4546   4559     1
   4547   9148     1
   4547   4553     1
   4547   4554     1
   4548   9148     1
   4548   4553     1
   4548   4554     1
   4552   9140     1
   4552   9141     1
   4553   9139     1
   4554   9139     1
   4555   9170     1
   4555   9171     1
   4556   9169     1
   4557   9169     1
   4560   4574     1
   4560   4575     1
   4560   4577     1
   4560   4578     1
   4560   4571     1
   4560   4572     1
   4561   4565     1
   4561   4566     1
   4561   4568     1
   4561   4569     1
   4561   4586     1
   4561   4587     1
   4562   4564     1
   4562   4567     1
   4562   4589     1
   4562   4585     1
   4562   4574     1
   4562   4575     1
   4563   4564     1
   4563   4567     1
   4563   4589     1
   4563   4585     1
   4563   4574     1
   4563   4575     1
   4564   4568     1
   4564   4569     1
   4564   4583     1
   4564   4584     1
   4565   4567     1
   4565   4589     1
   4565   4582     1
   4565   4577     1
   4565   4578     1
   4566   4567     1
   4566   4589     1
   4566   4582     1
   4566   4577     1
   4566   4578     1
   4567   4580     1
   4567   4581     1
   4568   4589     1
   4568   4579     1
   4568   4571     1
   4568   4572     1
   4569   4589     1
   4569   4579     1
   4569   4571     1
   4569   4572     1
   4570   4589     1
   4571   4588     1
   4571   4580     1
   4571   4581     1
   4572   4588     1
   4572   4580     1
   4572   4581     1
   4573   4589     1
   4574   9238     1
   4574   4586     1
   4574   4587     1
   4575   9238     1
   4575   4586     1
   4575   4587     1
   4576   4589     1
   4577   9208     1
   4577   4583     1
   4577   4584     1
   4578   9208     1
   4578   4583     1
   4578   4584     1
   4582   9200     1
   4582   9201     1
   4583   9199     1
   4584   9199     1
   4585   9230     1
   4585   9231     1
   4586   9229     1
   4587   9229     1
   4590   4604     1
   4590   4605     1
   4590   4607     1
   4590   4608     1
   4590   4601     1
   4590   4602     1
   4591   4595     1
   4591   4596     1
   4591   4598     1
   4591   4599     1
   4591   4616     1
   4591   4617     1
   4592   4594     1
   4592   4597     1
   4592   4619     1
   4592   4615     1
   4592   4604     1
   4592   4605     1
   4593   4594     1
   4593   4597     1
   4593   4619     1
   4593   4615     1
   4593   4604     1
   4593   4605     1
   4594   4598     1
   4594   4599     1
   4594   4613     1
   4594   4614     1
   4595   4597     1
   4595   4619     1
   4595   4612     1
   4595   4607     1
   4595   4608     1
   4596   4597     1
   4596   4619     1
   4596   4612     1
   4596   4607     1
   4596   4608     1
   4597   4610     1
   4597   4611     1
   4598   4619     1
   4598   4609     1
   4598   4601     1
   4598   4602     1
   4599   4619     1
   4599   4609     1
   4599   4601     1
   4599   4602     1
   4600   4619     1
   4601   4618     1
   4601   4610     1
   4601   4611     1
   4602   4618     1
   4602   4610     1
   4602   4611     1
   4603   4619     1
   4604   9298     1
   4604   4616     1
   4604   4617     1
   4605   9298     1
   4605   4616     1
   4605   4617     1
   4606   4619     1
   4607   9268     1
   4607   4613     1
   4607   4614     1
   4608   9268     1
   4608   4613     1
   4608   4614     1
   4612   9260     1
   4612   9261     1
   4613   9259     1
   4614   9259     1
   4615   9290     1
   4615   9291     1
   4616   9289     1
   4617   9289     1
   4620   4634     1
   4620   4635     1
   4620   4637     1
   4620   4638     1
   4620   4631     1
   4620   4632     1
   4621   4625     1
   4621   4626     1
   4621   4628     1
   4621   4629     1
   4621   4646     1
   4621   4647     1
   4622   4624     1
   4622   4627     1
   4622   4649     1
   4622   4645     1
   4622   4634     1
   4622   4635     1
   4623   4624     1
   4623   4627     1
   4623   4649     1
   4623   4645     1
   4623   4634     1
   4623   4635     1
   4624   4628     1
   4624   4629     1
   4624   4643     1
   4624   4644     1
   4625   4627     1
   4625   4649     1
   4625   4642     1
   4625   4637     1
   4625   4638     1
   4626   4627     1
   4626   4649     1
   4626   4642     1
   4626   4637     1
   4626   4638     1
   4627   4640     1
   4627   4641     1
   4628   4649     1
   4628   4639     1
   4628   4631     1
   4628   4632     1
   4629   4649     1
   4629   4639     1
   4629   4631     1
   4629   4632     1
   4630   4649     1
   4631   4648     1
   4631   4640     1
   4631   4641     1
   4632   4648     1
   4632   4640     1
   4632   4641     1
   4633   4649     1
   4634   9358     1
   4634   4646     1
   4634   4647     1
   4635   9358     1
   4635   4646     1
   4635   4647     1
   4636   4649     1
   4637   9328     1
   4637   4643     1
   4637   4644     1
   4638   9328     1
   4638   4643     1
   4638   4644     1
   4642   9320     1
   4642   9321     1
   4643   9319     1
   4644   9319     1
   4645   9350     1
   4645   9351     1
   4646   9349     1
   4647   9349     1
   4650   4664     1
   4650   4665     1
   4650   4667     1
   4650   4668     1
   4650   4661     1
   4650   4662     1
   4651   4655     1
   4651   4656     1
   4651   4658     1
   4651   4659     1
   4651   4676     1
   4651   4677     1
   4652   4654     1
   4652   4657     1
   4652   4679     1
   4652   4675     1
   4652   4664     1
   4652   4665     1
   4653   4654     1
   4653   4657     1
   4653   4679     1
   4653   4675     1
   4653   4664     1
   4653   4665     1
   4654   4658     1
   4654   4659     1
   4654   4673     1
   4654   4674     1
   4655   4657     1
   4655   4679     1
   4655   4672     1
   4655   4667     1
   4655   4668     1
   4656   4657     1
   4656   4679     1
   4656   4672     1
   4656   4667     1
   4656   4668     1
   4657   4670     1
   4657   4671     1
   4658   4679     1
   4658   4669     1
   4658   4661     1
   4658   4662     1
   4659   4679     1
   4659   4669     1
   4659   4661     1
   4659   4662     1
   4660   4679     1
   4661   4678     1
   4661   4670     1
   4661   4671     1
   4662   4678     1
   4662   4670     1
   4662   4671     1
   4663   4679     1
   4664   9418     1
   4664   4676     1
   4664   4677     1
   4665   9418     1
   4665   4676     1
   4665   4677     1
   4666   4679     1
   4667   9388     1
   4667   4673     1
   4667   4674     1
   4668   9388     1
   4668   4673     1
   4668   4674     1
   4672   9380     1
   4672   9381     1
   4673   9379     1
   4674   9379     1
   4675   9410     1
   4675   9411     1
   4676   9409     1
   4677   9409     1
   4680   4694     1
   4680   4695     1
   4680   4697     1
   4680   4698     1
   4680   4691     1
   4680   4692     1
   4681   4685     1
   4681   4686     1
   4681   4688     1
   4681   4689     1
   4681   4706     1
   4681   4707     1
   4682   4684     1
   4682   4687     1
   4682   4709     1
   4682   4705     1
   4682   4694     1
   4682   4695     1
   4683   4684     1
   4683   4687     1
   4683   4709     1
   4683   4705     1
   4683   4694     1
   4683   4695     1
   4684   4688     1
   4684   4689     1
   4684   4703     1
   4684   4704     1
   4685   4687     1
   4685   4709     1
   4685   4702     1
   4685   4697     1
   4685   4698     1
   4686   4687     1
   4686   4709     1
   4686   4702     1
   4686   4697     1
   4686   4698     1
   4687   4700     1
   4687   4701     1
   4688   4709     1
   4688   4699     1
   4688   4691     1
   4688   4692     1
   4689   4709     1
   4689   4699     1
   4689   4691     1
   4689   4692     1
   4690   4709     1
   4691   4708     1
   4691   4700     1
   4691   4701     1
   4692   4708     1
   4692   4700     1
   4692   4701     1
   4693   4709     1
   4694   9478     1
   4694   4706     1
   4694   4707     1
   4695   9478     1
   4695   4706     1
   4695   4707     1
   4696   4709     1
   4697   9448     1
   4697   4703     1
   4697   4704     1
   4698   9448     1
   4698   4703     1
   4698   4704     1
   4702   9440     1
   4702   9441     1
   4703   9439     1
   4704   9439     1
   4705   9470     1
   4705   9471     1
   4706   9469     1
   4707   9469     1
   4710   4724     1
   4710   4725     1
   4710   4727     1
   4710   4728     1
   4710   4721     1
   4710   4722     1
   4711   4715     1
   4711   4716     1
   4711   4718     1
   4711   4719     1
   4711   4736     1
   4711   4737     1
   4712   4714     1
   4712   4717     1
   4712   4739     1
   4712   4735     1
   4712   4724     1
   4712   4725     1
   4713   4714     1
   4713   4717     1
   4713   4739     1
   4713   4735     1
   4713   4724     1
   4713   4725     1
   4714   4718     1
   4714   4719     1
   4714   4733     1
   4714   4734     1
   4715   4717     1
   4715   4739     1
   4715   4732     1
   4715   4727     1
   4715   4728     1
   4716   4717     1
   4716   4739     1
   4716   4732     1
   4716   4727     1
   4716   4728     1
   4717   4730     1
   4717   4731     1
   4718   4739     1
   4718   4729     1
   4718   4721     1
   4718   4722     1
   4719   4739     1
   4719   4729     1
   4719   4721     1
   4719   4722     1
   4720   4739     1
   4721   4738     1
   4721   4730     1
   4721   4731     1
   4722   4738     1
   4722   4730     1
   4722   4731     1
   4723   4739     1
   4724   9538     1
   4724   4736     1
   4724   4737     1
   4725   9538     1
   4725   4736     1
   4725   4737     1
   4726   4739     1
   4727   9508     1
   4727   4733     1
   4727   4734     1
   4728   9508     1
   4728   4733     1
   4728   4734     1
   4732   9500     1
   4732   9501     1
   4733   9499     1
   4734   9499     1
   4735   9530     1
   4735   9531     1
   4736   9529     1
   4737   9529     1
   4740   4754     1
   4740   4755     1
   4740   4757     1
   4740   4758     1
   4740   4751     1
   4740   4752     1
   4741   4745     1
   4741   4746     1
   4741   4748     1
   4741   4749     1
   4741   4766     1
   4741   4767     1
   4742   4744     1
   4742   4747     1
   4742   4769     1
   4742   4765     1
   4742   4754     1
   4742   4755     1
   4743   4744     1
   4743   4747     1
   4743   4769     1
   4743   4765     1
   4743   4754     1
   4743   4755     1
   4744   4748     1
   4744   4749     1
   4744   4763     1
   4744   4764     1
   4745   4747     1
   4745   4769     1
   4745   4762     1
   4745   4757     1
   4745   4758     1
   4746   4747     1
   4746   4769     1
   4746   4762     1
   4746   4757     1
   4746   4758     1
   4747   4760     1
   4747   4761     1
   4748   4769     1
   4748   4759     1
   4748   4751     1
   4748   4752     1
   4749   4769     1
   4749   4759     1
   4749   4751     1
   4749   4752     1
   4750   4769     1
   4751   4768     1
   4751   4760     1
   4751   4761     1
   4752   4768     1
   4752   4760     1
   4752   4761     1
   4753   4769     1
   4754   9598     1
   4754   4766     1
   4754   4767     1
   4755   9598     1
   4755   4766     1
   4755   4767     1
   4756   4769     1
   4757   9568     1
   4757   4763     1
   4757   4764     1
   4758   9568     1
   4758   4763     1
   4758   4764     1
   4762   9560     1
   4762   9561     1
   4763   9559     1
   4764   9559     1
   4765   9590     1
   4765   9591     1
   4766   9589     1
   4767   9589     1
   4770   4784     1
   4770   4785     1
   4770   4787     1
   4770   4788     1
   4770   4781     1
   4770   4782     1
   4771   4775     1
   4771   4776     1
   4771   4778     1
   4771   4779     1
   4771   4796     1
   4771   4797     1
   4772   4774     1
   4772   4777     1
   4772   4799     1
   4772   4795     1
   4772   4784     1
   4772   4785     1
   4773   4774     1
   4773   4777     1
   4773   4799     1
   4773   4795     1
   4773   4784     1
   4773   4785     1
   4774   4778     1
   4774   4779     1
   4774   4793     1
   4774   4794     1
   4775   4777     1
   4775   4799     1
   4775   4792     1
   4775   4787     1
   4775   4788     1
   4776   4777     1
   4776   4799     1
   4776   4792     1
   4776   4787     1
   4776   4788     1
   4777   4790     1
   4777   4791     1
   4778   4799     1
   4778   4789     1
   4778   4781     1
   4778   4782     1
   4779   4799     1
   4779   4789     1
   4779   4781     1
   4779   4782     1
   4780   4799     1
   4781   4798     1
   4781   4790     1
   4781   4791     1
   4782   4798     1
   4782   4790     1
   4782   4791     1
   4783   4799     1
   4784   9658     1
   4784   4796     1
   4784   4797     1
   4785   9658     1
   4785   4796     1
   4785   4797     1
   4786   4799     1
   4787   9628     1
   4787   4793     1
   4787   4794     1
   4788   9628     1
   4788   4793     1
   4788   4794     1
   4792   9620     1
   4792   9621     1
   4793   9619     1
   4794   9619     1
   4795   9650     1
   4795   9651     1
   4796   9649     1
   4797   9649     1
   4800   4814     1
   4800   4815     1
   4800   4817     1
   4800   4818     1
   4800   4811     1
   4800   4812     1
   4801   4805     1
   4801   4806     1
   4801   4808     1
   4801   4809     1
   4801   4826     1
   4801   4827     1
   4802   4804     1
   4802   4807     1
   4802   4829     1
   4802   4825     1
   4802   4814     1
   4802   4815     1
   4803   4804     1
   4803   4807     1
   4803   4829     1
   4803   4825     1
   4803   4814     1
   4803   4815     1
   4804   4808     1
   4804   4809     1
   4804   4823     1
   4804   4824     1
   4805   4807     1
   4805   4829     1
   4805   4822     1
   4805   4817     1
   4805   4818     1
   4806   4807     1
   4806   4829     1
   4806   4822     1
   4806   4817     1
   4806   4818     1
   4807   4820     1
   4807   4821     1
   4808   4829     1
   4808   4819     1
   4808   4811     1
   4808   4812     1
   4809   4829     1
   4809   4819     1
   4809   4811     1
   4809   4812     1
   4810   4829     1
   4811   4828     1
   4811   4820     1
   4811   4821     1
   4812   4828     1
   4812   4820     1
   4812   4821     1
   4813   4829     1
   4814   9718     1
   4814   4826     1
   4814   4827     1
   4815   9718     1
   4815   4826     1
   4815   4827     1
   4816   4829     1
   4817   9688     1
   4817   4823     1
   4817   4824     1
   4818   9688     1
   4818   4823     1
   4818   4824     1
   4822   9680     1
   4822   9681     1
   4823   9679     1
   4824   9679     1
   4825   9710     1
   4825   9711     1
   4826   9709     1
   4827   9709     1
   4830   4844     1
   4830   4845     1
   4830   4847     1
   4830   4848     1
   4830   4841     1
   4830   4842     1
   4831   4835     1
   4831   4836     1
   4831   4838     1
   4831   4839     1
   4831   4856     1
   4831   4857     1
   4832   4834     1
   4832   4837     1
   4832   4859     1
   4832   4855     1
   4832   4844     1
   4832   4845     1
   4833   4834     1
   4833   4837     1
   4833   4859     1
   4833   4855     1
   4833   4844     1
   4833   4845     1
   4834   4838     1
   4834   4839     1
   4834   4853     1
   4834   4854     1
   4835   4837     1
   4835   4859     1
   4835   4852     1
   4835   4847     1
   4835   4848     1
   4836   4837     1
   4836   4859     1
   4836   4852     1
   4836   4847     1
   4836   4848     1
   4837   4850     1
   4837   4851     1
   4838   4859     1
   4838   4849     1
   4838   4841     1
   4838   4842     1
   4839   4859     1
   4839   4849     1
   4839   4841     1
   4839   4842     1
   4840   4859     1
   4841   4858     1
   4841   4850     1
   4841   4851     1
   4842   4858     1
   4842   4850     1
   4842   4851     1
   4843   4859     1
   4844   9778     1
   4844   4856     1
   4844   4857     1
   4845   9778     1
   4845   4856     1
   4845   4857     1
   4846   4859     1
   4847   9748     1
   4847   4853     1
   4847   4854     1
   4848   9748     1
   4848   4853     1
   4848   4854     1
   4852   9740     1
   4852   9741     1
   4853   9739     1
   4854   9739     1
   4855   9770     1
   4855   9771     1
   4856   9769     1
   4857   9769     1
   4860   4874     1
   4860   4875     1
   4860   4877     1
   4860   4878     1
   4860   4871     1
   4860   4872     1
   4861   4865     1
   4861   4866     1
   4861   4868     1
   4861   4869     1
   4861   4886     1
   4861   4887     1
   4862   4864     1
   4862   4867     1
   4862   4889     1
   4862   4885     1
   4862   4874     1
   4862   4875     1
   4863   4864     1
   4863   4867     1
   4863   4889     1
   4863   4885     1
   4863   4874     1
   4863   4875     1
   4864   4868     1
   4864   4869     1
   4864   4883     1
   4864   4884     1
   4865   4867     1
   4865   4889     1
   4865   4882     1
   4865   4877     1
   4865   4878     1
   4866   4867     1
   4866   4889     1
   4866   4882     1
   4866   4877     1
   4866   4878     1
   4867   4880     1
   4867   4881     1
   4868   4889     1
   4868   4879     1
   4868   4871     1
   4868   4872     1
   4869   4889     1
   4869   4879     1
   4869   4871     1
   4869   4872     1
   4870   4889     1
   4871   4888     1
   4871   4880     1
   4871   4881     1
   4872   4888     1
   4872   4880     1
   4872   4881     1
   4873   4889     1
   4874   9838     1
   4874   4886     1
   4874   4887     1
   4875   9838     1
   4875   4886     1
   4875   4887     1
   4876   4889     1
   4877   9808     1
   4877   4883     1
   4877   4884     1
   4878   9808     1
   4878   4883     1
   4878   4884     1
   4882   9800     1
   4882   9801     1
   4883   9799     1
   4884   9799     1
   4885   9830     1
   4885   9831     1
   4886   9829     1
   4887   9829     1
   4890   4904     1
   4890   4905     1
   4890   4907     1
   4890   4908     1
   4890   4901     1
   4890   4902     1
   4891   4895     1
   4891   4896     1
   4891   4898     1
   4891   4899     1
   4891   4916     1
   4891   4917     1
   4892   4894     1
   4892   4897     1
   4892   4919     1
   4892   4915     1
   4892   4904     1
   4892   4905     1
   4893   4894     1
   4893   4897     1
   4893   4919     1
   4893   4915     1
   4893   4904     1
   4893   4905     1
   4894   4898     1
   4894   4899     1
   4894   4913     1
   4894   4914     1
   4895   4897     1
   4895   4919     1
   4895   4912     1
   4895   4907     1
   4895   4908     1
   4896   4897     1
   4896   4919     1
   4896   4912     1
   4896   4907     1
   4896   4908     1
   4897   4910     1
   4897   4911     1
   4898   4919     1
   4898   4909     1
   4898   4901     1
   4898   4902     1
   4899   4919     1
   4899   4909     1
   4899   4901     1
   4899   4902     1
   4900   4919     1
   4901   4918     1
   4901   4910     1
   4901   4911     1
   4902   4918     1
   4902   4910     1
   4902   4911     1
   4903   4919     1
   4904   9898     1
   4904   4916     1
   4904   4917     1
   4905   9898     1
   4905   4916     1
   4905   4917     1
   4906   4919     1
   4907   9868     1
   4907   4913     1
   4907   4914     1
   4908   9868     1
   4908   4913     1
   4908   4914     1
   4912   9860     1
   4912   9861     1
   4913   9859     1
   4914   9859     1
   4915   9890     1
   4915   9891     1
   4916   9889     1
   4917   9889     1
   4920   4934     1
   4920   4935     1
   4920   4937     1
   4920   4938     1
   4920   4931     1
   4920   4932     1
   4921   4925     1
   4921   4926     1
   4921   4928     1
   4921   4929     1
   4921   4946     1
   4921   4947     1
   4922   4924     1
   4922   4927     1
   4922   4949     1
   4922   4945     1
   4922   4934     1
   4922   4935     1
   4923   4924     1
   4923   4927     1
   4923   4949     1
   4923   4945     1
   4923   4934     1
   4923   4935     1
   4924   4928     1
   4924   4929     1
   4924   4943     1
   4924   4944     1
   4925   4927     1
   4925   4949     1
   4925   4942     1
   4925   4937     1
   4925   4938     1
   4926   4927     1
   4926   4949     1
   4926   4942     1
   4926   4937     1
   4926   4938     1
   4927   4940     1
   4927   4941     1
   4928   4949     1
   4928   4939     1
   4928   4931     1
   4928   4932     1
   4929   4949     1
   4929   4939     1
   4929   4931     1
   4929   4932     1
   4930   4949     1
   4931   4948     1
   4931   4940     1
   4931   4941     1
   4932   4948     1
   4932   4940     1
   4932   4941     1
   4933   4949     1
   4934   9958     1
   4934   4946     1
   4934   4947     1
   4935   9958     1
   4935   4946     1
   4935   4947     1
   4936   4949     1
   4937   9928     1
   4937   4943     1
   4937   4944     1
   4938   9928     1
   4938   4943     1
   4938   4944     1
   4942   9920     1
   4942   9921     1
   4943   9919     1
   4944   9919     1
   4945   9950     1
   4945   9951     1
   4946   9949     1
   4947   9949     1
   4950   4964     1
   4950   4965     1
   4950   4967     1
   4950   4968     1
   4950   4961     1
   4950   4962     1
   4951   4955     1
   4951   4956     1
   4951   4958     1
   4951   4959     1
   4951   4976     1
   4951   4977     1
   4952   4954     1
   4952   4957     1
   4952   4979     1
   4952   4975     1
   4952   4964     1
   4952   4965     1
   4953   4954     1
   4953   4957     1
   4953   4979     1
   4953   4975     1
   4953   4964     1
   4953   4965     1
   4954   4958     1
   4954   4959     1
   4954   4973     1
   4954   4974     1
   4955   4957     1
   4955   4979     1
   4955   4972     1
   4955   4967     1
   4955   4968     1
   4956   4957     1
   4956   4979     1
   4956   4972     1
   4956   4967     1
   4956   4968     1
   4957   4970     1
   4957   4971     1
   4958   4979     1
   4958   4969     1
   4958   4961     1
   4958   4962     1
   4959   4979     1
   4959   4969     1
   4959   4961     1
   4959   4962     1
   4960   4979     1
   4961   4978     1
   4961   4970     1
   4961   4971     1
   4962   4978     1
   4962   4970     1
   4962   4971     1
   4963   4979     1
   4964  10018     1
   4964   4976     1
   4964   4977     1
   4965  10018     1
   4965   4976     1
   4965   4977     1
   4966   4979     1
   4967   9988     1
   4967   4973     1
   4967   4974     1
   4968   9988     1
   4968   4973     1
   4968   4974     1
   4972   9980     1
   4972   9981     1
   4973   9979     1
   4974   9979     1
   4975  10010     1
   4975  10011     1
   4976  10009     1
   4977  10009     1
   4980   4994     1
   4980   4995     1
   4980   4997     1
   4980   4998     1
   4980   4991     1
   4980   4992     1
   4981   4985     1
   4981   4986     1
   4981   4988     1
   4981   4989     1
   4981   5006     1
   4981   5007     1
   4982   4984     1
   4982   4987     1
   4982   5009     1
   4982   5005     1
   4982   4994     1
   4982   4995     1
   4983   4984     1
   4983   4987     1
   4983   5009     1
   4983   5005     1
   4983   4994     1
   4983   4995     1
   4984   4988     1
   4984   4989     1
   4984   5003     1
   4984   5004     1
   4985   4987     1
   4985   5009     1
   4985   5002     1
   4985   4997     1
   4985   4998     1
   4986   4987     1
   4986   5009     1
   4986   5002     1
   4986   4997     1
   4986   4998     1
   4987   5000     1
   4987   5001     1
   4988   5009     1
   4988   4999     1
   4988   4991     1
   4988   4992     1
   4989   5009     1
   4989   4999     1
   4989   4991     1
   4989   4992     1
   4990   5009     1
   4991   5008     1
   4991   5000     1
   4991   5001     1
   4992   5008     1
   4992   5000     1
   4992   5001     1
   4993   5009     1
   4994  10078     1
   4994   5006     1
   4994   5007     1
   4995  10078     1
   4995   5006     1
   4995   5007     1
   4996   5009     1
   4997  10048     1
   4997   5003     1
   4997   5004     1
   4998  10048     1
   4998   5003     1
   4998   5004     1
   5002  10040     1
   5002  10041     1
   5003  10039     1
   5004  10039     1
   5005  10070     1
   5005  10071     1
   5006  10069     1
   5007  10069     1
   5010   5024     1
   5010   5025     1
   5010   5027     1
   5010   5028     1
   5010   5021     1
   5010   5022     1
   5011   5015     1
   5011   5016     1
   5011   5018     1
   5011   5019     1
   5011   5036     1
   5011   5037     1
   5012   5014     1
   5012   5017     1
   5012   5039     1
   5012   5035     1
   5012   5024     1
   5012   5025     1
   5013   5014     1
   5013   5017     1
   5013   5039     1
   5013   5035     1
   5013   5024     1
   5013   5025     1
   5014   5018     1
   5014   5019     1
   5014   5033     1
   5014   5034     1
   5015   5017     1
   5015   5039     1
   5015   5032     1
   5015   5027     1
   5015   5028     1
   5016   5017     1
   5016   5039     1
   5016   5032     1
   5016   5027     1
   5016   5028     1
   5017   5030     1
   5017   5031     1
   5018   5039     1
   5018   5029     1
   5018   5021     1
   5018   5022     1
   5019   5039     1
   5019   5029     1
   5019   5021     1
   5019   5022     1
   5020   5039     1
   5021   5038     1
   5021   5030     1
   5021   5031     1
   5022   5038     1
   5022   5030     1
   5022   5031     1
   5023   5039     1
   5024  10138     1
   5024   5036     1
   5024   5037     1
   5025  10138     1
   5025   5036     1
   5025   5037     1
   5026   5039     1
   5027  10108     1
   5027   5033     1
   5027   5034     1
   5028  10108     1
   5028   5033     1
   5028   5034     1
   5032  10100     1
   5032  10101     1
   5033  10099     1
   5034  10099     1
   5035  10130     1
   5035  10131     1
   5036  10129     1
   5037  10129     1
   5040   5054     1
   5040   5055     1
   5040   5057     1
   5040   5058     1
   5040   5051     1
   5040   5052     1
   5041   5045     1
   5041   5046     1
   5041   5048     1
   5041   5049     1
   5041   5066     1
   5041   5067     1
   5042   5044     1
   5042   5047     1
   5042   5069     1
   5042   5065     1
   5042   5054     1
   5042   5055     1
   5043   5044     1
   5043   5047     1
   5043   5069     1
   5043   5065     1
   5043   5054     1
   5043   5055     1
   5044   5048     1
   5044   5049     1
   5044   5063     1
   5044   5064     1
   5045   5047     1
   5045   5069     1
   5045   5062     1
   5045   5057     1
   5045   5058     1
   5046   5047     1
   5046   5069     1
   5046   5062     1
   5046   5057     1
   5046   5058     1
   5047   5060     1
   5047   5061     1
   5048   5069     1
   5048   5059     1
   5048   5051     1
   5048   5052     1
   5049   5069     1
   5049   5059     1
   5049   5051     1
   5049   5052     1
   5050   5069     1
   5051   5068     1
   5051   5060     1
   5051   5061     1
   5052   5068     1
   5052   5060     1
   5052   5061     1
   5053   5069     1
   5054  10198     1
   5054   5066     1
   5054   5067     1
   5055  10198     1
   5055   5066     1
   5055   5067     1
   5056   5069     1
   5057  10168     1
   5057   5063     1
   5057   5064     1
   5058  10168     1
   5058   5063     1
   5058   5064     1
   5062  10160     1
   5062  10161     1
   5063  10159     1
   5064  10159     1
   5065  10190     1
   5065  10191     1
   5066  10189     1
   5067  10189     1
   5070   5084     1
   5070   5085     1
   5070   5087     1
   5070   5088     1
   5070   5081     1
   5070   5082     1
   5071   5075     1
   5071   5076     1
   5071   5078     1
   5071   5079     1
   5071   5096     1
   5071   5097     1
   5072   5074     1
   5072   5077     1
   5072   5099     1
   5072   5095     1
   5072   5084     1
   5072   5085     1
   5073   5074     1
   5073   5077     1
   5073   5099     1
   5073   5095     1
   5073   5084     1
   5073   5085     1
   5074   5078     1
   5074   5079     1
   5074   5093     1
   5074   5094     1
   5075   5077     1
   5075   5099     1
   5075   5092     1
   5075   5087     1
   5075   5088     1
   5076   5077     1
   5076   5099     1
   5076   5092     1
   5076   5087     1
   5076   5088     1
   5077   5090     1
   5077   5091     1
   5078   5099     1
   5078   5089     1
   5078   5081     1
   5078   5082     1
   5079   5099     1
   5079   5089     1
   5079   5081     1
   5079   5082     1
   5080   5099     1
   5081   5098     1
   5081   5090     1
   5081   5091     1
   5082   5098     1
   5082   5090     1
   5082   5091     1
   5083   5099     1
   5084  10258     1
   5084   5096     1
   5084   5097     1
   5085  10258     1
   5085   5096     1
   5085   5097     1
   5086   5099     1
   5087  10228     1
   5087   5093     1
   5087   5094     1
   5088  10228     1
   5088   5093     1
   5088   5094     1
   5092  10220     1
   5092  10221     1
   5093  10219     1
   5094  10219     1
   5095  10250     1
   5095  10251     1
   5096  10249     1
   5097  10249     1
   5100   5114     1
   5100   5115     1
   5100   5117     1
   5100   5118     1
   5100   5111     1
   5100   5112     1
   5101   5105     1
   5101   5106     1
   5101   5108     1
   5101   5109     1
   5101   5126     1
   5101   5127     1
   5102   5104     1
   5102   5107     1
   5102   5129     1
   5102   5125     1
   5102   5114     1
   5102   5115     1
   5103   5104     1
   5103   5107     1
   5103   5129     1
   5103   5125     1
   5103   5114     1
   5103   5115     1
   5104   5108     1
   5104   5109     1
   5104   5123     1
   5104   5124     1
   5105   5107     1
   5105   5129     1
   5105   5122     1
   5105   5117     1
   5105   5118     1
   5106   5107     1
   5106   5129     1
   5106   5122     1
   5106   5117     1
   5106   5118     1
   5107   5120     1
   5107   5121     1
   5108   5129     1
   5108   5119     1
   5108   5111     1
   5108   5112     1
   5109   5129     1
   5109   5119     1
   5109   5111     1
   5109   5112     1
   5110   5129     1
   5111   5128     1
   5111   5120     1
   5111   5121     1
   5112   5128     1
   5112   5120     1
   5112   5121     1
   5113   5129     1
   5114  10318     1
   5114   5126     1
   5114   5127     1
   5115  10318     1
   5115   5126     1
   5115   5127     1
   5116   5129     1
   5117  10288     1
   5117   5123     1
   5117   5124     1
   5118  10288     1
   5118   5123     1
   5118   5124     1
   5122  10280     1
   5122  10281     1
   5123  10279     1
   5124  10279     1
   5125  10310     1
   5125  10311     1
   5126  10309     1
   5127  10309     1
   5130   5144     1
   5130   5145     1
   5130   5147     1
   5130   5148     1
   5130   5141     1
   5130   5142     1
   5131   5135     1
   5131   5136     1
   5131   5138     1
   5131   5139     1
   5131   5156     1
   5131   5157     1
   5132   5134     1
   5132   5137     1
   5132   5159     1
   5132   5155     1
   5132   5144     1
   5132   5145     1
   5133   5134     1
   5133   5137     1
   5133   5159     1
   5133   5155     1
   5133   5144     1
   5133   5145     1
   5134   5138     1
   5134   5139     1
   5134   5153     1
   5134   5154     1
   5135   5137     1
   5135   5159     1
   5135   5152     1
   5135   5147     1
   5135   5148     1
   5136   5137     1
   5136   5159     1
   5136   5152     1
   5136   5147     1
   5136   5148     1
   5137   5150     1
   5137   5151     1
   5138   5159     1
   5138   5149     1
   5138   5141     1
   5138   5142     1
   5139   5159     1
   5139   5149     1
   5139   5141     1
   5139   5142     1
   5140   5159     1
   5141   5158     1
   5141   5150     1
   5141   5151     1
   5142   5158     1
   5142   5150     1
   5142   5151     1
   5143   5159     1
   5144  10378     1
   5144   5156     1
   5144   5157     1
   5145  10378     1
   5145   5156     1
   5145   5157     1
   5146   5159     1
   5147  10348     1
   5147   5153     1
   5147   5154     1
   5148  10348     1
   5148   5153     1
   5148   5154     1
   5152  10340     1
   5152  10341     1
   5153  10339     1
   5154  10339     1
   5155  10370     1
   5155  10371     1
   5156  10369     1
   5157  10369     1
   5160   5174     1
   5160   5175     1
   5160   5177     1
   5160   5178     1
   5160   5171     1
   5160   5172     1
   5161   5165     1
   5161   5166     1
   5161   5168     1
   5161   5169     1
   5161   5186     1
   5161   5187     1
   5162   5164     1
   5162   5167     1
   5162   5189     1
   5162   5185     1
   5162   5174     1
   5162   5175     1
   5163   5164     1
   5163   5167     1
   5163   5189     1
   5163   5185     1
   5163   5174     1
   5163   5175     1
   5164   5168     1
   5164   5169     1
   5164   5183     1
   5164   5184     1
   5165   5167     1
   5165   5189     1
   5165   5182     1
   5165   5177     1
   5165   5178     1
   5166   5167     1
   5166   5189     1
   5166   5182     1
   5166   5177     1
   5166   5178     1
   5167   5180     1
   5167   5181     1
   5168   5189     1
   5168   5179     1
   5168   5171     1
   5168   5172     1
   5169   5189     1
   5169   5179     1
   5169   5171     1
   5169   5172     1
   5170   5189     1
   5171   5188     1
   5171   5180     1
   5171   5181     1
   5172   5188     1
   5172   5180     1
   5172   5181     1
   5173   5189     1
   5174  10438     1
   5174   5186     1
   5174   5187     1
   5175  10438     1
   5175   5186     1
   5175   5187     1
   5176   5189     1
   5177  10408     1
   5177   5183     1
   5177   5184     1
   5178  10408     1
   5178   5183     1
   5178   5184     1
   5182  10400     1
   5182  10401     1
   5183  10399     1
   5184  10399     1
   5185  10430     1
   5185  10431     1
   5186  10429     1
   5187  10429     1
   5190   5204     1
   5190   5205     1
   5190   5207     1
   5190   5208     1
   5190   5201     1
   5190   5202     1
   5191   5195     1
   5191   5196     1
   5191   5198     1
   5191   5199     1
   5191   5216     1
   5191   5217     1
   5192   5194     1
   5192   5197     1
   5192   5219     1
   5192   5215     1
   5192   5204     1
   5192   5205     1
   5193   5194     1
   5193   5197     1
   5193   5219     1
   5193   5215     1
   5193   5204     1
   5193   5205     1
   5194   5198     1
   5194   5199     1
   5194   5213     1
   5194   5214     1
   5195   5197     1
   5195   5219     1
   5195   5212     1
   5195   5207     1
   5195   5208     1
   5196   5197     1
   5196   5219     1
   5196   5212     1
   5196   5207     1
   5196   5208     1
   5197   5210     1
   5197   5211     1
   5198   5219     1
   5198   5209     1
   5198   5201     1
   5198   5202     1
   5199   5219     1
   5199   5209     1
   5199   5201     1
   5199   5202     1
   5200   5219     1
   5201   5218     1
   5201   5210     1
   5201   5211     1
   5202   5218     1
   5202   5210     1
   5202   5211     1
   5203   5219     1
   5204  10498     1
   5204   5216     1
   5204   5217     1
   5205  10498     1
   5205   5216     1
   5205   5217     1
   5206   5219     1
   5207  10468     1
   5207   5213     1
   5207   5214     1
   5208  10468     1
   5208   5213     1
   5208   5214     1
   5212  10460     1
   5212  10461     1
   5213  10459     1
   5214  10459     1
   5215  10490     1
   5215  10491     1
   5216  10489     1
   5217  10489     1
   5220   5234     1
   5220   5235     1
   5220   5237     1
   5220   5238     1
   5220   5231     1
   5220   5232     1
   5221   5225     1
   5221   5226     1
   5221   5228     1
   5221   5229     1
   5221   5246     1
   5221   5247     1
   5222   5224     1
   5222   5227     1
   5222   5249     1
   5222   5245     1
   5222   5234     1
   5222   5235     1
   5223   5224     1
   5223   5227     1
   5223   5249     1
   5223   5245     1
   5223   5234     1
   5223   5235     1
   5224   5228     1
   5224   5229     1
   5224   5243     1
   5224   5244     1
   5225   5227     1
   5225   5249     1
   5225   5242     1
   5225   5237     1
   5225   5238     1
   5226   5227     1
   5226   5249     1
   5226   5242     1
   5226   5237     1
   5226   5238     1
   5227   5240     1
   5227   5241     1
   5228   5249     1
   5228   5239     1
   5228   5231     1
   5228   5232     1
   5229   5249     1
   5229   5239     1
   5229   5231     1
   5229   5232     1
   5230   5249     1
   5231   5248     1
   5231   5240     1
   5231   5241     1
   5232   5248     1
   5232   5240     1
   5232   5241     1
   5233   5249     1
   5234  10558     1
   5234   5246     1
   5234   5247     1
   5235  10558     1
   5235   5246     1
   5235   5247     1
   5236   5249     1
   5237  10528     1
   5237   5243     1
   5237   5244     1
   5238  10528     1
   5238   5243     1
   5238   5244     1
   5242  10520     1
   5242  10521     1
   5243  10519     1
   5244  10519     1
   5245  10550     1
   5245  10551     1
   5246  10549     1
   5247  10549     1
   5250   5264     1
   5250   5265     1
   5250   5267     1
   5250   5268     1
   5250   5261     1
   5250   5262     1
   5251   5255     1
   5251   5256     1
   5251   5258     1
   5251   5259     1
   5251   5276     1
   5251   5277     1
   5252   5254     1
   5252   5257     1
   5252   5279     1
   5252   5275     1
   5252   5264     1
   5252   5265     1
   5253   5254     1
   5253   5257     1
   5253   5279     1
   5253   5275     1
   5253   5264     1
   5253   5265     1
   5254   5258     1
   5254   5259     1
   5254   5273     1
   5254   5274     1
   5255   5257     1
   5255   5279     1
   5255   5272     1
   5255   5267     1
   5255   5268     1
   5256   5257     1
   5256   5279     1
   5256   5272     1
   5256   5267     1
   5256   5268     1
   5257   5270     1
   5257   5271     1
   5258   5279     1
   5258   5269     1
   5258   5261     1
   5258   5262     1
   5259   5279     1
   5259   5269     1
   5259   5261     1
   5259   5262     1
   5260   5279     1
   5261   5278     1
   5261   5270     1
   5261   5271     1
   5262   5278     1
   5262   5270     1
   5262   5271     1
   5263   5279     1
   5264  10618     1
   5264   5276     1
   5264   5277     1
   5265  10618     1
   5265   5276     1
   5265   5277     1
   5266   5279     1
   5267  10588     1
   5267   5273     1
   5267   5274     1
   5268  10588     1
   5268   5273     1
   5268   5274     1
   5272  10580     1
   5272  10581     1
   5273  10579     1
   5274  10579     1
   5275  10610     1
   5275  10611     1
   5276  10609     1
   5277  10609     1
   5280   5294     1
   5280   5295     1
   5280   5297     1
   5280   5298     1
   5280   5291     1
   5280   5292     1
   5281   5285     1
   5281   5286     1
   5281   5288     1
   5281   5289     1
   5281   5306     1
   5281   5307     1
   5282   5284     1
   5282   5287     1
   5282   5309     1
   5282   5305     1
   5282   5294     1
   5282   5295     1
   5283   5284     1
   5283   5287     1
   5283   5309     1
   5283   5305     1
   5283   5294     1
   5283   5295     1
   5284   5288     1
   5284   5289     1
   5284   5303     1
   5284   5304     1
   5285   5287     1
   5285   5309     1
   5285   5302     1
   5285   5297     1
   5285   5298     1
   5286   5287     1
   5286   5309     1
   5286   5302     1
   5286   5297     1
   5286   5298     1
   5287   5300     1
   5287   5301     1
   5288   5309     1
   5288   5299     1
   5288   5291     1
   5288   5292     1
   5289   5309     1
   5289   5299     1
   5289   5291     1
   5289   5292     1
   5290   5309     1
   5291   5308     1
   5291   5300     1
   5291   5301     1
   5292   5308     1
   5292   5300     1
   5292   5301     1
   5293   5309     1
   5294  10678     1
   5294   5306     1
   5294   5307     1
   5295  10678     1
   5295   5306     1
   5295   5307     1
   5296   5309     1
   5297  10648     1
   5297   5303     1
   5297   5304     1
   5298  10648     1
   5298   5303     1
   5298   5304     1
   5302  10640     1
   5302  10641     1
   5303  10639     1
   5304  10639     1
   5305  10670     1
   5305  10671     1
   5306  10669     1
   5307  10669     1
   5310   5324     1
   5310   5325     1
   5310   5327     1
   5310   5328     1
   5310   5321     1
   5310   5322     1
   5311   5315     1
   5311   5316     1
   5311   5318     1
   5311   5319     1
   5311   5336     1
   5311   5337     1
   5312   5314     1
   5312   5317     1
   5312   5339     1
   5312   5335     1
   5312   5324     1
   5312   5325     1
   5313   5314     1
   5313   5317     1
   5313   5339     1
   5313   5335     1
   5313   5324     1
   5313   5325     1
   5314   5318     1
   5314   5319     1
   5314   5333     1
   5314   5334     1
   5315   5317     1
   5315   5339     1
   5315   5332     1
   5315   5327     1
   5315   5328     1
   5316   5317     1
   5316   5339     1
   5316   5332     1
   5316   5327     1
   5316   5328     1
   5317   5330     1
   5317   5331     1
   5318   5339     1
   5318   5329     1
   5318   5321     1
   5318   5322     1
   5319   5339     1
   5319   5329     1
   5319   5321     1
   5319   5322     1
   5320   5339     1
   5321   5338     1
   5321   5330     1
   5321   5331     1
   5322   5338     1
   5322   5330     1
   5322   5331     1
   5323   5339     1
   5324  10738     1
   5324   5336     1
   5324   5337     1
   5325  10738     1
   5325   5336     1
   5325   5337     1
   5326   5339     1
   5327  10708     1
   5327   5333     1
   5327   5334     1
   5328  10708     1
   5328   5333     1
   5328   5334     1
   5332  10700     1
   5332  10701     1
   5333  10699     1
   5334  10699     1
   5335  10730     1
   5335  10731     1
   5336  10729     1
   5337  10729     1
   5340   5354     1
   5340   5355     1
   5340   5357     1
   5340   5358     1
   5340   5351     1
   5340   5352     1
   5341   5345     1
   5341   5346     1
   5341   5348     1
   5341   5349     1
   5341   5366     1
   5341   5367     1
   5342   5344     1
   5342   5347     1
   5342   5369     1
   5342   5365     1
   5342   5354     1
   5342   5355     1
   5343   5344     1
   5343   5347     1
   5343   5369     1
   5343   5365     1
   5343   5354     1
   5343   5355     1
   5344   5348     1
   5344   5349     1
   5344   5363     1
   5344   5364     1
   5345   5347     1
   5345   5369     1
   5345   5362     1
   5345   5357     1
   5345   5358     1
   5346   5347     1
   5346   5369     1
   5346   5362     1
   5346   5357     1
   5346   5358     1
   5347   5360     1
   5347   5361     1
   5348   5369     1
   5348   5359     1
   5348   5351     1
   5348   5352     1
   5349   5369     1
   5349   5359     1
   5349   5351     1
   5349   5352     1
   5350   5369     1
   5351   5368     1
   5351   5360     1
   5351   5361     1
   5352   5368     1
   5352   5360     1
   5352   5361     1
   5353   5369     1
   5354  10798     1
   5354   5366     1
   5354   5367     1
   5355  10798     1
   5355   5366     1
   5355   5367     1
   5356   5369     1
   5357  10768     1
   5357   5363     1
   5357   5364     1
   5358  10768     1
   5358   5363     1
   5358   5364     1
   5362  10760     1
   5362  10761     1
   5363  10759     1
   5364  10759     1
   5365  10790     1
   5365  10791     1
   5366  10789     1
   5367  10789     1
   5370   5384     1
   5370   5385     1
   5370   5387     1
   5370   5388     1
   5370   5381     1
   5370   5382     1
   5371   5375     1
   5371   5376     1
   5371   5378     1
   5371   5379     1
   5371   5396     1
   5371   5397     1
   5372   5374     1
   5372   5377     1
   5372   5399     1
   5372   5395     1
   5372   5384     1
   5372   5385     1
   5373   5374     1
   5373   5377     1
   5373   5399     1
   5373   5395     1
   5373   5384     1
   5373   5385     1
   5374   5378     1
   5374   5379     1
   5374   5393     1
   5374   5394     1
   5375   5377     1
   5375   5399     1
   5375   5392     1
   5375   5387     1
   5375   5388     1
   5376   5377     1
   5376   5399     1
   5376   5392     1
   5376   5387     1
   5376   5388     1
   5377   5390     1
   5377   5391     1
   5378   5399     1
   5378   5389     1
   5378   5381     1
   5378   5382     1
   5379   5399     1
   5379   5389     1
   5379   5381     1
   5379   5382     1
   5380   5399     1
   5381   5398     1
   5381   5390     1
   5381   5391     1
   5382   5398     1
   5382   5390     1
   5382   5391     1
   5383   5399     1
   5384  10858     1
   5384   5396     1
   5384   5397     1
   5385  10858     1
   5385   5396     1
   5385   5397     1
   5386   5399     1
   5387  10828     1
   5387   5393     1
   5387   5394     1
   5388  10828     1
   5388   5393     1
   5388   5394     1
   5392  10820     1
   5392  10821     1
   5393  10819     1
   5394  10819     1
   5395  10850     1
   5395  10851     1
   5396  10849     1
   5397  10849     1
   5400   5414     1
   5400   5415     1
   5400   5417     1
   5400   5418     1
   5400   5411     1
   5400   5412     1
   5401   5405     1
   5401   5406     1
   5401   5408     1
   5401   5409     1
   5401   5426     1
   5401   5427     1
   5402   5404     1
   5402   5407     1
   5402   5429     1
   5402   5425     1
   5402   5414     1
   5402   5415     1
   5403   5404     1
   5403   5407     1
   5403   5429     1
   5403   5425     1
   5403   5414     1
   5403   5415     1
   5404   5408     1
   5404   5409     1
   5404   5423     1
   5404   5424     1
   5405   5407     1
   5405   5429     1
   5405   5422     1
   5405   5417     1
   5405   5418     1
   5406   5407     1
   5406   5429     1
   5406   5422     1
   5406   5417     1
   5406   5418     1
   5407   5420     1
   5407   5421     1
   5408   5429     1
   5408   5419     1
   5408   5411     1
   5408   5412     1
   5409   5429     1
   5409   5419     1
   5409   5411     1
   5409   5412     1
   5410   5429     1
   5411   5428     1
   5411   5420     1
   5411   5421     1
   5412   5428     1
   5412   5420     1
   5412   5421     1
   5413   5429     1
   5414  10918     1
   5414   5426     1
   5414   5427     1
   5415  10918     1
   5415   5426     1
   5415   5427     1
   5416   5429     1
   5417  10888     1
   5417   5423     1
   5417   5424     1
   5418  10888     1
   5418   5423     1
   5418   5424     1
   5422  10880     1
   5422  10881     1
   5423  10879     1
   5424  10879     1
   5425  10910     1
   5425  10911     1
   5426  10909     1
   5427  10909     1
   5430   5444     1
   5430   5445     1
   5430   5447     1
   5430   5448     1
   5430   5441     1
   5430   5442     1
   5431   5435     1
   5431   5436     1
   5431   5438     1
   5431   5439     1
   5431   5456     1
   5431   5457     1
   5432   5434     1
   5432   5437     1
   5432   5459     1
   5432   5455     1
   5432   5444     1
   5432   5445     1
   5433   5434     1
   5433   5437     1
   5433   5459     1
   5433   5455     1
   5433   5444     1
   5433   5445     1
   5434   5438     1
   5434   5439     1
   5434   5453     1
   5434   5454     1
   5435   5437     1
   5435   5459     1
   5435   5452     1
   5435   5447     1
   5435   5448     1
   5436   5437     1
   5436   5459     1
   5436   5452     1
   5436   5447     1
   5436   5448     1
   5437   5450     1
   5437   5451     1
   5438   5459     1
   5438   5449     1
   5438   5441     1
   5438   5442     1
   5439   5459     1
   5439   5449     1
   5439   5441     1
   5439   5442     1
   5440   5459     1
   5441   5458     1
   5441   5450     1
   5441   5451     1
   5442   5458     1
   5442   5450     1
   5442   5451     1
   5443   5459     1
   5444  10978     1
   5444   5456     1
   5444   5457     1
   5445  10978     1
   5445   5456     1
   5445   5457     1
   5446   5459     1
   5447  10948     1
   5447   5453     1
   5447   5454     1
   5448  10948     1
   5448   5453     1
   5448   5454     1
   5452  10940     1
   5452  10941     1
   5453  10939     1
   5454  10939     1
   5455  10970     1
   5455  10971     1
   5456  10969     1
   5457  10969     1
   5460   5474     1
   5460   5475     1
   5460   5477     1
   5460   5478     1
   5460   5471     1
   5460   5472     1
   5461   5465     1
   5461   5466     1
   5461   5468     1
   5461   5469     1
   5461   5486     1
   5461   5487     1
   5462   5464     1
   5462   5467     1
   5462   5489     1
   5462   5485     1
   5462   5474     1
   5462   5475     1
   5463   5464     1
   5463   5467     1
   5463   5489     1
   5463   5485     1
   5463   5474     1
   5463   5475     1
   5464   5468     1
   5464   5469     1
   5464   5483     1
   5464   5484     1
   5465   5467     1
   5465   5489     1
   5465   5482     1
   5465   5477     1
   5465   5478     1
   5466   5467     1
   5466   5489     1
   5466   5482     1
   5466   5477     1
   5466   5478     1
   5467   5480     1
   5467   5481     1
   5468   5489     1
   5468   5479     1
   5468   5471     1
   5468   5472     1
   5469   5489     1
   5469   5479     1
   5469   5471     1
   5469   5472     1
   5470   5489     1
   5471   5488     1
   5471   5480     1
   5471   5481     1
   5472   5488     1
   5472   5480     1
   5472   5481     1
   5473   5489     1
   5474  11038     1
   5474   5486     1
   5474   5487     1
   5475  11038     1
   5475   5486     1
   5475   5487     1
   5476   5489     1
   5477  11008     1
   5477   5483     1
   5477   5484     1
   5478  11008     1
   5478   5483     1
   5478   5484     1
   5482  11000     1
   5482  11001     1
   5483  10999     1
   5484  10999     1
   5485  11030     1
   5485  11031     1
   5486  11029     1
   5487  11029     1
   5490   5504     1
   5490   5505     1
   5490   5507     1
   5490   5508     1
   5490   5501     1
   5490   5502     1
   5491   5495     1
   5491   5496     1
   5491   5498     1
   5491   5499     1
   5491   5516     1
   5491   5517     1
   5492   5494     1
   5492   5497     1
   5492   5519     1
   5492   5515     1
   5492   5504     1
   5492   5505     1
   5493   5494     1
   5493   5497     1
   5493   5519     1
   5493   5515     1
   5493   5504     1
   5493   5505     1
   5494   5498     1
   5494   5499     1
   5494   5513     1
   5494   5514     1
   5495   5497     1
   5495   5519     1
   5495   5512     1
   5495   5507     1
   5495   5508     1
   5496   5497     1
   5496   5519     1
   5496   5512     1
   5496   5507     1
   5496   5508     1
   5497   5510     1
   5497   5511     1
   5498   5519     1
   5498   5509     1
   5498   5501     1
   5498   5502     1
   5499   5519     1
   5499   5509     1
   5499   5501     1
   5499   5502     1
   5500   5519     1
   5501   5518     1
   5501   5510     1
   5501   5511     1
   5502   5518     1
   5502   5510     1
   5502   5511     1
   5503   5519     1
   5504  11098     1
   5504   5516     1
   5504   5517     1
   5505  11098     1
   5505   5516     1
   5505   5517     1
   5506   5519     1
   5507  11068     1
   5507   5513     1
   5507   5514     1
   5508  11068     1
   5508   5513     1
   5508   5514     1
   5512  11060     1
   5512  11061     1
   5513  11059     1
   5514  11059     1
   5515  11090     1
   5515  11091     1
   5516  11089     1
   5517  11089     1
   5520   5534     1
   5520   5535     1
   5520   5537     1
   5520   5538     1
   5520   5531     1
   5520   5532     1
   5521   5525     1
   5521   5526     1
   5521   5528     1
   5521   5529     1
   5521   5546     1
   5521   5547     1
   5522   5524     1
   5522   5527     1
   5522   5549     1
   5522   5545     1
   5522   5534     1
   5522   5535     1
   5523   5524     1
   5523   5527     1
   5523   5549     1
   5523   5545     1
   5523   5534     1
   5523   5535     1
   5524   5528     1
   5524   5529     1
   5524   5543     1
   5524   5544     1
   5525   5527     1
   5525   5549     1
   5525   5542     1
   5525   5537     1
   5525   5538     1
   5526   5527     1
   5526   5549     1
   5526   5542     1
   5526   5537     1
   5526   5538     1
   5527   5540     1
   5527   5541     1
   5528   5549     1
   5528   5539     1
   5528   5531     1
   5528   5532     1
   5529   5549     1
   5529   5539     1
   5529   5531     1
   5529   5532     1
   5530   5549     1
   5531   5548     1
   5531   5540     1
   5531   5541     1
   5532   5548     1
   5532   5540     1
   5532   5541     1
   5533   5549     1
   5534  11158     1
   5534   5546     1
   5534   5547     1
   5535  11158     1
   5535   5546     1
   5535   5547     1
   5536   5549     1
   5537  11128     1
   5537   5543     1
   5537   5544     1
   5538  11128     1
   5538   5543     1
   5538   5544     1
   5542  11120     1
   5542  11121     1
   5543  11119     1
   5544  11119     1
   5545  11150     1
   5545  11151     1
   5546  11149     1
   5547  11149     1
   5550   5564     1
   5550   5565     1
   5550   5567     1
   5550   5568     1
   5550   5561     1
   5550   5562     1
   5551   5555     1
   5551   5556     1
   5551   5558     1
   5551   5559     1
   5551   5576     1
   5551   5577     1
   5552   5554     1
   5552   5557     1
   5552   5579     1
   5552   5575     1
   5552   5564     1
   5552   5565     1
   5553   5554     1
   5553   5557     1
   5553   5579     1
   5553   5575     1
   5553   5564     1
   5553   5565     1
   5554   5558     1
   5554   5559     1
   5554   5573     1
   5554   5574     1
   5555   5557     1
   5555   5579     1
   5555   5572     1
   5555   5567     1
   5555   5568     1
   5556   5557     1
   5556   5579     1
   5556   5572     1
   5556   5567     1
   5556   5568     1
   5557   5570     1
   5557   5571     1
   5558   5579     1
   5558   5569     1
   5558   5561     1
   5558   5562     1
   5559   5579     1
   5559   5569     1
   5559   5561     1
   5559   5562     1
   5560   5579     1
   5561   5578     1
   5561   5570     1
   5561   5571     1
   5562   5578     1
   5562   5570     1
   5562   5571     1
   5563   5579     1
   5564  11218     1
   5564   5576     1
   5564   5577     1
   5565  11218     1
   5565   5576     1
   5565   5577     1
   5566   5579     1
   5567  11188     1
   5567   5573     1
   5567   5574     1
   5568  11188     1
   5568   5573     1
   5568   5574     1
   5572  11180     1
   5572  11181     1
   5573  11179     1
   5574  11179     1
   5575  11210     1
   5575  11211     1
   5576  11209     1
   5577  11209     1
   5580   5594     1
   5580   5595     1
   5580   5597     1
   5580   5598     1
   5580   5591     1
   5580   5592     1
   5581   5585     1
   5581   5586     1
   5581   5588     1
   5581   5589     1
   5581   5606     1
   5581   5607     1
   5582   5584     1
   5582   5587     1
   5582   5609     1
   5582   5605     1
   5582   5594     1
   5582   5595     1
   5583   5584     1
   5583   5587     1
   5583   5609     1
   5583   5605     1
   5583   5594     1
   5583   5595     1
   5584   5588     1
   5584   5589     1
   5584   5603     1
   5584   5604     1
   5585   5587     1
   5585   5609     1
   5585   5602     1
   5585   5597     1
   5585   5598     1
   5586   5587     1
   5586   5609     1
   5586   5602     1
   5586   5597     1
   5586   5598     1
   5587   5600     1
   5587   5601     1
   5588   5609     1
   5588   5599     1
   5588   5591     1
   5588   5592     1
   5589   5609     1
   5589   5599     1
   5589   5591     1
   5589   5592     1
   5590   5609     1
   5591   5608     1
   5591   5600     1
   5591   5601     1
   5592   5608     1
   5592   5600     1
   5592   5601     1
   5593   5609     1
   5594  11278     1
   5594   5606     1
   5594   5607     1
   5595  11278     1
   5595   5606     1
   5595   5607     1
   5596   5609     1
   5597  11248     1
   5597   5603     1
   5597   5604     1
   5598  11248     1
   5598   5603     1
   5598   5604     1
   5602  11240     1
   5602  11241     1
   5603  11239     1
   5604  11239     1
   5605  11270     1
   5605  11271     1
   5606  11269     1
   5607  11269     1
   5610   5624     1
   5610   5625     1
   5610   5627     1
   5610   5628     1
   5610   5621     1
   5610   5622     1
   5611   5615     1
   5611   5616     1
   5611   5618     1
   5611   5619     1
   5611   5636     1
   5611   5637     1
   5612   5614     1
   5612   5617     1
   5612   5639     1
   5612   5635     1
   5612   5624     1
   5612   5625     1
   5613   5614     1
   5613   5617     1
   5613   5639     1
   5613   5635     1
   5613   5624     1
   5613   5625     1
   5614   5618     1
   5614   5619     1
   5614   5633     1
   5614   5634     1
   5615   5617     1
   5615   5639     1
   5615   5632     1
   5615   5627     1
   5615   5628     1
   5616   5617     1
   5616   5639     1
   5616   5632     1
   5616   5627     1
   5616   5628     1
   5617   5630     1
   5617   5631     1
   5618   5639     1
   5618   5629     1
   5618   5621     1
   5618   5622     1
   5619   5639     1
   5619   5629     1
   5619   5621     1
   5619   5622     1
   5620   5639     1
   5621   5638     1
   5621   5630     1
   5621   5631     1
   5622   5638     1
   5622   5630     1
   5622   5631     1
   5623   5639     1
   5624  11338     1
   5624   5636     1
   5624   5637     1
   5625  11338     1
   5625   5636     1
   5625   5637     1
   5626   5639     1
   5627  11308     1
   5627   5633     1
   5627   5634     1
   5628  11308     1
   5628   5633     1
   5628   5634     1
   5632  11300     1
   5632  11301     1
   5633  11299     1
   5634  11299     1
   5635  11330     1
   5635  11331     1
   5636  11329     1
   5637  11329     1
   5640   5654     1
   5640   5655     1
   5640   5657     1
   5640   5658     1
   5640   5651     1
   5640   5652     1
   5641   5645     1
   5641   5646     1
   5641   5648     1
   5641   5649     1
   5641   5666     1
   5641   5667     1
   5642   5644     1
   5642   5647     1
   5642   5669     1
   5642   5665     1
   5642   5654     1
   5642   5655     1
   5643   5644     1
   5643   5647     1
   5643   5669     1
   5643   5665     1
   5643   5654     1
   5643   5655     1
   5644   5648     1
   5644   5649     1
   5644   5663     1
   5644   5664     1
   5645   5647     1
   5645   5669     1
   5645   5662     1
   5645   5657     1
   5645   5658     1
   5646   5647     1
   5646   5669     1
   5646   5662     1
   5646   5657     1
   5646   5658     1
   5647   5660     1
   5647   5661     1
   5648   5669     1
   5648   5659     1
   5648   5651     1
   5648   5652     1
   5649   5669     1
   5649   5659     1
   5649   5651     1
   5649   5652     1
   5650   5669     1
   5651   5668     1
   5651   5660     1
   5651   5661     1
   5652   5668     1
   5652   5660     1
   5652   5661     1
   5653   5669     1
   5654  11398     1
   5654   5666     1
   5654   5667     1
   5655  11398     1
   5655   5666     1
   5655   5667     1
   5656   5669     1
   5657  11368     1
   5657   5663     1
   5657   5664     1
   5658  11368     1
   5658   5663     1
   5658   5664     1
   5662  11360     1
   5662  11361     1
   5663  11359     1
   5664  11359     1
   5665  11390     1
   5665  11391     1
   5666  11389     1
   5667  11389     1
   5670   5684     1
   5670   5685     1
   5670   5687     1
   5670   5688     1
   5670   5681     1
   5670   5682     1
   5671   5675     1
   5671   5676     1
   5671   5678     1
   5671   5679     1
   5671   5696     1
   5671   5697     1
   5672   5674     1
   5672   5677     1
   5672   5699     1
   5672   5695     1
   5672   5684     1
   5672   5685     1
   5673   5674     1
   5673   5677     1
   5673   5699     1
   5673   5695     1
   5673   5684     1
   5673   5685     1
   5674   5678     1
   5674   5679     1
   5674   5693     1
   5674   5694     1
   5675   5677     1
   5675   5699     1
   5675   5692     1
   5675   5687     1
   5675   5688     1
   5676   5677     1
   5676   5699     1
   5676   5692     1
   5676   5687     1
   5676   5688     1
   5677   5690     1
   5677   5691     1
   5678   5699     1
   5678   5689     1
   5678   5681     1
   5678   5682     1
   5679   5699     1
   5679   5689     1
   5679   5681     1
   5679   5682     1
   5680   5699     1
   5681   5698     1
   5681   5690     1
   5681   5691     1
   5682   5698     1
   5682   5690     1
   5682   5691     1
   5683   5699     1
   5684  11458     1
   5684   5696     1
   5684   5697     1
   5685  11458     1
   5685   5696     1
   5685   5697     1
   5686   5699     1
   5687  11428     1
   5687   5693     1
   5687   5694     1
   5688  11428     1
   5688   5693     1
   5688   5694     1
   5692  11420     1
   5692  11421     1
   5693  11419     1
   5694  11419     1
   5695  11450     1
   5695  11451     1
   5696  11449     1
   5697  11449     1
   5700   5714     1
   5700   5715     1
   5700   5717     1
   5700   5718     1
   5700   5711     1
   5700   5712     1
   5701   5705     1
   5701   5706     1
   5701   5708     1
   5701   5709     1
   5701   5726     1
   5701   5727     1
   5702   5704     1
   5702   5707     1
   5702   5729     1
   5702   5725     1
   5702   5714     1
   5702   5715     1
   5703   5704     1
   5703   5707     1
   5703   5729     1
   5703   5725     1
   5703   5714     1
   5703   5715     1
   5704   5708     1
   5704   5709     1
   5704   5723     1
   5704   5724     1
   5705   5707     1
   5705   5729     1
   5705   5722     1
   5705   5717     1
   5705   5718     1
   5706   5707     1
   5706   5729     1
   5706   5722     1
   5706   5717     1
   5706   5718     1
   5707   5720     1
   5707   5721     1
   5708   5729     1
   5708   5719     1
   5708   5711     1
   5708   5712     1
   5709   5729     1
   5709   5719     1
   5709   5711     1
   5709   5712     1
   5710   5729     1
   5711   5728     1
   5711   5720     1
   5711   5721     1
   5712   5728     1
   5712   5720     1
   5712   5721     1
   5713   5729     1
   5714  11493     1
   5714   5726     1
   5714   5727     1
   5715  11493     1
   5715   5726     1
   5715   5727     1
   5716   5729     1
   5717  11470     1
   5717   5723     1
   5717   5724     1
   5718  11470     1
   5718   5723     1
   5718   5724     1
   5722  11469     1
   5723  11466     1
   5724  11466     1
   5725  11492     1
   5726  11489     1
   5727  11489     1
   5730   5744     1
   5730   5745     1
   5730   5747     1
   5730   5748     1
   5730   5741     1
   5730   5742     1
   5731   5735     1
   5731   5736     1
   5731   5738     1
   5731   5739     1
   5731   5756     1
   5731   5757     1
   5732   5734     1
   5732   5737     1
   5732   5759     1
   5732   5755     1
   5732   5744     1
   5732   5745     1
   5733   5734     1
   5733   5737     1
   5733   5759     1
   5733   5755     1
   5733   5744     1
   5733   5745     1
   5734   5738     1
   5734   5739     1
   5734   5753     1
   5734   5754     1
   5735   5737     1
   5735   5759     1
   5735   5752     1
   5735   5747     1
   5735   5748     1
   5736   5737     1
   5736   5759     1
   5736   5752     1
   5736   5747     1
   5736   5748     1
   5737   5750     1
   5737   5751     1
   5738   5759     1
   5738   5749     1
   5738   5741     1
   5738   5742     1
   5739   5759     1
   5739   5749     1
   5739   5741     1
   5739   5742     1
   5740   5759     1
   5741   5758     1
   5741   5750     1
   5741   5751     1
   5742   5758     1
   5742   5750     1
   5742   5751     1
   5743   5759     1
   5744  11539     1
   5744   5756     1
   5744   5757     1
   5745  11539     1
   5745   5756     1
   5745   5757     1
   5746   5759     1
   5747  11516     1
   5747   5753     1
   5747   5754     1
   5748  11516     1
   5748   5753     1
   5748   5754     1
   5752  11515     1
   5753  11512     1
   5754  11512     1
   5755  11538     1
   5756  11535     1
   5757  11535     1
   5760   5774     1
   5760   5775     1
   5760   5777     1
   5760   5778     1
   5760   5771     1
   5760   5772     1
   5761   5765     1
   5761   5766     1
   5761   5768     1
   5761   5769     1
   5761   5786     1
   5761   5787     1
   5762   5764     1
   5762   5767     1
   5762   5789     1
   5762   5785     1
   5762   5774     1
   5762   5775     1
   5763   5764     1
   5763   5767     1
   5763   5789     1
   5763   5785     1
   5763   5774     1
   5763   5775     1
   5764   5768     1
   5764   5769     1
   5764   5783     1
   5764   5784     1
   5765   5767     1
   5765   5789     1
   5765   5782     1
   5765   5777     1
   5765   5778     1
   5766   5767     1
   5766   5789     1
   5766   5782     1
   5766   5777     1
   5766   5778     1
   5767   5780     1
   5767   5781     1
   5768   5789     1
   5768   5779     1
   5768   5771     1
   5768   5772     1
   5769   5789     1
   5769   5779     1
   5769   5771     1
   5769   5772     1
   5770   5789     1
   5771   5788     1
   5771   5780     1
   5771   5781     1
   5772   5788     1
   5772   5780     1
   5772   5781     1
   5773   5789     1
   5774  11585     1
   5774   5786     1
   5774   5787     1
   5775  11585     1
   5775   5786     1
   5775   5787     1
   5776   5789     1
   5777  11562     1
   5777   5783     1
   5777   5784     1
   5778  11562     1
   5778   5783     1
   5778   5784     1
   5782  11561     1
   5783  11558     1
   5784  11558     1
   5785  11584     1
   5786  11581     1
   5787  11581     1
   5790   5804     1
   5790   5805     1
   5790   5807     1
   5790   5808     1
   5790   5801     1
   5790   5802     1
   5791   5795     1
   5791   5796     1
   5791   5798     1
   5791   5799     1
   5791   5816     1
   5791   5817     1
   5792   5794     1
   5792   5797     1
   5792   5819     1
   5792   5815     1
   5792   5804     1
   5792   5805     1
   5793   5794     1
   5793   5797     1
   5793   5819     1
   5793   5815     1
   5793   5804     1
   5793   5805     1
   5794   5798     1
   5794   5799     1
   5794   5813     1
   5794   5814     1
   5795   5797     1
   5795   5819     1
   5795   5812     1
   5795   5807     1
   5795   5808     1
   5796   5797     1
   5796   5819     1
   5796   5812     1
   5796   5807     1
   5796   5808     1
   5797   5810     1
   5797   5811     1
   5798   5819     1
   5798   5809     1
   5798   5801     1
   5798   5802     1
   5799   5819     1
   5799   5809     1
   5799   5801     1
   5799   5802     1
   5800   5819     1
   5801   5818     1
   5801   5810     1
   5801   5811     1
   5802   5818     1
   5802   5810     1
   5802   5811     1
   5803   5819     1
   5804  11631     1
   5804   5816     1
   5804   5817     1
   5805  11631     1
   5805   5816     1
   5805   5817     1
   5806   5819     1
   5807  11608     1
   5807   5813     1
   5807   5814     1
   5808  11608     1
   5808   5813     1
   5808   5814     1
   5812  11607     1
   5813  11604     1
   5814  11604     1
   5815  11630     1
   5816  11627     1
   5817  11627     1
   5820   5834     1
   5820   5835     1
   5820   5837     1
   5820   5838     1
   5820   5831     1
   5820   5832     1
   5821   5825     1
   5821   5826     1
   5821   5828     1
   5821   5829     1
   5821   5846     1
   5821   5847     1
   5822   5824     1
   5822   5827     1
   5822   5849     1
   5822   5845     1
   5822   5834     1
   5822   5835     1
   5823   5824     1
   5823   5827     1
   5823   5849     1
   5823   5845     1
   5823   5834     1
   5823   5835     1
   5824   5828     1
   5824   5829     1
   5824   5843     1
   5824   5844     1
   5825   5827     1
   5825   5849     1
   5825   5842     1
   5825   5837     1
   5825   5838     1
   5826   5827     1
   5826   5849     1
   5826   5842     1
   5826   5837     1
   5826   5838     1
   5827   5840     1
   5827   5841     1
   5828   5849     1
   5828   5839     1
   5828   5831     1
   5828   5832     1
   5829   5849     1
   5829   5839     1
   5829   5831     1
   5829   5832     1
   5830   5849     1
   5831   5848     1
   5831   5840     1
   5831   5841     1
   5832   5848     1
   5832   5840     1
   5832   5841     1
   5833   5849     1
   5834  11677     1
   5834   5846     1
   5834   5847     1
   5835  11677     1
   5835   5846     1
   5835   5847     1
   5836   5849     1
   5837  11654     1
   5837   5843     1
   5837   5844     1
   5838  11654     1
   5838   5843     1
   5838   5844     1
   5842  11653     1
   5843  11650     1
   5844  11650     1
   5845  11676     1
   5846  11673     1
   5847  11673     1
   5850   5864     1
   5850   5865     1
   5850   5867     1
   5850   5868     1
   5850   5861     1
   5850   5862     1
   5851   5855     1
   5851   5856     1
   5851   5858     1
   5851   5859     1
   5851   5876     1
   5851   5877     1
   5852   5854     1
   5852   5857     1
   5852   5879     1
   5852   5875     1
   5852   5864     1
   5852   5865     1
   5853   5854     1
   5853   5857     1
   5853   5879     1
   5853   5875     1
   5853   5864     1
   5853   5865     1
   5854   5858     1
   5854   5859     1
   5854   5873     1
   5854   5874     1
   5855   5857     1
   5855   5879     1
   5855   5872     1
   5855   5867     1
   5855   5868     1
   5856   5857     1
   5856   5879     1
   5856   5872     1
   5856   5867     1
   5856   5868     1
   5857   5870     1
   5857   5871     1
   5858   5879     1
   5858   5869     1
   5858   5861     1
   5858   5862     1
   5859   5879     1
   5859   5869     1
   5859   5861     1
   5859   5862     1
   5860   5879     1
   5861   5878     1
   5861   5870     1
   5861   5871     1
   5862   5878     1
   5862   5870     1
   5862   5871     1
   5863   5879     1
   5864  11723     1
   5864   5876     1
   5864   5877     1
   5865  11723     1
   5865   5876     1
   5865   5877     1
   5866   5879     1
   5867  11700     1
   5867   5873     1
   5867   5874     1
   5868  11700     1
   5868   5873     1
   5868   5874     1
   5872  11699     1
   5873  11696     1
   5874  11696     1
   5875  11722     1
   5876  11719     1
   5877  11719     1
   5880   5894     1
   5880   5895     1
   5880   5897     1
   5880   5898     1
   5880   5891     1
   5880   5892     1
   5881   5885     1
   5881   5886     1
   5881   5888     1
   5881   5889     1
   5881   5906     1
   5881   5907     1
   5882   5884     1
   5882   5887     1
   5882   5909     1
   5882   5905     1
   5882   5894     1
   5882   5895     1
   5883   5884     1
   5883   5887     1
   5883   5909     1
   5883   5905     1
   5883   5894     1
   5883   5895     1
   5884   5888     1
   5884   5889     1
   5884   5903     1
   5884   5904     1
   5885   5887     1
   5885   5909     1
   5885   5902     1
   5885   5897     1
   5885   5898     1
   5886   5887     1
   5886   5909     1
   5886   5902     1
   5886   5897     1
   5886   5898     1
   5887   5900     1
   5887   5901     1
   5888   5909     1
   5888   5899     1
   5888   5891     1
   5888   5892     1
   5889   5909     1
   5889   5899     1
   5889   5891     1
   5889   5892     1
   5890   5909     1
   5891   5908     1
   5891   5900     1
   5891   5901     1
   5892   5908     1
   5892   5900     1
   5892   5901     1
   5893   5909     1
   5894  11769     1
   5894   5906     1
   5894   5907     1
   5895  11769     1
   5895   5906     1
   5895   5907     1
   5896   5909     1
   5897  11746     1
   5897   5903     1
   5897   5904     1
   5898  11746     1
   5898   5903     1
   5898   5904     1
   5902  11745     1
   5903  11742     1
   5904  11742     1
   5905  11768     1
   5906  11765     1
   5907  11765     1
   5910   5924     1
   5910   5925     1
   5910   5927     1
   5910   5928     1
   5910   5921     1
   5910   5922     1
   5911   5915     1
   5911   5916     1
   5911   5918     1
   5911   5919     1
   5911   5936     1
   5911   5937     1
   5912   5914     1
   5912   5917     1
   5912   5939     1
   5912   5935     1
   5912   5924     1
   5912   5925     1
   5913   5914     1
   5913   5917     1
   5913   5939     1
   5913   5935     1
   5913   5924     1
   5913   5925     1
   5914   5918     1
   5914   5919     1
   5914   5933     1
   5914   5934     1
   5915   5917     1
   5915   5939     1
   5915   5932     1
   5915   5927     1
   5915   5928     1
   5916   5917     1
   5916   5939     1
   5916   5932     1
   5916   5927     1
   5916   5928     1
   5917   5930     1
   5917   5931     1
   5918   5939     1
   5918   5929     1
   5918   5921     1
   5918   5922     1
   5919   5939     1
   5919   5929     1
   5919   5921     1
   5919   5922     1
   5920   5939     1
   5921   5938     1
   5921   5930     1
   5921   5931     1
   5922   5938     1
   5922   5930     1
   5922   5931     1
   5923   5939     1
   5924  11815     1
   5924   5936     1
   5924   5937     1
   5925  11815     1
   5925   5936     1
   5925   5937     1
   5926   5939     1
   5927  11792     1
   5927   5933     1
   5927   5934     1
   5928  11792     1
   5928   5933     1
   5928   5934     1
   5932  11791     1
   5933  11788     1
   5934  11788     1
   5935  11814     1
   5936  11811     1
   5937  11811     1
   5940   5954     1
   5940   5955     1
   5940   5957     1
   5940   5958     1
   5940   5951     1
   5940   5952     1
   5941   5945     1
   5941   5946     1
   5941   5948     1
   5941   5949     1
   5941   5966     1
   5941   5967     1
   5942   5944     1
   5942   5947     1
   5942   5969     1
   5942   5965     1
   5942   5954     1
   5942   5955     1
   5943   5944     1
   5943   5947     1
   5943   5969     1
   5943   5965     1
   5943   5954     1
   5943   5955     1
   5944   5948     1
   5944   5949     1
   5944   5963     1
   5944   5964     1
   5945   5947     1
   5945   5969     1
   5945   5962     1
   5945   5957     1
   5945   5958     1
   5946   5947     1
   5946   5969     1
   5946   5962     1
   5946   5957     1
   5946   5958     1
   5947   5960     1
   5947   5961     1
   5948   5969     1
   5948   5959     1
   5948   5951     1
   5948   5952     1
   5949   5969     1
   5949   5959     1
   5949   5951     1
   5949   5952     1
   5950   5969     1
   5951   5968     1
   5951   5960     1
   5951   5961     1
   5952   5968     1
   5952   5960     1
   5952   5961     1
   5953   5969     1
   5954  11861     1
   5954   5966     1
   5954   5967     1
   5955  11861     1
   5955   5966     1
   5955   5967     1
   5956   5969     1
   5957  11838     1
   5957   5963     1
   5957   5964     1
   5958  11838     1
   5958   5963     1
   5958   5964     1
   5962  11837     1
   5963  11834     1
   5964  11834     1
   5965  11860     1
   5966  11857     1
   5967  11857     1
   5970   5984     1
   5970   5985     1
   5970   5987     1
   5970   5988     1
   5970   5981     1
   5970   5982     1
   5971   5975     1
   5971   5976     1
   5971   5978     1
   5971   5979     1
   5971   5996     1
   5971   5997     1
   5972   5974     1
   5972   5977     1
   5972   5999     1
   5972   5995     1
   5972   5984     1
   5972   5985     1
   5973   5974     1
   5973   5977     1
   5973   5999     1
   5973   5995     1
   5973   5984     1
   5973   5985     1
   5974   5978     1
   5974   5979     1
   5974   5993     1
   5974   5994     1
   5975   5977     1
   5975   5999     1
   5975   5992     1
   5975   5987     1
   5975   5988     1
   5976   5977     1
   5976   5999     1
   5976   5992     1
   5976   5987     1
   5976   5988     1
   5977   5990     1
   5977   5991     1
   5978   5999     1
   5978   5989     1
   5978   5981     1
   5978   5982     1
   5979   5999     1
   5979   5989     1
   5979   5981     1
   5979   5982     1
   5980   5999     1
   5981   5998     1
   5981   5990     1
   5981   5991     1
   5982   5998     1
   5982   5990     1
   5982   5991     1
   5983   5999     1
   5984  11907     1
   5984   5996     1
   5984   5997     1
   5985  11907     1
   5985   5996     1
   5985   5997     1
   5986   5999     1
   5987  11884     1
   5987   5993     1
   5987   5994     1
   5988  11884     1
   5988   5993     1
   5988   5994     1
   5992  11883     1
   5993  11880     1
   5994  11880     1
   5995  11906     1
   5996  11903     1
   5997  11903     1
   6000   6014     1
   6000   6015     1
   6000   6017     1
   6000   6018     1
   6000   6011     1
   6000   6012     1
   6001   6005     1
   6001   6006     1
   6001   6008     1
   6001   6009     1
   6001   6026     1
   6001   6027     1
   6002   6004     1
   6002   6007     1
   6002   6029     1
   6002   6025     1
   6002   6014     1
   6002   6015     1
   6003   6004     1
   6003   6007     1
   6003   6029     1
   6003   6025     1
   6003   6014     1
   6003   6015     1
   6004   6008     1
   6004   6009     1
   6004   6023     1
   6004   6024     1
   6005   6007     1
   6005   6029     1
   6005   6022     1
   6005   6017     1
   6005   6018     1
   6006   6007     1
   6006   6029     1
   6006   6022     1
   6006   6017     1
   6006   6018     1
   6007   6020     1
   6007   6021     1
   6008   6029     1
   6008   6019     1
   6008   6011     1
   6008   6012     1
   6009   6029     1
   6009   6019     1
   6009   6011     1
   6009   6012     1
   6010   6029     1
   6011   6028     1
   6011   6020     1
   6011   6021     1
   6012   6028     1
   6012   6020     1
   6012   6021     1
   6013   6029     1
   6014  11953     1
   6014   6026     1
   6014   6027     1
   6015  11953     1
   6015   6026     1
   6015   6027     1
   6016   6029     1
   6017  11930     1
   6017   6023     1
   6017   6024     1
   6018  11930     1
   6018   6023     1
   6018   6024     1
   6022  11929     1
   6023  11926     1
   6024  11926     1
   6025  11952     1
   6026  11949     1
   6027  11949     1
   6030   6044     1
   6030   6045     1
   6030   6047     1
   6030   6048     1
   6030   6041     1
   6030   6042     1
   6031   6035     1
   6031   6036     1
   6031   6038     1
   6031   6039     1
   6031   6056     1
   6031   6057     1
   6032   6034     1
   6032   6037     1
   6032   6059     1
   6032   6055     1
   6032   6044     1
   6032   6045     1
   6033   6034     1
   6033   6037     1
   6033   6059     1
   6033   6055     1
   6033   6044     1
   6033   6045     1
   6034   6038     1
   6034   6039     1
   6034   6053     1
   6034   6054     1
   6035   6037     1
   6035   6059     1
   6035   6052     1
   6035   6047     1
   6035   6048     1
   6036   6037     1
   6036   6059     1
   6036   6052     1
   6036   6047     1
   6036   6048     1
   6037   6050     1
   6037   6051     1
   6038   6059     1
   6038   6049     1
   6038   6041     1
   6038   6042     1
   6039   6059     1
   6039   6049     1
   6039   6041     1
   6039   6042     1
   6040   6059     1
   6041   6058     1
   6041   6050     1
   6041   6051     1
   6042   6058     1
   6042   6050     1
   6042   6051     1
   6043   6059     1
   6044  11999     1
   6044   6056     1
   6044   6057     1
   6045  11999     1
   6045   6056     1
   6045   6057     1
   6046   6059     1
   6047  11976     1
   6047   6053     1
   6047   6054     1
   6048  11976     1
   6048   6053     1
   6048   6054     1
   6052  11975     1
   6053  11972     1
   6054  11972     1
   6055  11998     1
   6056  11995     1
   6057  11995     1
   6060   6074     1
   6060   6075     1
   6060   6077     1
   6060   6078     1
   6060   6071     1
   6060   6072     1
   6061   6065     1
   6061   6066     1
   6061   6068     1
   6061   6069     1
   6061   6086     1
   6061   6087     1
   6062   6064     1
   6062   6067     1
   6062   6089     1
   6062   6085     1
   6062   6074     1
   6062   6075     1
   6063   6064     1
   6063   6067     1
   6063   6089     1
   6063   6085     1
   6063   6074     1
   6063   6075     1
   6064   6068     1
   6064   6069     1
   6064   6083     1
   6064   6084     1
   6065   6067     1
   6065   6089     1
   6065   6082     1
   6065   6077     1
   6065   6078     1
   6066   6067     1
   6066   6089     1
   6066   6082     1
   6066   6077     1
   6066   6078     1
   6067   6080     1
   6067   6081     1
   6068   6089     1
   6068   6079     1
   6068   6071     1
   6068   6072     1
   6069   6089     1
   6069   6079     1
   6069   6071     1
   6069   6072     1
   6070   6089     1
   6071   6088     1
   6071   6080     1
   6071   6081     1
   6072   6088     1
   6072   6080     1
   6072   6081     1
   6073   6089     1
   6074  12045     1
   6074   6086     1
   6074   6087     1
   6075  12045     1
   6075   6086     1
   6075   6087     1
   6076   6089     1
   6077  12022     1
   6077   6083     1
   6077   6084     1
   6078  12022     1
   6078   6083     1
   6078   6084     1
   6082  12021     1
   6083  12018     1
   6084  12018     1
   6085  12044     1
   6086  12041     1
   6087  12041     1
   6090   6104     1
   6090   6105     1
   6090   6107     1
   6090   6108     1
   6090   6101     1
   6090   6102     1
   6091   6095     1
   6091   6096     1
   6091   6098     1
   6091   6099     1
   6091   6116     1
   6091   6117     1
   6092   6094     1
   6092   6097     1
   6092   6119     1
   6092   6115     1
   6092   6104     1
   6092   6105     1
   6093   6094     1
   6093   6097     1
   6093   6119     1
   6093   6115     1
   6093   6104     1
   6093   6105     1
   6094   6098     1
   6094   6099     1
   6094   6113     1
   6094   6114     1
   6095   6097     1
   6095   6119     1
   6095   6112     1
   6095   6107     1
   6095   6108     1
   6096   6097     1
   6096   6119     1
   6096   6112     1
   6096   6107     1
   6096   6108     1
   6097   6110     1
   6097   6111     1
   6098   6119     1
   6098   6109     1
   6098   6101     1
   6098   6102     1
   6099   6119     1
   6099   6109     1
   6099   6101     1
   6099   6102     1
   6100   6119     1
   6101   6118     1
   6101   6110     1
   6101   6111     1
   6102   6118     1
   6102   6110     1
   6102   6111     1
   6103   6119     1
   6104  12091     1
   6104   6116     1
   6104   6117     1
   6105  12091     1
   6105   6116     1
   6105   6117     1
   6106   6119     1
   6107  12068     1
   6107   6113     1
   6107   6114     1
   6108  12068     1
   6108   6113     1
   6108   6114     1
   6112  12067     1
   6113  12064     1
   6114  12064     1
   6115  12090     1
   6116  12087     1
   6117  12087     1
   6120   6134     1
   6120   6135     1
   6120   6137     1
   6120   6138     1
   6120   6131     1
   6120   6132     1
   6121   6125     1
   6121   6126     1
   6121   6128     1
   6121   6129     1
   6121   6146     1
   6121   6147     1
   6122   6124     1
   6122   6127     1
   6122   6149     1
   6122   6145     1
   6122   6134     1
   6122   6135     1
   6123   6124     1
   6123   6127     1
   6123   6149     1
   6123   6145     1
   6123   6134     1
   6123   6135     1
   6124   6128     1
   6124   6129     1
   6124   6143     1
   6124   6144     1
   6125   6127     1
   6125   6149     1
   6125   6142     1
   6125   6137     1
   6125   6138     1
   6126   6127     1
   6126   6149     1
   6126   6142     1
   6126   6137     1
   6126   6138     1
   6127   6140     1
   6127   6141     1
   6128   6149     1
   6128   6139     1
   6128   6131     1
   6128   6132     1
   6129   6149     1
   6129   6139     1
   6129   6131     1
   6129   6132     1
   6130   6149     1
   6131   6148     1
   6131   6140     1
   6131   6141     1
   6132   6148     1
   6132   6140     1
   6132   6141     1
   6133   6149     1
   6134  12137     1
   6134   6146     1
   6134   6147     1
   6135  12137     1
   6135   6146     1
   6135   6147     1
   6136   6149     1
   6137  12114     1
   6137   6143     1
   6137   6144     1
   6138  12114     1
   6138   6143     1
   6138   6144     1
   6142  12113     1
   6143  12110     1
   6144  12110     1
   6145  12136     1
   6146  12133     1
   6147  12133     1
   6150   6164     1
   6150   6165     1
   6150   6167     1
   6150   6168     1
   6150   6161     1
   6150   6162     1
   6151   6155     1
   6151   6156     1
   6151   6158     1
   6151   6159     1
   6151   6176     1
   6151   6177     1
   6152   6154     1
   6152   6157     1
   6152   6179     1
   6152   6175     1
   6152   6164     1
   6152   6165     1
   6153   6154     1
   6153   6157     1
   6153   6179     1
   6153   6175     1
   6153   6164     1
   6153   6165     1
   6154   6158     1
   6154   6159     1
   6154   6173     1
   6154   6174     1
   6155   6157     1
   6155   6179     1
   6155   6172     1
   6155   6167     1
   6155   6168     1
   6156   6157     1
   6156   6179     1
   6156   6172     1
   6156   6167     1
   6156   6168     1
   6157   6170     1
   6157   6171     1
   6158   6179     1
   6158   6169     1
   6158   6161     1
   6158   6162     1
   6159   6179     1
   6159   6169     1
   6159   6161     1
   6159   6162     1
   6160   6179     1
   6161   6178     1
   6161   6170     1
   6161   6171     1
   6162   6178     1
   6162   6170     1
   6162   6171     1
   6163   6179     1
   6164  12183     1
   6164   6176     1
   6164   6177     1
   6165  12183     1
   6165   6176     1
   6165   6177     1
   6166   6179     1
   6167  12160     1
   6167   6173     1
   6167   6174     1
   6168  12160     1
   6168   6173     1
   6168   6174     1
   6172  12159     1
   6173  12156     1
   6174  12156     1
   6175  12182     1
   6176  12179     1
   6177  12179     1
   6180   6194     1
   6180   6195     1
   6180   6197     1
   6180   6198     1
   6180   6191     1
   6180   6192     1
   6181   6185     1
   6181   6186     1
   6181   6188     1
   6181   6189     1
   6181   6206     1
   6181   6207     1
   6182   6184     1
   6182   6187     1
   6182   6209     1
   6182   6205     1
   6182   6194     1
   6182   6195     1
   6183   6184     1
   6183   6187     1
   6183   6209     1
   6183   6205     1
   6183   6194     1
   6183   6195     1
   6184   6188     1
   6184   6189     1
   6184   6203     1
   6184   6204     1
   6185   6187     1
   6185   6209     1
   6185   6202     1
   6185   6197     1
   6185   6198     1
   6186   6187     1
   6186   6209     1
   6186   6202     1
   6186   6197     1
   6186   6198     1
   6187   6200     1
   6187   6201     1
   6188   6209     1
   6188   6199     1
   6188   6191     1
   6188   6192     1
   6189   6209     1
   6189   6199     1
   6189   6191     1
   6189   6192     1
   6190   6209     1
   6191   6208     1
   6191   6200     1
   6191   6201     1
   6192   6208     1
   6192   6200     1
   6192   6201     1
   6193   6209     1
   6194  12229     1
   6194   6206     1
   6194   6207     1
   6195  12229     1
   6195   6206     1
   6195   6207     1
   6196   6209     1
   6197  12206     1
   6197   6203     1
   6197   6204     1
   6198  12206     1
   6198   6203     1
   6198   6204     1
   6202  12205     1
   6203  12202     1
   6204  12202     1
   6205  12228     1
   6206  12225     1
   6207  12225     1
   6210   6224     1
   6210   6225     1
   6210   6227     1
   6210   6228     1
   6210   6221     1
   6210   6222     1
   6211   6215     1
   6211   6216     1
   6211   6218     1
   6211   6219     1
   6211   6236     1
   6211   6237     1
   6212   6214     1
   6212   6217     1
   6212   6239     1
   6212   6235     1
   6212   6224     1
   6212   6225     1
   6213   6214     1
   6213   6217     1
   6213   6239     1
   6213   6235     1
   6213   6224     1
   6213   6225     1
   6214   6218     1
   6214   6219     1
   6214   6233     1
   6214   6234     1
   6215   6217     1
   6215   6239     1
   6215   6232     1
   6215   6227     1
   6215   6228     1
   6216   6217     1
   6216   6239     1
   6216   6232     1
   6216   6227     1
   6216   6228     1
   6217   6230     1
   6217   6231     1
   6218   6239     1
   6218   6229     1
   6218   6221     1
   6218   6222     1
   6219   6239     1
   6219   6229     1
   6219   6221     1
   6219   6222     1
   6220   6239     1
   6221   6238     1
   6221   6230     1
   6221   6231     1
   6222   6238     1
   6222   6230     1
   6222   6231     1
   6223   6239     1
   6224  12275     1
   6224   6236     1
   6224   6237     1
   6225  12275     1
   6225   6236     1
   6225   6237     1
   6226   6239     1
   6227  12252     1
   6227   6233     1
   6227   6234     1
   6228  12252     1
   6228   6233     1
   6228   6234     1
   6232  12251     1
   6233  12248     1
   6234  12248     1
   6235  12274     1
   6236  12271     1
   6237  12271     1
   6240   6254     1
   6240   6255     1
   6240   6257     1
   6240   6258     1
   6240   6251     1
   6240   6252     1
   6241   6245     1
   6241   6246     1
   6241   6248     1
   6241   6249     1
   6241   6266     1
   6241   6267     1
   6242   6244     1
   6242   6247     1
   6242   6269     1
   6242   6265     1
   6242   6254     1
   6242   6255     1
   6243   6244     1
   6243   6247     1
   6243   6269     1
   6243   6265     1
   6243   6254     1
   6243   6255     1
   6244   6248     1
   6244   6249     1
   6244   6263     1
   6244   6264     1
   6245   6247     1
   6245   6269     1
   6245   6262     1
   6245   6257     1
   6245   6258     1
   6246   6247     1
   6246   6269     1
   6246   6262     1
   6246   6257     1
   6246   6258     1
   6247   6260     1
   6247   6261     1
   6248   6269     1
   6248   6259     1
   6248   6251     1
   6248   6252     1
   6249   6269     1
   6249   6259     1
   6249   6251     1
   6249   6252     1
   6250   6269     1
   6251   6268     1
   6251   6260     1
   6251   6261     1
   6252   6268     1
   6252   6260     1
   6252   6261     1
   6253   6269     1
   6254  12321     1
   6254   6266     1
   6254   6267     1
   6255  12321     1
   6255   6266     1
   6255   6267     1
   6256   6269     1
   6257  12298     1
   6257   6263     1
   6257   6264     1
   6258  12298     1
   6258   6263     1
   6258   6264     1
   6262  12297     1
   6263  12294     1
   6264  12294     1
   6265  12320     1
   6266  12317     1
   6267  12317     1
   6270   6284     1
   6270   6285     1
   6270   6287     1
   6270   6288     1
   6270   6281     1
   6270   6282     1
   6271   6275     1
   6271   6276     1
   6271   6278     1
   6271   6279     1
   6271   6296     1
   6271   6297     1
   6272   6274     1
   6272   6277     1
   6272   6299     1
   6272   6295     1
   6272   6284     1
   6272   6285     1
   6273   6274     1
   6273   6277     1
   6273   6299     1
   6273   6295     1
   6273   6284     1
   6273   6285     1
   6274   6278     1
   6274   6279     1
   6274   6293     1
   6274   6294     1
   6275   6277     1
   6275   6299     1
   6275   6292     1
   6275   6287     1
   6275   6288     1
   6276   6277     1
   6276   6299     1
   6276   6292     1
   6276   6287     1
   6276   6288     1
   6277   6290     1
   6277   6291     1
   6278   6299     1
   6278   6289     1
   6278   6281     1
   6278   6282     1
   6279   6299     1
   6279   6289     1
   6279   6281     1
   6279   6282     1
   6280   6299     1
   6281   6298     1
   6281   6290     1
   6281   6291     1
   6282   6298     1
   6282   6290     1
   6282   6291     1
   6283   6299     1
   6284  12367     1
   6284   6296     1
   6284   6297     1
   6285  12367     1
   6285   6296     1
   6285   6297     1
   6286   6299     1
   6287  12344     1
   6287   6293     1
   6287   6294     1
   6288  12344     1
   6288   6293     1
   6288   6294     1
   6292  12343     1
   6293  12340     1
   6294  12340     1
   6295  12366     1
   6296  12363     1
   6297  12363     1
   6300   6314     1
   6300   6315     1
   6300   6317     1
   6300   6318     1
   6300   6311     1
   6300   6312     1
   6301   6305     1
   6301   6306     1
   6301   6308     1
   6301   6309     1
   6301   6326     1
   6301   6327     1
   6302   6304     1
   6302   6307     1
   6302   6329     1
   6302   6325     1
   6302   6314     1
   6302   6315     1
   6303   6304     1
   6303   6307     1
   6303   6329     1
   6303   6325     1
   6303   6314     1
   6303   6315     1
   6304   6308     1
   6304   6309     1
   6304   6323     1
   6304   6324     1
   6305   6307     1
   6305   6329     1
   6305   6322     1
   6305   6317     1
   6305   6318     1
   6306   6307     1
   6306   6329     1
   6306   6322     1
   6306   6317     1
   6306   6318     1
   6307   6320     1
   6307   6321     1
   6308   6329     1
   6308   6319     1
   6308   6311     1
   6308   6312     1
   6309   6329     1
   6309   6319     1
   6309   6311     1
   6309   6312     1
   6310   6329     1
   6311   6328     1
   6311   6320     1
   6311   6321     1
   6312   6328     1
   6312   6320     1
   6312   6321     1
   6313   6329     1
   6314  12413     1
   6314   6326     1
   6314   6327     1
   6315  12413     1
   6315   6326     1
   6315   6327     1
   6316   6329     1
   6317  12390     1
   6317   6323     1
   6317   6324     1
   6318  12390     1
   6318   6323     1
   6318   6324     1
   6322  12389     1
   6323  12386     1
   6324  12386     1
   6325  12412     1
   6326  12409     1
   6327  12409     1
   6330   6344     1
   6330   6345     1
   6330   6347     1
   6330   6348     1
   6330   6341     1
   6330   6342     1
   6331   6335     1
   6331   6336     1
   6331   6338     1
   6331   6339     1
   6331   6356     1
   6331   6357     1
   6332   6334     1
   6332   6337     1
   6332   6359     1
   6332   6355     1
   6332   6344     1
   6332   6345     1
   6333   6334     1
   6333   6337     1
   6333   6359     1
   6333   6355     1
   6333   6344     1
   6333   6345     1
   6334   6338     1
   6334   6339     1
   6334   6353     1
   6334   6354     1
   6335   6337     1
   6335   6359     1
   6335   6352     1
   6335   6347     1
   6335   6348     1
   6336   6337     1
   6336   6359     1
   6336   6352     1
   6336   6347     1
   6336   6348     1
   6337   6350     1
   6337   6351     1
   6338   6359     1
   6338   6349     1
   6338   6341     1
   6338   6342     1
   6339   6359     1
   6339   6349     1
   6339   6341     1
   6339   6342     1
   6340   6359     1
   6341   6358     1
   6341   6350     1
   6341   6351     1
   6342   6358     1
   6342   6350     1
   6342   6351     1
   6343   6359     1
   6344  12459     1
   6344   6356     1
   6344   6357     1
   6345  12459     1
   6345   6356     1
   6345   6357     1
   6346   6359     1
   6347  12436     1
   6347   6353     1
   6347   6354     1
   6348  12436     1
   6348   6353     1
   6348   6354     1
   6352  12435     1
   6353  12432     1
   6354  12432     1
   6355  12458     1
   6356  12455     1
   6357  12455     1
   6360   6374     1
   6360   6375     1
   6360   6377     1
   6360   6378     1
   6360   6371     1
   6360   6372     1
   6361   6365     1
   6361   6366     1
   6361   6368     1
   6361   6369     1
   6361   6386     1
   6361   6387     1
   6362   6364     1
   6362   6367     1
   6362   6389     1
   6362   6385     1
   6362   6374     1
   6362   6375     1
   6363   6364     1
   6363   6367     1
   6363   6389     1
   6363   6385     1
   6363   6374     1
   6363   6375     1
   6364   6368     1
   6364   6369     1
   6364   6383     1
   6364   6384     1
   6365   6367     1
   6365   6389     1
   6365   6382     1
   6365   6377     1
   6365   6378     1
   6366   6367     1
   6366   6389     1
   6366   6382     1
   6366   6377     1
   6366   6378     1
   6367   6380     1
   6367   6381     1
   6368   6389     1
   6368   6379     1
   6368   6371     1
   6368   6372     1
   6369   6389     1
   6369   6379     1
   6369   6371     1
   6369   6372     1
   6370   6389     1
   6371   6388     1
   6371   6380     1
   6371   6381     1
   6372   6388     1
   6372   6380     1
   6372   6381     1
   6373   6389     1
   6374  12505     1
   6374   6386     1
   6374   6387     1
   6375  12505     1
   6375   6386     1
   6375   6387     1
   6376   6389     1
   6377  12482     1
   6377   6383     1
   6377   6384     1
   6378  12482     1
   6378   6383     1
   6378   6384     1
   6382  12481     1
   6383  12478     1
   6384  12478     1
   6385  12504     1
   6386  12501     1
   6387  12501     1
   6390   6404     1
   6390   6405     1
   6390   6407     1
   6390   6408     1
   6390   6401     1
   6390   6402     1
   6391   6395     1
   6391   6396     1
   6391   6398     1
   6391   6399     1
   6391   6416     1
   6391   6417     1
   6392   6394     1
   6392   6397     1
   6392   6419     1
   6392   6415     1
   6392   6404     1
   6392   6405     1
   6393   6394     1
   6393   6397     1
   6393   6419     1
   6393   6415     1
   6393   6404     1
   6393   6405     1
   6394   6398     1
   6394   6399     1
   6394   6413     1
   6394   6414     1
   6395   6397     1
   6395   6419     1
   6395   6412     1
   6395   6407     1
   6395   6408     1
   6396   6397     1
   6396   6419     1
   6396   6412     1
   6396   6407     1
   6396   6408     1
   6397   6410     1
   6397   6411     1
   6398   6419     1
   6398   6409     1
   6398   6401     1
   6398   6402     1
   6399   6419     1
   6399   6409     1
   6399   6401     1
   6399   6402     1
   6400   6419     1
   6401   6418     1
   6401   6410     1
   6401   6411     1
   6402   6418     1
   6402   6410     1
   6402   6411     1
   6403   6419     1
   6404  12551     1
   6404   6416     1
   6404   6417     1
   6405  12551     1
   6405   6416     1
   6405   6417     1
   6406   6419     1
   6407  12528     1
   6407   6413     1
   6407   6414     1
   6408  12528     1
   6408   6413     1
   6408   6414     1
   6412  12527     1
   6413  12524     1
   6414  12524     1
   6415  12550     1
   6416  12547     1
   6417  12547     1
   6420   6434     1
   6420   6435     1
   6420   6437     1
   6420   6438     1
   6420   6431     1
   6420   6432     1
   6421   6425     1
   6421   6426     1
   6421   6428     1
   6421   6429     1
   6421   6446     1
   6421   6447     1
   6422   6424     1
   6422   6427     1
   6422   6449     1
   6422   6445     1
   6422   6434     1
   6422   6435     1
   6423   6424     1
   6423   6427     1
   6423   6449     1
   6423   6445     1
   6423   6434     1
   6423   6435     1
   6424   6428     1
   6424   6429     1
   6424   6443     1
   6424   6444     1
   6425   6427     1
   6425   6449     1
   6425   6442     1
   6425   6437     1
   6425   6438     1
   6426   6427     1
   6426   6449     1
   6426   6442     1
   6426   6437     1
   6426   6438     1
   6427   6440     1
   6427   6441     1
   6428   6449     1
   6428   6439     1
   6428   6431     1
   6428   6432     1
   6429   6449     1
   6429   6439     1
   6429   6431     1
   6429   6432     1
   6430   6449     1
   6431   6448     1
   6431   6440     1
   6431   6441     1
   6432   6448     1
   6432   6440     1
   6432   6441     1
   6433   6449     1
   6434  12597     1
   6434   6446     1
   6434   6447     1
   6435  12597     1
   6435   6446     1
   6435   6447     1
   6436   6449     1
   6437  12574     1
   6437   6443     1
   6437   6444     1
   6438  12574     1
   6438   6443     1
   6438   6444     1
   6442  12573     1
   6443  12570     1
   6444  12570     1
   6445  12596     1
   6446  12593     1
   6447  12593     1
   6450   6464     1
   6450   6465     1
   6450   6467     1
   6450   6468     1
   6450   6461     1
   6450   6462     1
   6451   6455     1
   6451   6456     1
   6451   6458     1
   6451   6459     1
   6451   6476     1
   6451   6477     1
   6452   6454     1
   6452   6457     1
   6452   6479     1
   6452   6475     1
   6452   6464     1
   6452   6465     1
   6453   6454     1
   6453   6457     1
   6453   6479     1
   6453   6475     1
   6453   6464     1
   6453   6465     1
   6454   6458     1
   6454   6459     1
   6454   6473     1
   6454   6474     1
   6455   6457     1
   6455   6479     1
   6455   6472     1
   6455   6467     1
   6455   6468     1
   6456   6457     1
   6456   6479     1
   6456   6472     1
   6456   6467     1
   6456   6468     1
   6457   6470     1
   6457   6471     1
   6458   6479     1
   6458   6469     1
   6458   6461     1
   6458   6462     1
   6459   6479     1
   6459   6469     1
   6459   6461     1
   6459   6462     1
   6460   6479     1
   6461   6478     1
   6461   6470     1
   6461   6471     1
   6462   6478     1
   6462   6470     1
   6462   6471     1
   6463   6479     1
   6464  12643     1
   6464   6476     1
   6464   6477     1
   6465  12643     1
   6465   6476     1
   6465   6477     1
   6466   6479     1
   6467  12620     1
   6467   6473     1
   6467   6474     1
   6468  12620     1
   6468   6473     1
   6468   6474     1
   6472  12619     1
   6473  12616     1
   6474  12616     1
   6475  12642     1
   6476  12639     1
   6477  12639     1
   6480   6494     1
   6480   6495     1
   6480   6497     1
   6480   6498     1
   6480   6491     1
   6480   6492     1
   6481   6485     1
   6481   6486     1
   6481   6488     1
   6481   6489     1
   6481   6506     1
   6481   6507     1
   6482   6484     1
   6482   6487     1
   6482   6509     1
   6482   6505     1
   6482   6494     1
   6482   6495     1
   6483   6484     1
   6483   6487     1
   6483   6509     1
   6483   6505     1
   6483   6494     1
   6483   6495     1
   6484   6488     1
   6484   6489     1
   6484   6503     1
   6484   6504     1
   6485   6487     1
   6485   6509     1
   6485   6502     1
   6485   6497     1
   6485   6498     1
   6486   6487     1
   6486   6509     1
   6486   6502     1
   6486   6497     1
   6486   6498     1
   6487   6500     1
   6487   6501     1
   6488   6509     1
   6488   6499     1
   6488   6491     1
   6488   6492     1
   6489   6509     1
   6489   6499     1
   6489   6491     1
   6489   6492     1
   6490   6509     1
   6491   6508     1
   6491   6500     1
   6491   6501     1
   6492   6508     1
   6492   6500     1
   6492   6501     1
   6493   6509     1
   6494  12689     1
   6494   6506     1
   6494   6507     1
   6495  12689     1
   6495   6506     1
   6495   6507     1
   6496   6509     1
   6497  12666     1
   6497   6503     1
   6497   6504     1
   6498  12666     1
   6498   6503     1
   6498   6504     1
   6502  12665     1
   6503  12662     1
   6504  12662     1
   6505  12688     1
   6506  12685     1
   6507  12685     1
   6510   6524     1
   6510   6525     1
   6510   6527     1
   6510   6528     1
   6510   6521     1
   6510   6522     1
   6511   6515     1
   6511   6516     1
   6511   6518     1
   6511   6519     1
   6511   6536     1
   6511   6537     1
   6512   6514     1
   6512   6517     1
   6512   6539     1
   6512   6535     1
   6512   6524     1
   6512   6525     1
   6513   6514     1
   6513   6517     1
   6513   6539     1
   6513   6535     1
   6513   6524     1
   6513   6525     1
   6514   6518     1
   6514   6519     1
   6514   6533     1
   6514   6534     1
   6515   6517     1
   6515   6539     1
   6515   6532     1
   6515   6527     1
   6515   6528     1
   6516   6517     1
   6516   6539     1
   6516   6532     1
   6516   6527     1
   6516   6528     1
   6517   6530     1
   6517   6531     1
   6518   6539     1
   6518   6529     1
   6518   6521     1
   6518   6522     1
   6519   6539     1
   6519   6529     1
   6519   6521     1
   6519   6522     1
   6520   6539     1
   6521   6538     1
   6521   6530     1
   6521   6531     1
   6522   6538     1
   6522   6530     1
   6522   6531     1
   6523   6539     1
   6524  12735     1
   6524   6536     1
   6524   6537     1
   6525  12735     1
   6525   6536     1
   6525   6537     1
   6526   6539     1
   6527  12712     1
   6527   6533     1
   6527   6534     1
   6528  12712     1
   6528   6533     1
   6528   6534     1
   6532  12711     1
   6533  12708     1
   6534  12708     1
   6535  12734     1
   6536  12731     1
   6537  12731     1
   6540   6554     1
   6540   6555     1
   6540   6557     1
   6540   6558     1
   6540   6551     1
   6540   6552     1
   6541   6545     1
   6541   6546     1
   6541   6548     1
   6541   6549     1
   6541   6566     1
   6541   6567     1
   6542   6544     1
   6542   6547     1
   6542   6569     1
   6542   6565     1
   6542   6554     1
   6542   6555     1
   6543   6544     1
   6543   6547     1
   6543   6569     1
   6543   6565     1
   6543   6554     1
   6543   6555     1
   6544   6548     1
   6544   6549     1
   6544   6563     1
   6544   6564     1
   6545   6547     1
   6545   6569     1
   6545   6562     1
   6545   6557     1
   6545   6558     1
   6546   6547     1
   6546   6569     1
   6546   6562     1
   6546   6557     1
   6546   6558     1
   6547   6560     1
   6547   6561     1
   6548   6569     1
   6548   6559     1
   6548   6551     1
   6548   6552     1
   6549   6569     1
   6549   6559     1
   6549   6551     1
   6549   6552     1
   6550   6569     1
   6551   6568     1
   6551   6560     1
   6551   6561     1
   6552   6568     1
   6552   6560     1
   6552   6561     1
   6553   6569     1
   6554  12781     1
   6554   6566     1
   6554   6567     1
   6555  12781     1
   6555   6566     1
   6555   6567     1
   6556   6569     1
   6557  12758     1
   6557   6563     1
   6557   6564     1
   6558  12758     1
   6558   6563     1
   6558   6564     1
   6562  12757     1
   6563  12754     1
   6564  12754     1
   6565  12780     1
   6566  12777     1
   6567  12777     1
   6570   6584     1
   6570   6585     1
   6570   6587     1
   6570   6588     1
   6570   6581     1
   6570   6582     1
   6571   6575     1
   6571   6576     1
   6571   6578     1
   6571   6579     1
   6571   6596     1
   6571   6597     1
   6572   6574     1
   6572   6577     1
   6572   6599     1
   6572   6595     1
   6572   6584     1
   6572   6585     1
   6573   6574     1
   6573   6577     1
   6573   6599     1
   6573   6595     1
   6573   6584     1
   6573   6585     1
   6574   6578     1
   6574   6579     1
   6574   6593     1
   6574   6594     1
   6575   6577     1
   6575   6599     1
   6575   6592     1
   6575   6587     1
   6575   6588     1
   6576   6577     1
   6576   6599     1
   6576   6592     1
   6576   6587     1
   6576   6588     1
   6577   6590     1
   6577   6591     1
   6578   6599     1
   6578   6589     1
   6578   6581     1
   6578   6582     1
   6579   6599     1
   6579   6589     1
   6579   6581     1
   6579   6582     1
   6580   6599     1
   6581   6598     1
   6581   6590     1
   6581   6591     1
   6582   6598     1
   6582   6590     1
   6582   6591     1
   6583   6599     1
   6584  12827     1
   6584   6596     1
   6584   6597     1
   6585  12827     1
   6585   6596     1
   6585   6597     1
   6586   6599     1
   6587  12804     1
   6587   6593     1
   6587   6594     1
   6588  12804     1
   6588   6593     1
   6588   6594     1
   6592  12803     1
   6593  12800     1
   6594  12800     1
   6595  12826     1
   6596  12823     1
   6597  12823     1
   6600   6614     1
   6600   6615     1
   6600   6617     1
   6600   6618     1
   6600   6611     1
   6600   6612     1
   6601   6605     1
   6601   6606     1
   6601   6608     1
   6601   6609     1
   6601   6626     1
   6601   6627     1
   6602   6604     1
   6602   6607     1
   6602   6629     1
   6602   6625     1
   6602   6614     1
   6602   6615     1
   6603   6604     1
   6603   6607     1
   6603   6629     1
   6603   6625     1
   6603   6614     1
   6603   6615     1
   6604   6608     1
   6604   6609     1
   6604   6623     1
   6604   6624     1
   6605   6607     1
   6605   6629     1
   6605   6622     1
   6605   6617     1
   6605   6618     1
   6606   6607     1
   6606   6629     1
   6606   6622     1
   6606   6617     1
   6606   6618     1
   6607   6620     1
   6607   6621     1
   6608   6629     1
   6608   6619     1
   6608   6611     1
   6608   6612     1
   6609   6629     1
   6609   6619     1
   6609   6611     1
   6609   6612     1
   6610   6629     1
   6611   6628     1
   6611   6620     1
   6611   6621     1
   6612   6628     1
   6612   6620     1
   6612   6621     1
   6613   6629     1
   6614  12873     1
   6614   6626     1
   6614   6627     1
   6615  12873     1
   6615   6626     1
   6615   6627     1
   6616   6629     1
   6617  12850     1
   6617   6623     1
   6617   6624     1
   6618  12850     1
   6618   6623     1
   6618   6624     1
   6622  12849     1
   6623  12846     1
   6624  12846     1
   6625  12872     1
   6626  12869     1
   6627  12869     1
   6630   6644     1
   6630   6645     1
   6630   6647     1
   6630   6648     1
   6630   6641     1
   6630   6642     1
   6631   6635     1
   6631   6636     1
   6631   6638     1
   6631   6639     1
   6631   6656     1
   6631   6657     1
   6632   6634     1
   6632   6637     1
   6632   6659     1
   6632   6655     1
   6632   6644     1
   6632   6645     1
   6633   6634     1
   6633   6637     1
   6633   6659     1
   6633   6655     1
   6633   6644     1
   6633   6645     1
   6634   6638     1
   6634   6639     1
   6634   6653     1
   6634   6654     1
   6635   6637     1
   6635   6659     1
   6635   6652     1
   6635   6647     1
   6635   6648     1
   6636   6637     1
   6636   6659     1
   6636   6652     1
   6636   6647     1
   6636   6648     1
   6637   6650     1
   6637   6651     1
   6638   6659     1
   6638   6649     1
   6638   6641     1
   6638   6642     1
   6639   6659     1
   6639   6649     1
   6639   6641     1
   6639   6642     1
   6640   6659     1
   6641   6658     1
   6641   6650     1
   6641   6651     1
   6642   6658     1
   6642   6650     1
   6642   6651     1
   6643   6659     1
   6644  12919     1
   6644   6656     1
   6644   6657     1
   6645  12919     1
   6645   6656     1
   6645   6657     1
   6646   6659     1
   6647  12896     1
   6647   6653     1
   6647   6654     1
   6648  12896     1
   6648   6653     1
   6648   6654     1
   6652  12895     1
   6653  12892     1
   6654  12892     1
   6655  12918     1
   6656  12915     1
   6657  12915     1
   6660   6674     1
   6660   6675     1
   6660   6677     1
   6660   6678     1
   6660   6671     1
   6660   6672     1
   6661   6665     1
   6661   6666     1
   6661   6668     1
   6661   6669     1
   6661   6686     1
   6661   6687     1
   6662   6664     1
   6662   6667     1
   6662   6689     1
   6662   6685     1
   6662   6674     1
   6662   6675     1
   6663   6664     1
   6663   6667     1
   6663   6689     1
   6663   6685     1
   6663   6674     1
   6663   6675     1
   6664   6668     1
   6664   6669     1
   6664   6683     1
   6664   6684     1
   6665   6667     1
   6665   6689     1
   6665   6682     1
   6665   6677     1
   6665   6678     1
   6666   6667     1
   6666   6689     1
   6666   6682     1
   6666   6677     1
   6666   6678     1
   6667   6680     1
   6667   6681     1
   6668   6689     1
   6668   6679     1
   6668   6671     1
   6668   6672     1
   6669   6689     1
   6669   6679     1
   6669   6671     1
   6669   6672     1
   6670   6689     1
   6671   6688     1
   6671   6680     1
   6671   6681     1
   6672   6688     1
   6672   6680     1
   6672   6681     1
   6673   6689     1
   6674  12965     1
   6674   6686     1
   6674   6687     1
   6675  12965     1
   6675   6686     1
   6675   6687     1
   6676   6689     1
   6677  12942     1
   6677   6683     1
   6677   6684     1
   6678  12942     1
   6678   6683     1
   6678   6684     1
   6682  12941     1
   6683  12938     1
   6684  12938     1
   6685  12964     1
   6686  12961     1
   6687  12961     1
   6690   6704     1
   6690   6705     1
   6690   6707     1
   6690   6708     1
   6690   6701     1
   6690   6702     1
   6691   6695     1
   6691   6696     1
   6691   6698     1
   6691   6699     1
   6691   6716     1
   6691   6717     1
   6692   6694     1
   6692   6697     1
   6692   6719     1
   6692   6715     1
   6692   6704     1
   6692   6705     1
   6693   6694     1
   6693   6697     1
   6693   6719     1
   6693   6715     1
   6693   6704     1
   6693   6705     1
   6694   6698     1
   6694   6699     1
   6694   6713     1
   6694   6714     1
   6695   6697     1
   6695   6719     1
   6695   6712     1
   6695   6707     1
   6695   6708     1
   6696   6697     1
   6696   6719     1
   6696   6712     1
   6696   6707     1
   6696   6708     1
   6697   6710     1
   6697   6711     1
   6698   6719     1
   6698   6709     1
   6698   6701     1
   6698   6702     1
   6699   6719     1
   6699   6709     1
   6699   6701     1
   6699   6702     1
   6700   6719     1
   6701   6718     1
   6701   6710     1
   6701   6711     1
   6702   6718     1
   6702   6710     1
   6702   6711     1
   6703   6719     1
   6704  13011     1
   6704   6716     1
   6704   6717     1
   6705  13011     1
   6705   6716     1
   6705   6717     1
   6706   6719     1
   6707  12988     1
   6707   6713     1
   6707   6714     1
   6708  12988     1
   6708   6713     1
   6708   6714     1
   6712  12987     1
   6713  12984     1
   6714  12984     1
   6715  13010     1
   6716  13007     1
   6717  13007     1
   6720   6734     1
   6720   6735     1
   6720   6737     1
   6720   6738     1
   6720   6731     1
   6720   6732     1
   6721   6725     1
   6721   6726     1
   6721   6728     1
   6721   6729     1
   6721   6746     1
   6721   6747     1
   6722   6724     1
   6722   6727     1
   6722   6749     1
   6722   6745     1
   6722   6734     1
   6722   6735     1
   6723   6724     1
   6723   6727     1
   6723   6749     1
   6723   6745     1
   6723   6734     1
   6723   6735     1
   6724   6728     1
   6724   6729     1
   6724   6743     1
   6724   6744     1
   6725   6727     1
   6725   6749     1
   6725   6742     1
   6725   6737     1
   6725   6738     1
   6726   6727     1
   6726   6749     1
   6726   6742     1
   6726   6737     1
   6726   6738     1
   6727   6740     1
   6727   6741     1
   6728   6749     1
   6728   6739     1
   6728   6731     1
   6728   6732     1
   6729   6749     1
   6729   6739     1
   6729   6731     1
   6729   6732     1
   6730   6749     1
   6731   6748     1
   6731   6740     1
   6731   6741     1
   6732   6748     1
   6732   6740     1
   6732   6741     1
   6733   6749     1
   6734  13057     1
   6734   6746     1
   6734   6747     1
   6735  13057     1
   6735   6746     1
   6735   6747     1
   6736   6749     1
   6737  13034     1
   6737   6743     1
   6737   6744     1
   6738  13034     1
   6738   6743     1
   6738   6744     1
   6742  13033     1
   6743  13030     1
   6744  13030     1
   6745  13056     1
   6746  13053     1
   6747  13053     1
   6750   6764     1
   6750   6765     1
   6750   6767     1
   6750   6768     1
   6750   6761     1
   6750   6762     1
   6751   6755     1
   6751   6756     1
   6751   6758     1
   6751   6759     1
   6751   6776     1
   6751   6777     1
   6752   6754     1
   6752   6757     1
   6752   6779     1
   6752   6775     1
   6752   6764     1
   6752   6765     1
   6753   6754     1
   6753   6757     1
   6753   6779     1
   6753   6775     1
   6753   6764     1
   6753   6765     1
   6754   6758     1
   6754   6759     1
   6754   6773     1
   6754   6774     1
   6755   6757     1
   6755   6779     1
   6755   6772     1
   6755   6767     1
   6755   6768     1
   6756   6757     1
   6756   6779     1
   6756   6772     1
   6756   6767     1
   6756   6768     1
   6757   6770     1
   6757   6771     1
   6758   6779     1
   6758   6769     1
   6758   6761     1
   6758   6762     1
   6759   6779     1
   6759   6769     1
   6759   6761     1
   6759   6762     1
   6760   6779     1
   6761   6778     1
   6761   6770     1
   6761   6771     1
   6762   6778     1
   6762   6770     1
   6762   6771     1
   6763   6779     1
   6764  13103     1
   6764   6776     1
   6764   6777     1
   6765  13103     1
   6765   6776     1
   6765   6777     1
   6766   6779     1
   6767  13080     1
   6767   6773     1
   6767   6774     1
   6768  13080     1
   6768   6773     1
   6768   6774     1
   6772  13079     1
   6773  13076     1
   6774  13076     1
   6775  13102     1
   6776  13099     1
   6777  13099     1
   6780   6794     1
   6780   6795     1
   6780   6797     1
   6780   6798     1
   6780   6791     1
   6780   6792     1
   6781   6785     1
   6781   6786     1
   6781   6788     1
   6781   6789     1
   6781   6806     1
   6781   6807     1
   6782   6784     1
   6782   6787     1
   6782   6809     1
   6782   6805     1
   6782   6794     1
   6782   6795     1
   6783   6784     1
   6783   6787     1
   6783   6809     1
   6783   6805     1
   6783   6794     1
   6783   6795     1
   6784   6788     1
   6784   6789     1
   6784   6803     1
   6784   6804     1
   6785   6787     1
   6785   6809     1
   6785   6802     1
   6785   6797     1
   6785   6798     1
   6786   6787     1
   6786   6809     1
   6786   6802     1
   6786   6797     1
   6786   6798     1
   6787   6800     1
   6787   6801     1
   6788   6809     1
   6788   6799     1
   6788   6791     1
   6788   6792     1
   6789   6809     1
   6789   6799     1
   6789   6791     1
   6789   6792     1
   6790   6809     1
   6791   6808     1
   6791   6800     1
   6791   6801     1
   6792   6808     1
   6792   6800     1
   6792   6801     1
   6793   6809     1
   6794  13149     1
   6794   6806     1
   6794   6807     1
   6795  13149     1
   6795   6806     1
   6795   6807     1
   6796   6809     1
   6797  13126     1
   6797   6803     1
   6797   6804     1
   6798  13126     1
   6798   6803     1
   6798   6804     1
   6802  13125     1
   6803  13122     1
   6804  13122     1
   6805  13148     1
   6806  13145     1
   6807  13145     1
   6810   6824     1
   6810   6825     1
   6810   6827     1
   6810   6828     1
   6810   6821     1
   6810   6822     1
   6811   6815     1
   6811   6816     1
   6811   6818     1
   6811   6819     1
   6811   6836     1
   6811   6837     1
   6812   6814     1
   6812   6817     1
   6812   6839     1
   6812   6835     1
   6812   6824     1
   6812   6825     1
   6813   6814     1
   6813   6817     1
   6813   6839     1
   6813   6835     1
   6813   6824     1
   6813   6825     1
   6814   6818     1
   6814   6819     1
   6814   6833     1
   6814   6834     1
   6815   6817     1
   6815   6839     1
   6815   6832     1
   6815   6827     1
   6815   6828     1
   6816   6817     1
   6816   6839     1
   6816   6832     1
   6816   6827     1
   6816   6828     1
   6817   6830     1
   6817   6831     1
   6818   6839     1
   6818   6829     1
   6818   6821     1
   6818   6822     1
   6819   6839     1
   6819   6829     1
   6819   6821     1
   6819   6822     1
   6820   6839     1
   6821   6838     1
   6821   6830     1
   6821   6831     1
   6822   6838     1
   6822   6830     1
   6822   6831     1
   6823   6839     1
   6824  13195     1
   6824   6836     1
   6824   6837     1
   6825  13195     1
   6825   6836     1
   6825   6837     1
   6826   6839     1
   6827  13172     1
   6827   6833     1
   6827   6834     1
   6828  13172     1
   6828   6833     1
   6828   6834     1
   6832  13171     1
   6833  13168     1
   6834  13168     1
   6835  13194     1
   6836  13191     1
   6837  13191     1
   6840   6854     1
   6840   6855     1
   6840   6857     1
   6840   6858     1
   6840   6851     1
   6840   6852     1
   6841   6845     1
   6841   6846     1
   6841   6848     1
   6841   6849     1
   6841   6866     1
   6841   6867     1
   6842   6844     1
   6842   6847     1
   6842   6869     1
   6842   6865     1
   6842   6854     1
   6842   6855     1
   6843   6844     1
   6843   6847     1
   6843   6869     1
   6843   6865     1
   6843   6854     1
   6843   6855     1
   6844   6848     1
   6844   6849     1
   6844   6863     1
   6844   6864     1
   6845   6847     1
   6845   6869     1
   6845   6862     1
   6845   6857     1
   6845   6858     1
   6846   6847     1
   6846   6869     1
   6846   6862     1
   6846   6857     1
   6846   6858     1
   6847   6860     1
   6847   6861     1
   6848   6869     1
   6848   6859     1
   6848   6851     1
   6848   6852     1
   6849   6869     1
   6849   6859     1
   6849   6851     1
   6849   6852     1
   6850   6869     1
   6851   6868     1
   6851   6860     1
   6851   6861     1
   6852   6868     1
   6852   6860     1
   6852   6861     1
   6853   6869     1
   6854  13241     1
   6854   6866     1
   6854   6867     1
   6855  13241     1
   6855   6866     1
   6855   6867     1
   6856   6869     1
   6857  13218     1
   6857   6863     1
   6857   6864     1
   6858  13218     1
   6858   6863     1
   6858   6864     1
   6862  13217     1
   6863  13214     1
   6864  13214     1
   6865  13240     1
   6866  13237     1
   6867  13237     1
   6870   6884     1
   6870   6885     1
   6870   6887     1
   6870   6888     1
   6870   6881     1
   6870   6882     1
   6871   6875     1
   6871   6876     1
   6871   6878     1
   6871   6879     1
   6871   6896     1
   6871   6897     1
   6872   6874     1
   6872   6877     1
   6872   6899     1
   6872   6895     1
   6872   6884     1
   6872   6885     1
   6873   6874     1
   6873   6877     1
   6873   6899     1
   6873   6895     1
   6873   6884     1
   6873   6885     1
   6874   6878     1
   6874   6879     1
   6874   6893     1
   6874   6894     1
   6875   6877     1
   6875   6899     1
   6875   6892     1
   6875   6887     1
   6875   6888     1
   6876   6877     1
   6876   6899     1
   6876   6892     1
   6876   6887     1
   6876   6888     1
   6877   6890     1
   6877   6891     1
   6878   6899     1
   6878   6889     1
   6878   6881     1
   6878   6882     1
   6879   6899     1
   6879   6889     1
   6879   6881     1
   6879   6882     1
   6880   6899     1
   6881   6898     1
   6881   6890     1
   6881   6891     1
   6882   6898     1
   6882   6890     1
   6882   6891     1
   6883   6899     1
   6884  13287     1
   6884   6896     1
   6884   6897     1
   6885  13287     1
   6885   6896     1
   6885   6897     1
   6886   6899     1
   6887  13264     1
   6887   6893     1
   6887   6894     1
   6888  13264     1
   6888   6893     1
   6888   6894     1
   6892  13263     1
   6893  13260     1
   6894  13260     1
   6895  13286     1
   6896  13283     1
   6897  13283     1
   6900   6914     1
   6900   6915     1
   6900   6917     1
   6900   6918     1
   6900   6911     1
   6900   6912     1
   6901   6905     1
   6901   6906     1
   6901   6908     1
   6901   6909     1
   6901   6926     1
   6901   6927     1
   6902   6904     1
   6902   6907     1
   6902   6929     1
   6902   6925     1
   6902   6914     1
   6902   6915     1
   6903   6904     1
   6903   6907     1
   6903   6929     1
   6903   6925     1
   6903   6914     1
   6903   6915     1
   6904   6908     1
   6904   6909     1
   6904   6923     1
   6904   6924     1
   6905   6907     1
   6905   6929     1
   6905   6922     1
   6905   6917     1
   6905   6918     1
   6906   6907     1
   6906   6929     1
   6906   6922     1
   6906   6917     1
   6906   6918     1
   6907   6920     1
   6907   6921     1
   6908   6929     1
   6908   6919     1
   6908   6911     1
   6908   6912     1
   6909   6929     1
   6909   6919     1
   6909   6911     1
   6909   6912     1
   6910   6929     1
   6911   6928     1
   6911   6920     1
   6911   6921     1
   6912   6928     1
   6912   6920     1
   6912   6921     1
   6913   6929     1
   6914  13333     1
   6914   6926     1
   6914   6927     1
   6915  13333     1
   6915   6926     1
   6915   6927     1
   6916   6929     1
   6917  13310     1
   6917   6923     1
   6917   6924     1
   6918  13310     1
   6918   6923     1
   6918   6924     1
   6922  13309     1
   6923  13306     1
   6924  13306     1
   6925  13332     1
   6926  13329     1
   6927  13329     1
   6930   6944     1
   6930   6945     1
   6930   6947     1
   6930   6948     1
   6930   6941     1
   6930   6942     1
   6931   6935     1
   6931   6936     1
   6931   6938     1
   6931   6939     1
   6931   6956     1
   6931   6957     1
   6932   6934     1
   6932   6937     1
   6932   6959     1
   6932   6955     1
   6932   6944     1
   6932   6945     1
   6933   6934     1
   6933   6937     1
   6933   6959     1
   6933   6955     1
   6933   6944     1
   6933   6945     1
   6934   6938     1
   6934   6939     1
   6934   6953     1
   6934   6954     1
   6935   6937     1
   6935   6959     1
   6935   6952     1
   6935   6947     1
   6935   6948     1
   6936   6937     1
   6936   6959     1
   6936   6952     1
   6936   6947     1
   6936   6948     1
   6937   6950     1
   6937   6951     1
   6938   6959     1
   6938   6949     1
   6938   6941     1
   6938   6942     1
   6939   6959     1
   6939   6949     1
   6939   6941     1
   6939   6942     1
   6940   6959     1
   6941   6958     1
   6941   6950     1
   6941   6951     1
   6942   6958     1
   6942   6950     1
   6942   6951     1
   6943   6959     1
   6944  13379     1
   6944   6956     1
   6944   6957     1
   6945  13379     1
   6945   6956     1
   6945   6957     1
   6946   6959     1
   6947  13356     1
   6947   6953     1
   6947   6954     1
   6948  13356     1
   6948   6953     1
   6948   6954     1
   6952  13355     1
   6953  13352     1
   6954  13352     1
   6955  13378     1
   6956  13375     1
   6957  13375     1
   6960   6974     1
   6960   6975     1
   6960   6977     1
   6960   6978     1
   6960   6971     1
   6960   6972     1
   6961   6965     1
   6961   6966     1
   6961   6968     1
   6961   6969     1
   6961   6986     1
   6961   6987     1
   6962   6964     1
   6962   6967     1
   6962   6989     1
   6962   6985     1
   6962   6974     1
   6962   6975     1
   6963   6964     1
   6963   6967     1
   6963   6989     1
   6963   6985     1
   6963   6974     1
   6963   6975     1
   6964   6968     1
   6964   6969     1
   6964   6983     1
   6964   6984     1
   6965   6967     1
   6965   6989     1
   6965   6982     1
   6965   6977     1
   6965   6978     1
   6966   6967     1
   6966   6989     1
   6966   6982     1
   6966   6977     1
   6966   6978     1
   6967   6980     1
   6967   6981     1
   6968   6989     1
   6968   6979     1
   6968   6971     1
   6968   6972     1
   6969   6989     1
   6969   6979     1
   6969   6971     1
   6969   6972     1
   6970   6989     1
   6971   6988     1
   6971   6980     1
   6971   6981     1
   6972   6988     1
   6972   6980     1
   6972   6981     1
   6973   6989     1
   6974  13425     1
   6974   6986     1
   6974   6987     1
   6975  13425     1
   6975   6986     1
   6975   6987     1
   6976   6989     1
   6977  13402     1
   6977   6983     1
   6977   6984     1
   6978  13402     1
   6978   6983     1
   6978   6984     1
   6982  13401     1
   6983  13398     1
   6984  13398     1
   6985  13424     1
   6986  13421     1
   6987  13421     1
   6990   7004     1
   6990   7005     1
   6990   7007     1
   6990   7008     1
   6990   7001     1
   6990   7002     1
   6991   6995     1
   6991   6996     1
   6991   6998     1
   6991   6999     1
   6991   7016     1
   6991   7017     1
   6992   6994     1
   6992   6997     1
   6992   7019     1
   6992   7015     1
   6992   7004     1
   6992   7005     1
   6993   6994     1
   6993   6997     1
   6993   7019     1
   6993   7015     1
   6993   7004     1
   6993   7005     1
   6994   6998     1
   6994   6999     1
   6994   7013     1
   6994   7014     1
   6995   6997     1
   6995   7019     1
   6995   7012     1
   6995   7007     1
   6995   7008     1
   6996   6997     1
   6996   7019     1
   6996   7012     1
   6996   7007     1
   6996   7008     1
   6997   7010     1
   6997   7011     1
   6998   7019     1
   6998   7009     1
   6998   7001     1
   6998   7002     1
   6999   7019     1
   6999   7009     1
   6999   7001     1
   6999   7002     1
   7000   7019     1
   7001   7018     1
   7001   7010     1
   7001   7011     1
   7002   7018     1
   7002   7010     1
   7002   7011     1
   7003   7019     1
   7004  13471     1
   7004   7016     1
   7004   7017     1
   7005  13471     1
   7005   7016     1
   7005   7017     1
   7006   7019     1
   7007  13448     1
   7007   7013     1
   7007   7014     1
   7008  13448     1
   7008   7013     1
   7008   7014     1
   7012  13447     1
   7013  13444     1
   7014  13444     1
   7015  13470     1
   7016  13467     1
   7017  13467     1
   7020   7034     1
   7020   7035     1
   7020   7037     1
   7020   7038     1
   7020   7031     1
   7020   7032     1
   7021   7025     1
   7021   7026     1
   7021   7028     1
   7021   7029     1
   7021   7046     1
   7021   7047     1
   7022   7024     1
   7022   7027     1
   7022   7049     1
   7022   7045     1
   7022   7034     1
   7022   7035     1
   7023   7024     1
   7023   7027     1
   7023   7049     1
   7023   7045     1
   7023   7034     1
   7023   7035     1
   7024   7028     1
   7024   7029     1
   7024   7043     1
   7024   7044     1
   7025   7027     1
   7025   7049     1
   7025   7042     1
   7025   7037     1
   7025   7038     1
   7026   7027     1
   7026   7049     1
   7026   7042     1
   7026   7037     1
   7026   7038     1
   7027   7040     1
   7027   7041     1
   7028   7049     1
   7028   7039     1
   7028   7031     1
   7028   7032     1
   7029   7049     1
   7029   7039     1
   7029   7031     1
   7029   7032     1
   7030   7049     1
   7031   7048     1
   7031   7040     1
   7031   7041     1
   7032   7048     1
   7032   7040     1
   7032   7041     1
   7033   7049     1
   7034  13517     1
   7034   7046     1
   7034   7047     1
   7035  13517     1
   7035   7046     1
   7035   7047     1
   7036   7049     1
   7037  13494     1
   7037   7043     1
   7037   7044     1
   7038  13494     1
   7038   7043     1
   7038   7044     1
   7042  13493     1
   7043  13490     1
   7044  13490     1
   7045  13516     1
   7046  13513     1
   7047  13513     1
   7050   7064     1
   7050   7065     1
   7050   7067     1
   7050   7068     1
   7050   7061     1
   7050   7062     1
   7051   7055     1
   7051   7056     1
   7051   7058     1
   7051   7059     1
   7051   7076     1
   7051   7077     1
   7052   7054     1
   7052   7057     1
   7052   7079     1
   7052   7075     1
   7052   7064     1
   7052   7065     1
   7053   7054     1
   7053   7057     1
   7053   7079     1
   7053   7075     1
   7053   7064     1
   7053   7065     1
   7054   7058     1
   7054   7059     1
   7054   7073     1
   7054   7074     1
   7055   7057     1
   7055   7079     1
   7055   7072     1
   7055   7067     1
   7055   7068     1
   7056   7057     1
   7056   7079     1
   7056   7072     1
   7056   7067     1
   7056   7068     1
   7057   7070     1
   7057   7071     1
   7058   7079     1
   7058   7069     1
   7058   7061     1
   7058   7062     1
   7059   7079     1
   7059   7069     1
   7059   7061     1
   7059   7062     1
   7060   7079     1
   7061   7078     1
   7061   7070     1
   7061   7071     1
   7062   7078     1
   7062   7070     1
   7062   7071     1
   7063   7079     1
   7064  13563     1
   7064   7076     1
   7064   7077     1
   7065  13563     1
   7065   7076     1
   7065   7077     1
   7066   7079     1
   7067  13540     1
   7067   7073     1
   7067   7074     1
   7068  13540     1
   7068   7073     1
   7068   7074     1
   7072  13539     1
   7073  13536     1
   7074  13536     1
   7075  13562     1
   7076  13559     1
   7077  13559     1
   7080   7094     1
   7080   7095     1
   7080   7097     1
   7080   7098     1
   7080   7091     1
   7080   7092     1
   7081   7085     1
   7081   7086     1
   7081   7088     1
   7081   7089     1
   7081   7106     1
   7081   7107     1
   7082   7084     1
   7082   7087     1
   7082   7109     1
   7082   7105     1
   7082   7094     1
   7082   7095     1
   7083   7084     1
   7083   7087     1
   7083   7109     1
   7083   7105     1
   7083   7094     1
   7083   7095     1
   7084   7088     1
   7084   7089     1
   7084   7103     1
   7084   7104     1
   7085   7087     1
   7085   7109     1
   7085   7102     1
   7085   7097     1
   7085   7098     1
   7086   7087     1
   7086   7109     1
   7086   7102     1
   7086   7097     1
   7086   7098     1
   7087   7100     1
   7087   7101     1
   7088   7109     1
   7088   7099     1
   7088   7091     1
   7088   7092     1
   7089   7109     1
   7089   7099     1
   7089   7091     1
   7089   7092     1
   7090   7109     1
   7091   7108     1
   7091   7100     1
   7091   7101     1
   7092   7108     1
   7092   7100     1
   7092   7101     1
   7093   7109     1
   7094  13609     1
   7094   7106     1
   7094   7107     1
   7095  13609     1
   7095   7106     1
   7095   7107     1
   7096   7109     1
   7097  13586     1
   7097   7103     1
   7097   7104     1
   7098  13586     1
   7098   7103     1
   7098   7104     1
   7102  13585     1
   7103  13582     1
   7104  13582     1
   7105  13608     1
   7106  13605     1
   7107  13605     1
   7110   7124     1
   7110   7125     1
   7110   7127     1
   7110   7128     1
   7110   7121     1
   7110   7122     1
   7111   7115     1
   7111   7116     1
   7111   7118     1
   7111   7119     1
   7111   7136     1
   7111   7137     1
   7112   7114     1
   7112   7117     1
   7112   7139     1
   7112   7135     1
   7112   7124     1
   7112   7125     1
   7113   7114     1
   7113   7117     1
   7113   7139     1
   7113   7135     1
   7113   7124     1
   7113   7125     1
   7114   7118     1
   7114   7119     1
   7114   7133     1
   7114   7134     1
   7115   7117     1
   7115   7139     1
   7115   7132     1
   7115   7127     1
   7115   7128     1
   7116   7117     1
   7116   7139     1
   7116   7132     1
   7116   7127     1
   7116   7128     1
   7117   7130     1
   7117   7131     1
   7118   7139     1
   7118   7129     1
   7118   7121     1
   7118   7122     1
   7119   7139     1
   7119   7129     1
   7119   7121     1
   7119   7122     1
   7120   7139     1
   7121   7138     1
   7121   7130     1
   7121   7131     1
   7122   7138     1
   7122   7130     1
   7122   7131     1
   7123   7139     1
   7124  13655     1
   7124   7136     1
   7124   7137     1
   7125  13655     1
   7125   7136     1
   7125   7137     1
   7126   7139     1
   7127  13632     1
   7127   7133     1
   7127   7134     1
   7128  13632     1
   7128   7133     1
   7128   7134     1
   7132  13631     1
   7133  13628     1
   7134  13628     1
   7135  13654     1
   7136  13651     1
   7137  13651     1
   7140   7154     1
   7140   7155     1
   7140   7157     1
   7140   7158     1
   7140   7151     1
   7140   7152     1
   7141   7145     1
   7141   7146     1
   7141   7148     1
   7141   7149     1
   7141   7166     1
   7141   7167     1
   7142   7144     1
   7142   7147     1
   7142   7169     1
   7142   7165     1
   7142   7154     1
   7142   7155     1
   7143   7144     1
   7143   7147     1
   7143   7169     1
   7143   7165     1
   7143   7154     1
   7143   7155     1
   7144   7148     1
   7144   7149     1
   7144   7163     1
   7144   7164     1
   7145   7147     1
   7145   7169     1
   7145   7162     1
   7145   7157     1
   7145   7158     1
   7146   7147     1
   7146   7169     1
   7146   7162     1
   7146   7157     1
   7146   7158     1
   7147   7160     1
   7147   7161     1
   7148   7169     1
   7148   7159     1
   7148   7151     1
   7148   7152     1
   7149   7169     1
   7149   7159     1
   7149   7151     1
   7149   7152     1
   7150   7169     1
   7151   7168     1
   7151   7160     1
   7151   7161     1
   7152   7168     1
   7152   7160     1
   7152   7161     1
   7153   7169     1
   7154  13701     1
   7154   7166     1
   7154   7167     1
   7155  13701     1
   7155   7166     1
   7155   7167     1
   7156   7169     1
   7157  13678     1
   7157   7163     1
   7157   7164     1
   7158  13678     1
   7158   7163     1
   7158   7164     1
   7162  13677     1
   7163  13674     1
   7164  13674     1
   7165  13700     1
   7166  13697     1
   7167  13697     1
   7170   7184     1
   7170   7185     1
   7170   7187     1
   7170   7188     1
   7170   7181     1
   7170   7182     1
   7171   7175     1
   7171   7176     1
   7171   7178     1
   7171   7179     1
   7171   7196     1
   7171   7197     1
   7172   7174     1
   7172   7177     1
   7172   7199     1
   7172   7195     1
   7172   7184     1
   7172   7185     1
   7173   7174     1
   7173   7177     1
   7173   7199     1
   7173   7195     1
   7173   7184     1
   7173   7185     1
   7174   7178     1
   7174   7179     1
   7174   7193     1
   7174   7194     1
   7175   7177     1
   7175   7199     1
   7175   7192     1
   7175   7187     1
   7175   7188     1
   7176   7177     1
   7176   7199     1
   7176   7192     1
   7176   7187     1
   7176   7188     1
   7177   7190     1
   7177   7191     1
   7178   7199     1
   7178   7189     1
   7178   7181     1
   7178   7182     1
   7179   7199     1
   7179   7189     1
   7179   7181     1
   7179   7182     1
   7180   7199     1
   7181   7198     1
   7181   7190     1
   7181   7191     1
   7182   7198     1
   7182   7190     1
   7182   7191     1
   7183   7199     1
   7184  13747     1
   7184   7196     1
   7184   7197     1
   7185  13747     1
   7185   7196     1
   7185   7197     1
   7186   7199     1
   7187  13724     1
   7187   7193     1
   7187   7194     1
   7188  13724     1
   7188   7193     1
   7188   7194     1
   7192  13723     1
   7193  13720     1
   7194  13720     1
   7195  13746     1
   7196  13743     1
   7197  13743     1
   7200   7214     1
   7200   7215     1
   7200   7217     1
   7200   7218     1
   7200   7211     1
   7200   7212     1
   7201   7205     1
   7201   7206     1
   7201   7208     1
   7201   7209     1
   7201   7226     1
   7201   7227     1
   7202   7204     1
   7202   7207     1
   7202   7229     1
   7202   7225     1
   7202   7214     1
   7202   7215     1
   7203   7204     1
   7203   7207     1
   7203   7229     1
   7203   7225     1
   7203   7214     1
   7203   7215     1
   7204   7208     1
   7204   7209     1
   7204   7223     1
   7204   7224     1
   7205   7207     1
   7205   7229     1
   7205   7222     1
   7205   7217     1
   7205   7218     1
   7206   7207     1
   7206   7229     1
   7206   7222     1
   7206   7217     1
   7206   7218     1
   7207   7220     1
   7207   7221     1
   7208   7229     1
   7208   7219     1
   7208   7211     1
   7208   7212     1
   7209   7229     1
   7209   7219     1
   7209   7211     1
   7209   7212     1
   7210   7229     1
   7211   7228     1
   7211   7220     1
   7211   7221     1
   7212   7228     1
   7212   7220     1
   7212   7221     1
   7213   7229     1
   7214  13793     1
   7214   7226     1
   7214   7227     1
   7215  13793     1
   7215   7226     1
   7215   7227     1
   7216   7229     1
   7217  13770     1
   7217   7223     1
   7217   7224     1
   7218  13770     1
   7218   7223     1
   7218   7224     1
   7222  13769     1
   7223  13766     1
   7224  13766     1
   7225  13792     1
   7226  13789     1
   7227  13789     1
   7230   7244     1
   7230   7245     1
   7230   7247     1
   7230   7248     1
   7230   7241     1
   7230   7242     1
   7231   7235     1
   7231   7236     1
   7231   7238     1
   7231   7239     1
   7231   7256     1
   7231   7257     1
   7232   7234     1
   7232   7237     1
   7232   7259     1
   7232   7255     1
   7232   7244     1
   7232   7245     1
   7233   7234     1
   7233   7237     1
   7233   7259     1
   7233   7255     1
   7233   7244     1
   7233   7245     1
   7234   7238     1
   7234   7239     1
   7234   7253     1
   7234   7254     1
   7235   7237     1
   7235   7259     1
   7235   7252     1
   7235   7247     1
   7235   7248     1
   7236   7237     1
   7236   7259     1
   7236   7252     1
   7236   7247     1
   7236   7248     1
   7237   7250     1
   7237   7251     1
   7238   7259     1
   7238   7249     1
   7238   7241     1
   7238   7242     1
   7239   7259     1
   7239   7249     1
   7239   7241     1
   7239   7242     1
   7240   7259     1
   7241   7258     1
   7241   7250     1
   7241   7251     1
   7242   7258     1
   7242   7250     1
   7242   7251     1
   7243   7259     1
   7244  13839     1
   7244   7256     1
   7244   7257     1
   7245  13839     1
   7245   7256     1
   7245   7257     1
   7246   7259     1
   7247  13816     1
   7247   7253     1
   7247   7254     1
   7248  13816     1
   7248   7253     1
   7248   7254     1
   7252  13815     1
   7253  13812     1
   7254  13812     1
   7255  13838     1
   7256  13835     1
   7257  13835     1
   7260   7274     1
   7260   7275     1
   7260   7277     1
   7260   7278     1
   7260   7271     1
   7260   7272     1
   7261   7265     1
   7261   7266     1
   7261   7268     1
   7261   7269     1
   7261   7286     1
   7261   7287     1
   7262   7264     1
   7262   7267     1
   7262   7289     1
   7262   7285     1
   7262   7274     1
   7262   7275     1
   7263   7264     1
   7263   7267     1
   7263   7289     1
   7263   7285     1
   7263   7274     1
   7263   7275     1
   7264   7268     1
   7264   7269     1
   7264   7283     1
   7264   7284     1
   7265   7267     1
   7265   7289     1
   7265   7282     1
   7265   7277     1
   7265   7278     1
   7266   7267     1
   7266   7289     1
   7266   7282     1
   7266   7277     1
   7266   7278     1
   7267   7280     1
   7267   7281     1
   7268   7289     1
   7268   7279     1
   7268   7271     1
   7268   7272     1
   7269   7289     1
   7269   7279     1
   7269   7271     1
   7269   7272     1
   7270   7289     1
   7271   7288     1
   7271   7280     1
   7271   7281     1
   7272   7288     1
   7272   7280     1
   7272   7281     1
   7273   7289     1
   7274  13885     1
   7274   7286     1
   7274   7287     1
   7275  13885     1
   7275   7286     1
   7275   7287     1
   7276   7289     1
   7277  13862     1
   7277   7283     1
   7277   7284     1
   7278  13862     1
   7278   7283     1
   7278   7284     1
   7282  13861     1
   7283  13858     1
   7284  13858     1
   7285  13884     1
   7286  13881     1
   7287  13881     1
   7290   7304     1
   7290   7305     1
   7290   7307     1
   7290   7308     1
   7290   7301     1
   7290   7302     1
   7291   7295     1
   7291   7296     1
   7291   7298     1
   7291   7299     1
   7291   7316     1
   7291   7317     1
   7292   7294     1
   7292   7297     1
   7292   7319     1
   7292   7315     1
   7292   7304     1
   7292   7305     1
   7293   7294     1
   7293   7297     1
   7293   7319     1
   7293   7315     1
   7293   7304     1
   7293   7305     1
   7294   7298     1
   7294   7299     1
   7294   7313     1
   7294   7314     1
   7295   7297     1
   7295   7319     1
   7295   7312     1
   7295   7307     1
   7295   7308     1
   7296   7297     1
   7296   7319     1
   7296   7312     1
   7296   7307     1
   7296   7308     1
   7297   7310     1
   7297   7311     1
   7298   7319     1
   7298   7309     1
   7298   7301     1
   7298   7302     1
   7299   7319     1
   7299   7309     1
   7299   7301     1
   7299   7302     1
   7300   7319     1
   7301   7318     1
   7301   7310     1
   7301   7311     1
   7302   7318     1
   7302   7310     1
   7302   7311     1
   7303   7319     1
   7304  13931     1
   7304   7316     1
   7304   7317     1
   7305  13931     1
   7305   7316     1
   7305   7317     1
   7306   7319     1
   7307  13908     1
   7307   7313     1
   7307   7314     1
   7308  13908     1
   7308   7313     1
   7308   7314     1
   7312  13907     1
   7313  13904     1
   7314  13904     1
   7315  13930     1
   7316  13927     1
   7317  13927     1
   7320   7334     1
   7320   7335     1
   7320   7337     1
   7320   7338     1
   7320   7331     1
   7320   7332     1
   7321   7325     1
   7321   7326     1
   7321   7328     1
   7321   7329     1
   7321   7346     1
   7321   7347     1
   7322   7324     1
   7322   7327     1
   7322   7349     1
   7322   7345     1
   7322   7334     1
   7322   7335     1
   7323   7324     1
   7323   7327     1
   7323   7349     1
   7323   7345     1
   7323   7334     1
   7323   7335     1
   7324   7328     1
   7324   7329     1
   7324   7343     1
   7324   7344     1
   7325   7327     1
   7325   7349     1
   7325   7342     1
   7325   7337     1
   7325   7338     1
   7326   7327     1
   7326   7349     1
   7326   7342     1
   7326   7337     1
   7326   7338     1
   7327   7340     1
   7327   7341     1
   7328   7349     1
   7328   7339     1
   7328   7331     1
   7328   7332     1
   7329   7349     1
   7329   7339     1
   7329   7331     1
   7329   7332     1
   7330   7349     1
   7331   7348     1
   7331   7340     1
   7331   7341     1
   7332   7348     1
   7332   7340     1
   7332   7341     1
   7333   7349     1
   7334  13977     1
   7334   7346     1
   7334   7347     1
   7335  13977     1
   7335   7346     1
   7335   7347     1
   7336   7349     1
   7337  13954     1
   7337   7343     1
   7337   7344     1
   7338  13954     1
   7338   7343     1
   7338   7344     1
   7342  13953     1
   7343  13950     1
   7344  13950     1
   7345  13976     1
   7346  13973     1
   7347  13973     1
   7350   7364     1
   7350   7365     1
   7350   7367     1
   7350   7368     1
   7350   7361     1
   7350   7362     1
   7351   7355     1
   7351   7356     1
   7351   7358     1
   7351   7359     1
   7351   7376     1
   7351   7377     1
   7352   7354     1
   7352   7357     1
   7352   7379     1
   7352   7375     1
   7352   7364     1
   7352   7365     1
   7353   7354     1
   7353   7357     1
   7353   7379     1
   7353   7375     1
   7353   7364     1
   7353   7365     1
   7354   7358     1
   7354   7359     1
   7354   7373     1
   7354   7374     1
   7355   7357     1
   7355   7379     1
   7355   7372     1
   7355   7367     1
   7355   7368     1
   7356   7357     1
   7356   7379     1
   7356   7372     1
   7356   7367     1
   7356   7368     1
   7357   7370     1
   7357   7371     1
   7358   7379     1
   7358   7369     1
   7358   7361     1
   7358   7362     1
   7359   7379     1
   7359   7369     1
   7359   7361     1
   7359   7362     1
   7360   7379     1
   7361   7378     1
   7361   7370     1
   7361   7371     1
   7362   7378     1
   7362   7370     1
   7362   7371     1
   7363   7379     1
   7364  14023     1
   7364   7376     1
   7364   7377     1
   7365  14023     1
   7365   7376     1
   7365   7377     1
   7366   7379     1
   7367  14000     1
   7367   7373     1
   7367   7374     1
   7368  14000     1
   7368   7373     1
   7368   7374     1
   7372  13999     1
   7373  13996     1
   7374  13996     1
   7375  14022     1
   7376  14019     1
   7377  14019     1
   7380   7394     1
   7380   7395     1
   7380   7397     1
   7380   7398     1
   7380   7391     1
   7380   7392     1
   7381   7385     1
   7381   7386     1
   7381   7388     1
   7381   7389     1
   7381   7406     1
   7381   7407     1
   7382   7384     1
   7382   7387     1
   7382   7409     1
   7382   7405     1
   7382   7394     1
   7382   7395     1
   7383   7384     1
   7383   7387     1
   7383   7409     1
   7383   7405     1
   7383   7394     1
   7383   7395     1
   7384   7388     1
   7384   7389     1
   7384   7403     1
   7384   7404     1
   7385   7387     1
   7385   7409     1
   7385   7402     1
   7385   7397     1
   7385   7398     1
   7386   7387     1
   7386   7409     1
   7386   7402     1
   7386   7397     1
   7386   7398     1
   7387   7400     1
   7387   7401     1
   7388   7409     1
   7388   7399     1
   7388   7391     1
   7388   7392     1
   7389   7409     1
   7389   7399     1
   7389   7391     1
   7389   7392     1
   7390   7409     1
   7391   7408     1
   7391   7400     1
   7391   7401     1
   7392   7408     1
   7392   7400     1
   7392   7401     1
   7393   7409     1
   7394  14069     1
   7394   7406     1
   7394   7407     1
   7395  14069     1
   7395   7406     1
   7395   7407     1
   7396   7409     1
   7397  14046     1
   7397   7403     1
   7397   7404     1
   7398  14046     1
   7398   7403     1
   7398   7404     1
   7402  14045     1
   7403  14042     1
   7404  14042     1
   7405  14068     1
   7406  14065     1
   7407  14065     1
   7410   7424     1
   7410   7425     1
   7410   7427     1
   7410   7428     1
   7410   7421     1
   7410   7422     1
   7411   7415     1
   7411   7416     1
   7411   7418     1
   7411   7419     1
   7411   7436     1
   7411   7437     1
   7412   7414     1
   7412   7417     1
   7412   7439     1
   7412   7435     1
   7412   7424     1
   7412   7425     1
   7413   7414     1
   7413   7417     1
   7413   7439     1
   7413   7435     1
   7413   7424     1
   7413   7425     1
   7414   7418     1
   7414   7419     1
   7414   7433     1
   7414   7434     1
   7415   7417     1
   7415   7439     1
   7415   7432     1
   7415   7427     1
   7415   7428     1
   7416   7417     1
   7416   7439     1
   7416   7432     1
   7416   7427     1
   7416   7428     1
   7417   7430     1
   7417   7431     1
   7418   7439     1
   7418   7429     1
   7418   7421     1
   7418   7422     1
   7419   7439     1
   7419   7429     1
   7419   7421     1
   7419   7422     1
   7420   7439     1
   7421   7438     1
   7421   7430     1
   7421   7431     1
   7422   7438     1
   7422   7430     1
   7422   7431     1
   7423   7439     1
   7424  14115     1
   7424   7436     1
   7424   7437     1
   7425  14115     1
   7425   7436     1
   7425   7437     1
   7426   7439     1
   7427  14092     1
   7427   7433     1
   7427   7434     1
   7428  14092     1
   7428   7433     1
   7428   7434     1
   7432  14091     1
   7433  14088     1
   7434  14088     1
   7435  14114     1
   7436  14111     1
   7437  14111     1
   7440   7454     1
   7440   7455     1
   7440   7457     1
   7440   7458     1
   7440   7451     1
   7440   7452     1
   7441   7445     1
   7441   7446     1
   7441   7448     1
   7441   7449     1
   7441   7466     1
   7441   7467     1
   7442   7444     1
   7442   7447     1
   7442   7469     1
   7442   7465     1
   7442   7454     1
   7442   7455     1
   7443   7444     1
   7443   7447     1
   7443   7469     1
   7443   7465     1
   7443   7454     1
   7443   7455     1
   7444   7448     1
   7444   7449     1
   7444   7463     1
   7444   7464     1
   7445   7447     1
   7445   7469     1
   7445   7462     1
   7445   7457     1
   7445   7458     1
   7446   7447     1
   7446   7469     1
   7446   7462     1
   7446   7457     1
   7446   7458     1
   7447   7460     1
   7447   7461     1
   7448   7469     1
   7448   7459     1
   7448   7451     1
   7448   7452     1
   7449   7469     1
   7449   7459     1
   7449   7451     1
   7449   7452     1
   7450   7469     1
   7451   7468     1
   7451   7460     1
   7451   7461     1
   7452   7468     1
   7452   7460     1
   7452   7461     1
   7453   7469     1
   7454  14161     1
   7454   7466     1
   7454   7467     1
   7455  14161     1
   7455   7466     1
   7455   7467     1
   7456   7469     1
   7457  14138     1
   7457   7463     1
   7457   7464     1
   7458  14138     1
   7458   7463     1
   7458   7464     1
   7462  14137     1
   7463  14134     1
   7464  14134     1
   7465  14160     1
   7466  14157     1
   7467  14157     1
   7470   7484     1
   7470   7485     1
   7470   7487     1
   7470   7488     1
   7470   7481     1
   7470   7482     1
   7471   7475     1
   7471   7476     1
   7471   7478     1
   7471   7479     1
   7471   7496     1
   7471   7497     1
   7472   7474     1
   7472   7477     1
   7472   7499     1
   7472   7495     1
   7472   7484     1
   7472   7485     1
   7473   7474     1
   7473   7477     1
   7473   7499     1
   7473   7495     1
   7473   7484     1
   7473   7485     1
   7474   7478     1
   7474   7479     1
   7474   7493     1
   7474   7494     1
   7475   7477     1
   7475   7499     1
   7475   7492     1
   7475   7487     1
   7475   7488     1
   7476   7477     1
   7476   7499     1
   7476   7492     1
   7476   7487     1
   7476   7488     1
   7477   7490     1
   7477   7491     1
   7478   7499     1
   7478   7489     1
   7478   7481     1
   7478   7482     1
   7479   7499     1
   7479   7489     1
   7479   7481     1
   7479   7482     1
   7480   7499     1
   7481   7498     1
   7481   7490     1
   7481   7491     1
   7482   7498     1
   7482   7490     1
   7482   7491     1
   7483   7499     1
   7484  14207     1
   7484   7496     1
   7484   7497     1
   7485  14207     1
   7485   7496     1
   7485   7497     1
   7486   7499     1
   7487  14184     1
   7487   7493     1
   7487   7494     1
   7488  14184     1
   7488   7493     1
   7488   7494     1
   7492  14183     1
   7493  14180     1
   7494  14180     1
   7495  14206     1
   7496  14203     1
   7497  14203     1
   7500   7514     1
   7500   7515     1
   7500   7517     1
   7500   7518     1
   7500   7511     1
   7500   7512     1
   7501   7505     1
   7501   7506     1
   7501   7508     1
   7501   7509     1
   7501   7526     1
   7501   7527     1
   7502   7504     1
   7502   7507     1
   7502   7529     1
   7502   7525     1
   7502   7514     1
   7502   7515     1
   7503   7504     1
   7503   7507     1
   7503   7529     1
   7503   7525     1
   7503   7514     1
   7503   7515     1
   7504   7508     1
   7504   7509     1
   7504   7523     1
   7504   7524     1
   7505   7507     1
   7505   7529     1
   7505   7522     1
   7505   7517     1
   7505   7518     1
   7506   7507     1
   7506   7529     1
   7506   7522     1
   7506   7517     1
   7506   7518     1
   7507   7520     1
   7507   7521     1
   7508   7529     1
   7508   7519     1
   7508   7511     1
   7508   7512     1
   7509   7529     1
   7509   7519     1
   7509   7511     1
   7509   7512     1
   7510   7529     1
   7511   7528     1
   7511   7520     1
   7511   7521     1
   7512   7528     1
   7512   7520     1
   7512   7521     1
   7513   7529     1
   7514  14253     1
   7514   7526     1
   7514   7527     1
   7515  14253     1
   7515   7526     1
   7515   7527     1
   7516   7529     1
   7517  14230     1
   7517   7523     1
   7517   7524     1
   7518  14230     1
   7518   7523     1
   7518   7524     1
   7522  14229     1
   7523  14226     1
   7524  14226     1
   7525  14252     1
   7526  14249     1
   7527  14249     1
   7530   7544     1
   7530   7545     1
   7530   7547     1
   7530   7548     1
   7530   7541     1
   7530   7542     1
   7531   7535     1
   7531   7536     1
   7531   7538     1
   7531   7539     1
   7531   7556     1
   7531   7557     1
   7532   7534     1
   7532   7537     1
   7532   7559     1
   7532   7555     1
   7532   7544     1
   7532   7545     1
   7533   7534     1
   7533   7537     1
   7533   7559     1
   7533   7555     1
   7533   7544     1
   7533   7545     1
   7534   7538     1
   7534   7539     1
   7534   7553     1
   7534   7554     1
   7535   7537     1
   7535   7559     1
   7535   7552     1
   7535   7547     1
   7535   7548     1
   7536   7537     1
   7536   7559     1
   7536   7552     1
   7536   7547     1
   7536   7548     1
   7537   7550     1
   7537   7551     1
   7538   7559     1
   7538   7549     1
   7538   7541     1
   7538   7542     1
   7539   7559     1
   7539   7549     1
   7539   7541     1
   7539   7542     1
   7540   7559     1
   7541   7558     1
   7541   7550     1
   7541   7551     1
   7542   7558     1
   7542   7550     1
   7542   7551     1
   7543   7559     1
   7544  14299     1
   7544   7556     1
   7544   7557     1
   7545  14299     1
   7545   7556     1
   7545   7557     1
   7546   7559     1
   7547  14276     1
   7547   7553     1
   7547   7554     1
   7548  14276     1
   7548   7553     1
   7548   7554     1
   7552  14275     1
   7553  14272     1
   7554  14272     1
   7555  14298     1
   7556  14295     1
   7557  14295     1
   7560   7574     1
   7560   7575     1
   7560   7577     1
   7560   7578     1
   7560   7571     1
   7560   7572     1
   7561   7565     1
   7561   7566     1
   7561   7568     1
   7561   7569     1
   7561   7586     1
   7561   7587     1
   7562   7564     1
   7562   7567     1
   7562   7589     1
   7562   7585     1
   7562   7574     1
   7562   7575     1
   7563   7564     1
   7563   7567     1
   7563   7589     1
   7563   7585     1
   7563   7574     1
   7563   7575     1
   7564   7568     1
   7564   7569     1
   7564   7583     1
   7564   7584     1
   7565   7567     1
   7565   7589     1
   7565   7582     1
   7565   7577     1
   7565   7578     1
   7566   7567     1
   7566   7589     1
   7566   7582     1
   7566   7577     1
   7566   7578     1
   7567   7580     1
   7567   7581     1
   7568   7589     1
   7568   7579     1
   7568   7571     1
   7568   7572     1
   7569   7589     1
   7569   7579     1
   7569   7571     1
   7569   7572     1
   7570   7589     1
   7571   7588     1
   7571   7580     1
   7571   7581     1
   7572   7588     1
   7572   7580     1
   7572   7581     1
   7573   7589     1
   7574  14345     1
   7574   7586     1
   7574   7587     1
   7575  14345     1
   7575   7586     1
   7575   7587     1
   7576   7589     1
   7577  14322     1
   7577   7583     1
   7577   7584     1
   7578  14322     1
   7578   7583     1
   7578   7584     1
   7582  14321     1
   7583  14318     1
   7584  14318     1
   7585  14344     1
   7586  14341     1
   7587  14341     1
   7590   7604     1
   7590   7605     1
   7590   7607     1
   7590   7608     1
   7590   7601     1
   7590   7602     1
   7591   7595     1
   7591   7596     1
   7591   7598     1
   7591   7599     1
   7591   7616     1
   7591   7617     1
   7592   7594     1
   7592   7597     1
   7592   7619     1
   7592   7615     1
   7592   7604     1
   7592   7605     1
   7593   7594     1
   7593   7597     1
   7593   7619     1
   7593   7615     1
   7593   7604     1
   7593   7605     1
   7594   7598     1
   7594   7599     1
   7594   7613     1
   7594   7614     1
   7595   7597     1
   7595   7619     1
   7595   7612     1
   7595   7607     1
   7595   7608     1
   7596   7597     1
   7596   7619     1
   7596   7612     1
   7596   7607     1
   7596   7608     1
   7597   7610     1
   7597   7611     1
   7598   7619     1
   7598   7609     1
   7598   7601     1
   7598   7602     1
   7599   7619     1
   7599   7609     1
   7599   7601     1
   7599   7602     1
   7600   7619     1
   7601   7618     1
   7601   7610     1
   7601   7611     1
   7602   7618     1
   7602   7610     1
   7602   7611     1
   7603   7619     1
   7604  14391     1
   7604   7616     1
   7604   7617     1
   7605  14391     1
   7605   7616     1
   7605   7617     1
   7606   7619     1
   7607  14368     1
   7607   7613     1
   7607   7614     1
   7608  14368     1
   7608   7613     1
   7608   7614     1
   7612  14367     1
   7613  14364     1
   7614  14364     1
   7615  14390     1
   7616  14387     1
   7617  14387     1
   7620   7634     1
   7620   7635     1
   7620   7637     1
   7620   7638     1
   7620   7631     1
   7620   7632     1
   7621   7625     1
   7621   7626     1
   7621   7628     1
   7621   7629     1
   7621   7646     1
   7621   7647     1
   7622   7624     1
   7622   7627     1
   7622   7649     1
   7622   7645     1
   7622   7634     1
   7622   7635     1
   7623   7624     1
   7623   7627     1
   7623   7649     1
   7623   7645     1
   7623   7634     1
   7623   7635     1
   7624   7628     1
   7624   7629     1
   7624   7643     1
   7624   7644     1
   7625   7627     1
   7625   7649     1
   7625   7642     1
   7625   7637     1
   7625   7638     1
   7626   7627     1
   7626   7649     1
   7626   7642     1
   7626   7637     1
   7626   7638     1
   7627   7640     1
   7627   7641     1
   7628   7649     1
   7628   7639     1
   7628   7631     1
   7628   7632     1
   7629   7649     1
   7629   7639     1
   7629   7631     1
   7629   7632     1
   7630   7649     1
   7631   7648     1
   7631   7640     1
   7631   7641     1
   7632   7648     1
   7632   7640     1
   7632   7641     1
   7633   7649     1
   7634  14437     1
   7634   7646     1
   7634   7647     1
   7635  14437     1
   7635   7646     1
   7635   7647     1
   7636   7649     1
   7637  14414     1
   7637   7643     1
   7637   7644     1
   7638  14414     1
   7638   7643     1
   7638   7644     1
   7642  14413     1
   7643  14410     1
   7644  14410     1
   7645  14436     1
   7646  14433     1
   7647  14433     1
   7650   7664     1
   7650   7665     1
   7650   7667     1
   7650   7668     1
   7650   7661     1
   7650   7662     1
   7651   7655     1
   7651   7656     1
   7651   7658     1
   7651   7659     1
   7651   7676     1
   7651   7677     1
   7652   7654     1
   7652   7657     1
   7652   7679     1
   7652   7675     1
   7652   7664     1
   7652   7665     1
   7653   7654     1
   7653   7657     1
   7653   7679     1
   7653   7675     1
   7653   7664     1
   7653   7665     1
   7654   7658     1
   7654   7659     1
   7654   7673     1
   7654   7674     1
   7655   7657     1
   7655   7679     1
   7655   7672     1
   7655   7667     1
   7655   7668     1
   7656   7657     1
   7656   7679     1
   7656   7672     1
   7656   7667     1
   7656   7668     1
   7657   7670     1
   7657   7671     1
   7658   7679     1
   7658   7669     1
   7658   7661     1
   7658   7662     1
   7659   7679     1
   7659   7669     1
   7659   7661     1
   7659   7662     1
   7660   7679     1
   7661   7678     1
   7661   7670     1
   7661   7671     1
   7662   7678     1
   7662   7670     1
   7662   7671     1
   7663   7679     1
   7664  14483     1
   7664   7676     1
   7664   7677     1
   7665  14483     1
   7665   7676     1
   7665   7677     1
   7666   7679     1
   7667  14460     1
   7667   7673     1
   7667   7674     1
   7668  14460     1
   7668   7673     1
   7668   7674     1
   7672  14459     1
   7673  14456     1
   7674  14456     1
   7675  14482     1
   7676  14479     1
   7677  14479     1
   7680   7694     1
   7680   7695     1
   7680   7697     1
   7680   7698     1
   7680   7691     1
   7680   7692     1
   7681   7685     1
   7681   7686     1
   7681   7688     1
   7681   7689     1
   7681   7706     1
   7681   7707     1
   7682   7684     1
   7682   7687     1
   7682   7709     1
   7682   7705     1
   7682   7694     1
   7682   7695     1
   7683   7684     1
   7683   7687     1
   7683   7709     1
   7683   7705     1
   7683   7694     1
   7683   7695     1
   7684   7688     1
   7684   7689     1
   7684   7703     1
   7684   7704     1
   7685   7687     1
   7685   7709     1
   7685   7702     1
   7685   7697     1
   7685   7698     1
   7686   7687     1
   7686   7709     1
   7686   7702     1
   7686   7697     1
   7686   7698     1
   7687   7700     1
   7687   7701     1
   7688   7709     1
   7688   7699     1
   7688   7691     1
   7688   7692     1
   7689   7709     1
   7689   7699     1
   7689   7691     1
   7689   7692     1
   7690   7709     1
   7691   7708     1
   7691   7700     1
   7691   7701     1
   7692   7708     1
   7692   7700     1
   7692   7701     1
   7693   7709     1
   7694  14529     1
   7694   7706     1
   7694   7707     1
   7695  14529     1
   7695   7706     1
   7695   7707     1
   7696   7709     1
   7697  14506     1
   7697   7703     1
   7697   7704     1
   7698  14506     1
   7698   7703     1
   7698   7704     1
   7702  14505     1
   7703  14502     1
   7704  14502     1
   7705  14528     1
   7706  14525     1
   7707  14525     1
   7710   7724     1
   7710   7725     1
   7710   7727     1
   7710   7728     1
   7710   7721     1
   7710   7722     1
   7711   7715     1
   7711   7716     1
   7711   7718     1
   7711   7719     1
   7711   7736     1
   7711   7737     1
   7712   7714     1
   7712   7717     1
   7712   7739     1
   7712   7735     1
   7712   7724     1
   7712   7725     1
   7713   7714     1
   7713   7717     1
   7713   7739     1
   7713   7735     1
   7713   7724     1
   7713   7725     1
   7714   7718     1
   7714   7719     1
   7714   7733     1
   7714   7734     1
   7715   7717     1
   7715   7739     1
   7715   7732     1
   7715   7727     1
   7715   7728     1
   7716   7717     1
   7716   7739     1
   7716   7732     1
   7716   7727     1
   7716   7728     1
   7717   7730     1
   7717   7731     1
   7718   7739     1
   7718   7729     1
   7718   7721     1
   7718   7722     1
   7719   7739     1
   7719   7729     1
   7719   7721     1
   7719   7722     1
   7720   7739     1
   7721   7738     1
   7721   7730     1
   7721   7731     1
   7722   7738     1
   7722   7730     1
   7722   7731     1
   7723   7739     1
   7724  14575     1
   7724   7736     1
   7724   7737     1
   7725  14575     1
   7725   7736     1
   7725   7737     1
   7726   7739     1
   7727  14552     1
   7727   7733     1
   7727   7734     1
   7728  14552     1
   7728   7733     1
   7728   7734     1
   7732  14551     1
   7733  14548     1
   7734  14548     1
   7735  14574     1
   7736  14571     1
   7737  14571     1
   7740   7754     1
   7740   7755     1
   7740   7757     1
   7740   7758     1
   7740   7751     1
   7740   7752     1
   7741   7745     1
   7741   7746     1
   7741   7748     1
   7741   7749     1
   7741   7766     1
   7741   7767     1
   7742   7744     1
   7742   7747     1
   7742   7769     1
   7742   7765     1
   7742   7754     1
   7742   7755     1
   7743   7744     1
   7743   7747     1
   7743   7769     1
   7743   7765     1
   7743   7754     1
   7743   7755     1
   7744   7748     1
   7744   7749     1
   7744   7763     1
   7744   7764     1
   7745   7747     1
   7745   7769     1
   7745   7762     1
   7745   7757     1
   7745   7758     1
   7746   7747     1
   7746   7769     1
   7746   7762     1
   7746   7757     1
   7746   7758     1
   7747   7760     1
   7747   7761     1
   7748   7769     1
   7748   7759     1
   7748   7751     1
   7748   7752     1
   7749   7769     1
   7749   7759     1
   7749   7751     1
   7749   7752     1
   7750   7769     1
   7751   7768     1
   7751   7760     1
   7751   7761     1
   7752   7768     1
   7752   7760     1
   7752   7761     1
   7753   7769     1
   7754  14621     1
   7754   7766     1
   7754   7767     1
   7755  14621     1
   7755   7766     1
   7755   7767     1
   7756   7769     1
   7757  14598     1
   7757   7763     1
   7757   7764     1
   7758  14598     1
   7758   7763     1
   7758   7764     1
   7762  14597     1
   7763  14594     1
   7764  14594     1
   7765  14620     1
   7766  14617     1
   7767  14617     1
   7770   7784     1
   7770   7785     1
   7770   7787     1
   7770   7788     1
   7770   7781     1
   7770   7782     1
   7771   7775     1
   7771   7776     1
   7771   7778     1
   7771   7779     1
   7771   7796     1
   7771   7797     1
   7772   7774     1
   7772   7777     1
   7772   7799     1
   7772   7795     1
   7772   7784     1
   7772   7785     1
   7773   7774     1
   7773   7777     1
   7773   7799     1
   7773   7795     1
   7773   7784     1
   7773   7785     1
   7774   7778     1
   7774   7779     1
   7774   7793     1
   7774   7794     1
   7775   7777     1
   7775   7799     1
   7775   7792     1
   7775   7787     1
   7775   7788     1
   7776   7777     1
   7776   7799     1
   7776   7792     1
   7776   7787     1
   7776   7788     1
   7777   7790     1
   7777   7791     1
   7778   7799     1
   7778   7789     1
   7778   7781     1
   7778   7782     1
   7779   7799     1
   7779   7789     1
   7779   7781     1
   7779   7782     1
   7780   7799     1
   7781   7798     1
   7781   7790     1
   7781   7791     1
   7782   7798     1
   7782   7790     1
   7782   7791     1
   7783   7799     1
   7784  14667     1
   7784   7796     1
   7784   7797     1
   7785  14667     1
   7785   7796     1
   7785   7797     1
   7786   7799     1
   7787  14644     1
   7787   7793     1
   7787   7794     1
   7788  14644     1
   7788   7793     1
   7788   7794     1
   7792  14643     1
   7793  14640     1
   7794  14640     1
   7795  14666     1
   7796  14663     1
   7797  14663     1
   7800   7814     1
   7800   7815     1
   7800   7817     1
   7800   7818     1
   7800   7811     1
   7800   7812     1
   7801   7805     1
   7801   7806     1
   7801   7808     1
   7801   7809     1
   7801   7826     1
   7801   7827     1
   7802   7804     1
   7802   7807     1
   7802   7829     1
   7802   7825     1
   7802   7814     1
   7802   7815     1
   7803   7804     1
   7803   7807     1
   7803   7829     1
   7803   7825     1
   7803   7814     1
   7803   7815     1
   7804   7808     1
   7804   7809     1
   7804   7823     1
   7804   7824     1
   7805   7807     1
   7805   7829     1
   7805   7822     1
   7805   7817     1
   7805   7818     1
   7806   7807     1
   7806   7829     1
   7806   7822     1
   7806   7817     1
   7806   7818     1
   7807   7820     1
   7807   7821     1
   7808   7829     1
   7808   7819     1
   7808   7811     1
   7808   7812     1
   7809   7829     1
   7809   7819     1
   7809   7811     1
   7809   7812     1
   7810   7829     1
   7811   7828     1
   7811   7820     1
   7811   7821     1
   7812   7828     1
   7812   7820     1
   7812   7821     1
   7813   7829     1
   7814  14713     1
   7814   7826     1
   7814   7827     1
   7815  14713     1
   7815   7826     1
   7815   7827     1
   7816   7829     1
   7817  14690     1
   7817   7823     1
   7817   7824     1
   7818  14690     1
   7818   7823     1
   7818   7824     1
   7822  14689     1
   7823  14686     1
   7824  14686     1
   7825  14712     1
   7826  14709     1
   7827  14709     1
   7830   7844     1
   7830   7845     1
   7830   7847     1
   7830   7848     1
   7830   7841     1
   7830   7842     1
   7831   7835     1
   7831   7836     1
   7831   7838     1
   7831   7839     1
   7831   7856     1
   7831   7857     1
   7832   7834     1
   7832   7837     1
   7832   7859     1
   7832   7855     1
   7832   7844     1
   7832   7845     1
   7833   7834     1
   7833   7837     1
   7833   7859     1
   7833   7855     1
   7833   7844     1
   7833   7845     1
   7834   7838     1
   7834   7839     1
   7834   7853     1
   7834   7854     1
   7835   7837     1
   7835   7859     1
   7835   7852     1
   7835   7847     1
   7835   7848     1
   7836   7837     1
   7836   7859     1
   7836   7852     1
   7836   7847     1
   7836   7848     1
   7837   7850     1
   7837   7851     1
   7838   7859     1
   7838   7849     1
   7838   7841     1
   7838   7842     1
   7839   7859     1
   7839   7849     1
   7839   7841     1
   7839   7842     1
   7840   7859     1
   7841   7858     1
   7841   7850     1
   7841   7851     1
   7842   7858     1
   7842   7850     1
   7842   7851     1
   7843   7859     1
   7844  14759     1
   7844   7856     1
   7844   7857     1
   7845  14759     1
   7845   7856     1
   7845   7857     1
   7846   7859     1
   7847  14736     1
   7847   7853     1
   7847   7854     1
   7848  14736     1
   7848   7853     1
   7848   7854     1
   7852  14735     1
   7853  14732     1
   7854  14732     1
   7855  14758     1
   7856  14755     1
   7857  14755     1
   7860   7874     1
   7860   7875     1
   7860   7877     1
   7860   7878     1
   7860   7871     1
   7860   7872     1
   7861   7865     1
   7861   7866     1
   7861   7868     1
   7861   7869     1
   7861   7886     1
   7861   7887     1
   7862   7864     1
   7862   7867     1
   7862   7889     1
   7862   7885     1
   7862   7874     1
   7862   7875     1
   7863   7864     1
   7863   7867     1
   7863   7889     1
   7863   7885     1
   7863   7874     1
   7863   7875     1
   7864   7868     1
   7864   7869     1
   7864   7883     1
   7864   7884     1
   7865   7867     1
   7865   7889     1
   7865   7882     1
   7865   7877     1
   7865   7878     1
   7866   7867     1
   7866   7889     1
   7866   7882     1
   7866   7877     1
   7866   7878     1
   7867   7880     1
   7867   7881     1
   7868   7889     1
   7868   7879     1
   7868   7871     1
   7868   7872     1
   7869   7889     1
   7869   7879     1
   7869   7871     1
   7869   7872     1
   7870   7889     1
   7871   7888     1
   7871   7880     1
   7871   7881     1
   7872   7888     1
   7872   7880     1
   7872   7881     1
   7873   7889     1
   7874  14805     1
   7874   7886     1
   7874   7887     1
   7875  14805     1
   7875   7886     1
   7875   7887     1
   7876   7889     1
   7877  14782     1
   7877   7883     1
   7877   7884     1
   7878  14782     1
   7878   7883     1
   7878   7884     1
   7882  14781     1
   7883  14778     1
   7884  14778     1
   7885  14804     1
   7886  14801     1
   7887  14801     1
   7890   7904     1
   7890   7905     1
   7890   7907     1
   7890   7908     1
   7890   7901     1
   7890   7902     1
   7891   7895     1
   7891   7896     1
   7891   7898     1
   7891   7899     1
   7891   7916     1
   7891   7917     1
   7892   7894     1
   7892   7897     1
   7892   7919     1
   7892   7915     1
   7892   7904     1
   7892   7905     1
   7893   7894     1
   7893   7897     1
   7893   7919     1
   7893   7915     1
   7893   7904     1
   7893   7905     1
   7894   7898     1
   7894   7899     1
   7894   7913     1
   7894   7914     1
   7895   7897     1
   7895   7919     1
   7895   7912     1
   7895   7907     1
   7895   7908     1
   7896   7897     1
   7896   7919     1
   7896   7912     1
   7896   7907     1
   7896   7908     1
   7897   7910     1
   7897   7911     1
   7898   7919     1
   7898   7909     1
   7898   7901     1
   7898   7902     1
   7899   7919     1
   7899   7909     1
   7899   7901     1
   7899   7902     1
   7900   7919     1
   7901   7918     1
   7901   7910     1
   7901   7911     1
   7902   7918     1
   7902   7910     1
   7902   7911     1
   7903   7919     1
   7904  14851     1
   7904   7916     1
   7904   7917     1
   7905  14851     1
   7905   7916     1
   7905   7917     1
   7906   7919     1
   7907  14828     1
   7907   7913     1
   7907   7914     1
   7908  14828     1
   7908   7913     1
   7908   7914     1
   7912  14827     1
   7913  14824     1
   7914  14824     1
   7915  14850     1
   7916  14847     1
   7917  14847     1
   7920   7934     1
   7920   7935     1
   7920   7937     1
   7920   7938     1
   7920   7931     1
   7920   7932     1
   7921   7925     1
   7921   7926     1
   7921   7928     1
   7921   7929     1
   7921   7946     1
   7921   7947     1
   7922   7924     1
   7922   7927     1
   7922   7949     1
   7922   7945     1
   7922   7934     1
   7922   7935     1
   7923   7924     1
   7923   7927     1
   7923   7949     1
   7923   7945     1
   7923   7934     1
   7923   7935     1
   7924   7928     1
   7924   7929     1
   7924   7943     1
   7924   7944     1
   7925   7927     1
   7925   7949     1
   7925   7942     1
   7925   7937     1
   7925   7938     1
   7926   7927     1
   7926   7949     1
   7926   7942     1
   7926   7937     1
   7926   7938     1
   7927   7940     1
   7927   7941     1
   7928   7949     1
   7928   7939     1
   7928   7931     1
   7928   7932     1
   7929   7949     1
   7929   7939     1
   7929   7931     1
   7929   7932     1
   7930   7949     1
   7931   7948     1
   7931   7940     1
   7931   7941     1
   7932   7948     1
   7932   7940     1
   7932   7941     1
   7933   7949     1
   7934  14897     1
   7934   7946     1
   7934   7947     1
   7935  14897     1
   7935   7946     1
   7935   7947     1
   7936   7949     1
   7937  14874     1
   7937   7943     1
   7937   7944     1
   7938  14874     1
   7938   7943     1
   7938   7944     1
   7942  14873     1
   7943  14870     1
   7944  14870     1
   7945  14896     1
   7946  14893     1
   7947  14893     1
   7950   7964     1
   7950   7965     1
   7950   7967     1
   7950   7968     1
   7950   7961     1
   7950   7962     1
   7951   7955     1
   7951   7956     1
   7951   7958     1
   7951   7959     1
   7951   7976     1
   7951   7977     1
   7952   7954     1
   7952   7957     1
   7952   7979     1
   7952   7975     1
   7952   7964     1
   7952   7965     1
   7953   7954     1
   7953   7957     1
   7953   7979     1
   7953   7975     1
   7953   7964     1
   7953   7965     1
   7954   7958     1
   7954   7959     1
   7954   7973     1
   7954   7974     1
   7955   7957     1
   7955   7979     1
   7955   7972     1
   7955   7967     1
   7955   7968     1
   7956   7957     1
   7956   7979     1
   7956   7972     1
   7956   7967     1
   7956   7968     1
   7957   7970     1
   7957   7971     1
   7958   7979     1
   7958   7969     1
   7958   7961     1
   7958   7962     1
   7959   7979     1
   7959   7969     1
   7959   7961     1
   7959   7962     1
   7960   7979     1
   7961   7978     1
   7961   7970     1
   7961   7971     1
   7962   7978     1
   7962   7970     1
   7962   7971     1
   7963   7979     1
   7964  14943     1
   7964   7976     1
   7964   7977     1
   7965  14943     1
   7965   7976     1
   7965   7977     1
   7966   7979     1
   7967  14920     1
   7967   7973     1
   7967   7974     1
   7968  14920     1
   7968   7973     1
   7968   7974     1
   7972  14919     1
   7973  14916     1
   7974  14916     1
   7975  14942     1
   7976  14939     1
   7977  14939     1
   7980   7994     1
   7980   7995     1
   7980   7997     1
   7980   7998     1
   7980   7991     1
   7980   7992     1
   7981   7985     1
   7981   7986     1
   7981   7988     1
   7981   7989     1
   7981   8006     1
   7981   8007     1
   7982   7984     1
   7982   7987     1
   7982   8009     1
   7982   8005     1
   7982   7994     1
   7982   7995     1
   7983   7984     1
   7983   7987     1
   7983   8009     1
   7983   8005     1
   7983   7994     1
   7983   7995     1
   7984   7988     1
   7984   7989     1
   7984   8003     1
   7984   8004     1
   7985   7987     1
   7985   8009     1
   7985   8002     1
   7985   7997     1
   7985   7998     1
   7986   7987     1
   7986   8009     1
   7986   8002     1
   7986   7997     1
   7986   7998     1
   7987   8000     1
   7987   8001     1
   7988   8009     1
   7988   7999     1
   7988   7991     1
   7988   7992     1
   7989   8009     1
   7989   7999     1
   7989   7991     1
   7989   7992     1
   7990   8009     1
   7991   8008     1
   7991   8000     1
   7991   8001     1
   7992   8008     1
   7992   8000     1
   7992   8001     1
   7993   8009     1
   7994  14989     1
   7994   8006     1
   7994   8007     1
   7995  14989     1
   7995   8006     1
   7995   8007     1
   7996   8009     1
   7997  14966     1
   7997   8003     1
   7997   8004     1
   7998  14966     1
   7998   8003     1
   7998   8004     1
   8002  14965     1
   8003  14962     1
   8004  14962     1
   8005  14988     1
   8006  14985     1
   8007  14985     1
   8010   8024     1
   8010   8025     1
   8010   8027     1
   8010   8028     1
   8010   8021     1
   8010   8022     1
   8011   8015     1
   8011   8016     1
   8011   8018     1
   8011   8019     1
   8011   8036     1
   8011   8037     1
   8012   8014     1
   8012   8017     1
   8012   8039     1
   8012   8035     1
   8012   8024     1
   8012   8025     1
   8013   8014     1
   8013   8017     1
   8013   8039     1
   8013   8035     1
   8013   8024     1
   8013   8025     1
   8014   8018     1
   8014   8019     1
   8014   8033     1
   8014   8034     1
   8015   8017     1
   8015   8039     1
   8015   8032     1
   8015   8027     1
   8015   8028     1
   8016   8017     1
   8016   8039     1
   8016   8032     1
   8016   8027     1
   8016   8028     1
   8017   8030     1
   8017   8031     1
   8018   8039     1
   8018   8029     1
   8018   8021     1
   8018   8022     1
   8019   8039     1
   8019   8029     1
   8019   8021     1
   8019   8022     1
   8020   8039     1
   8021   8038     1
   8021   8030     1
   8021   8031     1
   8022   8038     1
   8022   8030     1
   8022   8031     1
   8023   8039     1
   8024  15035     1
   8024   8036     1
   8024   8037     1
   8025  15035     1
   8025   8036     1
   8025   8037     1
   8026   8039     1
   8027  15012     1
   8027   8033     1
   8027   8034     1
   8028  15012     1
   8028   8033     1
   8028   8034     1
   8032  15011     1
   8033  15008     1
   8034  15008     1
   8035  15034     1
   8036  15031     1
   8037  15031     1
   8040   8054     1
   8040   8055     1
   8040   8057     1
   8040   8058     1
   8040   8051     1
   8040   8052     1
   8041   8045     1
   8041   8046     1
   8041   8048     1
   8041   8049     1
   8041   8066     1
   8041   8067     1
   8042   8044     1
   8042   8047     1
   8042   8069     1
   8042   8065     1
   8042   8054     1
   8042   8055     1
   8043   8044     1
   8043   8047     1
   8043   8069     1
   8043   8065     1
   8043   8054     1
   8043   8055     1
   8044   8048     1
   8044   8049     1
   8044   8063     1
   8044   8064     1
   8045   8047     1
   8045   8069     1
   8045   8062     1
   8045   8057     1
   8045   8058     1
   8046   8047     1
   8046   8069     1
   8046   8062     1
   8046   8057     1
   8046   8058     1
   8047   8060     1
   8047   8061     1
   8048   8069     1
   8048   8059     1
   8048   8051     1
   8048   8052     1
   8049   8069     1
   8049   8059     1
   8049   8051     1
   8049   8052     1
   8050   8069     1
   8051   8068     1
   8051   8060     1
   8051   8061     1
   8052   8068     1
   8052   8060     1
   8052   8061     1
   8053   8069     1
   8054  15081     1
   8054   8066     1
   8054   8067     1
   8055  15081     1
   8055   8066     1
   8055   8067     1
   8056   8069     1
   8057  15058     1
   8057   8063     1
   8057   8064     1
   8058  15058     1
   8058   8063     1
   8058   8064     1
   8062  15057     1
   8063  15054     1
   8064  15054     1
   8065  15080     1
   8066  15077     1
   8067  15077     1
   8070   8084     1
   8070   8085     1
   8070   8087     1
   8070   8088     1
   8070   8081     1
   8070   8082     1
   8071   8075     1
   8071   8076     1
   8071   8078     1
   8071   8079     1
   8071   8096     1
   8071   8097     1
   8072   8074     1
   8072   8077     1
   8072   8099     1
   8072   8095     1
   8072   8084     1
   8072   8085     1
   8073   8074     1
   8073   8077     1
   8073   8099     1
   8073   8095     1
   8073   8084     1
   8073   8085     1
   8074   8078     1
   8074   8079     1
   8074   8093     1
   8074   8094     1
   8075   8077     1
   8075   8099     1
   8075   8092     1
   8075   8087     1
   8075   8088     1
   8076   8077     1
   8076   8099     1
   8076   8092     1
   8076   8087     1
   8076   8088     1
   8077   8090     1
   8077   8091     1
   8078   8099     1
   8078   8089     1
   8078   8081     1
   8078   8082     1
   8079   8099     1
   8079   8089     1
   8079   8081     1
   8079   8082     1
   8080   8099     1
   8081   8098     1
   8081   8090     1
   8081   8091     1
   8082   8098     1
   8082   8090     1
   8082   8091     1
   8083   8099     1
   8084  15127     1
   8084   8096     1
   8084   8097     1
   8085  15127     1
   8085   8096     1
   8085   8097     1
   8086   8099     1
   8087  15104     1
   8087   8093     1
   8087   8094     1
   8088  15104     1
   8088   8093     1
   8088   8094     1
   8092  15103     1
   8093  15100     1
   8094  15100     1
   8095  15126     1
   8096  15123     1
   8097  15123     1
   8100   8114     1
   8100   8115     1
   8100   8117     1
   8100   8118     1
   8100   8111     1
   8100   8112     1
   8101   8105     1
   8101   8106     1
   8101   8108     1
   8101   8109     1
   8101   8126     1
   8101   8127     1
   8102   8104     1
   8102   8107     1
   8102   8129     1
   8102   8125     1
   8102   8114     1
   8102   8115     1
   8103   8104     1
   8103   8107     1
   8103   8129     1
   8103   8125     1
   8103   8114     1
   8103   8115     1
   8104   8108     1
   8104   8109     1
   8104   8123     1
   8104   8124     1
   8105   8107     1
   8105   8129     1
   8105   8122     1
   8105   8117     1
   8105   8118     1
   8106   8107     1
   8106   8129     1
   8106   8122     1
   8106   8117     1
   8106   8118     1
   8107   8120     1
   8107   8121     1
   8108   8129     1
   8108   8119     1
   8108   8111     1
   8108   8112     1
   8109   8129     1
   8109   8119     1
   8109   8111     1
   8109   8112     1
   8110   8129     1
   8111   8128     1
   8111   8120     1
   8111   8121     1
   8112   8128     1
   8112   8120     1
   8112   8121     1
   8113   8129     1
   8114  15173     1
   8114   8126     1
   8114   8127     1
   8115  15173     1
   8115   8126     1
   8115   8127     1
   8116   8129     1
   8117  15150     1
   8117   8123     1
   8117   8124     1
   8118  15150     1
   8118   8123     1
   8118   8124     1
   8122  15149     1
   8123  15146     1
   8124  15146     1
   8125  15172     1
   8126  15169     1
   8127  15169     1
   8130   8144     1
   8130   8145     1
   8130   8147     1
   8130   8148     1
   8130   8141     1
   8130   8142     1
   8131   8135     1
   8131   8136     1
   8131   8138     1
   8131   8139     1
   8131   8156     1
   8131   8157     1
   8132   8134     1
   8132   8137     1
   8132   8159     1
   8132   8155     1
   8132   8144     1
   8132   8145     1
   8133   8134     1
   8133   8137     1
   8133   8159     1
   8133   8155     1
   8133   8144     1
   8133   8145     1
   8134   8138     1
   8134   8139     1
   8134   8153     1
   8134   8154     1
   8135   8137     1
   8135   8159     1
   8135   8152     1
   8135   8147     1
   8135   8148     1
   8136   8137     1
   8136   8159     1
   8136   8152     1
   8136   8147     1
   8136   8148     1
   8137   8150     1
   8137   8151     1
   8138   8159     1
   8138   8149     1
   8138   8141     1
   8138   8142     1
   8139   8159     1
   8139   8149     1
   8139   8141     1
   8139   8142     1
   8140   8159     1
   8141   8158     1
   8141   8150     1
   8141   8151     1
   8142   8158     1
   8142   8150     1
   8142   8151     1
   8143   8159     1
   8144  15219     1
   8144   8156     1
   8144   8157     1
   8145  15219     1
   8145   8156     1
   8145   8157     1
   8146   8159     1
   8147  15196     1
   8147   8153     1
   8147   8154     1
   8148  15196     1
   8148   8153     1
   8148   8154     1
   8152  15195     1
   8153  15192     1
   8154  15192     1
   8155  15218     1
   8156  15215     1
   8157  15215     1
   8160   8174     1
   8160   8175     1
   8160   8177     1
   8160   8178     1
   8160   8171     1
   8160   8172     1
   8161   8165     1
   8161   8166     1
   8161   8168     1
   8161   8169     1
   8161   8186     1
   8161   8187     1
   8162   8164     1
   8162   8167     1
   8162   8189     1
   8162   8185     1
   8162   8174     1
   8162   8175     1
   8163   8164     1
   8163   8167     1
   8163   8189     1
   8163   8185     1
   8163   8174     1
   8163   8175     1
   8164   8168     1
   8164   8169     1
   8164   8183     1
   8164   8184     1
   8165   8167     1
   8165   8189     1
   8165   8182     1
   8165   8177     1
   8165   8178     1
   8166   8167     1
   8166   8189     1
   8166   8182     1
   8166   8177     1
   8166   8178     1
   8167   8180     1
   8167   8181     1
   8168   8189     1
   8168   8179     1
   8168   8171     1
   8168   8172     1
   8169   8189     1
   8169   8179     1
   8169   8171     1
   8169   8172     1
   8170   8189     1
   8171   8188     1
   8171   8180     1
   8171   8181     1
   8172   8188     1
   8172   8180     1
   8172   8181     1
   8173   8189     1
   8174  15265     1
   8174   8186     1
   8174   8187     1
   8175  15265     1
   8175   8186     1
   8175   8187     1
   8176   8189     1
   8177  15242     1
   8177   8183     1
   8177   8184     1
   8178  15242     1
   8178   8183     1
   8178   8184     1
   8182  15241     1
   8183  15238     1
   8184  15238     1
   8185  15264     1
   8186  15261     1
   8187  15261     1
   8190   8204     1
   8190   8205     1
   8190   8207     1
   8190   8208     1
   8190   8201     1
   8190   8202     1
   8191   8195     1
   8191   8196     1
   8191   8198     1
   8191   8199     1
   8191   8216     1
   8191   8217     1
   8192   8194     1
   8192   8197     1
   8192   8219     1
   8192   8215     1
   8192   8204     1
   8192   8205     1
   8193   8194     1
   8193   8197     1
   8193   8219     1
   8193   8215     1
   8193   8204     1
   8193   8205     1
   8194   8198     1
   8194   8199     1
   8194   8213     1
   8194   8214     1
   8195   8197     1
   8195   8219     1
   8195   8212     1
   8195   8207     1
   8195   8208     1
   8196   8197     1
   8196   8219     1
   8196   8212     1
   8196   8207     1
   8196   8208     1
   8197   8210     1
   8197   8211     1
   8198   8219     1
   8198   8209     1
   8198   8201     1
   8198   8202     1
   8199   8219     1
   8199   8209     1
   8199   8201     1
   8199   8202     1
   8200   8219     1
   8201   8218     1
   8201   8210     1
   8201   8211     1
   8202   8218     1
   8202   8210     1
   8202   8211     1
   8203   8219     1
   8204  15311     1
   8204   8216     1
   8204   8217     1
   8205  15311     1
   8205   8216     1
   8205   8217     1
   8206   8219     1
   8207  15288     1
   8207   8213     1
   8207   8214     1
   8208  15288     1
   8208   8213     1
   8208   8214     1
   8212  15287     1
   8213  15284     1
   8214  15284     1
   8215  15310     1
   8216  15307     1
   8217  15307     1
   8220   8234     1
   8220   8235     1
   8220   8237     1
   8220   8238     1
   8220   8231     1
   8220   8232     1
   8221   8225     1
   8221   8226     1
   8221   8228     1
   8221   8229     1
   8221   8246     1
   8221   8247     1
   8222   8224     1
   8222   8227     1
   8222   8249     1
   8222   8245     1
   8222   8234     1
   8222   8235     1
   8223   8224     1
   8223   8227     1
   8223   8249     1
   8223   8245     1
   8223   8234     1
   8223   8235     1
   8224   8228     1
   8224   8229     1
   8224   8243     1
   8224   8244     1
   8225   8227     1
   8225   8249     1
   8225   8242     1
   8225   8237     1
   8225   8238     1
   8226   8227     1
   8226   8249     1
   8226   8242     1
   8226   8237     1
   8226   8238     1
   8227   8240     1
   8227   8241     1
   8228   8249     1
   8228   8239     1
   8228   8231     1
   8228   8232     1
   8229   8249     1
   8229   8239     1
   8229   8231     1
   8229   8232     1
   8230   8249     1
   8231   8248     1
   8231   8240     1
   8231   8241     1
   8232   8248     1
   8232   8240     1
   8232   8241     1
   8233   8249     1
   8234  15357     1
   8234   8246     1
   8234   8247     1
   8235  15357     1
   8235   8246     1
   8235   8247     1
   8236   8249     1
   8237  15334     1
   8237   8243     1
   8237   8244     1
   8238  15334     1
   8238   8243     1
   8238   8244     1
   8242  15333     1
   8243  15330     1
   8244  15330     1
   8245  15356     1
   8246  15353     1
   8247  15353     1
   8250   8264     1
   8250   8265     1
   8250   8267     1
   8250   8268     1
   8250   8261     1
   8250   8262     1
   8251   8255     1
   8251   8256     1
   8251   8258     1
   8251   8259     1
   8251   8276     1
   8251   8277     1
   8252   8254     1
   8252   8257     1
   8252   8279     1
   8252   8275     1
   8252   8264     1
   8252   8265     1
   8253   8254     1
   8253   8257     1
   8253   8279     1
   8253   8275     1
   8253   8264     1
   8253   8265     1
   8254   8258     1
   8254   8259     1
   8254   8273     1
   8254   8274     1
   8255   8257     1
   8255   8279     1
   8255   8272     1
   8255   8267     1
   8255   8268     1
   8256   8257     1
   8256   8279     1
   8256   8272     1
   8256   8267     1
   8256   8268     1
   8257   8270     1
   8257   8271     1
   8258   8279     1
   8258   8269     1
   8258   8261     1
   8258   8262     1
   8259   8279     1
   8259   8269     1
   8259   8261     1
   8259   8262     1
   8260   8279     1
   8261   8278     1
   8261   8270     1
   8261   8271     1
   8262   8278     1
   8262   8270     1
   8262   8271     1
   8263   8279     1
   8264  15403     1
   8264   8276     1
   8264   8277     1
   8265  15403     1
   8265   8276     1
   8265   8277     1
   8266   8279     1
   8267  15380     1
   8267   8273     1
   8267   8274     1
   8268  15380     1
   8268   8273     1
   8268   8274     1
   8272  15379     1
   8273  15376     1
   8274  15376     1
   8275  15402     1
   8276  15399     1
   8277  15399     1
   8280   8294     1
   8280   8295     1
   8280   8297     1
   8280   8298     1
   8280   8291     1
   8280   8292     1
   8281   8285     1
   8281   8286     1
   8281   8288     1
   8281   8289     1
   8281   8306     1
   8281   8307     1
   8282   8284     1
   8282   8287     1
   8282   8309     1
   8282   8305     1
   8282   8294     1
   8282   8295     1
   8283   8284     1
   8283   8287     1
   8283   8309     1
   8283   8305     1
   8283   8294     1
   8283   8295     1
   8284   8288     1
   8284   8289     1
   8284   8303     1
   8284   8304     1
   8285   8287     1
   8285   8309     1
   8285   8302     1
   8285   8297     1
   8285   8298     1
   8286   8287     1
   8286   8309     1
   8286   8302     1
   8286   8297     1
   8286   8298     1
   8287   8300     1
   8287   8301     1
   8288   8309     1
   8288   8299     1
   8288   8291     1
   8288   8292     1
   8289   8309     1
   8289   8299     1
   8289   8291     1
   8289   8292     1
   8290   8309     1
   8291   8308     1
   8291   8300     1
   8291   8301     1
   8292   8308     1
   8292   8300     1
   8292   8301     1
   8293   8309     1
   8294  15449     1
   8294   8306     1
   8294   8307     1
   8295  15449     1
   8295   8306     1
   8295   8307     1
   8296   8309     1
   8297  15426     1
   8297   8303     1
   8297   8304     1
   8298  15426     1
   8298   8303     1
   8298   8304     1
   8302  15425     1
   8303  15422     1
   8304  15422     1
   8305  15448     1
   8306  15445     1
   8307  15445     1
   8310   8324     1
   8310   8325     1
   8310   8327     1
   8310   8328     1
   8310   8321     1
   8310   8322     1
   8311   8315     1
   8311   8316     1
   8311   8318     1
   8311   8319     1
   8311   8336     1
   8311   8337     1
   8312   8314     1
   8312   8317     1
   8312   8339     1
   8312   8335     1
   8312   8324     1
   8312   8325     1
   8313   8314     1
   8313   8317     1
   8313   8339     1
   8313   8335     1
   8313   8324     1
   8313   8325     1
   8314   8318     1
   8314   8319     1
   8314   8333     1
   8314   8334     1
   8315   8317     1
   8315   8339     1
   8315   8332     1
   8315   8327     1
   8315   8328     1
   8316   8317     1
   8316   8339     1
   8316   8332     1
   8316   8327     1
   8316   8328     1
   8317   8330     1
   8317   8331     1
   8318   8339     1
   8318   8329     1
   8318   8321     1
   8318   8322     1
   8319   8339     1
   8319   8329     1
   8319   8321     1
   8319   8322     1
   8320   8339     1
   8321   8338     1
   8321   8330     1
   8321   8331     1
   8322   8338     1
   8322   8330     1
   8322   8331     1
   8323   8339     1
   8324  15495     1
   8324   8336     1
   8324   8337     1
   8325  15495     1
   8325   8336     1
   8325   8337     1
   8326   8339     1
   8327  15472     1
   8327   8333     1
   8327   8334     1
   8328  15472     1
   8328   8333     1
   8328   8334     1
   8332  15471     1
   8333  15468     1
   8334  15468     1
   8335  15494     1
   8336  15491     1
   8337  15491     1
   8340   8354     1
   8340   8355     1
   8340   8357     1
   8340   8358     1
   8340   8351     1
   8340   8352     1
   8341   8345     1
   8341   8346     1
   8341   8348     1
   8341   8349     1
   8341   8366     1
   8341   8367     1
   8342   8344     1
   8342   8347     1
   8342   8369     1
   8342   8365     1
   8342   8354     1
   8342   8355     1
   8343   8344     1
   8343   8347     1
   8343   8369     1
   8343   8365     1
   8343   8354     1
   8343   8355     1
   8344   8348     1
   8344   8349     1
   8344   8363     1
   8344   8364     1
   8345   8347     1
   8345   8369     1
   8345   8362     1
   8345   8357     1
   8345   8358     1
   8346   8347     1
   8346   8369     1
   8346   8362     1
   8346   8357     1
   8346   8358     1
   8347   8360     1
   8347   8361     1
   8348   8369     1
   8348   8359     1
   8348   8351     1
   8348   8352     1
   8349   8369     1
   8349   8359     1
   8349   8351     1
   8349   8352     1
   8350   8369     1
   8351   8368     1
   8351   8360     1
   8351   8361     1
   8352   8368     1
   8352   8360     1
   8352   8361     1
   8353   8369     1
   8354  15541     1
   8354   8366     1
   8354   8367     1
   8355  15541     1
   8355   8366     1
   8355   8367     1
   8356   8369     1
   8357  15518     1
   8357   8363     1
   8357   8364     1
   8358  15518     1
   8358   8363     1
   8358   8364     1
   8362  15517     1
   8363  15514     1
   8364  15514     1
   8365  15540     1
   8366  15537     1
   8367  15537     1
   8370   8384     1
   8370   8385     1
   8370   8387     1
   8370   8388     1
   8370   8381     1
   8370   8382     1
   8371   8375     1
   8371   8376     1
   8371   8378     1
   8371   8379     1
   8371   8396     1
   8371   8397     1
   8372   8374     1
   8372   8377     1
   8372   8399     1
   8372   8395     1
   8372   8384     1
   8372   8385     1
   8373   8374     1
   8373   8377     1
   8373   8399     1
   8373   8395     1
   8373   8384     1
   8373   8385     1
   8374   8378     1
   8374   8379     1
   8374   8393     1
   8374   8394     1
   8375   8377     1
   8375   8399     1
   8375   8392     1
   8375   8387     1
   8375   8388     1
   8376   8377     1
   8376   8399     1
   8376   8392     1
   8376   8387     1
   8376   8388     1
   8377   8390     1
   8377   8391     1
   8378   8399     1
   8378   8389     1
   8378   8381     1
   8378   8382     1
   8379   8399     1
   8379   8389     1
   8379   8381     1
   8379   8382     1
   8380   8399     1
   8381   8398     1
   8381   8390     1
   8381   8391     1
   8382   8398     1
   8382   8390     1
   8382   8391     1
   8383   8399     1
   8384  15587     1
   8384   8396     1
   8384   8397     1
   8385  15587     1
   8385   8396     1
   8385   8397     1
   8386   8399     1
   8387  15564     1
   8387   8393     1
   8387   8394     1
   8388  15564     1
   8388   8393     1
   8388   8394     1
   8392  15563     1
   8393  15560     1
   8394  15560     1
   8395  15586     1
   8396  15583     1
   8397  15583     1
   8400   8414     1
   8400   8415     1
   8400   8417     1
   8400   8418     1
   8400   8411     1
   8400   8412     1
   8401   8405     1
   8401   8406     1
   8401   8408     1
   8401   8409     1
   8401   8426     1
   8401   8427     1
   8402   8404     1
   8402   8407     1
   8402   8429     1
   8402   8425     1
   8402   8414     1
   8402   8415     1
   8403   8404     1
   8403   8407     1
   8403   8429     1
   8403   8425     1
   8403   8414     1
   8403   8415     1
   8404   8408     1
   8404   8409     1
   8404   8423     1
   8404   8424     1
   8405   8407     1
   8405   8429     1
   8405   8422     1
   8405   8417     1
   8405   8418     1
   8406   8407     1
   8406   8429     1
   8406   8422     1
   8406   8417     1
   8406   8418     1
   8407   8420     1
   8407   8421     1
   8408   8429     1
   8408   8419     1
   8408   8411     1
   8408   8412     1
   8409   8429     1
   8409   8419     1
   8409   8411     1
   8409   8412     1
   8410   8429     1
   8411   8428     1
   8411   8420     1
   8411   8421     1
   8412   8428     1
   8412   8420     1
   8412   8421     1
   8413   8429     1
   8414  15633     1
   8414   8426     1
   8414   8427     1
   8415  15633     1
   8415   8426     1
   8415   8427     1
   8416   8429     1
   8417  15610     1
   8417   8423     1
   8417   8424     1
   8418  15610     1
   8418   8423     1
   8418   8424     1
   8422  15609     1
   8423  15606     1
   8424  15606     1
   8425  15632     1
   8426  15629     1
   8427  15629     1
   8430   8444     1
   8430   8445     1
   8430   8447     1
   8430   8448     1
   8430   8441     1
   8430   8442     1
   8431   8435     1
   8431   8436     1
   8431   8438     1
   8431   8439     1
   8431   8456     1
   8431   8457     1
   8432   8434     1
   8432   8437     1
   8432   8459     1
   8432   8455     1
   8432   8444     1
   8432   8445     1
   8433   8434     1
   8433   8437     1
   8433   8459     1
   8433   8455     1
   8433   8444     1
   8433   8445     1
   8434   8438     1
   8434   8439     1
   8434   8453     1
   8434   8454     1
   8435   8437     1
   8435   8459     1
   8435   8452     1
   8435   8447     1
   8435   8448     1
   8436   8437     1
   8436   8459     1
   8436   8452     1
   8436   8447     1
   8436   8448     1
   8437   8450     1
   8437   8451     1
   8438   8459     1
   8438   8449     1
   8438   8441     1
   8438   8442     1
   8439   8459     1
   8439   8449     1
   8439   8441     1
   8439   8442     1
   8440   8459     1
   8441   8458     1
   8441   8450     1
   8441   8451     1
   8442   8458     1
   8442   8450     1
   8442   8451     1
   8443   8459     1
   8444  15679     1
   8444   8456     1
   8444   8457     1
   8445  15679     1
   8445   8456     1
   8445   8457     1
   8446   8459     1
   8447  15656     1
   8447   8453     1
   8447   8454     1
   8448  15656     1
   8448   8453     1
   8448   8454     1
   8452  15655     1
   8453  15652     1
   8454  15652     1
   8455  15678     1
   8456  15675     1
   8457  15675     1
   8460   8474     1
   8460   8475     1
   8460   8477     1
   8460   8478     1
   8460   8471     1
   8460   8472     1
   8461   8465     1
   8461   8466     1
   8461   8468     1
   8461   8469     1
   8461   8486     1
   8461   8487     1
   8462   8464     1
   8462   8467     1
   8462   8489     1
   8462   8485     1
   8462   8474     1
   8462   8475     1
   8463   8464     1
   8463   8467     1
   8463   8489     1
   8463   8485     1
   8463   8474     1
   8463   8475     1
   8464   8468     1
   8464   8469     1
   8464   8483     1
   8464   8484     1
   8465   8467     1
   8465   8489     1
   8465   8482     1
   8465   8477     1
   8465   8478     1
   8466   8467     1
   8466   8489     1
   8466   8482     1
   8466   8477     1
   8466   8478     1
   8467   8480     1
   8467   8481     1
   8468   8489     1
   8468   8479     1
   8468   8471     1
   8468   8472     1
   8469   8489     1
   8469   8479     1
   8469   8471     1
   8469   8472     1
   8470   8489     1
   8471   8488     1
   8471   8480     1
   8471   8481     1
   8472   8488     1
   8472   8480     1
   8472   8481     1
   8473   8489     1
   8474  15725     1
   8474   8486     1
   8474   8487     1
   8475  15725     1
   8475   8486     1
   8475   8487     1
   8476   8489     1
   8477  15702     1
   8477   8483     1
   8477   8484     1
   8478  15702     1
   8478   8483     1
   8478   8484     1
   8482  15701     1
   8483  15698     1
   8484  15698     1
   8485  15724     1
   8486  15721     1
   8487  15721     1
   8490   8504     1
   8490   8505     1
   8490   8507     1
   8490   8508     1
   8490   8501     1
   8490   8502     1
   8491   8495     1
   8491   8496     1
   8491   8498     1
   8491   8499     1
   8491   8516     1
   8491   8517     1
   8492   8494     1
   8492   8497     1
   8492   8519     1
   8492   8515     1
   8492   8504     1
   8492   8505     1
   8493   8494     1
   8493   8497     1
   8493   8519     1
   8493   8515     1
   8493   8504     1
   8493   8505     1
   8494   8498     1
   8494   8499     1
   8494   8513     1
   8494   8514     1
   8495   8497     1
   8495   8519     1
   8495   8512     1
   8495   8507     1
   8495   8508     1
   8496   8497     1
   8496   8519     1
   8496   8512     1
   8496   8507     1
   8496   8508     1
   8497   8510     1
   8497   8511     1
   8498   8519     1
   8498   8509     1
   8498   8501     1
   8498   8502     1
   8499   8519     1
   8499   8509     1
   8499   8501     1
   8499   8502     1
   8500   8519     1
   8501   8518     1
   8501   8510     1
   8501   8511     1
   8502   8518     1
   8502   8510     1
   8502   8511     1
   8503   8519     1
   8504  15771     1
   8504   8516     1
   8504   8517     1
   8505  15771     1
   8505   8516     1
   8505   8517     1
   8506   8519     1
   8507  15748     1
   8507   8513     1
   8507   8514     1
   8508  15748     1
   8508   8513     1
   8508   8514     1
   8512  15747     1
   8513  15744     1
   8514  15744     1
   8515  15770     1
   8516  15767     1
   8517  15767     1
   8520   8534     1
   8520   8535     1
   8520   8537     1
   8520   8538     1
   8520   8531     1
   8520   8532     1
   8521   8525     1
   8521   8526     1
   8521   8528     1
   8521   8529     1
   8521   8546     1
   8521   8547     1
   8522   8524     1
   8522   8527     1
   8522   8549     1
   8522   8545     1
   8522   8534     1
   8522   8535     1
   8523   8524     1
   8523   8527     1
   8523   8549     1
   8523   8545     1
   8523   8534     1
   8523   8535     1
   8524   8528     1
   8524   8529     1
   8524   8543     1
   8524   8544     1
   8525   8527     1
   8525   8549     1
   8525   8542     1
   8525   8537     1
   8525   8538     1
   8526   8527     1
   8526   8549     1
   8526   8542     1
   8526   8537     1
   8526   8538     1
   8527   8540     1
   8527   8541     1
   8528   8549     1
   8528   8539     1
   8528   8531     1
   8528   8532     1
   8529   8549     1
   8529   8539     1
   8529   8531     1
   8529   8532     1
   8530   8549     1
   8531   8548     1
   8531   8540     1
   8531   8541     1
   8532   8548     1
   8532   8540     1
   8532   8541     1
   8533   8549     1
   8534  15817     1
   8534   8546     1
   8534   8547     1
   8535  15817     1
   8535   8546     1
   8535   8547     1
   8536   8549     1
   8537  15794     1
   8537   8543     1
   8537   8544     1
   8538  15794     1
   8538   8543     1
   8538   8544     1
   8542  15793     1
   8543  15790     1
   8544  15790     1
   8545  15816     1
   8546  15813     1
   8547  15813     1
   8550   8564     1
   8550   8565     1
   8550   8567     1
   8550   8568     1
   8550   8561     1
   8550   8562     1
   8551   8555     1
   8551   8556     1
   8551   8558     1
   8551   8559     1
   8551   8576     1
   8551   8577     1
   8552   8554     1
   8552   8557     1
   8552   8579     1
   8552   8575     1
   8552   8564     1
   8552   8565     1
   8553   8554     1
   8553   8557     1
   8553   8579     1
   8553   8575     1
   8553   8564     1
   8553   8565     1
   8554   8558     1
   8554   8559     1
   8554   8573     1
   8554   8574     1
   8555   8557     1
   8555   8579     1
   8555   8572     1
   8555   8567     1
   8555   8568     1
   8556   8557     1
   8556   8579     1
   8556   8572     1
   8556   8567     1
   8556   8568     1
   8557   8570     1
   8557   8571     1
   8558   8579     1
   8558   8569     1
   8558   8561     1
   8558   8562     1
   8559   8579     1
   8559   8569     1
   8559   8561     1
   8559   8562     1
   8560   8579     1
   8561   8578     1
   8561   8570     1
   8561   8571     1
   8562   8578     1
   8562   8570     1
   8562   8571     1
   8563   8579     1
   8564  15863     1
   8564   8576     1
   8564   8577     1
   8565  15863     1
   8565   8576     1
   8565   8577     1
   8566   8579     1
   8567  15840     1
   8567   8573     1
   8567   8574     1
   8568  15840     1
   8568   8573     1
   8568   8574     1
   8572  15839     1
   8573  15836     1
   8574  15836     1
   8575  15862     1
   8576  15859     1
   8577  15859     1
   8580   8594     1
   8580   8595     1
   8580   8597     1
   8580   8598     1
   8580   8591     1
   8580   8592     1
   8581   8585     1
   8581   8586     1
   8581   8588     1
   8581   8589     1
   8581   8606     1
   8581   8607     1
   8582   8584     1
   8582   8587     1
   8582   8609     1
   8582   8605     1
   8582   8594     1
   8582   8595     1
   8583   8584     1
   8583   8587     1
   8583   8609     1
   8583   8605     1
   8583   8594     1
   8583   8595     1
   8584   8588     1
   8584   8589     1
   8584   8603     1
   8584   8604     1
   8585   8587     1
   8585   8609     1
   8585   8602     1
   8585   8597     1
   8585   8598     1
   8586   8587     1
   8586   8609     1
   8586   8602     1
   8586   8597     1
   8586   8598     1
   8587   8600     1
   8587   8601     1
   8588   8609     1
   8588   8599     1
   8588   8591     1
   8588   8592     1
   8589   8609     1
   8589   8599     1
   8589   8591     1
   8589   8592     1
   8590   8609     1
   8591   8608     1
   8591   8600     1
   8591   8601     1
   8592   8608     1
   8592   8600     1
   8592   8601     1
   8593   8609     1
   8594  15909     1
   8594   8606     1
   8594   8607     1
   8595  15909     1
   8595   8606     1
   8595   8607     1
   8596   8609     1
   8597  15886     1
   8597   8603     1
   8597   8604     1
   8598  15886     1
   8598   8603     1
   8598   8604     1
   8602  15885     1
   8603  15882     1
   8604  15882     1
   8605  15908     1
   8606  15905     1
   8607  15905     1
   8610   8624     1
   8610   8625     1
   8610   8627     1
   8610   8628     1
   8610   8621     1
   8610   8622     1
   8611   8615     1
   8611   8616     1
   8611   8618     1
   8611   8619     1
   8611   8636     1
   8611   8637     1
   8612   8614     1
   8612   8617     1
   8612   8639     1
   8612   8635     1
   8612   8624     1
   8612   8625     1
   8613   8614     1
   8613   8617     1
   8613   8639     1
   8613   8635     1
   8613   8624     1
   8613   8625     1
   8614   8618     1
   8614   8619     1
   8614   8633     1
   8614   8634     1
   8615   8617     1
   8615   8639     1
   8615   8632     1
   8615   8627     1
   8615   8628     1
   8616   8617     1
   8616   8639     1
   8616   8632     1
   8616   8627     1
   8616   8628     1
   8617   8630     1
   8617   8631     1
   8618   8639     1
   8618   8629     1
   8618   8621     1
   8618   8622     1
   8619   8639     1
   8619   8629     1
   8619   8621     1
   8619   8622     1
   8620   8639     1
   8621   8638     1
   8621   8630     1
   8621   8631     1
   8622   8638     1
   8622   8630     1
   8622   8631     1
   8623   8639     1
   8624  15955     1
   8624   8636     1
   8624   8637     1
   8625  15955     1
   8625   8636     1
   8625   8637     1
   8626   8639     1
   8627  15932     1
   8627   8633     1
   8627   8634     1
   8628  15932     1
   8628   8633     1
   8628   8634     1
   8632  15931     1
   8633  15928     1
   8634  15928     1
   8635  15954     1
   8636  15951     1
   8637  15951     1
   8640   8654     1
   8640   8655     1
   8640   8657     1
   8640   8658     1
   8640   8651     1
   8640   8652     1
   8641   8645     1
   8641   8646     1
   8641   8648     1
   8641   8649     1
   8641   8666     1
   8641   8667     1
   8642   8644     1
   8642   8647     1
   8642   8669     1
   8642   8665     1
   8642   8654     1
   8642   8655     1
   8643   8644     1
   8643   8647     1
   8643   8669     1
   8643   8665     1
   8643   8654     1
   8643   8655     1
   8644   8648     1
   8644   8649     1
   8644   8663     1
   8644   8664     1
   8645   8647     1
   8645   8669     1
   8645   8662     1
   8645   8657     1
   8645   8658     1
   8646   8647     1
   8646   8669     1
   8646   8662     1
   8646   8657     1
   8646   8658     1
   8647   8660     1
   8647   8661     1
   8648   8669     1
   8648   8659     1
   8648   8651     1
   8648   8652     1
   8649   8669     1
   8649   8659     1
   8649   8651     1
   8649   8652     1
   8650   8669     1
   8651   8668     1
   8651   8660     1
   8651   8661     1
   8652   8668     1
   8652   8660     1
   8652   8661     1
   8653   8669     1
   8654  16001     1
   8654   8666     1
   8654   8667     1
   8655  16001     1
   8655   8666     1
   8655   8667     1
   8656   8669     1
   8657  15978     1
   8657   8663     1
   8657   8664     1
   8658  15978     1
   8658   8663     1
   8658   8664     1
   8662  15977     1
   8663  15974     1
   8664  15974     1
   8665  16000     1
   8666  15997     1
   8667  15997     1
   8670   8684     1
   8670   8685     1
   8670   8687     1
   8670   8688     1
   8670   8681     1
   8670   8682     1
   8671   8675     1
   8671   8676     1
   8671   8678     1
   8671   8679     1
   8671   8696     1
   8671   8697     1
   8672   8674     1
   8672   8677     1
   8672   8699     1
   8672   8695     1
   8672   8684     1
   8672   8685     1
   8673   8674     1
   8673   8677     1
   8673   8699     1
   8673   8695     1
   8673   8684     1
   8673   8685     1
   8674   8678     1
   8674   8679     1
   8674   8693     1
   8674   8694     1
   8675   8677     1
   8675   8699     1
   8675   8692     1
   8675   8687     1
   8675   8688     1
   8676   8677     1
   8676   8699     1
   8676   8692     1
   8676   8687     1
   8676   8688     1
   8677   8690     1
   8677   8691     1
   8678   8699     1
   8678   8689     1
   8678   8681     1
   8678   8682     1
   8679   8699     1
   8679   8689     1
   8679   8681     1
   8679   8682     1
   8680   8699     1
   8681   8698     1
   8681   8690     1
   8681   8691     1
   8682   8698     1
   8682   8690     1
   8682   8691     1
   8683   8699     1
   8684  16047     1
   8684   8696     1
   8684   8697     1
   8685  16047     1
   8685   8696     1
   8685   8697     1
   8686   8699     1
   8687  16024     1
   8687   8693     1
   8687   8694     1
   8688  16024     1
   8688   8693     1
   8688   8694     1
   8692  16023     1
   8693  16020     1
   8694  16020     1
   8695  16046     1
   8696  16043     1
   8697  16043     1
   8700   8714     1
   8700   8715     1
   8700   8717     1
   8700   8718     1
   8700   8711     1
   8700   8712     1
   8701   8705     1
   8701   8706     1
   8701   8708     1
   8701   8709     1
   8701   8726     1
   8701   8727     1
   8702   8704     1
   8702   8707     1
   8702   8729     1
   8702   8725     1
   8702   8714     1
   8702   8715     1
   8703   8704     1
   8703   8707     1
   8703   8729     1
   8703   8725     1
   8703   8714     1
   8703   8715     1
   8704   8708     1
   8704   8709     1
   8704   8723     1
   8704   8724     1
   8705   8707     1
   8705   8729     1
   8705   8722     1
   8705   8717     1
   8705   8718     1
   8706   8707     1
   8706   8729     1
   8706   8722     1
   8706   8717     1
   8706   8718     1
   8707   8720     1
   8707   8721     1
   8708   8729     1
   8708   8719     1
   8708   8711     1
   8708   8712     1
   8709   8729     1
   8709   8719     1
   8709   8711     1
   8709   8712     1
   8710   8729     1
   8711   8728     1
   8711   8720     1
   8711   8721     1
   8712   8728     1
   8712   8720     1
   8712   8721     1
   8713   8729     1
   8714  16093     1
   8714   8726     1
   8714   8727     1
   8715  16093     1
   8715   8726     1
   8715   8727     1
   8716   8729     1
   8717  16070     1
   8717   8723     1
   8717   8724     1
   8718  16070     1
   8718   8723     1
   8718   8724     1
   8722  16069     1
   8723  16066     1
   8724  16066     1
   8725  16092     1
   8726  16089     1
   8727  16089     1
   8730   8744     1
   8730   8745     1
   8730   8747     1
   8730   8748     1
   8730   8741     1
   8730   8742     1
   8731   8735     1
   8731   8736     1
   8731   8738     1
   8731   8739     1
   8731   8756     1
   8731   8757     1
   8732   8734     1
   8732   8737     1
   8732   8759     1
   8732   8755     1
   8732   8744     1
   8732   8745     1
   8733   8734     1
   8733   8737     1
   8733   8759     1
   8733   8755     1
   8733   8744     1
   8733   8745     1
   8734   8738     1
   8734   8739     1
   8734   8753     1
   8734   8754     1
   8735   8737     1
   8735   8759     1
   8735   8752     1
   8735   8747     1
   8735   8748     1
   8736   8737     1
   8736   8759     1
   8736   8752     1
   8736   8747     1
   8736   8748     1
   8737   8750     1
   8737   8751     1
   8738   8759     1
   8738   8749     1
   8738   8741     1
   8738   8742     1
   8739   8759     1
   8739   8749     1
   8739   8741     1
   8739   8742     1
   8740   8759     1
   8741   8758     1
   8741   8750     1
   8741   8751     1
   8742   8758     1
   8742   8750     1
   8742   8751     1
   8743   8759     1
   8744  16139     1
   8744   8756     1
   8744   8757     1
   8745  16139     1
   8745   8756     1
   8745   8757     1
   8746   8759     1
   8747  16116     1
   8747   8753     1
   8747   8754     1
   8748  16116     1
   8748   8753     1
   8748   8754     1
   8752  16115     1
   8753  16112     1
   8754  16112     1
   8755  16138     1
   8756  16135     1
   8757  16135     1
   8760   8774     1
   8760   8775     1
   8760   8777     1
   8760   8778     1
   8760   8771     1
   8760   8772     1
   8761   8765     1
   8761   8766     1
   8761   8768     1
   8761   8769     1
   8761   8786     1
   8761   8787     1
   8762   8764     1
   8762   8767     1
   8762   8789     1
   8762   8785     1
   8762   8774     1
   8762   8775     1
   8763   8764     1
   8763   8767     1
   8763   8789     1
   8763   8785     1
   8763   8774     1
   8763   8775     1
   8764   8768     1
   8764   8769     1
   8764   8783     1
   8764   8784     1
   8765   8767     1
   8765   8789     1
   8765   8782     1
   8765   8777     1
   8765   8778     1
   8766   8767     1
   8766   8789     1
   8766   8782     1
   8766   8777     1
   8766   8778     1
   8767   8780     1
   8767   8781     1
   8768   8789     1
   8768   8779     1
   8768   8771     1
   8768   8772     1
   8769   8789     1
   8769   8779     1
   8769   8771     1
   8769   8772     1
   8770   8789     1
   8771   8788     1
   8771   8780     1
   8771   8781     1
   8772   8788     1
   8772   8780     1
   8772   8781     1
   8773   8789     1
   8774  16185     1
   8774   8786     1
   8774   8787     1
   8775  16185     1
   8775   8786     1
   8775   8787     1
   8776   8789     1
   8777  16162     1
   8777   8783     1
   8777   8784     1
   8778  16162     1
   8778   8783     1
   8778   8784     1
   8782  16161     1
   8783  16158     1
   8784  16158     1
   8785  16184     1
   8786  16181     1
   8787  16181     1
   8790   8804     1
   8790   8805     1
   8790   8807     1
   8790   8808     1
   8790   8801     1
   8790   8802     1
   8791   8795     1
   8791   8796     1
   8791   8798     1
   8791   8799     1
   8791   8816     1
   8791   8817     1
   8792   8794     1
   8792   8797     1
   8792   8819     1
   8792   8815     1
   8792   8804     1
   8792   8805     1
   8793   8794     1
   8793   8797     1
   8793   8819     1
   8793   8815     1
   8793   8804     1
   8793   8805     1
   8794   8798     1
   8794   8799     1
   8794   8813     1
   8794   8814     1
   8795   8797     1
   8795   8819     1
   8795   8812     1
   8795   8807     1
   8795   8808     1
   8796   8797     1
   8796   8819     1
   8796   8812     1
   8796   8807     1
   8796   8808     1
   8797   8810     1
   8797   8811     1
   8798   8819     1
   8798   8809     1
   8798   8801     1
   8798   8802     1
   8799   8819     1
   8799   8809     1
   8799   8801     1
   8799   8802     1
   8800   8819     1
   8801   8818     1
   8801   8810     1
   8801   8811     1
   8802   8818     1
   8802   8810     1
   8802   8811     1
   8803   8819     1
   8804  16231     1
   8804   8816     1
   8804   8817     1
   8805  16231     1
   8805   8816     1
   8805   8817     1
   8806   8819     1
   8807  16208     1
   8807   8813     1
   8807   8814     1
   8808  16208     1
   8808   8813     1
   8808   8814     1
   8812  16207     1
   8813  16204     1
   8814  16204     1
   8815  16230     1
   8816  16227     1
   8817  16227     1
   8820   8834     1
   8820   8835     1
   8820   8837     1
   8820   8838     1
   8820   8831     1
   8820   8832     1
   8821   8825     1
   8821   8826     1
   8821   8828     1
   8821   8829     1
   8821   8846     1
   8821   8847     1
   8822   8824     1
   8822   8827     1
   8822   8849     1
   8822   8845     1
   8822   8834     1
   8822   8835     1
   8823   8824     1
   8823   8827     1
   8823   8849     1
   8823   8845     1
   8823   8834     1
   8823   8835     1
   8824   8828     1
   8824   8829     1
   8824   8843     1
   8824   8844     1
   8825   8827     1
   8825   8849     1
   8825   8842     1
   8825   8837     1
   8825   8838     1
   8826   8827     1
   8826   8849     1
   8826   8842     1
   8826   8837     1
   8826   8838     1
   8827   8840     1
   8827   8841     1
   8828   8849     1
   8828   8839     1
   8828   8831     1
   8828   8832     1
   8829   8849     1
   8829   8839     1
   8829   8831     1
   8829   8832     1
   8830   8849     1
   8831   8848     1
   8831   8840     1
   8831   8841     1
   8832   8848     1
   8832   8840     1
   8832   8841     1
   8833   8849     1
   8834  16277     1
   8834   8846     1
   8834   8847     1
   8835  16277     1
   8835   8846     1
   8835   8847     1
   8836   8849     1
   8837  16254     1
   8837   8843     1
   8837   8844     1
   8838  16254     1
   8838   8843     1
   8838   8844     1
   8842  16253     1
   8843  16250     1
   8844  16250     1
   8845  16276     1
   8846  16273     1
   8847  16273     1
   8850   8864     1
   8850   8865     1
   8850   8867     1
   8850   8868     1
   8850   8861     1
   8850   8862     1
   8851   8855     1
   8851   8856     1
   8851   8858     1
   8851   8859     1
   8851   8876     1
   8851   8877     1
   8852   8854     1
   8852   8857     1
   8852   8879     1
   8852   8875     1
   8852   8864     1
   8852   8865     1
   8853   8854     1
   8853   8857     1
   8853   8879     1
   8853   8875     1
   8853   8864     1
   8853   8865     1
   8854   8858     1
   8854   8859     1
   8854   8873     1
   8854   8874     1
   8855   8857     1
   8855   8879     1
   8855   8872     1
   8855   8867     1
   8855   8868     1
   8856   8857     1
   8856   8879     1
   8856   8872     1
   8856   8867     1
   8856   8868     1
   8857   8870     1
   8857   8871     1
   8858   8879     1
   8858   8869     1
   8858   8861     1
   8858   8862     1
   8859   8879     1
   8859   8869     1
   8859   8861     1
   8859   8862     1
   8860   8879     1
   8861   8878     1
   8861   8870     1
   8861   8871     1
   8862   8878     1
   8862   8870     1
   8862   8871     1
   8863   8879     1
   8864  16323     1
   8864   8876     1
   8864   8877     1
   8865  16323     1
   8865   8876     1
   8865   8877     1
   8866   8879     1
   8867  16300     1
   8867   8873     1
   8867   8874     1
   8868  16300     1
   8868   8873     1
   8868   8874     1
   8872  16299     1
   8873  16296     1
   8874  16296     1
   8875  16322     1
   8876  16319     1
   8877  16319     1
   8880   8894     1
   8880   8895     1
   8880   8897     1
   8880   8898     1
   8880   8891     1
   8880   8892     1
   8881   8885     1
   8881   8886     1
   8881   8888     1
   8881   8889     1
   8881   8906     1
   8881   8907     1
   8882   8884     1
   8882   8887     1
   8882   8909     1
   8882   8905     1
   8882   8894     1
   8882   8895     1
   8883   8884     1
   8883   8887     1
   8883   8909     1
   8883   8905     1
   8883   8894     1
   8883   8895     1
   8884   8888     1
   8884   8889     1
   8884   8903     1
   8884   8904     1
   8885   8887     1
   8885   8909     1
   8885   8902     1
   8885   8897     1
   8885   8898     1
   8886   8887     1
   8886   8909     1
   8886   8902     1
   8886   8897     1
   8886   8898     1
   8887   8900     1
   8887   8901     1
   8888   8909     1
   8888   8899     1
   8888   8891     1
   8888   8892     1
   8889   8909     1
   8889   8899     1
   8889   8891     1
   8889   8892     1
   8890   8909     1
   8891   8908     1
   8891   8900     1
   8891   8901     1
   8892   8908     1
   8892   8900     1
   8892   8901     1
   8893   8909     1
   8894  16369     1
   8894   8906     1
   8894   8907     1
   8895  16369     1
   8895   8906     1
   8895   8907     1
   8896   8909     1
   8897  16346     1
   8897   8903     1
   8897   8904     1
   8898  16346     1
   8898   8903     1
   8898   8904     1
   8902  16345     1
   8903  16342     1
   8904  16342     1
   8905  16368     1
   8906  16365     1
   8907  16365     1
   8910   8924     1
   8910   8925     1
   8910   8927     1
   8910   8928     1
   8910   8921     1
   8910   8922     1
   8911   8915     1
   8911   8916     1
   8911   8918     1
   8911   8919     1
   8911   8936     1
   8911   8937     1
   8912   8914     1
   8912   8917     1
   8912   8939     1
   8912   8935     1
   8912   8924     1
   8912   8925     1
   8913   8914     1
   8913   8917     1
   8913   8939     1
   8913   8935     1
   8913   8924     1
   8913   8925     1
   8914   8918     1
   8914   8919     1
   8914   8933     1
   8914   8934     1
   8915   8917     1
   8915   8939     1
   8915   8932     1
   8915   8927     1
   8915   8928     1
   8916   8917     1
   8916   8939     1
   8916   8932     1
   8916   8927     1
   8916   8928     1
   8917   8930     1
   8917   8931     1
   8918   8939     1
   8918   8929     1
   8918   8921     1
   8918   8922     1
   8919   8939     1
   8919   8929     1
   8919   8921     1
   8919   8922     1
   8920   8939     1
   8921   8938     1
   8921   8930     1
   8921   8931     1
   8922   8938     1
   8922   8930     1
   8922   8931     1
   8923   8939     1
   8924  16415     1
   8924   8936     1
   8924   8937     1
   8925  16415     1
   8925   8936     1
   8925   8937     1
   8926   8939     1
   8927  16392     1
   8927   8933     1
   8927   8934     1
   8928  16392     1
   8928   8933     1
   8928   8934     1
   8932  16391     1
   8933  16388     1
   8934  16388     1
   8935  16414     1
   8936  16411     1
   8937  16411     1
   8940   8954     1
   8940   8955     1
   8940   8957     1
   8940   8958     1
   8940   8951     1
   8940   8952     1
   8941   8945     1
   8941   8946     1
   8941   8948     1
   8941   8949     1
   8941   8966     1
   8941   8967     1
   8942   8944     1
   8942   8947     1
   8942   8969     1
   8942   8965     1
   8942   8954     1
   8942   8955     1
   8943   8944     1
   8943   8947     1
   8943   8969     1
   8943   8965     1
   8943   8954     1
   8943   8955     1
   8944   8948     1
   8944   8949     1
   8944   8963     1
   8944   8964     1
   8945   8947     1
   8945   8969     1
   8945   8962     1
   8945   8957     1
   8945   8958     1
   8946   8947     1
   8946   8969     1
   8946   8962     1
   8946   8957     1
   8946   8958     1
   8947   8960     1
   8947   8961     1
   8948   8969     1
   8948   8959     1
   8948   8951     1
   8948   8952     1
   8949   8969     1
   8949   8959     1
   8949   8951     1
   8949   8952     1
   8950   8969     1
   8951   8968     1
   8951   8960     1
   8951   8961     1
   8952   8968     1
   8952   8960     1
   8952   8961     1
   8953   8969     1
   8954  16461     1
   8954   8966     1
   8954   8967     1
   8955  16461     1
   8955   8966     1
   8955   8967     1
   8956   8969     1
   8957  16438     1
   8957   8963     1
   8957   8964     1
   8958  16438     1
   8958   8963     1
   8958   8964     1
   8962  16437     1
   8963  16434     1
   8964  16434     1
   8965  16460     1
   8966  16457     1
   8967  16457     1
   8970   8984     1
   8970   8985     1
   8970   8987     1
   8970   8988     1
   8970   8981     1
   8970   8982     1
   8971   8975     1
   8971   8976     1
   8971   8978     1
   8971   8979     1
   8971   8996     1
   8971   8997     1
   8972   8974     1
   8972   8977     1
   8972   8999     1
   8972   8995     1
   8972   8984     1
   8972   8985     1
   8973   8974     1
   8973   8977     1
   8973   8999     1
   8973   8995     1
   8973   8984     1
   8973   8985     1
   8974   8978     1
   8974   8979     1
   8974   8993     1
   8974   8994     1
   8975   8977     1
   8975   8999     1
   8975   8992     1
   8975   8987     1
   8975   8988     1
   8976   8977     1
   8976   8999     1
   8976   8992     1
   8976   8987     1
   8976   8988     1
   8977   8990     1
   8977   8991     1
   8978   8999     1
   8978   8989     1
   8978   8981     1
   8978   8982     1
   8979   8999     1
   8979   8989     1
   8979   8981     1
   8979   8982     1
   8980   8999     1
   8981   8998     1
   8981   8990     1
   8981   8991     1
   8982   8998     1
   8982   8990     1
   8982   8991     1
   8983   8999     1
   8984  16507     1
   8984   8996     1
   8984   8997     1
   8985  16507     1
   8985   8996     1
   8985   8997     1
   8986   8999     1
   8987  16484     1
   8987   8993     1
   8987   8994     1
   8988  16484     1
   8988   8993     1
   8988   8994     1
   8992  16483     1
   8993  16480     1
   8994  16480     1
   8995  16506     1
   8996  16503     1
   8997  16503     1
   9000   9014     1
   9000   9015     1
   9000   9017     1
   9000   9018     1
   9000   9011     1
   9000   9012     1
   9001   9005     1
   9001   9006     1
   9001   9008     1
   9001   9009     1
   9001   9026     1
   9001   9027     1
   9002   9004     1
   9002   9007     1
   9002   9029     1
   9002   9025     1
   9002   9014     1
   9002   9015     1
   9003   9004     1
   9003   9007     1
   9003   9029     1
   9003   9025     1
   9003   9014     1
   9003   9015     1
   9004   9008     1
   9004   9009     1
   9004   9023     1
   9004   9024     1
   9005   9007     1
   9005   9029     1
   9005   9022     1
   9005   9017     1
   9005   9018     1
   9006   9007     1
   9006   9029     1
   9006   9022     1
   9006   9017     1
   9006   9018     1
   9007   9020     1
   9007   9021     1
   9008   9029     1
   9008   9019     1
   9008   9011     1
   9008   9012     1
   9009   9029     1
   9009   9019     1
   9009   9011     1
   9009   9012     1
   9010   9029     1
   9011   9028     1
   9011   9020     1
   9011   9021     1
   9012   9028     1
   9012   9020     1
   9012   9021     1
   9013   9029     1
   9014  16553     1
   9014   9026     1
   9014   9027     1
   9015  16553     1
   9015   9026     1
   9015   9027     1
   9016   9029     1
   9017  16530     1
   9017   9023     1
   9017   9024     1
   9018  16530     1
   9018   9023     1
   9018   9024     1
   9022  16529     1
   9023  16526     1
   9024  16526     1
   9025  16552     1
   9026  16549     1
   9027  16549     1
   9030   9044     1
   9030   9045     1
   9030   9047     1
   9030   9048     1
   9030   9041     1
   9030   9042     1
   9031   9035     1
   9031   9036     1
   9031   9038     1
   9031   9039     1
   9031   9056     1
   9031   9057     1
   9032   9034     1
   9032   9037     1
   9032   9059     1
   9032   9055     1
   9032   9044     1
   9032   9045     1
   9033   9034     1
   9033   9037     1
   9033   9059     1
   9033   9055     1
   9033   9044     1
   9033   9045     1
   9034   9038     1
   9034   9039     1
   9034   9053     1
   9034   9054     1
   9035   9037     1
   9035   9059     1
   9035   9052     1
   9035   9047     1
   9035   9048     1
   9036   9037     1
   9036   9059     1
   9036   9052     1
   9036   9047     1
   9036   9048     1
   9037   9050     1
   9037   9051     1
   9038   9059     1
   9038   9049     1
   9038   9041     1
   9038   9042     1
   9039   9059     1
   9039   9049     1
   9039   9041     1
   9039   9042     1
   9040   9059     1
   9041   9058     1
   9041   9050     1
   9041   9051     1
   9042   9058     1
   9042   9050     1
   9042   9051     1
   9043   9059     1
   9044  16599     1
   9044   9056     1
   9044   9057     1
   9045  16599     1
   9045   9056     1
   9045   9057     1
   9046   9059     1
   9047  16576     1
   9047   9053     1
   9047   9054     1
   9048  16576     1
   9048   9053     1
   9048   9054     1
   9052  16575     1
   9053  16572     1
   9054  16572     1
   9055  16598     1
   9056  16595     1
   9057  16595     1
   9060   9074     1
   9060   9075     1
   9060   9077     1
   9060   9078     1
   9060   9071     1
   9060   9072     1
   9061   9065     1
   9061   9066     1
   9061   9068     1
   9061   9069     1
   9061   9086     1
   9061   9087     1
   9062   9064     1
   9062   9067     1
   9062   9089     1
   9062   9085     1
   9062   9074     1
   9062   9075     1
   9063   9064     1
   9063   9067     1
   9063   9089     1
   9063   9085     1
   9063   9074     1
   9063   9075     1
   9064   9068     1
   9064   9069     1
   9064   9083     1
   9064   9084     1
   9065   9067     1
   9065   9089     1
   9065   9082     1
   9065   9077     1
   9065   9078     1
   9066   9067     1
   9066   9089     1
   9066   9082     1
   9066   9077     1
   9066   9078     1
   9067   9080     1
   9067   9081     1
   9068   9089     1
   9068   9079     1
   9068   9071     1
   9068   9072     1
   9069   9089     1
   9069   9079     1
   9069   9071     1
   9069   9072     1
   9070   9089     1
   9071   9088     1
   9071   9080     1
   9071   9081     1
   9072   9088     1
   9072   9080     1
   9072   9081     1
   9073   9089     1
   9074  16645     1
   9074   9086     1
   9074   9087     1
   9075  16645     1
   9075   9086     1
   9075   9087     1
   9076   9089     1
   9077  16622     1
   9077   9083     1
   9077   9084     1
   9078  16622     1
   9078   9083     1
   9078   9084     1
   9082  16621     1
   9083  16618     1
   9084  16618     1
   9085  16644     1
   9086  16641     1
   9087  16641     1
   9090   9104     1
   9090   9105     1
   9090   9107     1
   9090   9108     1
   9090   9101     1
   9090   9102     1
   9091   9095     1
   9091   9096     1
   9091   9098     1
   9091   9099     1
   9091   9116     1
   9091   9117     1
   9092   9094     1
   9092   9097     1
   9092   9119     1
   9092   9115     1
   9092   9104     1
   9092   9105     1
   9093   9094     1
   9093   9097     1
   9093   9119     1
   9093   9115     1
   9093   9104     1
   9093   9105     1
   9094   9098     1
   9094   9099     1
   9094   9113     1
   9094   9114     1
   9095   9097     1
   9095   9119     1
   9095   9112     1
   9095   9107     1
   9095   9108     1
   9096   9097     1
   9096   9119     1
   9096   9112     1
   9096   9107     1
   9096   9108     1
   9097   9110     1
   9097   9111     1
   9098   9119     1
   9098   9109     1
   9098   9101     1
   9098   9102     1
   9099   9119     1
   9099   9109     1
   9099   9101     1
   9099   9102     1
   9100   9119     1
   9101   9118     1
   9101   9110     1
   9101   9111     1
   9102   9118     1
   9102   9110     1
   9102   9111     1
   9103   9119     1
   9104  16691     1
   9104   9116     1
   9104   9117     1
   9105  16691     1
   9105   9116     1
   9105   9117     1
   9106   9119     1
   9107  16668     1
   9107   9113     1
   9107   9114     1
   9108  16668     1
   9108   9113     1
   9108   9114     1
   9112  16667     1
   9113  16664     1
   9114  16664     1
   9115  16690     1
   9116  16687     1
   9117  16687     1
   9120   9134     1
   9120   9135     1
   9120   9137     1
   9120   9138     1
   9120   9131     1
   9120   9132     1
   9121   9125     1
   9121   9126     1
   9121   9128     1
   9121   9129     1
   9121   9146     1
   9121   9147     1
   9122   9124     1
   9122   9127     1
   9122   9149     1
   9122   9145     1
   9122   9134     1
   9122   9135     1
   9123   9124     1
   9123   9127     1
   9123   9149     1
   9123   9145     1
   9123   9134     1
   9123   9135     1
   9124   9128     1
   9124   9129     1
   9124   9143     1
   9124   9144     1
   9125   9127     1
   9125   9149     1
   9125   9142     1
   9125   9137     1
   9125   9138     1
   9126   9127     1
   9126   9149     1
   9126   9142     1
   9126   9137     1
   9126   9138     1
   9127   9140     1
   9127   9141     1
   9128   9149     1
   9128   9139     1
   9128   9131     1
   9128   9132     1
   9129   9149     1
   9129   9139     1
   9129   9131     1
   9129   9132     1
   9130   9149     1
   9131   9148     1
   9131   9140     1
   9131   9141     1
   9132   9148     1
   9132   9140     1
   9132   9141     1
   9133   9149     1
   9134  16737     1
   9134   9146     1
   9134   9147     1
   9135  16737     1
   9135   9146     1
   9135   9147     1
   9136   9149     1
   9137  16714     1
   9137   9143     1
   9137   9144     1
   9138  16714     1
   9138   9143     1
   9138   9144     1
   9142  16713     1
   9143  16710     1
   9144  16710     1
   9145  16736     1
   9146  16733     1
   9147  16733     1
   9150   9164     1
   9150   9165     1
   9150   9167     1
   9150   9168     1
   9150   9161     1
   9150   9162     1
   9151   9155     1
   9151   9156     1
   9151   9158     1
   9151   9159     1
   9151   9176     1
   9151   9177     1
   9152   9154     1
   9152   9157     1
   9152   9179     1
   9152   9175     1
   9152   9164     1
   9152   9165     1
   9153   9154     1
   9153   9157     1
   9153   9179     1
   9153   9175     1
   9153   9164     1
   9153   9165     1
   9154   9158     1
   9154   9159     1
   9154   9173     1
   9154   9174     1
   9155   9157     1
   9155   9179     1
   9155   9172     1
   9155   9167     1
   9155   9168     1
   9156   9157     1
   9156   9179     1
   9156   9172     1
   9156   9167     1
   9156   9168     1
   9157   9170     1
   9157   9171     1
   9158   9179     1
   9158   9169     1
   9158   9161     1
   9158   9162     1
   9159   9179     1
   9159   9169     1
   9159   9161     1
   9159   9162     1
   9160   9179     1
   9161   9178     1
   9161   9170     1
   9161   9171     1
   9162   9178     1
   9162   9170     1
   9162   9171     1
   9163   9179     1
   9164  16783     1
   9164   9176     1
   9164   9177     1
   9165  16783     1
   9165   9176     1
   9165   9177     1
   9166   9179     1
   9167  16760     1
   9167   9173     1
   9167   9174     1
   9168  16760     1
   9168   9173     1
   9168   9174     1
   9172  16759     1
   9173  16756     1
   9174  16756     1
   9175  16782     1
   9176  16779     1
   9177  16779     1
   9180   9194     1
   9180   9195     1
   9180   9197     1
   9180   9198     1
   9180   9191     1
   9180   9192     1
   9181   9185     1
   9181   9186     1
   9181   9188     1
   9181   9189     1
   9181   9206     1
   9181   9207     1
   9182   9184     1
   9182   9187     1
   9182   9209     1
   9182   9205     1
   9182   9194     1
   9182   9195     1
   9183   9184     1
   9183   9187     1
   9183   9209     1
   9183   9205     1
   9183   9194     1
   9183   9195     1
   9184   9188     1
   9184   9189     1
   9184   9203     1
   9184   9204     1
   9185   9187     1
   9185   9209     1
   9185   9202     1
   9185   9197     1
   9185   9198     1
   9186   9187     1
   9186   9209     1
   9186   9202     1
   9186   9197     1
   9186   9198     1
   9187   9200     1
   9187   9201     1
   9188   9209     1
   9188   9199     1
   9188   9191     1
   9188   9192     1
   9189   9209     1
   9189   9199     1
   9189   9191     1
   9189   9192     1
   9190   9209     1
   9191   9208     1
   9191   9200     1
   9191   9201     1
   9192   9208     1
   9192   9200     1
   9192   9201     1
   9193   9209     1
   9194  16829     1
   9194   9206     1
   9194   9207     1
   9195  16829     1
   9195   9206     1
   9195   9207     1
   9196   9209     1
   9197  16806     1
   9197   9203     1
   9197   9204     1
   9198  16806     1
   9198   9203     1
   9198   9204     1
   9202  16805     1
   9203  16802     1
   9204  16802     1
   9205  16828     1
   9206  16825     1
   9207  16825     1
   9210   9224     1
   9210   9225     1
   9210   9227     1
   9210   9228     1
   9210   9221     1
   9210   9222     1
   9211   9215     1
   9211   9216     1
   9211   9218     1
   9211   9219     1
   9211   9236     1
   9211   9237     1
   9212   9214     1
   9212   9217     1
   9212   9239     1
   9212   9235     1
   9212   9224     1
   9212   9225     1
   9213   9214     1
   9213   9217     1
   9213   9239     1
   9213   9235     1
   9213   9224     1
   9213   9225     1
   9214   9218     1
   9214   9219     1
   9214   9233     1
   9214   9234     1
   9215   9217     1
   9215   9239     1
   9215   9232     1
   9215   9227     1
   9215   9228     1
   9216   9217     1
   9216   9239     1
   9216   9232     1
   9216   9227     1
   9216   9228     1
   9217   9230     1
   9217   9231     1
   9218   9239     1
   9218   9229     1
   9218   9221     1
   9218   9222     1
   9219   9239     1
   9219   9229     1
   9219   9221     1
   9219   9222     1
   9220   9239     1
   9221   9238     1
   9221   9230     1
   9221   9231     1
   9222   9238     1
   9222   9230     1
   9222   9231     1
   9223   9239     1
   9224  16875     1
   9224   9236     1
   9224   9237     1
   9225  16875     1
   9225   9236     1
   9225   9237     1
   9226   9239     1
   9227  16852     1
   9227   9233     1
   9227   9234     1
   9228  16852     1
   9228   9233     1
   9228   9234     1
   9232  16851     1
   9233  16848     1
   9234  16848     1
   9235  16874     1
   9236  16871     1
   9237  16871     1
   9240   9254     1
   9240   9255     1
   9240   9257     1
   9240   9258     1
   9240   9251     1
   9240   9252     1
   9241   9245     1
   9241   9246     1
   9241   9248     1
   9241   9249     1
   9241   9266     1
   9241   9267     1
   9242   9244     1
   9242   9247     1
   9242   9269     1
   9242   9265     1
   9242   9254     1
   9242   9255     1
   9243   9244     1
   9243   9247     1
   9243   9269     1
   9243   9265     1
   9243   9254     1
   9243   9255     1
   9244   9248     1
   9244   9249     1
   9244   9263     1
   9244   9264     1
   9245   9247     1
   9245   9269     1
   9245   9262     1
   9245   9257     1
   9245   9258     1
   9246   9247     1
   9246   9269     1
   9246   9262     1
   9246   9257     1
   9246   9258     1
   9247   9260     1
   9247   9261     1
   9248   9269     1
   9248   9259     1
   9248   9251     1
   9248   9252     1
   9249   9269     1
   9249   9259     1
   9249   9251     1
   9249   9252     1
   9250   9269     1
   9251   9268     1
   9251   9260     1
   9251   9261     1
   9252   9268     1
   9252   9260     1
   9252   9261     1
   9253   9269     1
   9254  16921     1
   9254   9266     1
   9254   9267     1
   9255  16921     1
   9255   9266     1
   9255   9267     1
   9256   9269     1
   9257  16898     1
   9257   9263     1
   9257   9264     1
   9258  16898     1
   9258   9263     1
   9258   9264     1
   9262  16897     1
   9263  16894     1
   9264  16894     1
   9265  16920     1
   9266  16917     1
   9267  16917     1
   9270   9284     1
   9270   9285     1
   9270   9287     1
   9270   9288     1
   9270   9281     1
   9270   9282     1
   9271   9275     1
   9271   9276     1
   9271   9278     1
   9271   9279     1
   9271   9296     1
   9271   9297     1
   9272   9274     1
   9272   9277     1
   9272   9299     1
   9272   9295     1
   9272   9284     1
   9272   9285     1
   9273   9274     1
   9273   9277     1
   9273   9299     1
   9273   9295     1
   9273   9284     1
   9273   9285     1
   9274   9278     1
   9274   9279     1
   9274   9293     1
   9274   9294     1
   9275   9277     1
   9275   9299     1
   9275   9292     1
   9275   9287     1
   9275   9288     1
   9276   9277     1
   9276   9299     1
   9276   9292     1
   9276   9287     1
   9276   9288     1
   9277   9290     1
   9277   9291     1
   9278   9299     1
   9278   9289     1
   9278   9281     1
   9278   9282     1
   9279   9299     1
   9279   9289     1
   9279   9281     1
   9279   9282     1
   9280   9299     1
   9281   9298     1
   9281   9290     1
   9281   9291     1
   9282   9298     1
   9282   9290     1
   9282   9291     1
   9283   9299     1
   9284  16967     1
   9284   9296     1
   9284   9297     1
   9285  16967     1
   9285   9296     1
   9285   9297     1
   9286   9299     1
   9287  16944     1
   9287   9293     1
   9287   9294     1
   9288  16944     1
   9288   9293     1
   9288   9294     1
   9292  16943     1
   9293  16940     1
   9294  16940     1
   9295  16966     1
   9296  16963     1
   9297  16963     1
   9300   9314     1
   9300   9315     1
   9300   9317     1
   9300   9318     1
   9300   9311     1
   9300   9312     1
   9301   9305     1
   9301   9306     1
   9301   9308     1
   9301   9309     1
   9301   9326     1
   9301   9327     1
   9302   9304     1
   9302   9307     1
   9302   9329     1
   9302   9325     1
   9302   9314     1
   9302   9315     1
   9303   9304     1
   9303   9307     1
   9303   9329     1
   9303   9325     1
   9303   9314     1
   9303   9315     1
   9304   9308     1
   9304   9309     1
   9304   9323     1
   9304   9324     1
   9305   9307     1
   9305   9329     1
   9305   9322     1
   9305   9317     1
   9305   9318     1
   9306   9307     1
   9306   9329     1
   9306   9322     1
   9306   9317     1
   9306   9318     1
   9307   9320     1
   9307   9321     1
   9308   9329     1
   9308   9319     1
   9308   9311     1
   9308   9312     1
   9309   9329     1
   9309   9319     1
   9309   9311     1
   9309   9312     1
   9310   9329     1
   9311   9328     1
   9311   9320     1
   9311   9321     1
   9312   9328     1
   9312   9320     1
   9312   9321     1
   9313   9329     1
   9314  17013     1
   9314   9326     1
   9314   9327     1
   9315  17013     1
   9315   9326     1
   9315   9327     1
   9316   9329     1
   9317  16990     1
   9317   9323     1
   9317   9324     1
   9318  16990     1
   9318   9323     1
   9318   9324     1
   9322  16989     1
   9323  16986     1
   9324  16986     1
   9325  17012     1
   9326  17009     1
   9327  17009     1
   9330   9344     1
   9330   9345     1
   9330   9347     1
   9330   9348     1
   9330   9341     1
   9330   9342     1
   9331   9335     1
   9331   9336     1
   9331   9338     1
   9331   9339     1
   9331   9356     1
   9331   9357     1
   9332   9334     1
   9332   9337     1
   9332   9359     1
   9332   9355     1
   9332   9344     1
   9332   9345     1
   9333   9334     1
   9333   9337     1
   9333   9359     1
   9333   9355     1
   9333   9344     1
   9333   9345     1
   9334   9338     1
   9334   9339     1
   9334   9353     1
   9334   9354     1
   9335   9337     1
   9335   9359     1
   9335   9352     1
   9335   9347     1
   9335   9348     1
   9336   9337     1
   9336   9359     1
   9336   9352     1
   9336   9347     1
   9336   9348     1
   9337   9350     1
   9337   9351     1
   9338   9359     1
   9338   9349     1
   9338   9341     1
   9338   9342     1
   9339   9359     1
   9339   9349     1
   9339   9341     1
   9339   9342     1
   9340   9359     1
   9341   9358     1
   9341   9350     1
   9341   9351     1
   9342   9358     1
   9342   9350     1
   9342   9351     1
   9343   9359     1
   9344  17059     1
   9344   9356     1
   9344   9357     1
   9345  17059     1
   9345   9356     1
   9345   9357     1
   9346   9359     1
   9347  17036     1
   9347   9353     1
   9347   9354     1
   9348  17036     1
   9348   9353     1
   9348   9354     1
   9352  17035     1
   9353  17032     1
   9354  17032     1
   9355  17058     1
   9356  17055     1
   9357  17055     1
   9360   9374     1
   9360   9375     1
   9360   9377     1
   9360   9378     1
   9360   9371     1
   9360   9372     1
   9361   9365     1
   9361   9366     1
   9361   9368     1
   9361   9369     1
   9361   9386     1
   9361   9387     1
   9362   9364     1
   9362   9367     1
   9362   9389     1
   9362   9385     1
   9362   9374     1
   9362   9375     1
   9363   9364     1
   9363   9367     1
   9363   9389     1
   9363   9385     1
   9363   9374     1
   9363   9375     1
   9364   9368     1
   9364   9369     1
   9364   9383     1
   9364   9384     1
   9365   9367     1
   9365   9389     1
   9365   9382     1
   9365   9377     1
   9365   9378     1
   9366   9367     1
   9366   9389     1
   9366   9382     1
   9366   9377     1
   9366   9378     1
   9367   9380     1
   9367   9381     1
   9368   9389     1
   9368   9379     1
   9368   9371     1
   9368   9372     1
   9369   9389     1
   9369   9379     1
   9369   9371     1
   9369   9372     1
   9370   9389     1
   9371   9388     1
   9371   9380     1
   9371   9381     1
   9372   9388     1
   9372   9380     1
   9372   9381     1
   9373   9389     1
   9374  17105     1
   9374   9386     1
   9374   9387     1
   9375  17105     1
   9375   9386     1
   9375   9387     1
   9376   9389     1
   9377  17082     1
   9377   9383     1
   9377   9384     1
   9378  17082     1
   9378   9383     1
   9378   9384     1
   9382  17081     1
   9383  17078     1
   9384  17078     1
   9385  17104     1
   9386  17101     1
   9387  17101     1
   9390   9404     1
   9390   9405     1
   9390   9407     1
   9390   9408     1
   9390   9401     1
   9390   9402     1
   9391   9395     1
   9391   9396     1
   9391   9398     1
   9391   9399     1
   9391   9416     1
   9391   9417     1
   9392   9394     1
   9392   9397     1
   9392   9419     1
   9392   9415     1
   9392   9404     1
   9392   9405     1
   9393   9394     1
   9393   9397     1
   9393   9419     1
   9393   9415     1
   9393   9404     1
   9393   9405     1
   9394   9398     1
   9394   9399     1
   9394   9413     1
   9394   9414     1
   9395   9397     1
   9395   9419     1
   9395   9412     1
   9395   9407     1
   9395   9408     1
   9396   9397     1
   9396   9419     1
   9396   9412     1
   9396   9407     1
   9396   9408     1
   9397   9410     1
   9397   9411     1
   9398   9419     1
   9398   9409     1
   9398   9401     1
   9398   9402     1
   9399   9419     1
   9399   9409     1
   9399   9401     1
   9399   9402     1
   9400   9419     1
   9401   9418     1
   9401   9410     1
   9401   9411     1
   9402   9418     1
   9402   9410     1
   9402   9411     1
   9403   9419     1
   9404  17151     1
   9404   9416     1
   9404   9417     1
   9405  17151     1
   9405   9416     1
   9405   9417     1
   9406   9419     1
   9407  17128     1
   9407   9413     1
   9407   9414     1
   9408  17128     1
   9408   9413     1
   9408   9414     1
   9412  17127     1
   9413  17124     1
   9414  17124     1
   9415  17150     1
   9416  17147     1
   9417  17147     1
   9420   9434     1
   9420   9435     1
   9420   9437     1
   9420   9438     1
   9420   9431     1
   9420   9432     1
   9421   9425     1
   9421   9426     1
   9421   9428     1
   9421   9429     1
   9421   9446     1
   9421   9447     1
   9422   9424     1
   9422   9427     1
   9422   9449     1
   9422   9445     1
   9422   9434     1
   9422   9435     1
   9423   9424     1
   9423   9427     1
   9423   9449     1
   9423   9445     1
   9423   9434     1
   9423   9435     1
   9424   9428     1
   9424   9429     1
   9424   9443     1
   9424   9444     1
   9425   9427     1
   9425   9449     1
   9425   9442     1
   9425   9437     1
   9425   9438     1
   9426   9427     1
   9426   9449     1
   9426   9442     1
   9426   9437     1
   9426   9438     1
   9427   9440     1
   9427   9441     1
   9428   9449     1
   9428   9439     1
   9428   9431     1
   9428   9432     1
   9429   9449     1
   9429   9439     1
   9429   9431     1
   9429   9432     1
   9430   9449     1
   9431   9448     1
   9431   9440     1
   9431   9441     1
   9432   9448     1
   9432   9440     1
   9432   9441     1
   9433   9449     1
   9434  17197     1
   9434   9446     1
   9434   9447     1
   9435  17197     1
   9435   9446     1
   9435   9447     1
   9436   9449     1
   9437  17174     1
   9437   9443     1
   9437   9444     1
   9438  17174     1
   9438   9443     1
   9438   9444     1
   9442  17173     1
   9443  17170     1
   9444  17170     1
   9445  17196     1
   9446  17193     1
   9447  17193     1
   9450   9464     1
   9450   9465     1
   9450   9467     1
   9450   9468     1
   9450   9461     1
   9450   9462     1
   9451   9455     1
   9451   9456     1
   9451   9458     1
   9451   9459     1
   9451   9476     1
   9451   9477     1
   9452   9454     1
   9452   9457     1
   9452   9479     1
   9452   9475     1
   9452   9464     1
   9452   9465     1
   9453   9454     1
   9453   9457     1
   9453   9479     1
   9453   9475     1
   9453   9464     1
   9453   9465     1
   9454   9458     1
   9454   9459     1
   9454   9473     1
   9454   9474     1
   9455   9457     1
   9455   9479     1
   9455   9472     1
   9455   9467     1
   9455   9468     1
   9456   9457     1
   9456   9479     1
   9456   9472     1
   9456   9467     1
   9456   9468     1
   9457   9470     1
   9457   9471     1
   9458   9479     1
   9458   9469     1
   9458   9461     1
   9458   9462     1
   9459   9479     1
   9459   9469     1
   9459   9461     1
   9459   9462     1
   9460   9479     1
   9461   9478     1
   9461   9470     1
   9461   9471     1
   9462   9478     1
   9462   9470     1
   9462   9471     1
   9463   9479     1
   9464  17243     1
   9464   9476     1
   9464   9477     1
   9465  17243     1
   9465   9476     1
   9465   9477     1
   9466   9479     1
   9467  17220     1
   9467   9473     1
   9467   9474     1
   9468  17220     1
   9468   9473     1
   9468   9474     1
   9472  17219     1
   9473  17216     1
   9474  17216     1
   9475  17242     1
   9476  17239     1
   9477  17239     1
   9480   9494     1
   9480   9495     1
   9480   9497     1
   9480   9498     1
   9480   9491     1
   9480   9492     1
   9481   9485     1
   9481   9486     1
   9481   9488     1
   9481   9489     1
   9481   9506     1
   9481   9507     1
   9482   9484     1
   9482   9487     1
   9482   9509     1
   9482   9505     1
   9482   9494     1
   9482   9495     1
   9483   9484     1
   9483   9487     1
   9483   9509     1
   9483   9505     1
   9483   9494     1
   9483   9495     1
   9484   9488     1
   9484   9489     1
   9484   9503     1
   9484   9504     1
   9485   9487     1
   9485   9509     1
   9485   9502     1
   9485   9497     1
   9485   9498     1
   9486   9487     1
   9486   9509     1
   9486   9502     1
   9486   9497     1
   9486   9498     1
   9487   9500     1
   9487   9501     1
   9488   9509     1
   9488   9499     1
   9488   9491     1
   9488   9492     1
   9489   9509     1
   9489   9499     1
   9489   9491     1
   9489   9492     1
   9490   9509     1
   9491   9508     1
   9491   9500     1
   9491   9501     1
   9492   9508     1
   9492   9500     1
   9492   9501     1
   9493   9509     1
   9494  17289     1
   9494   9506     1
   9494   9507     1
   9495  17289     1
   9495   9506     1
   9495   9507     1
   9496   9509     1
   9497  17266     1
   9497   9503     1
   9497   9504     1
   9498  17266     1
   9498   9503     1
   9498   9504     1
   9502  17265     1
   9503  17262     1
   9504  17262     1
   9505  17288     1
   9506  17285     1
   9507  17285     1
   9510   9524     1
   9510   9525     1
   9510   9527     1
   9510   9528     1
   9510   9521     1
   9510   9522     1
   9511   9515     1
   9511   9516     1
   9511   9518     1
   9511   9519     1
   9511   9536     1
   9511   9537     1
   9512   9514     1
   9512   9517     1
   9512   9539     1
   9512   9535     1
   9512   9524     1
   9512   9525     1
   9513   9514     1
   9513   9517     1
   9513   9539     1
   9513   9535     1
   9513   9524     1
   9513   9525     1
   9514   9518     1
   9514   9519     1
   9514   9533     1
   9514   9534     1
   9515   9517     1
   9515   9539     1
   9515   9532     1
   9515   9527     1
   9515   9528     1
   9516   9517     1
   9516   9539     1
   9516   9532     1
   9516   9527     1
   9516   9528     1
   9517   9530     1
   9517   9531     1
   9518   9539     1
   9518   9529     1
   9518   9521     1
   9518   9522     1
   9519   9539     1
   9519   9529     1
   9519   9521     1
   9519   9522     1
   9520   9539     1
   9521   9538     1
   9521   9530     1
   9521   9531     1
   9522   9538     1
   9522   9530     1
   9522   9531     1
   9523   9539     1
   9524  17335     1
   9524   9536     1
   9524   9537     1
   9525  17335     1
   9525   9536     1
   9525   9537     1
   9526   9539     1
   9527  17312     1
   9527   9533     1
   9527   9534     1
   9528  17312     1
   9528   9533     1
   9528   9534     1
   9532  17311     1
   9533  17308     1
   9534  17308     1
   9535  17334     1
   9536  17331     1
   9537  17331     1
   9540   9554     1
   9540   9555     1
   9540   9557     1
   9540   9558     1
   9540   9551     1
   9540   9552     1
   9541   9545     1
   9541   9546     1
   9541   9548     1
   9541   9549     1
   9541   9566     1
   9541   9567     1
   9542   9544     1
   9542   9547     1
   9542   9569     1
   9542   9565     1
   9542   9554     1
   9542   9555     1
   9543   9544     1
   9543   9547     1
   9543   9569     1
   9543   9565     1
   9543   9554     1
   9543   9555     1
   9544   9548     1
   9544   9549     1
   9544   9563     1
   9544   9564     1
   9545   9547     1
   9545   9569     1
   9545   9562     1
   9545   9557     1
   9545   9558     1
   9546   9547     1
   9546   9569     1
   9546   9562     1
   9546   9557     1
   9546   9558     1
   9547   9560     1
   9547   9561     1
   9548   9569     1
   9548   9559     1
   9548   9551     1
   9548   9552     1
   9549   9569     1
   9549   9559     1
   9549   9551     1
   9549   9552     1
   9550   9569     1
   9551   9568     1
   9551   9560     1
   9551   9561     1
   9552   9568     1
   9552   9560     1
   9552   9561     1
   9553   9569     1
   9554  17381     1
   9554   9566     1
   9554   9567     1
   9555  17381     1
   9555   9566     1
   9555   9567     1
   9556   9569     1
   9557  17358     1
   9557   9563     1
   9557   9564     1
   9558  17358     1
   9558   9563     1
   9558   9564     1
   9562  17357     1
   9563  17354     1
   9564  17354     1
   9565  17380     1
   9566  17377     1
   9567  17377     1
   9570   9584     1
   9570   9585     1
   9570   9587     1
   9570   9588     1
   9570   9581     1
   9570   9582     1
   9571   9575     1
   9571   9576     1
   9571   9578     1
   9571   9579     1
   9571   9596     1
   9571   9597     1
   9572   9574     1
   9572   9577     1
   9572   9599     1
   9572   9595     1
   9572   9584     1
   9572   9585     1
   9573   9574     1
   9573   9577     1
   9573   9599     1
   9573   9595     1
   9573   9584     1
   9573   9585     1
   9574   9578     1
   9574   9579     1
   9574   9593     1
   9574   9594     1
   9575   9577     1
   9575   9599     1
   9575   9592     1
   9575   9587     1
   9575   9588     1
   9576   9577     1
   9576   9599     1
   9576   9592     1
   9576   9587     1
   9576   9588     1
   9577   9590     1
   9577   9591     1
   9578   9599     1
   9578   9589     1
   9578   9581     1
   9578   9582     1
   9579   9599     1
   9579   9589     1
   9579   9581     1
   9579   9582     1
   9580   9599     1
   9581   9598     1
   9581   9590     1
   9581   9591     1
   9582   9598     1
   9582   9590     1
   9582   9591     1
   9583   9599     1
   9584  17427     1
   9584   9596     1
   9584   9597     1
   9585  17427     1
   9585   9596     1
   9585   9597     1
   9586   9599     1
   9587  17404     1
   9587   9593     1
   9587   9594     1
   9588  17404     1
   9588   9593     1
   9588   9594     1
   9592  17403     1
   9593  17400     1
   9594  17400     1
   9595  17426     1
   9596  17423     1
   9597  17423     1
   9600   9614     1
   9600   9615     1
   9600   9617     1
   9600   9618     1
   9600   9611     1
   9600   9612     1
   9601   9605     1
   9601   9606     1
   9601   9608     1
   9601   9609     1
   9601   9626     1
   9601   9627     1
   9602   9604     1
   9602   9607     1
   9602   9629     1
   9602   9625     1
   9602   9614     1
   9602   9615     1
   9603   9604     1
   9603   9607     1
   9603   9629     1
   9603   9625     1
   9603   9614     1
   9603   9615     1
   9604   9608     1
   9604   9609     1
   9604   9623     1
   9604   9624     1
   9605   9607     1
   9605   9629     1
   9605   9622     1
   9605   9617     1
   9605   9618     1
   9606   9607     1
   9606   9629     1
   9606   9622     1
   9606   9617     1
   9606   9618     1
   9607   9620     1
   9607   9621     1
   9608   9629     1
   9608   9619     1
   9608   9611     1
   9608   9612     1
   9609   9629     1
   9609   9619     1
   9609   9611     1
   9609   9612     1
   9610   9629     1
   9611   9628     1
   9611   9620     1
   9611   9621     1
   9612   9628     1
   9612   9620     1
   9612   9621     1
   9613   9629     1
   9614  17473     1
   9614   9626     1
   9614   9627     1
   9615  17473     1
   9615   9626     1
   9615   9627     1
   9616   9629     1
   9617  17450     1
   9617   9623     1
   9617   9624     1
   9618  17450     1
   9618   9623     1
   9618   9624     1
   9622  17449     1
   9623  17446     1
   9624  17446     1
   9625  17472     1
   9626  17469     1
   9627  17469     1
   9630   9644     1
   9630   9645     1
   9630   9647     1
   9630   9648     1
   9630   9641     1
   9630   9642     1
   9631   9635     1
   9631   9636     1
   9631   9638     1
   9631   9639     1
   9631   9656     1
   9631   9657     1
   9632   9634     1
   9632   9637     1
   9632   9659     1
   9632   9655     1
   9632   9644     1
   9632   9645     1
   9633   9634     1
   9633   9637     1
   9633   9659     1
   9633   9655     1
   9633   9644     1
   9633   9645     1
   9634   9638     1
   9634   9639     1
   9634   9653     1
   9634   9654     1
   9635   9637     1
   9635   9659     1
   9635   9652     1
   9635   9647     1
   9635   9648     1
   9636   9637     1
   9636   9659     1
   9636   9652     1
   9636   9647     1
   9636   9648     1
   9637   9650     1
   9637   9651     1
   9638   9659     1
   9638   9649     1
   9638   9641     1
   9638   9642     1
   9639   9659     1
   9639   9649     1
   9639   9641     1
   9639   9642     1
   9640   9659     1
   9641   9658     1
   9641   9650     1
   9641   9651     1
   9642   9658     1
   9642   9650     1
   9642   9651     1
   9643   9659     1
   9644  17519     1
   9644   9656     1
   9644   9657     1
   9645  17519     1
   9645   9656     1
   9645   9657     1
   9646   9659     1
   9647  17496     1
   9647   9653     1
   9647   9654     1
   9648  17496     1
   9648   9653     1
   9648   9654     1
   9652  17495     1
   9653  17492     1
   9654  17492     1
   9655  17518     1
   9656  17515     1
   9657  17515     1
   9660   9674     1
   9660   9675     1
   9660   9677     1
   9660   9678     1
   9660   9671     1
   9660   9672     1
   9661   9665     1
   9661   9666     1
   9661   9668     1
   9661   9669     1
   9661   9686     1
   9661   9687     1
   9662   9664     1
   9662   9667     1
   9662   9689     1
   9662   9685     1
   9662   9674     1
   9662   9675     1
   9663   9664     1
   9663   9667     1
   9663   9689     1
   9663   9685     1
   9663   9674     1
   9663   9675     1
   9664   9668     1
   9664   9669     1
   9664   9683     1
   9664   9684     1
   9665   9667     1
   9665   9689     1
   9665   9682     1
   9665   9677     1
   9665   9678     1
   9666   9667     1
   9666   9689     1
   9666   9682     1
   9666   9677     1
   9666   9678     1
   9667   9680     1
   9667   9681     1
   9668   9689     1
   9668   9679     1
   9668   9671     1
   9668   9672     1
   9669   9689     1
   9669   9679     1
   9669   9671     1
   9669   9672     1
   9670   9689     1
   9671   9688     1
   9671   9680     1
   9671   9681     1
   9672   9688     1
   9672   9680     1
   9672   9681     1
   9673   9689     1
   9674  17565     1
   9674   9686     1
   9674   9687     1
   9675  17565     1
   9675   9686     1
   9675   9687     1
   9676   9689     1
   9677  17542     1
   9677   9683     1
   9677   9684     1
   9678  17542     1
   9678   9683     1
   9678   9684     1
   9682  17541     1
   9683  17538     1
   9684  17538     1
   9685  17564     1
   9686  17561     1
   9687  17561     1
   9690   9704     1
   9690   9705     1
   9690   9707     1
   9690   9708     1
   9690   9701     1
   9690   9702     1
   9691   9695     1
   9691   9696     1
   9691   9698     1
   9691   9699     1
   9691   9716     1
   9691   9717     1
   9692   9694     1
   9692   9697     1
   9692   9719     1
   9692   9715     1
   9692   9704     1
   9692   9705     1
   9693   9694     1
   9693   9697     1
   9693   9719     1
   9693   9715     1
   9693   9704     1
   9693   9705     1
   9694   9698     1
   9694   9699     1
   9694   9713     1
   9694   9714     1
   9695   9697     1
   9695   9719     1
   9695   9712     1
   9695   9707     1
   9695   9708     1
   9696   9697     1
   9696   9719     1
   9696   9712     1
   9696   9707     1
   9696   9708     1
   9697   9710     1
   9697   9711     1
   9698   9719     1
   9698   9709     1
   9698   9701     1
   9698   9702     1
   9699   9719     1
   9699   9709     1
   9699   9701     1
   9699   9702     1
   9700   9719     1
   9701   9718     1
   9701   9710     1
   9701   9711     1
   9702   9718     1
   9702   9710     1
   9702   9711     1
   9703   9719     1
   9704  17611     1
   9704   9716     1
   9704   9717     1
   9705  17611     1
   9705   9716     1
   9705   9717     1
   9706   9719     1
   9707  17588     1
   9707   9713     1
   9707   9714     1
   9708  17588     1
   9708   9713     1
   9708   9714     1
   9712  17587     1
   9713  17584     1
   9714  17584     1
   9715  17610     1
   9716  17607     1
   9717  17607     1
   9720   9734     1
   9720   9735     1
   9720   9737     1
   9720   9738     1
   9720   9731     1
   9720   9732     1
   9721   9725     1
   9721   9726     1
   9721   9728     1
   9721   9729     1
   9721   9746     1
   9721   9747     1
   9722   9724     1
   9722   9727     1
   9722   9749     1
   9722   9745     1
   9722   9734     1
   9722   9735     1
   9723   9724     1
   9723   9727     1
   9723   9749     1
   9723   9745     1
   9723   9734     1
   9723   9735     1
   9724   9728     1
   9724   9729     1
   9724   9743     1
   9724   9744     1
   9725   9727     1
   9725   9749     1
   9725   9742     1
   9725   9737     1
   9725   9738     1
   9726   9727     1
   9726   9749     1
   9726   9742     1
   9726   9737     1
   9726   9738     1
   9727   9740     1
   9727   9741     1
   9728   9749     1
   9728   9739     1
   9728   9731     1
   9728   9732     1
   9729   9749     1
   9729   9739     1
   9729   9731     1
   9729   9732     1
   9730   9749     1
   9731   9748     1
   9731   9740     1
   9731   9741     1
   9732   9748     1
   9732   9740     1
   9732   9741     1
   9733   9749     1
   9734  17657     1
   9734   9746     1
   9734   9747     1
   9735  17657     1
   9735   9746     1
   9735   9747     1
   9736   9749     1
   9737  17634     1
   9737   9743     1
   9737   9744     1
   9738  17634     1
   9738   9743     1
   9738   9744     1
   9742  17633     1
   9743  17630     1
   9744  17630     1
   9745  17656     1
   9746  17653     1
   9747  17653     1
   9750   9764     1
   9750   9765     1
   9750   9767     1
   9750   9768     1
   9750   9761     1
   9750   9762     1
   9751   9755     1
   9751   9756     1
   9751   9758     1
   9751   9759     1
   9751   9776     1
   9751   9777     1
   9752   9754     1
   9752   9757     1
   9752   9779     1
   9752   9775     1
   9752   9764     1
   9752   9765     1
   9753   9754     1
   9753   9757     1
   9753   9779     1
   9753   9775     1
   9753   9764     1
   9753   9765     1
   9754   9758     1
   9754   9759     1
   9754   9773     1
   9754   9774     1
   9755   9757     1
   9755   9779     1
   9755   9772     1
   9755   9767     1
   9755   9768     1
   9756   9757     1
   9756   9779     1
   9756   9772     1
   9756   9767     1
   9756   9768     1
   9757   9770     1
   9757   9771     1
   9758   9779     1
   9758   9769     1
   9758   9761     1
   9758   9762     1
   9759   9779     1
   9759   9769     1
   9759   9761     1
   9759   9762     1
   9760   9779     1
   9761   9778     1
   9761   9770     1
   9761   9771     1
   9762   9778     1
   9762   9770     1
   9762   9771     1
   9763   9779     1
   9764  17703     1
   9764   9776     1
   9764   9777     1
   9765  17703     1
   9765   9776     1
   9765   9777     1
   9766   9779     1
   9767  17680     1
   9767   9773     1
   9767   9774     1
   9768  17680     1
   9768   9773     1
   9768   9774     1
   9772  17679     1
   9773  17676     1
   9774  17676     1
   9775  17702     1
   9776  17699     1
   9777  17699     1
   9780   9794     1
   9780   9795     1
   9780   9797     1
   9780   9798     1
   9780   9791     1
   9780   9792     1
   9781   9785     1
   9781   9786     1
   9781   9788     1
   9781   9789     1
   9781   9806     1
   9781   9807     1
   9782   9784     1
   9782   9787     1
   9782   9809     1
   9782   9805     1
   9782   9794     1
   9782   9795     1
   9783   9784     1
   9783   9787     1
   9783   9809     1
   9783   9805     1
   9783   9794     1
   9783   9795     1
   9784   9788     1
   9784   9789     1
   9784   9803     1
   9784   9804     1
   9785   9787     1
   9785   9809     1
   9785   9802     1
   9785   9797     1
   9785   9798     1
   9786   9787     1
   9786   9809     1
   9786   9802     1
   9786   9797     1
   9786   9798     1
   9787   9800     1
   9787   9801     1
   9788   9809     1
   9788   9799     1
   9788   9791     1
   9788   9792     1
   9789   9809     1
   9789   9799     1
   9789   9791     1
   9789   9792     1
   9790   9809     1
   9791   9808     1
   9791   9800     1
   9791   9801     1
   9792   9808     1
   9792   9800     1
   9792   9801     1
   9793   9809     1
   9794  17749     1
   9794   9806     1
   9794   9807     1
   9795  17749     1
   9795   9806     1
   9795   9807     1
   9796   9809     1
   9797  17726     1
   9797   9803     1
   9797   9804     1
   9798  17726     1
   9798   9803     1
   9798   9804     1
   9802  17725     1
   9803  17722     1
   9804  17722     1
   9805  17748     1
   9806  17745     1
   9807  17745     1
   9810   9824     1
   9810   9825     1
   9810   9827     1
   9810   9828     1
   9810   9821     1
   9810   9822     1
   9811   9815     1
   9811   9816     1
   9811   9818     1
   9811   9819     1
   9811   9836     1
   9811   9837     1
   9812   9814     1
   9812   9817     1
   9812   9839     1
   9812   9835     1
   9812   9824     1
   9812   9825     1
   9813   9814     1
   9813   9817     1
   9813   9839     1
   9813   9835     1
   9813   9824     1
   9813   9825     1
   9814   9818     1
   9814   9819     1
   9814   9833     1
   9814   9834     1
   9815   9817     1
   9815   9839     1
   9815   9832     1
   9815   9827     1
   9815   9828     1
   9816   9817     1
   9816   9839     1
   9816   9832     1
   9816   9827     1
   9816   9828     1
   9817   9830     1
   9817   9831     1
   9818   9839     1
   9818   9829     1
   9818   9821     1
   9818   9822     1
   9819   9839     1
   9819   9829     1
   9819   9821     1
   9819   9822     1
   9820   9839     1
   9821   9838     1
   9821   9830     1
   9821   9831     1
   9822   9838     1
   9822   9830     1
   9822   9831     1
   9823   9839     1
   9824  17795     1
   9824   9836     1
   9824   9837     1
   9825  17795     1
   9825   9836     1
   9825   9837     1
   9826   9839     1
   9827  17772     1
   9827   9833     1
   9827   9834     1
   9828  17772     1
   9828   9833     1
   9828   9834     1
   9832  17771     1
   9833  17768     1
   9834  17768     1
   9835  17794     1
   9836  17791     1
   9837  17791     1
   9840   9854     1
   9840   9855     1
   9840   9857     1
   9840   9858     1
   9840   9851     1
   9840   9852     1
   9841   9845     1
   9841   9846     1
   9841   9848     1
   9841   9849     1
   9841   9866     1
   9841   9867     1
   9842   9844     1
   9842   9847     1
   9842   9869     1
   9842   9865     1
   9842   9854     1
   9842   9855     1
   9843   9844     1
   9843   9847     1
   9843   9869     1
   9843   9865     1
   9843   9854     1
   9843   9855     1
   9844   9848     1
   9844   9849     1
   9844   9863     1
   9844   9864     1
   9845   9847     1
   9845   9869     1
   9845   9862     1
   9845   9857     1
   9845   9858     1
   9846   9847     1
   9846   9869     1
   9846   9862     1
   9846   9857     1
   9846   9858     1
   9847   9860     1
   9847   9861     1
   9848   9869     1
   9848   9859     1
   9848   9851     1
   9848   9852     1
   9849   9869     1
   9849   9859     1
   9849   9851     1
   9849   9852     1
   9850   9869     1
   9851   9868     1
   9851   9860     1
   9851   9861     1
   9852   9868     1
   9852   9860     1
   9852   9861     1
   9853   9869     1
   9854  17841     1
   9854   9866     1
   9854   9867     1
   9855  17841     1
   9855   9866     1
   9855   9867     1
   9856   9869     1
   9857  17818     1
   9857   9863     1
   9857   9864     1
   9858  17818     1
   9858   9863     1
   9858   9864     1
   9862  17817     1
   9863  17814     1
   9864  17814     1
   9865  17840     1
   9866  17837     1
   9867  17837     1
   9870   9884     1
   9870   9885     1
   9870   9887     1
   9870   9888     1
   9870   9881     1
   9870   9882     1
   9871   9875     1
   9871   9876     1
   9871   9878     1
   9871   9879     1
   9871   9896     1
   9871   9897     1
   9872   9874     1
   9872   9877     1
   9872   9899     1
   9872   9895     1
   9872   9884     1
   9872   9885     1
   9873   9874     1
   9873   9877     1
   9873   9899     1
   9873   9895     1
   9873   9884     1
   9873   9885     1
   9874   9878     1
   9874   9879     1
   9874   9893     1
   9874   9894     1
   9875   9877     1
   9875   9899     1
   9875   9892     1
   9875   9887     1
   9875   9888     1
   9876   9877     1
   9876   9899     1
   9876   9892     1
   9876   9887     1
   9876   9888     1
   9877   9890     1
   9877   9891     1
   9878   9899     1
   9878   9889     1
   9878   9881     1
   9878   9882     1
   9879   9899     1
   9879   9889     1
   9879   9881     1
   9879   9882     1
   9880   9899     1
   9881   9898     1
   9881   9890     1
   9881   9891     1
   9882   9898     1
   9882   9890     1
   9882   9891     1
   9883   9899     1
   9884  17887     1
   9884   9896     1
   9884   9897     1
   9885  17887     1
   9885   9896     1
   9885   9897     1
   9886   9899     1
   9887  17864     1
   9887   9893     1
   9887   9894     1
   9888  17864     1
   9888   9893     1
   9888   9894     1
   9892  17863     1
   9893  17860     1
   9894  17860     1
   9895  17886     1
   9896  17883     1
   9897  17883     1
   9900   9914     1
   9900   9915     1
   9900   9917     1
   9900   9918     1
   9900   9911     1
   9900   9912     1
   9901   9905     1
   9901   9906     1
   9901   9908     1
   9901   9909     1
   9901   9926     1
   9901   9927     1
   9902   9904     1
   9902   9907     1
   9902   9929     1
   9902   9925     1
   9902   9914     1
   9902   9915     1
   9903   9904     1
   9903   9907     1
   9903   9929     1
   9903   9925     1
   9903   9914     1
   9903   9915     1
   9904   9908     1
   9904   9909     1
   9904   9923     1
   9904   9924     1
   9905   9907     1
   9905   9929     1
   9905   9922     1
   9905   9917     1
   9905   9918     1
   9906   9907     1
   9906   9929     1
   9906   9922     1
   9906   9917     1
   9906   9918     1
   9907   9920     1
   9907   9921     1
   9908   9929     1
   9908   9919     1
   9908   9911     1
   9908   9912     1
   9909   9929     1
   9909   9919     1
   9909   9911     1
   9909   9912     1
   9910   9929     1
   9911   9928     1
   9911   9920     1
   9911   9921     1
   9912   9928     1
   9912   9920     1
   9912   9921     1
   9913   9929     1
   9914  17933     1
   9914   9926     1
   9914   9927     1
   9915  17933     1
   9915   9926     1
   9915   9927     1
   9916   9929     1
   9917  17910     1
   9917   9923     1
   9917   9924     1
   9918  17910     1
   9918   9923     1
   9918   9924     1
   9922  17909     1
   9923  17906     1
   9924  17906     1
   9925  17932     1
   9926  17929     1
   9927  17929     1
   9930   9944     1
   9930   9945     1
   9930   9947     1
   9930   9948     1
   9930   9941     1
   9930   9942     1
   9931   9935     1
   9931   9936     1
   9931   9938     1
   9931   9939     1
   9931   9956     1
   9931   9957     1
   9932   9934     1
   9932   9937     1
   9932   9959     1
   9932   9955     1
   9932   9944     1
   9932   9945     1
   9933   9934     1
   9933   9937     1
   9933   9959     1
   9933   9955     1
   9933   9944     1
   9933   9945     1
   9934   9938     1
   9934   9939     1
   9934   9953     1
   9934   9954     1
   9935   9937     1
   9935   9959     1
   9935   9952     1
   9935   9947     1
   9935   9948     1
   9936   9937     1
   9936   9959     1
   9936   9952     1
   9936   9947     1
   9936   9948     1
   9937   9950     1
   9937   9951     1
   9938   9959     1
   9938   9949     1
   9938   9941     1
   9938   9942     1
   9939   9959     1
   9939   9949     1
   9939   9941     1
   9939   9942     1
   9940   9959     1
   9941   9958     1
   9941   9950     1
   9941   9951     1
   9942   9958     1
   9942   9950     1
   9942   9951     1
   9943   9959     1
   9944  17979     1
   9944   9956     1
   9944   9957     1
   9945  17979     1
   9945   9956     1
   9945   9957     1
   9946   9959     1
   9947  17956     1
   9947   9953     1
   9947   9954     1
   9948  17956     1
   9948   9953     1
   9948   9954     1
   9952  17955     1
   9953  17952     1
   9954  17952     1
   9955  17978     1
   9956  17975     1
   9957  17975     1
   9960   9974     1
   9960   9975     1
   9960   9977     1
   9960   9978     1
   9960   9971     1
   9960   9972     1
   9961   9965     1
   9961   9966     1
   9961   9968     1
   9961   9969     1
   9961   9986     1
   9961   9987     1
   9962   9964     1
   9962   9967     1
   9962   9989     1
   9962   9985     1
   9962   9974     1
   9962   9975     1
   9963   9964     1
   9963   9967     1
   9963   9989     1
   9963   9985     1
   9963   9974     1
   9963   9975     1
   9964   9968     1
   9964   9969     1
   9964   9983     1
   9964   9984     1
   9965   9967     1
   9965   9989     1
   9965   9982     1
   9965   9977     1
   9965   9978     1
   9966   9967     1
   9966   9989     1
   9966   9982     1
   9966   9977     1
   9966   9978     1
   9967   9980     1
   9967   9981     1
   9968   9989     1
   9968   9979     1
   9968   9971     1
   9968   9972     1
   9969   9989     1
   9969   9979     1
   9969   9971     1
   9969   9972     1
   9970   9989     1
   9971   9988     1
   9971   9980     1
   9971   9981     1
   9972   9988     1
   9972   9980     1
   9972   9981     1
   9973   9989     1
   9974  18025     1
   9974   9986     1
   9974   9987     1
   9975  18025     1
   9975   9986     1
   9975   9987     1
   9976   9989     1
   9977  18002     1
   9977   9983     1
   9977   9984     1
   9978  18002     1
   9978   9983     1
   9978   9984     1
   9982  18001     1
   9983  17998     1
   9984  17998     1
   9985  18024     1
   9986  18021     1
   9987  18021     1
   9990  10004     1
   9990  10005     1
   9990  10007     1
   9990  10008     1
   9990  10001     1
   9990  10002     1
   9991   9995     1
   9991   9996     1
   9991   9998     1
   9991   9999     1
   9991  10016     1
   9991  10017     1
   9992   9994     1
   9992   9997     1
   9992  10019     1
   9992  10015     1
   9992  10004     1
   9992  10005     1
   9993   9994     1
   9993   9997     1
   9993  10019     1
   9993  10015     1
   9993  10004     1
   9993  10005     1
   9994   9998     1
   9994   9999     1
   9994  10013     1
   9994  10014     1
   9995   9997     1
   9995  10019     1
   9995  10012     1
   9995  10007     1
   9995  10008     1
   9996   9997     1
   9996  10019     1
   9996  10012     1
   9996  10007     1
   9996  10008     1
   9997  10010     1
   9997  10011     1
   9998  10019     1
   9998  10009     1
   9998  10001     1
   9998  10002     1
   9999  10019     1
   9999  10009     1
   9999  10001     1
   9999  10002     1
  10000  10019     1
  10001  10018     1
  10001  10010     1
  10001  10011     1
  10002  10018     1
  10002  10010     1
  10002  10011     1
  10003  10019     1
  10004  18071     1
  10004  10016     1
  10004  10017     1
  10005  18071     1
  10005  10016     1
  10005  10017     1
  10006  10019     1
  10007  18048     1
  10007  10013     1
  10007  10014     1
  10008  18048     1
  10008  10013     1
  10008  10014     1
  10012  18047     1
  10013  18044     1
  10014  18044     1
  10015  18070     1
  10016  18067     1
  10017  18067     1
  10020  10034     1
  10020  10035     1
  10020  10037     1
  10020  10038     1
  10020  10031     1
  10020  10032     1
  10021  10025     1
  10021  10026     1
  10021  10028     1
  10021  10029     1
  10021  10046     1
  10021  10047     1
  10022  10024     1
  10022  10027     1
  10022  10049     1
  10022  10045     1
  10022  10034     1
  10022  10035     1
  10023  10024     1
  10023  10027     1
  10023  10049     1
  10023  10045     1
  10023  10034     1
  10023  10035     1
  10024  10028     1
  10024  10029     1
  10024  10043     1
  10024  10044     1
  10025  10027     1
  10025  10049     1
  10025  10042     1
  10025  10037     1
  10025  10038     1
  10026  10027     1
  10026  10049     1
  10026  10042     1
  10026  10037     1
  10026  10038     1
  10027  10040     1
  10027  10041     1
  10028  10049     1
  10028  10039     1
  10028  10031     1
  10028  10032     1
  10029  10049     1
  10029  10039     1
  10029  10031     1
  10029  10032     1
  10030  10049     1
  10031  10048     1
  10031  10040     1
  10031  10041     1
  10032  10048     1
  10032  10040     1
  10032  10041     1
  10033  10049     1
  10034  18117     1
  10034  10046     1
  10034  10047     1
  10035  18117     1
  10035  10046     1
  10035  10047     1
  10036  10049     1
  10037  18094     1
  10037  10043     1
  10037  10044     1
  10038  18094     1
  10038  10043     1
  10038  10044     1
  10042  18093     1
  10043  18090     1
  10044  18090     1
  10045  18116     1
  10046  18113     1
  10047  18113     1
  10050  10064     1
  10050  10065     1
  10050  10067     1
  10050  10068     1
  10050  10061     1
  10050  10062     1
  10051  10055     1
  10051  10056     1
  10051  10058     1
  10051  10059     1
  10051  10076     1
  10051  10077     1
  10052  10054     1
  10052  10057     1
  10052  10079     1
  10052  10075     1
  10052  10064     1
  10052  10065     1
  10053  10054     1
  10053  10057     1
  10053  10079     1
  10053  10075     1
  10053  10064     1
  10053  10065     1
  10054  10058     1
  10054  10059     1
  10054  10073     1
  10054  10074     1
  10055  10057     1
  10055  10079     1
  10055  10072     1
  10055  10067     1
  10055  10068     1
  10056  10057     1
  10056  10079     1
  10056  10072     1
  10056  10067     1
  10056  10068     1
  10057  10070     1
  10057  10071     1
  10058  10079     1
  10058  10069     1
  10058  10061     1
  10058  10062     1
  10059  10079     1
  10059  10069     1
  10059  10061     1
  10059  10062     1
  10060  10079     1
  10061  10078     1
  10061  10070     1
  10061  10071     1
  10062  10078     1
  10062  10070     1
  10062  10071     1
  10063  10079     1
  10064  18163     1
  10064  10076     1
  10064  10077     1
  10065  18163     1
  10065  10076     1
  10065  10077     1
  10066  10079     1
  10067  18140     1
  10067  10073     1
  10067  10074     1
  10068  18140     1
  10068  10073     1
  10068  10074     1
  10072  18139     1
  10073  18136     1
  10074  18136     1
  10075  18162     1
  10076  18159     1
  10077  18159     1
  10080  10094     1
  10080  10095     1
  10080  10097     1
  10080  10098     1
  10080  10091     1
  10080  10092     1
  10081  10085     1
  10081  10086     1
  10081  10088     1
  10081  10089     1
  10081  10106     1
  10081  10107     1
  10082  10084     1
  10082  10087     1
  10082  10109     1
  10082  10105     1
  10082  10094     1
  10082  10095     1
  10083  10084     1
  10083  10087     1
  10083  10109     1
  10083  10105     1
  10083  10094     1
  10083  10095     1
  10084  10088     1
  10084  10089     1
  10084  10103     1
  10084  10104     1
  10085  10087     1
  10085  10109     1
  10085  10102     1
  10085  10097     1
  10085  10098     1
  10086  10087     1
  10086  10109     1
  10086  10102     1
  10086  10097     1
  10086  10098     1
  10087  10100     1
  10087  10101     1
  10088  10109     1
  10088  10099     1
  10088  10091     1
  10088  10092     1
  10089  10109     1
  10089  10099     1
  10089  10091     1
  10089  10092     1
  10090  10109     1
  10091  10108     1
  10091  10100     1
  10091  10101     1
  10092  10108     1
  10092  10100     1
  10092  10101     1
  10093  10109     1
  10094  18209     1
  10094  10106     1
  10094  10107     1
  10095  18209     1
  10095  10106     1
  10095  10107     1
  10096  10109     1
  10097  18186     1
  10097  10103     1
  10097  10104     1
  10098  18186     1
  10098  10103     1
  10098  10104     1
  10102  18185     1
  10103  18182     1
  10104  18182     1
  10105  18208     1
  10106  18205     1
  10107  18205     1
  10110  10124     1
  10110  10125     1
  10110  10127     1
  10110  10128     1
  10110  10121     1
  10110  10122     1
  10111  10115     1
  10111  10116     1
  10111  10118     1
  10111  10119     1
  10111  10136     1
  10111  10137     1
  10112  10114     1
  10112  10117     1
  10112  10139     1
  10112  10135     1
  10112  10124     1
  10112  10125     1
  10113  10114     1
  10113  10117     1
  10113  10139     1
  10113  10135     1
  10113  10124     1
  10113  10125     1
  10114  10118     1
  10114  10119     1
  10114  10133     1
  10114  10134     1
  10115  10117     1
  10115  10139     1
  10115  10132     1
  10115  10127     1
  10115  10128     1
  10116  10117     1
  10116  10139     1
  10116  10132     1
  10116  10127     1
  10116  10128     1
  10117  10130     1
  10117  10131     1
  10118  10139     1
  10118  10129     1
  10118  10121     1
  10118  10122     1
  10119  10139     1
  10119  10129     1
  10119  10121     1
  10119  10122     1
  10120  10139     1
  10121  10138     1
  10121  10130     1
  10121  10131     1
  10122  10138     1
  10122  10130     1
  10122  10131     1
  10123  10139     1
  10124  18255     1
  10124  10136     1
  10124  10137     1
  10125  18255     1
  10125  10136     1
  10125  10137     1
  10126  10139     1
  10127  18232     1
  10127  10133     1
  10127  10134     1
  10128  18232     1
  10128  10133     1
  10128  10134     1
  10132  18231     1
  10133  18228     1
  10134  18228     1
  10135  18254     1
  10136  18251     1
  10137  18251     1
  10140  10154     1
  10140  10155     1
  10140  10157     1
  10140  10158     1
  10140  10151     1
  10140  10152     1
  10141  10145     1
  10141  10146     1
  10141  10148     1
  10141  10149     1
  10141  10166     1
  10141  10167     1
  10142  10144     1
  10142  10147     1
  10142  10169     1
  10142  10165     1
  10142  10154     1
  10142  10155     1
  10143  10144     1
  10143  10147     1
  10143  10169     1
  10143  10165     1
  10143  10154     1
  10143  10155     1
  10144  10148     1
  10144  10149     1
  10144  10163     1
  10144  10164     1
  10145  10147     1
  10145  10169     1
  10145  10162     1
  10145  10157     1
  10145  10158     1
  10146  10147     1
  10146  10169     1
  10146  10162     1
  10146  10157     1
  10146  10158     1
  10147  10160     1
  10147  10161     1
  10148  10169     1
  10148  10159     1
  10148  10151     1
  10148  10152     1
  10149  10169     1
  10149  10159     1
  10149  10151     1
  10149  10152     1
  10150  10169     1
  10151  10168     1
  10151  10160     1
  10151  10161     1
  10152  10168     1
  10152  10160     1
  10152  10161     1
  10153  10169     1
  10154  18301     1
  10154  10166     1
  10154  10167     1
  10155  18301     1
  10155  10166     1
  10155  10167     1
  10156  10169     1
  10157  18278     1
  10157  10163     1
  10157  10164     1
  10158  18278     1
  10158  10163     1
  10158  10164     1
  10162  18277     1
  10163  18274     1
  10164  18274     1
  10165  18300     1
  10166  18297     1
  10167  18297     1
  10170  10184     1
  10170  10185     1
  10170  10187     1
  10170  10188     1
  10170  10181     1
  10170  10182     1
  10171  10175     1
  10171  10176     1
  10171  10178     1
  10171  10179     1
  10171  10196     1
  10171  10197     1
  10172  10174     1
  10172  10177     1
  10172  10199     1
  10172  10195     1
  10172  10184     1
  10172  10185     1
  10173  10174     1
  10173  10177     1
  10173  10199     1
  10173  10195     1
  10173  10184     1
  10173  10185     1
  10174  10178     1
  10174  10179     1
  10174  10193     1
  10174  10194     1
  10175  10177     1
  10175  10199     1
  10175  10192     1
  10175  10187     1
  10175  10188     1
  10176  10177     1
  10176  10199     1
  10176  10192     1
  10176  10187     1
  10176  10188     1
  10177  10190     1
  10177  10191     1
  10178  10199     1
  10178  10189     1
  10178  10181     1
  10178  10182     1
  10179  10199     1
  10179  10189     1
  10179  10181     1
  10179  10182     1
  10180  10199     1
  10181  10198     1
  10181  10190     1
  10181  10191     1
  10182  10198     1
  10182  10190     1
  10182  10191     1
  10183  10199     1
  10184  18347     1
  10184  10196     1
  10184  10197     1
  10185  18347     1
  10185  10196     1
  10185  10197     1
  10186  10199     1
  10187  18324     1
  10187  10193     1
  10187  10194     1
  10188  18324     1
  10188  10193     1
  10188  10194     1
  10192  18323     1
  10193  18320     1
  10194  18320     1
  10195  18346     1
  10196  18343     1
  10197  18343     1
  10200  10214     1
  10200  10215     1
  10200  10217     1
  10200  10218     1
  10200  10211     1
  10200  10212     1
  10201  10205     1
  10201  10206     1
  10201  10208     1
  10201  10209     1
  10201  10226     1
  10201  10227     1
  10202  10204     1
  10202  10207     1
  10202  10229     1
  10202  10225     1
  10202  10214     1
  10202  10215     1
  10203  10204     1
  10203  10207     1
  10203  10229     1
  10203  10225     1
  10203  10214     1
  10203  10215     1
  10204  10208     1
  10204  10209     1
  10204  10223     1
  10204  10224     1
  10205  10207     1
  10205  10229     1
  10205  10222     1
  10205  10217     1
  10205  10218     1
  10206  10207     1
  10206  10229     1
  10206  10222     1
  10206  10217     1
  10206  10218     1
  10207  10220     1
  10207  10221     1
  10208  10229     1
  10208  10219     1
  10208  10211     1
  10208  10212     1
  10209  10229     1
  10209  10219     1
  10209  10211     1
  10209  10212     1
  10210  10229     1
  10211  10228     1
  10211  10220     1
  10211  10221     1
  10212  10228     1
  10212  10220     1
  10212  10221     1
  10213  10229     1
  10214  18393     1
  10214  10226     1
  10214  10227     1
  10215  18393     1
  10215  10226     1
  10215  10227     1
  10216  10229     1
  10217  18370     1
  10217  10223     1
  10217  10224     1
  10218  18370     1
  10218  10223     1
  10218  10224     1
  10222  18369     1
  10223  18366     1
  10224  18366     1
  10225  18392     1
  10226  18389     1
  10227  18389     1
  10230  10244     1
  10230  10245     1
  10230  10247     1
  10230  10248     1
  10230  10241     1
  10230  10242     1
  10231  10235     1
  10231  10236     1
  10231  10238     1
  10231  10239     1
  10231  10256     1
  10231  10257     1
  10232  10234     1
  10232  10237     1
  10232  10259     1
  10232  10255     1
  10232  10244     1
  10232  10245     1
  10233  10234     1
  10233  10237     1
  10233  10259     1
  10233  10255     1
  10233  10244     1
  10233  10245     1
  10234  10238     1
  10234  10239     1
  10234  10253     1
  10234  10254     1
  10235  10237     1
  10235  10259     1
  10235  10252     1
  10235  10247     1
  10235  10248     1
  10236  10237     1
  10236  10259     1
  10236  10252     1
  10236  10247     1
  10236  10248     1
  10237  10250     1
  10237  10251     1
  10238  10259     1
  10238  10249     1
  10238  10241     1
  10238  10242     1
  10239  10259     1
  10239  10249     1
  10239  10241     1
  10239  10242     1
  10240  10259     1
  10241  10258     1
  10241  10250     1
  10241  10251     1
  10242  10258     1
  10242  10250     1
  10242  10251     1
  10243  10259     1
  10244  18439     1
  10244  10256     1
  10244  10257     1
  10245  18439     1
  10245  10256     1
  10245  10257     1
  10246  10259     1
  10247  18416     1
  10247  10253     1
  10247  10254     1
  10248  18416     1
  10248  10253     1
  10248  10254     1
  10252  18415     1
  10253  18412     1
  10254  18412     1
  10255  18438     1
  10256  18435     1
  10257  18435     1
  10260  10274     1
  10260  10275     1
  10260  10277     1
  10260  10278     1
  10260  10271     1
  10260  10272     1
  10261  10265     1
  10261  10266     1
  10261  10268     1
  10261  10269     1
  10261  10286     1
  10261  10287     1
  10262  10264     1
  10262  10267     1
  10262  10289     1
  10262  10285     1
  10262  10274     1
  10262  10275     1
  10263  10264     1
  10263  10267     1
  10263  10289     1
  10263  10285     1
  10263  10274     1
  10263  10275     1
  10264  10268     1
  10264  10269     1
  10264  10283     1
  10264  10284     1
  10265  10267     1
  10265  10289     1
  10265  10282     1
  10265  10277     1
  10265  10278     1
  10266  10267     1
  10266  10289     1
  10266  10282     1
  10266  10277     1
  10266  10278     1
  10267  10280     1
  10267  10281     1
  10268  10289     1
  10268  10279     1
  10268  10271     1
  10268  10272     1
  10269  10289     1
  10269  10279     1
  10269  10271     1
  10269  10272     1
  10270  10289     1
  10271  10288     1
  10271  10280     1
  10271  10281     1
  10272  10288     1
  10272  10280     1
  10272  10281     1
  10273  10289     1
  10274  18485     1
  10274  10286     1
  10274  10287     1
  10275  18485     1
  10275  10286     1
  10275  10287     1
  10276  10289     1
  10277  18462     1
  10277  10283     1
  10277  10284     1
  10278  18462     1
  10278  10283     1
  10278  10284     1
  10282  18461     1
  10283  18458     1
  10284  18458     1
  10285  18484     1
  10286  18481     1
  10287  18481     1
  10290  10304     1
  10290  10305     1
  10290  10307     1
  10290  10308     1
  10290  10301     1
  10290  10302     1
  10291  10295     1
  10291  10296     1
  10291  10298     1
  10291  10299     1
  10291  10316     1
  10291  10317     1
  10292  10294     1
  10292  10297     1
  10292  10319     1
  10292  10315     1
  10292  10304     1
  10292  10305     1
  10293  10294     1
  10293  10297     1
  10293  10319     1
  10293  10315     1
  10293  10304     1
  10293  10305     1
  10294  10298     1
  10294  10299     1
  10294  10313     1
  10294  10314     1
  10295  10297     1
  10295  10319     1
  10295  10312     1
  10295  10307     1
  10295  10308     1
  10296  10297     1
  10296  10319     1
  10296  10312     1
  10296  10307     1
  10296  10308     1
  10297  10310     1
  10297  10311     1
  10298  10319     1
  10298  10309     1
  10298  10301     1
  10298  10302     1
  10299  10319     1
  10299  10309     1
  10299  10301     1
  10299  10302     1
  10300  10319     1
  10301  10318     1
  10301  10310     1
  10301  10311     1
  10302  10318     1
  10302  10310     1
  10302  10311     1
  10303  10319     1
  10304  18531     1
  10304  10316     1
  10304  10317     1
  10305  18531     1
  10305  10316     1
  10305  10317     1
  10306  10319     1
  10307  18508     1
  10307  10313     1
  10307  10314     1
  10308  18508     1
  10308  10313     1
  10308  10314     1
  10312  18507     1
  10313  18504     1
  10314  18504     1
  10315  18530     1
  10316  18527     1
  10317  18527     1
  10320  10334     1
  10320  10335     1
  10320  10337     1
  10320  10338     1
  10320  10331     1
  10320  10332     1
  10321  10325     1
  10321  10326     1
  10321  10328     1
  10321  10329     1
  10321  10346     1
  10321  10347     1
  10322  10324     1
  10322  10327     1
  10322  10349     1
  10322  10345     1
  10322  10334     1
  10322  10335     1
  10323  10324     1
  10323  10327     1
  10323  10349     1
  10323  10345     1
  10323  10334     1
  10323  10335     1
  10324  10328     1
  10324  10329     1
  10324  10343     1
  10324  10344     1
  10325  10327     1
  10325  10349     1
  10325  10342     1
  10325  10337     1
  10325  10338     1
  10326  10327     1
  10326  10349     1
  10326  10342     1
  10326  10337     1
  10326  10338     1
  10327  10340     1
  10327  10341     1
  10328  10349     1
  10328  10339     1
  10328  10331     1
  10328  10332     1
  10329  10349     1
  10329  10339     1
  10329  10331     1
  10329  10332     1
  10330  10349     1
  10331  10348     1
  10331  10340     1
  10331  10341     1
  10332  10348     1
  10332  10340     1
  10332  10341     1
  10333  10349     1
  10334  18577     1
  10334  10346     1
  10334  10347     1
  10335  18577     1
  10335  10346     1
  10335  10347     1
  10336  10349     1
  10337  18554     1
  10337  10343     1
  10337  10344     1
  10338  18554     1
  10338  10343     1
  10338  10344     1
  10342  18553     1
  10343  18550     1
  10344  18550     1
  10345  18576     1
  10346  18573     1
  10347  18573     1
  10350  10364     1
  10350  10365     1
  10350  10367     1
  10350  10368     1
  10350  10361     1
  10350  10362     1
  10351  10355     1
  10351  10356     1
  10351  10358     1
  10351  10359     1
  10351  10376     1
  10351  10377     1
  10352  10354     1
  10352  10357     1
  10352  10379     1
  10352  10375     1
  10352  10364     1
  10352  10365     1
  10353  10354     1
  10353  10357     1
  10353  10379     1
  10353  10375     1
  10353  10364     1
  10353  10365     1
  10354  10358     1
  10354  10359     1
  10354  10373     1
  10354  10374     1
  10355  10357     1
  10355  10379     1
  10355  10372     1
  10355  10367     1
  10355  10368     1
  10356  10357     1
  10356  10379     1
  10356  10372     1
  10356  10367     1
  10356  10368     1
  10357  10370     1
  10357  10371     1
  10358  10379     1
  10358  10369     1
  10358  10361     1
  10358  10362     1
  10359  10379     1
  10359  10369     1
  10359  10361     1
  10359  10362     1
  10360  10379     1
  10361  10378     1
  10361  10370     1
  10361  10371     1
  10362  10378     1
  10362  10370     1
  10362  10371     1
  10363  10379     1
  10364  18623     1
  10364  10376     1
  10364  10377     1
  10365  18623     1
  10365  10376     1
  10365  10377     1
  10366  10379     1
  10367  18600     1
  10367  10373     1
  10367  10374     1
  10368  18600     1
  10368  10373     1
  10368  10374     1
  10372  18599     1
  10373  18596     1
  10374  18596     1
  10375  18622     1
  10376  18619     1
  10377  18619     1
  10380  10394     1
  10380  10395     1
  10380  10397     1
  10380  10398     1
  10380  10391     1
  10380  10392     1
  10381  10385     1
  10381  10386     1
  10381  10388     1
  10381  10389     1
  10381  10406     1
  10381  10407     1
  10382  10384     1
  10382  10387     1
  10382  10409     1
  10382  10405     1
  10382  10394     1
  10382  10395     1
  10383  10384     1
  10383  10387     1
  10383  10409     1
  10383  10405     1
  10383  10394     1
  10383  10395     1
  10384  10388     1
  10384  10389     1
  10384  10403     1
  10384  10404     1
  10385  10387     1
  10385  10409     1
  10385  10402     1
  10385  10397     1
  10385  10398     1
  10386  10387     1
  10386  10409     1
  10386  10402     1
  10386  10397     1
  10386  10398     1
  10387  10400     1
  10387  10401     1
  10388  10409     1
  10388  10399     1
  10388  10391     1
  10388  10392     1
  10389  10409     1
  10389  10399     1
  10389  10391     1
  10389  10392     1
  10390  10409     1
  10391  10408     1
  10391  10400     1
  10391  10401     1
  10392  10408     1
  10392  10400     1
  10392  10401     1
  10393  10409     1
  10394  18669     1
  10394  10406     1
  10394  10407     1
  10395  18669     1
  10395  10406     1
  10395  10407     1
  10396  10409     1
  10397  18646     1
  10397  10403     1
  10397  10404     1
  10398  18646     1
  10398  10403     1
  10398  10404     1
  10402  18645     1
  10403  18642     1
  10404  18642     1
  10405  18668     1
  10406  18665     1
  10407  18665     1
  10410  10424     1
  10410  10425     1
  10410  10427     1
  10410  10428     1
  10410  10421     1
  10410  10422     1
  10411  10415     1
  10411  10416     1
  10411  10418     1
  10411  10419     1
  10411  10436     1
  10411  10437     1
  10412  10414     1
  10412  10417     1
  10412  10439     1
  10412  10435     1
  10412  10424     1
  10412  10425     1
  10413  10414     1
  10413  10417     1
  10413  10439     1
  10413  10435     1
  10413  10424     1
  10413  10425     1
  10414  10418     1
  10414  10419     1
  10414  10433     1
  10414  10434     1
  10415  10417     1
  10415  10439     1
  10415  10432     1
  10415  10427     1
  10415  10428     1
  10416  10417     1
  10416  10439     1
  10416  10432     1
  10416  10427     1
  10416  10428     1
  10417  10430     1
  10417  10431     1
  10418  10439     1
  10418  10429     1
  10418  10421     1
  10418  10422     1
  10419  10439     1
  10419  10429     1
  10419  10421     1
  10419  10422     1
  10420  10439     1
  10421  10438     1
  10421  10430     1
  10421  10431     1
  10422  10438     1
  10422  10430     1
  10422  10431     1
  10423  10439     1
  10424  18715     1
  10424  10436     1
  10424  10437     1
  10425  18715     1
  10425  10436     1
  10425  10437     1
  10426  10439     1
  10427  18692     1
  10427  10433     1
  10427  10434     1
  10428  18692     1
  10428  10433     1
  10428  10434     1
  10432  18691     1
  10433  18688     1
  10434  18688     1
  10435  18714     1
  10436  18711     1
  10437  18711     1
  10440  10454     1
  10440  10455     1
  10440  10457     1
  10440  10458     1
  10440  10451     1
  10440  10452     1
  10441  10445     1
  10441  10446     1
  10441  10448     1
  10441  10449     1
  10441  10466     1
  10441  10467     1
  10442  10444     1
  10442  10447     1
  10442  10469     1
  10442  10465     1
  10442  10454     1
  10442  10455     1
  10443  10444     1
  10443  10447     1
  10443  10469     1
  10443  10465     1
  10443  10454     1
  10443  10455     1
  10444  10448     1
  10444  10449     1
  10444  10463     1
  10444  10464     1
  10445  10447     1
  10445  10469     1
  10445  10462     1
  10445  10457     1
  10445  10458     1
  10446  10447     1
  10446  10469     1
  10446  10462     1
  10446  10457     1
  10446  10458     1
  10447  10460     1
  10447  10461     1
  10448  10469     1
  10448  10459     1
  10448  10451     1
  10448  10452     1
  10449  10469     1
  10449  10459     1
  10449  10451     1
  10449  10452     1
  10450  10469     1
  10451  10468     1
  10451  10460     1
  10451  10461     1
  10452  10468     1
  10452  10460     1
  10452  10461     1
  10453  10469     1
  10454  18761     1
  10454  10466     1
  10454  10467     1
  10455  18761     1
  10455  10466     1
  10455  10467     1
  10456  10469     1
  10457  18738     1
  10457  10463     1
  10457  10464     1
  10458  18738     1
  10458  10463     1
  10458  10464     1
  10462  18737     1
  10463  18734     1
  10464  18734     1
  10465  18760     1
  10466  18757     1
  10467  18757     1
  10470  10484     1
  10470  10485     1
  10470  10487     1
  10470  10488     1
  10470  10481     1
  10470  10482     1
  10471  10475     1
  10471  10476     1
  10471  10478     1
  10471  10479     1
  10471  10496     1
  10471  10497     1
  10472  10474     1
  10472  10477     1
  10472  10499     1
  10472  10495     1
  10472  10484     1
  10472  10485     1
  10473  10474     1
  10473  10477     1
  10473  10499     1
  10473  10495     1
  10473  10484     1
  10473  10485     1
  10474  10478     1
  10474  10479     1
  10474  10493     1
  10474  10494     1
  10475  10477     1
  10475  10499     1
  10475  10492     1
  10475  10487     1
  10475  10488     1
  10476  10477     1
  10476  10499     1
  10476  10492     1
  10476  10487     1
  10476  10488     1
  10477  10490     1
  10477  10491     1
  10478  10499     1
  10478  10489     1
  10478  10481     1
  10478  10482     1
  10479  10499     1
  10479  10489     1
  10479  10481     1
  10479  10482     1
  10480  10499     1
  10481  10498     1
  10481  10490     1
  10481  10491     1
  10482  10498     1
  10482  10490     1
  10482  10491     1
  10483  10499     1
  10484  18807     1
  10484  10496     1
  10484  10497     1
  10485  18807     1
  10485  10496     1
  10485  10497     1
  10486  10499     1
  10487  18784     1
  10487  10493     1
  10487  10494     1
  10488  18784     1
  10488  10493     1
  10488  10494     1
  10492  18783     1
  10493  18780     1
  10494  18780     1
  10495  18806     1
  10496  18803     1
  10497  18803     1
  10500  10514     1
  10500  10515     1
  10500  10517     1
  10500  10518     1
  10500  10511     1
  10500  10512     1
  10501  10505     1
  10501  10506     1
  10501  10508     1
  10501  10509     1
  10501  10526     1
  10501  10527     1
  10502  10504     1
  10502  10507     1
  10502  10529     1
  10502  10525     1
  10502  10514     1
  10502  10515     1
  10503  10504     1
  10503  10507     1
  10503  10529     1
  10503  10525     1
  10503  10514     1
  10503  10515     1
  10504  10508     1
  10504  10509     1
  10504  10523     1
  10504  10524     1
  10505  10507     1
  10505  10529     1
  10505  10522     1
  10505  10517     1
  10505  10518     1
  10506  10507     1
  10506  10529     1
  10506  10522     1
  10506  10517     1
  10506  10518     1
  10507  10520     1
  10507  10521     1
  10508  10529     1
  10508  10519     1
  10508  10511     1
  10508  10512     1
  10509  10529     1
  10509  10519     1
  10509  10511     1
  10509  10512     1
  10510  10529     1
  10511  10528     1
  10511  10520     1
  10511  10521     1
  10512  10528     1
  10512  10520     1
  10512  10521     1
  10513  10529     1
  10514  18853     1
  10514  10526     1
  10514  10527     1
  10515  18853     1
  10515  10526     1
  10515  10527     1
  10516  10529     1
  10517  18830     1
  10517  10523     1
  10517  10524     1
  10518  18830     1
  10518  10523     1
  10518  10524     1
  10522  18829     1
  10523  18826     1
  10524  18826     1
  10525  18852     1
  10526  18849     1
  10527  18849     1
  10530  10544     1
  10530  10545     1
  10530  10547     1
  10530  10548     1
  10530  10541     1
  10530  10542     1
  10531  10535     1
  10531  10536     1
  10531  10538     1
  10531  10539     1
  10531  10556     1
  10531  10557     1
  10532  10534     1
  10532  10537     1
  10532  10559     1
  10532  10555     1
  10532  10544     1
  10532  10545     1
  10533  10534     1
  10533  10537     1
  10533  10559     1
  10533  10555     1
  10533  10544     1
  10533  10545     1
  10534  10538     1
  10534  10539     1
  10534  10553     1
  10534  10554     1
  10535  10537     1
  10535  10559     1
  10535  10552     1
  10535  10547     1
  10535  10548     1
  10536  10537     1
  10536  10559     1
  10536  10552     1
  10536  10547     1
  10536  10548     1
  10537  10550     1
  10537  10551     1
  10538  10559     1
  10538  10549     1
  10538  10541     1
  10538  10542     1
  10539  10559     1
  10539  10549     1
  10539  10541     1
  10539  10542     1
  10540  10559     1
  10541  10558     1
  10541  10550     1
  10541  10551     1
  10542  10558     1
  10542  10550     1
  10542  10551     1
  10543  10559     1
  10544  18899     1
  10544  10556     1
  10544  10557     1
  10545  18899     1
  10545  10556     1
  10545  10557     1
  10546  10559     1
  10547  18876     1
  10547  10553     1
  10547  10554     1
  10548  18876     1
  10548  10553     1
  10548  10554     1
  10552  18875     1
  10553  18872     1
  10554  18872     1
  10555  18898     1
  10556  18895     1
  10557  18895     1
  10560  10574     1
  10560  10575     1
  10560  10577     1
  10560  10578     1
  10560  10571     1
  10560  10572     1
  10561  10565     1
  10561  10566     1
  10561  10568     1
  10561  10569     1
  10561  10586     1
  10561  10587     1
  10562  10564     1
  10562  10567     1
  10562  10589     1
  10562  10585     1
  10562  10574     1
  10562  10575     1
  10563  10564     1
  10563  10567     1
  10563  10589     1
  10563  10585     1
  10563  10574     1
  10563  10575     1
  10564  10568     1
  10564  10569     1
  10564  10583     1
  10564  10584     1
  10565  10567     1
  10565  10589     1
  10565  10582     1
  10565  10577     1
  10565  10578     1
  10566  10567     1
  10566  10589     1
  10566  10582     1
  10566  10577     1
  10566  10578     1
  10567  10580     1
  10567  10581     1
  10568  10589     1
  10568  10579     1
  10568  10571     1
  10568  10572     1
  10569  10589     1
  10569  10579     1
  10569  10571     1
  10569  10572     1
  10570  10589     1
  10571  10588     1
  10571  10580     1
  10571  10581     1
  10572  10588     1
  10572  10580     1
  10572  10581     1
  10573  10589     1
  10574  18945     1
  10574  10586     1
  10574  10587     1
  10575  18945     1
  10575  10586     1
  10575  10587     1
  10576  10589     1
  10577  18922     1
  10577  10583     1
  10577  10584     1
  10578  18922     1
  10578  10583     1
  10578  10584     1
  10582  18921     1
  10583  18918     1
  10584  18918     1
  10585  18944     1
  10586  18941     1
  10587  18941     1
  10590  10604     1
  10590  10605     1
  10590  10607     1
  10590  10608     1
  10590  10601     1
  10590  10602     1
  10591  10595     1
  10591  10596     1
  10591  10598     1
  10591  10599     1
  10591  10616     1
  10591  10617     1
  10592  10594     1
  10592  10597     1
  10592  10619     1
  10592  10615     1
  10592  10604     1
  10592  10605     1
  10593  10594     1
  10593  10597     1
  10593  10619     1
  10593  10615     1
  10593  10604     1
  10593  10605     1
  10594  10598     1
  10594  10599     1
  10594  10613     1
  10594  10614     1
  10595  10597     1
  10595  10619     1
  10595  10612     1
  10595  10607     1
  10595  10608     1
  10596  10597     1
  10596  10619     1
  10596  10612     1
  10596  10607     1
  10596  10608     1
  10597  10610     1
  10597  10611     1
  10598  10619     1
  10598  10609     1
  10598  10601     1
  10598  10602     1
  10599  10619     1
  10599  10609     1
  10599  10601     1
  10599  10602     1
  10600  10619     1
  10601  10618     1
  10601  10610     1
  10601  10611     1
  10602  10618     1
  10602  10610     1
  10602  10611     1
  10603  10619     1
  10604  18991     1
  10604  10616     1
  10604  10617     1
  10605  18991     1
  10605  10616     1
  10605  10617     1
  10606  10619     1
  10607  18968     1
  10607  10613     1
  10607  10614     1
  10608  18968     1
  10608  10613     1
  10608  10614     1
  10612  18967     1
  10613  18964     1
  10614  18964     1
  10615  18990     1
  10616  18987     1
  10617  18987     1
  10620  10634     1
  10620  10635     1
  10620  10637     1
  10620  10638     1
  10620  10631     1
  10620  10632     1
  10621  10625     1
  10621  10626     1
  10621  10628     1
  10621  10629     1
  10621  10646     1
  10621  10647     1
  10622  10624     1
  10622  10627     1
  10622  10649     1
  10622  10645     1
  10622  10634     1
  10622  10635     1
  10623  10624     1
  10623  10627     1
  10623  10649     1
  10623  10645     1
  10623  10634     1
  10623  10635     1
  10624  10628     1
  10624  10629     1
  10624  10643     1
  10624  10644     1
  10625  10627     1
  10625  10649     1
  10625  10642     1
  10625  10637     1
  10625  10638     1
  10626  10627     1
  10626  10649     1
  10626  10642     1
  10626  10637     1
  10626  10638     1
  10627  10640     1
  10627  10641     1
  10628  10649     1
  10628  10639     1
  10628  10631     1
  10628  10632     1
  10629  10649     1
  10629  10639     1
  10629  10631     1
  10629  10632     1
  10630  10649     1
  10631  10648     1
  10631  10640     1
  10631  10641     1
  10632  10648     1
  10632  10640     1
  10632  10641     1
  10633  10649     1
  10634  19037     1
  10634  10646     1
  10634  10647     1
  10635  19037     1
  10635  10646     1
  10635  10647     1
  10636  10649     1
  10637  19014     1
  10637  10643     1
  10637  10644     1
  10638  19014     1
  10638  10643     1
  10638  10644     1
  10642  19013     1
  10643  19010     1
  10644  19010     1
  10645  19036     1
  10646  19033     1
  10647  19033     1
  10650  10664     1
  10650  10665     1
  10650  10667     1
  10650  10668     1
  10650  10661     1
  10650  10662     1
  10651  10655     1
  10651  10656     1
  10651  10658     1
  10651  10659     1
  10651  10676     1
  10651  10677     1
  10652  10654     1
  10652  10657     1
  10652  10679     1
  10652  10675     1
  10652  10664     1
  10652  10665     1
  10653  10654     1
  10653  10657     1
  10653  10679     1
  10653  10675     1
  10653  10664     1
  10653  10665     1
  10654  10658     1
  10654  10659     1
  10654  10673     1
  10654  10674     1
  10655  10657     1
  10655  10679     1
  10655  10672     1
  10655  10667     1
  10655  10668     1
  10656  10657     1
  10656  10679     1
  10656  10672     1
  10656  10667     1
  10656  10668     1
  10657  10670     1
  10657  10671     1
  10658  10679     1
  10658  10669     1
  10658  10661     1
  10658  10662     1
  10659  10679     1
  10659  10669     1
  10659  10661     1
  10659  10662     1
  10660  10679     1
  10661  10678     1
  10661  10670     1
  10661  10671     1
  10662  10678     1
  10662  10670     1
  10662  10671     1
  10663  10679     1
  10664  19083     1
  10664  10676     1
  10664  10677     1
  10665  19083     1
  10665  10676     1
  10665  10677     1
  10666  10679     1
  10667  19060     1
  10667  10673     1
  10667  10674     1
  10668  19060     1
  10668  10673     1
  10668  10674     1
  10672  19059     1
  10673  19056     1
  10674  19056     1
  10675  19082     1
  10676  19079     1
  10677  19079     1
  10680  10694     1
  10680  10695     1
  10680  10697     1
  10680  10698     1
  10680  10691     1
  10680  10692     1
  10681  10685     1
  10681  10686     1
  10681  10688     1
  10681  10689     1
  10681  10706     1
  10681  10707     1
  10682  10684     1
  10682  10687     1
  10682  10709     1
  10682  10705     1
  10682  10694     1
  10682  10695     1
  10683  10684     1
  10683  10687     1
  10683  10709     1
  10683  10705     1
  10683  10694     1
  10683  10695     1
  10684  10688     1
  10684  10689     1
  10684  10703     1
  10684  10704     1
  10685  10687     1
  10685  10709     1
  10685  10702     1
  10685  10697     1
  10685  10698     1
  10686  10687     1
  10686  10709     1
  10686  10702     1
  10686  10697     1
  10686  10698     1
  10687  10700     1
  10687  10701     1
  10688  10709     1
  10688  10699     1
  10688  10691     1
  10688  10692     1
  10689  10709     1
  10689  10699     1
  10689  10691     1
  10689  10692     1
  10690  10709     1
  10691  10708     1
  10691  10700     1
  10691  10701     1
  10692  10708     1
  10692  10700     1
  10692  10701     1
  10693  10709     1
  10694  19129     1
  10694  10706     1
  10694  10707     1
  10695  19129     1
  10695  10706     1
  10695  10707     1
  10696  10709     1
  10697  19106     1
  10697  10703     1
  10697  10704     1
  10698  19106     1
  10698  10703     1
  10698  10704     1
  10702  19105     1
  10703  19102     1
  10704  19102     1
  10705  19128     1
  10706  19125     1
  10707  19125     1
  10710  10724     1
  10710  10725     1
  10710  10727     1
  10710  10728     1
  10710  10721     1
  10710  10722     1
  10711  10715     1
  10711  10716     1
  10711  10718     1
  10711  10719     1
  10711  10736     1
  10711  10737     1
  10712  10714     1
  10712  10717     1
  10712  10739     1
  10712  10735     1
  10712  10724     1
  10712  10725     1
  10713  10714     1
  10713  10717     1
  10713  10739     1
  10713  10735     1
  10713  10724     1
  10713  10725     1
  10714  10718     1
  10714  10719     1
  10714  10733     1
  10714  10734     1
  10715  10717     1
  10715  10739     1
  10715  10732     1
  10715  10727     1
  10715  10728     1
  10716  10717     1
  10716  10739     1
  10716  10732     1
  10716  10727     1
  10716  10728     1
  10717  10730     1
  10717  10731     1
  10718  10739     1
  10718  10729     1
  10718  10721     1
  10718  10722     1
  10719  10739     1
  10719  10729     1
  10719  10721     1
  10719  10722     1
  10720  10739     1
  10721  10738     1
  10721  10730     1
  10721  10731     1
  10722  10738     1
  10722  10730     1
  10722  10731     1
  10723  10739     1
  10724  19175     1
  10724  10736     1
  10724  10737     1
  10725  19175     1
  10725  10736     1
  10725  10737     1
  10726  10739     1
  10727  19152     1
  10727  10733     1
  10727  10734     1
  10728  19152     1
  10728  10733     1
  10728  10734     1
  10732  19151     1
  10733  19148     1
  10734  19148     1
  10735  19174     1
  10736  19171     1
  10737  19171     1
  10740  10754     1
  10740  10755     1
  10740  10757     1
  10740  10758     1
  10740  10751     1
  10740  10752     1
  10741  10745     1
  10741  10746     1
  10741  10748     1
  10741  10749     1
  10741  10766     1
  10741  10767     1
  10742  10744     1
  10742  10747     1
  10742  10769     1
  10742  10765     1
  10742  10754     1
  10742  10755     1
  10743  10744     1
  10743  10747     1
  10743  10769     1
  10743  10765     1
  10743  10754     1
  10743  10755     1
  10744  10748     1
  10744  10749     1
  10744  10763     1
  10744  10764     1
  10745  10747     1
  10745  10769     1
  10745  10762     1
  10745  10757     1
  10745  10758     1
  10746  10747     1
  10746  10769     1
  10746  10762     1
  10746  10757     1
  10746  10758     1
  10747  10760     1
  10747  10761     1
  10748  10769     1
  10748  10759     1
  10748  10751     1
  10748  10752     1
  10749  10769     1
  10749  10759     1
  10749  10751     1
  10749  10752     1
  10750  10769     1
  10751  10768     1
  10751  10760     1
  10751  10761     1
  10752  10768     1
  10752  10760     1
  10752  10761     1
  10753  10769     1
  10754  19221     1
  10754  10766     1
  10754  10767     1
  10755  19221     1
  10755  10766     1
  10755  10767     1
  10756  10769     1
  10757  19198     1
  10757  10763     1
  10757  10764     1
  10758  19198     1
  10758  10763     1
  10758  10764     1
  10762  19197     1
  10763  19194     1
  10764  19194     1
  10765  19220     1
  10766  19217     1
  10767  19217     1
  10770  10784     1
  10770  10785     1
  10770  10787     1
  10770  10788     1
  10770  10781     1
  10770  10782     1
  10771  10775     1
  10771  10776     1
  10771  10778     1
  10771  10779     1
  10771  10796     1
  10771  10797     1
  10772  10774     1
  10772  10777     1
  10772  10799     1
  10772  10795     1
  10772  10784     1
  10772  10785     1
  10773  10774     1
  10773  10777     1
  10773  10799     1
  10773  10795     1
  10773  10784     1
  10773  10785     1
  10774  10778     1
  10774  10779     1
  10774  10793     1
  10774  10794     1
  10775  10777     1
  10775  10799     1
  10775  10792     1
  10775  10787     1
  10775  10788     1
  10776  10777     1
  10776  10799     1
  10776  10792     1
  10776  10787     1
  10776  10788     1
  10777  10790     1
  10777  10791     1
  10778  10799     1
  10778  10789     1
  10778  10781     1
  10778  10782     1
  10779  10799     1
  10779  10789     1
  10779  10781     1
  10779  10782     1
  10780  10799     1
  10781  10798     1
  10781  10790     1
  10781  10791     1
  10782  10798     1
  10782  10790     1
  10782  10791     1
  10783  10799     1
  10784  19267     1
  10784  10796     1
  10784  10797     1
  10785  19267     1
  10785  10796     1
  10785  10797     1
  10786  10799     1
  10787  19244     1
  10787  10793     1
  10787  10794     1
  10788  19244     1
  10788  10793     1
  10788  10794     1
  10792  19243     1
  10793  19240     1
  10794  19240     1
  10795  19266     1
  10796  19263     1
  10797  19263     1
  10800  10814     1
  10800  10815     1
  10800  10817     1
  10800  10818     1
  10800  10811     1
  10800  10812     1
  10801  10805     1
  10801  10806     1
  10801  10808     1
  10801  10809     1
  10801  10826     1
  10801  10827     1
  10802  10804     1
  10802  10807     1
  10802  10829     1
  10802  10825     1
  10802  10814     1
  10802  10815     1
  10803  10804     1
  10803  10807     1
  10803  10829     1
  10803  10825     1
  10803  10814     1
  10803  10815     1
  10804  10808     1
  10804  10809     1
  10804  10823     1
  10804  10824     1
  10805  10807     1
  10805  10829     1
  10805  10822     1
  10805  10817     1
  10805  10818     1
  10806  10807     1
  10806  10829     1
  10806  10822     1
  10806  10817     1
  10806  10818     1
  10807  10820     1
  10807  10821     1
  10808  10829     1
  10808  10819     1
  10808  10811     1
  10808  10812     1
  10809  10829     1
  10809  10819     1
  10809  10811     1
  10809  10812     1
  10810  10829     1
  10811  10828     1
  10811  10820     1
  10811  10821     1
  10812  10828     1
  10812  10820     1
  10812  10821     1
  10813  10829     1
  10814  19313     1
  10814  10826     1
  10814  10827     1
  10815  19313     1
  10815  10826     1
  10815  10827     1
  10816  10829     1
  10817  19290     1
  10817  10823     1
  10817  10824     1
  10818  19290     1
  10818  10823     1
  10818  10824     1
  10822  19289     1
  10823  19286     1
  10824  19286     1
  10825  19312     1
  10826  19309     1
  10827  19309     1
  10830  10844     1
  10830  10845     1
  10830  10847     1
  10830  10848     1
  10830  10841     1
  10830  10842     1
  10831  10835     1
  10831  10836     1
  10831  10838     1
  10831  10839     1
  10831  10856     1
  10831  10857     1
  10832  10834     1
  10832  10837     1
  10832  10859     1
  10832  10855     1
  10832  10844     1
  10832  10845     1
  10833  10834     1
  10833  10837     1
  10833  10859     1
  10833  10855     1
  10833  10844     1
  10833  10845     1
  10834  10838     1
  10834  10839     1
  10834  10853     1
  10834  10854     1
  10835  10837     1
  10835  10859     1
  10835  10852     1
  10835  10847     1
  10835  10848     1
  10836  10837     1
  10836  10859     1
  10836  10852     1
  10836  10847     1
  10836  10848     1
  10837  10850     1
  10837  10851     1
  10838  10859     1
  10838  10849     1
  10838  10841     1
  10838  10842     1
  10839  10859     1
  10839  10849     1
  10839  10841     1
  10839  10842     1
  10840  10859     1
  10841  10858     1
  10841  10850     1
  10841  10851     1
  10842  10858     1
  10842  10850     1
  10842  10851     1
  10843  10859     1
  10844  19359     1
  10844  10856     1
  10844  10857     1
  10845  19359     1
  10845  10856     1
  10845  10857     1
  10846  10859     1
  10847  19336     1
  10847  10853     1
  10847  10854     1
  10848  19336     1
  10848  10853     1
  10848  10854     1
  10852  19335     1
  10853  19332     1
  10854  19332     1
  10855  19358     1
  10856  19355     1
  10857  19355     1
  10860  10874     1
  10860  10875     1
  10860  10877     1
  10860  10878     1
  10860  10871     1
  10860  10872     1
  10861  10865     1
  10861  10866     1
  10861  10868     1
  10861  10869     1
  10861  10886     1
  10861  10887     1
  10862  10864     1
  10862  10867     1
  10862  10889     1
  10862  10885     1
  10862  10874     1
  10862  10875     1
  10863  10864     1
  10863  10867     1
  10863  10889     1
  10863  10885     1
  10863  10874     1
  10863  10875     1
  10864  10868     1
  10864  10869     1
  10864  10883     1
  10864  10884     1
  10865  10867     1
  10865  10889     1
  10865  10882     1
  10865  10877     1
  10865  10878     1
  10866  10867     1
  10866  10889     1
  10866  10882     1
  10866  10877     1
  10866  10878     1
  10867  10880     1
  10867  10881     1
  10868  10889     1
  10868  10879     1
  10868  10871     1
  10868  10872     1
  10869  10889     1
  10869  10879     1
  10869  10871     1
  10869  10872     1
  10870  10889     1
  10871  10888     1
  10871  10880     1
  10871  10881     1
  10872  10888     1
  10872  10880     1
  10872  10881     1
  10873  10889     1
  10874  19405     1
  10874  10886     1
  10874  10887     1
  10875  19405     1
  10875  10886     1
  10875  10887     1
  10876  10889     1
  10877  19382     1
  10877  10883     1
  10877  10884     1
  10878  19382     1
  10878  10883     1
  10878  10884     1
  10882  19381     1
  10883  19378     1
  10884  19378     1
  10885  19404     1
  10886  19401     1
  10887  19401     1
  10890  10904     1
  10890  10905     1
  10890  10907     1
  10890  10908     1
  10890  10901     1
  10890  10902     1
  10891  10895     1
  10891  10896     1
  10891  10898     1
  10891  10899     1
  10891  10916     1
  10891  10917     1
  10892  10894     1
  10892  10897     1
  10892  10919     1
  10892  10915     1
  10892  10904     1
  10892  10905     1
  10893  10894     1
  10893  10897     1
  10893  10919     1
  10893  10915     1
  10893  10904     1
  10893  10905     1
  10894  10898     1
  10894  10899     1
  10894  10913     1
  10894  10914     1
  10895  10897     1
  10895  10919     1
  10895  10912     1
  10895  10907     1
  10895  10908     1
  10896  10897     1
  10896  10919     1
  10896  10912     1
  10896  10907     1
  10896  10908     1
  10897  10910     1
  10897  10911     1
  10898  10919     1
  10898  10909     1
  10898  10901     1
  10898  10902     1
  10899  10919     1
  10899  10909     1
  10899  10901     1
  10899  10902     1
  10900  10919     1
  10901  10918     1
  10901  10910     1
  10901  10911     1
  10902  10918     1
  10902  10910     1
  10902  10911     1
  10903  10919     1
  10904  19451     1
  10904  10916     1
  10904  10917     1
  10905  19451     1
  10905  10916     1
  10905  10917     1
  10906  10919     1
  10907  19428     1
  10907  10913     1
  10907  10914     1
  10908  19428     1
  10908  10913     1
  10908  10914     1
  10912  19427     1
  10913  19424     1
  10914  19424     1
  10915  19450     1
  10916  19447     1
  10917  19447     1
  10920  10934     1
  10920  10935     1
  10920  10937     1
  10920  10938     1
  10920  10931     1
  10920  10932     1
  10921  10925     1
  10921  10926     1
  10921  10928     1
  10921  10929     1
  10921  10946     1
  10921  10947     1
  10922  10924     1
  10922  10927     1
  10922  10949     1
  10922  10945     1
  10922  10934     1
  10922  10935     1
  10923  10924     1
  10923  10927     1
  10923  10949     1
  10923  10945     1
  10923  10934     1
  10923  10935     1
  10924  10928     1
  10924  10929     1
  10924  10943     1
  10924  10944     1
  10925  10927     1
  10925  10949     1
  10925  10942     1
  10925  10937     1
  10925  10938     1
  10926  10927     1
  10926  10949     1
  10926  10942     1
  10926  10937     1
  10926  10938     1
  10927  10940     1
  10927  10941     1
  10928  10949     1
  10928  10939     1
  10928  10931     1
  10928  10932     1
  10929  10949     1
  10929  10939     1
  10929  10931     1
  10929  10932     1
  10930  10949     1
  10931  10948     1
  10931  10940     1
  10931  10941     1
  10932  10948     1
  10932  10940     1
  10932  10941     1
  10933  10949     1
  10934  19497     1
  10934  10946     1
  10934  10947     1
  10935  19497     1
  10935  10946     1
  10935  10947     1
  10936  10949     1
  10937  19474     1
  10937  10943     1
  10937  10944     1
  10938  19474     1
  10938  10943     1
  10938  10944     1
  10942  19473     1
  10943  19470     1
  10944  19470     1
  10945  19496     1
  10946  19493     1
  10947  19493     1
  10950  10964     1
  10950  10965     1
  10950  10967     1
  10950  10968     1
  10950  10961     1
  10950  10962     1
  10951  10955     1
  10951  10956     1
  10951  10958     1
  10951  10959     1
  10951  10976     1
  10951  10977     1
  10952  10954     1
  10952  10957     1
  10952  10979     1
  10952  10975     1
  10952  10964     1
  10952  10965     1
  10953  10954     1
  10953  10957     1
  10953  10979     1
  10953  10975     1
  10953  10964     1
  10953  10965     1
  10954  10958     1
  10954  10959     1
  10954  10973     1
  10954  10974     1
  10955  10957     1
  10955  10979     1
  10955  10972     1
  10955  10967     1
  10955  10968     1
  10956  10957     1
  10956  10979     1
  10956  10972     1
  10956  10967     1
  10956  10968     1
  10957  10970     1
  10957  10971     1
  10958  10979     1
  10958  10969     1
  10958  10961     1
  10958  10962     1
  10959  10979     1
  10959  10969     1
  10959  10961     1
  10959  10962     1
  10960  10979     1
  10961  10978     1
  10961  10970     1
  10961  10971     1
  10962  10978     1
  10962  10970     1
  10962  10971     1
  10963  10979     1
  10964  19543     1
  10964  10976     1
  10964  10977     1
  10965  19543     1
  10965  10976     1
  10965  10977     1
  10966  10979     1
  10967  19520     1
  10967  10973     1
  10967  10974     1
  10968  19520     1
  10968  10973     1
  10968  10974     1
  10972  19519     1
  10973  19516     1
  10974  19516     1
  10975  19542     1
  10976  19539     1
  10977  19539     1
  10980  10994     1
  10980  10995     1
  10980  10997     1
  10980  10998     1
  10980  10991     1
  10980  10992     1
  10981  10985     1
  10981  10986     1
  10981  10988     1
  10981  10989     1
  10981  11006     1
  10981  11007     1
  10982  10984     1
  10982  10987     1
  10982  11009     1
  10982  11005     1
  10982  10994     1
  10982  10995     1
  10983  10984     1
  10983  10987     1
  10983  11009     1
  10983  11005     1
  10983  10994     1
  10983  10995     1
  10984  10988     1
  10984  10989     1
  10984  11003     1
  10984  11004     1
  10985  10987     1
  10985  11009     1
  10985  11002     1
  10985  10997     1
  10985  10998     1
  10986  10987     1
  10986  11009     1
  10986  11002     1
  10986  10997     1
  10986  10998     1
  10987  11000     1
  10987  11001     1
  10988  11009     1
  10988  10999     1
  10988  10991     1
  10988  10992     1
  10989  11009     1
  10989  10999     1
  10989  10991     1
  10989  10992     1
  10990  11009     1
  10991  11008     1
  10991  11000     1
  10991  11001     1
  10992  11008     1
  10992  11000     1
  10992  11001     1
  10993  11009     1
  10994  19589     1
  10994  11006     1
  10994  11007     1
  10995  19589     1
  10995  11006     1
  10995  11007     1
  10996  11009     1
  10997  19566     1
  10997  11003     1
  10997  11004     1
  10998  19566     1
  10998  11003     1
  10998  11004     1
  11002  19565     1
  11003  19562     1
  11004  19562     1
  11005  19588     1
  11006  19585     1
  11007  19585     1
  11010  11024     1
  11010  11025     1
  11010  11027     1
  11010  11028     1
  11010  11021     1
  11010  11022     1
  11011  11015     1
  11011  11016     1
  11011  11018     1
  11011  11019     1
  11011  11036     1
  11011  11037     1
  11012  11014     1
  11012  11017     1
  11012  11039     1
  11012  11035     1
  11012  11024     1
  11012  11025     1
  11013  11014     1
  11013  11017     1
  11013  11039     1
  11013  11035     1
  11013  11024     1
  11013  11025     1
  11014  11018     1
  11014  11019     1
  11014  11033     1
  11014  11034     1
  11015  11017     1
  11015  11039     1
  11015  11032     1
  11015  11027     1
  11015  11028     1
  11016  11017     1
  11016  11039     1
  11016  11032     1
  11016  11027     1
  11016  11028     1
  11017  11030     1
  11017  11031     1
  11018  11039     1
  11018  11029     1
  11018  11021     1
  11018  11022     1
  11019  11039     1
  11019  11029     1
  11019  11021     1
  11019  11022     1
  11020  11039     1
  11021  11038     1
  11021  11030     1
  11021  11031     1
  11022  11038     1
  11022  11030     1
  11022  11031     1
  11023  11039     1
  11024  19635     1
  11024  11036     1
  11024  11037     1
  11025  19635     1
  11025  11036     1
  11025  11037     1
  11026  11039     1
  11027  19612     1
  11027  11033     1
  11027  11034     1
  11028  19612     1
  11028  11033     1
  11028  11034     1
  11032  19611     1
  11033  19608     1
  11034  19608     1
  11035  19634     1
  11036  19631     1
  11037  19631     1
  11040  11054     1
  11040  11055     1
  11040  11057     1
  11040  11058     1
  11040  11051     1
  11040  11052     1
  11041  11045     1
  11041  11046     1
  11041  11048     1
  11041  11049     1
  11041  11066     1
  11041  11067     1
  11042  11044     1
  11042  11047     1
  11042  11069     1
  11042  11065     1
  11042  11054     1
  11042  11055     1
  11043  11044     1
  11043  11047     1
  11043  11069     1
  11043  11065     1
  11043  11054     1
  11043  11055     1
  11044  11048     1
  11044  11049     1
  11044  11063     1
  11044  11064     1
  11045  11047     1
  11045  11069     1
  11045  11062     1
  11045  11057     1
  11045  11058     1
  11046  11047     1
  11046  11069     1
  11046  11062     1
  11046  11057     1
  11046  11058     1
  11047  11060     1
  11047  11061     1
  11048  11069     1
  11048  11059     1
  11048  11051     1
  11048  11052     1
  11049  11069     1
  11049  11059     1
  11049  11051     1
  11049  11052     1
  11050  11069     1
  11051  11068     1
  11051  11060     1
  11051  11061     1
  11052  11068     1
  11052  11060     1
  11052  11061     1
  11053  11069     1
  11054  19681     1
  11054  11066     1
  11054  11067     1
  11055  19681     1
  11055  11066     1
  11055  11067     1
  11056  11069     1
  11057  19658     1
  11057  11063     1
  11057  11064     1
  11058  19658     1
  11058  11063     1
  11058  11064     1
  11062  19657     1
  11063  19654     1
  11064  19654     1
  11065  19680     1
  11066  19677     1
  11067  19677     1
  11070  11084     1
  11070  11085     1
  11070  11087     1
  11070  11088     1
  11070  11081     1
  11070  11082     1
  11071  11075     1
  11071  11076     1
  11071  11078     1
  11071  11079     1
  11071  11096     1
  11071  11097     1
  11072  11074     1
  11072  11077     1
  11072  11099     1
  11072  11095     1
  11072  11084     1
  11072  11085     1
  11073  11074     1
  11073  11077     1
  11073  11099     1
  11073  11095     1
  11073  11084     1
  11073  11085     1
  11074  11078     1
  11074  11079     1
  11074  11093     1
  11074  11094     1
  11075  11077     1
  11075  11099     1
  11075  11092     1
  11075  11087     1
  11075  11088     1
  11076  11077     1
  11076  11099     1
  11076  11092     1
  11076  11087     1
  11076  11088     1
  11077  11090     1
  11077  11091     1
  11078  11099     1
  11078  11089     1
  11078  11081     1
  11078  11082     1
  11079  11099     1
  11079  11089     1
  11079  11081     1
  11079  11082     1
  11080  11099     1
  11081  11098     1
  11081  11090     1
  11081  11091     1
  11082  11098     1
  11082  11090     1
  11082  11091     1
  11083  11099     1
  11084  19727     1
  11084  11096     1
  11084  11097     1
  11085  19727     1
  11085  11096     1
  11085  11097     1
  11086  11099     1
  11087  19704     1
  11087  11093     1
  11087  11094     1
  11088  19704     1
  11088  11093     1
  11088  11094     1
  11092  19703     1
  11093  19700     1
  11094  19700     1
  11095  19726     1
  11096  19723     1
  11097  19723     1
  11100  11114     1
  11100  11115     1
  11100  11117     1
  11100  11118     1
  11100  11111     1
  11100  11112     1
  11101  11105     1
  11101  11106     1
  11101  11108     1
  11101  11109     1
  11101  11126     1
  11101  11127     1
  11102  11104     1
  11102  11107     1
  11102  11129     1
  11102  11125     1
  11102  11114     1
  11102  11115     1
  11103  11104     1
  11103  11107     1
  11103  11129     1
  11103  11125     1
  11103  11114     1
  11103  11115     1
  11104  11108     1
  11104  11109     1
  11104  11123     1
  11104  11124     1
  11105  11107     1
  11105  11129     1
  11105  11122     1
  11105  11117     1
  11105  11118     1
  11106  11107     1
  11106  11129     1
  11106  11122     1
  11106  11117     1
  11106  11118     1
  11107  11120     1
  11107  11121     1
  11108  11129     1
  11108  11119     1
  11108  11111     1
  11108  11112     1
  11109  11129     1
  11109  11119     1
  11109  11111     1
  11109  11112     1
  11110  11129     1
  11111  11128     1
  11111  11120     1
  11111  11121     1
  11112  11128     1
  11112  11120     1
  11112  11121     1
  11113  11129     1
  11114  19773     1
  11114  11126     1
  11114  11127     1
  11115  19773     1
  11115  11126     1
  11115  11127     1
  11116  11129     1
  11117  19750     1
  11117  11123     1
  11117  11124     1
  11118  19750     1
  11118  11123     1
  11118  11124     1
  11122  19749     1
  11123  19746     1
  11124  19746     1
  11125  19772     1
  11126  19769     1
  11127  19769     1
  11130  11144     1
  11130  11145     1
  11130  11147     1
  11130  11148     1
  11130  11141     1
  11130  11142     1
  11131  11135     1
  11131  11136     1
  11131  11138     1
  11131  11139     1
  11131  11156     1
  11131  11157     1
  11132  11134     1
  11132  11137     1
  11132  11159     1
  11132  11155     1
  11132  11144     1
  11132  11145     1
  11133  11134     1
  11133  11137     1
  11133  11159     1
  11133  11155     1
  11133  11144     1
  11133  11145     1
  11134  11138     1
  11134  11139     1
  11134  11153     1
  11134  11154     1
  11135  11137     1
  11135  11159     1
  11135  11152     1
  11135  11147     1
  11135  11148     1
  11136  11137     1
  11136  11159     1
  11136  11152     1
  11136  11147     1
  11136  11148     1
  11137  11150     1
  11137  11151     1
  11138  11159     1
  11138  11149     1
  11138  11141     1
  11138  11142     1
  11139  11159     1
  11139  11149     1
  11139  11141     1
  11139  11142     1
  11140  11159     1
  11141  11158     1
  11141  11150     1
  11141  11151     1
  11142  11158     1
  11142  11150     1
  11142  11151     1
  11143  11159     1
  11144  19819     1
  11144  11156     1
  11144  11157     1
  11145  19819     1
  11145  11156     1
  11145  11157     1
  11146  11159     1
  11147  19796     1
  11147  11153     1
  11147  11154     1
  11148  19796     1
  11148  11153     1
  11148  11154     1
  11152  19795     1
  11153  19792     1
  11154  19792     1
  11155  19818     1
  11156  19815     1
  11157  19815     1
  11160  11174     1
  11160  11175     1
  11160  11177     1
  11160  11178     1
  11160  11171     1
  11160  11172     1
  11161  11165     1
  11161  11166     1
  11161  11168     1
  11161  11169     1
  11161  11186     1
  11161  11187     1
  11162  11164     1
  11162  11167     1
  11162  11189     1
  11162  11185     1
  11162  11174     1
  11162  11175     1
  11163  11164     1
  11163  11167     1
  11163  11189     1
  11163  11185     1
  11163  11174     1
  11163  11175     1
  11164  11168     1
  11164  11169     1
  11164  11183     1
  11164  11184     1
  11165  11167     1
  11165  11189     1
  11165  11182     1
  11165  11177     1
  11165  11178     1
  11166  11167     1
  11166  11189     1
  11166  11182     1
  11166  11177     1
  11166  11178     1
  11167  11180     1
  11167  11181     1
  11168  11189     1
  11168  11179     1
  11168  11171     1
  11168  11172     1
  11169  11189     1
  11169  11179     1
  11169  11171     1
  11169  11172     1
  11170  11189     1
  11171  11188     1
  11171  11180     1
  11171  11181     1
  11172  11188     1
  11172  11180     1
  11172  11181     1
  11173  11189     1
  11174  19865     1
  11174  11186     1
  11174  11187     1
  11175  19865     1
  11175  11186     1
  11175  11187     1
  11176  11189     1
  11177  19842     1
  11177  11183     1
  11177  11184     1
  11178  19842     1
  11178  11183     1
  11178  11184     1
  11182  19841     1
  11183  19838     1
  11184  19838     1
  11185  19864     1
  11186  19861     1
  11187  19861     1
  11190  11204     1
  11190  11205     1
  11190  11207     1
  11190  11208     1
  11190  11201     1
  11190  11202     1
  11191  11195     1
  11191  11196     1
  11191  11198     1
  11191  11199     1
  11191  11216     1
  11191  11217     1
  11192  11194     1
  11192  11197     1
  11192  11219     1
  11192  11215     1
  11192  11204     1
  11192  11205     1
  11193  11194     1
  11193  11197     1
  11193  11219     1
  11193  11215     1
  11193  11204     1
  11193  11205     1
  11194  11198     1
  11194  11199     1
  11194  11213     1
  11194  11214     1
  11195  11197     1
  11195  11219     1
  11195  11212     1
  11195  11207     1
  11195  11208     1
  11196  11197     1
  11196  11219     1
  11196  11212     1
  11196  11207     1
  11196  11208     1
  11197  11210     1
  11197  11211     1
  11198  11219     1
  11198  11209     1
  11198  11201     1
  11198  11202     1
  11199  11219     1
  11199  11209     1
  11199  11201     1
  11199  11202     1
  11200  11219     1
  11201  11218     1
  11201  11210     1
  11201  11211     1
  11202  11218     1
  11202  11210     1
  11202  11211     1
  11203  11219     1
  11204  19911     1
  11204  11216     1
  11204  11217     1
  11205  19911     1
  11205  11216     1
  11205  11217     1
  11206  11219     1
  11207  19888     1
  11207  11213     1
  11207  11214     1
  11208  19888     1
  11208  11213     1
  11208  11214     1
  11212  19887     1
  11213  19884     1
  11214  19884     1
  11215  19910     1
  11216  19907     1
  11217  19907     1
  11220  11234     1
  11220  11235     1
  11220  11237     1
  11220  11238     1
  11220  11231     1
  11220  11232     1
  11221  11225     1
  11221  11226     1
  11221  11228     1
  11221  11229     1
  11221  11246     1
  11221  11247     1
  11222  11224     1
  11222  11227     1
  11222  11249     1
  11222  11245     1
  11222  11234     1
  11222  11235     1
  11223  11224     1
  11223  11227     1
  11223  11249     1
  11223  11245     1
  11223  11234     1
  11223  11235     1
  11224  11228     1
  11224  11229     1
  11224  11243     1
  11224  11244     1
  11225  11227     1
  11225  11249     1
  11225  11242     1
  11225  11237     1
  11225  11238     1
  11226  11227     1
  11226  11249     1
  11226  11242     1
  11226  11237     1
  11226  11238     1
  11227  11240     1
  11227  11241     1
  11228  11249     1
  11228  11239     1
  11228  11231     1
  11228  11232     1
  11229  11249     1
  11229  11239     1
  11229  11231     1
  11229  11232     1
  11230  11249     1
  11231  11248     1
  11231  11240     1
  11231  11241     1
  11232  11248     1
  11232  11240     1
  11232  11241     1
  11233  11249     1
  11234  19957     1
  11234  11246     1
  11234  11247     1
  11235  19957     1
  11235  11246     1
  11235  11247     1
  11236  11249     1
  11237  19934     1
  11237  11243     1
  11237  11244     1
  11238  19934     1
  11238  11243     1
  11238  11244     1
  11242  19933     1
  11243  19930     1
  11244  19930     1
  11245  19956     1
  11246  19953     1
  11247  19953     1
  11250  11264     1
  11250  11265     1
  11250  11267     1
  11250  11268     1
  11250  11261     1
  11250  11262     1
  11251  11255     1
  11251  11256     1
  11251  11258     1
  11251  11259     1
  11251  11276     1
  11251  11277     1
  11252  11254     1
  11252  11257     1
  11252  11279     1
  11252  11275     1
  11252  11264     1
  11252  11265     1
  11253  11254     1
  11253  11257     1
  11253  11279     1
  11253  11275     1
  11253  11264     1
  11253  11265     1
  11254  11258     1
  11254  11259     1
  11254  11273     1
  11254  11274     1
  11255  11257     1
  11255  11279     1
  11255  11272     1
  11255  11267     1
  11255  11268     1
  11256  11257     1
  11256  11279     1
  11256  11272     1
  11256  11267     1
  11256  11268     1
  11257  11270     1
  11257  11271     1
  11258  11279     1
  11258  11269     1
  11258  11261     1
  11258  11262     1
  11259  11279     1
  11259  11269     1
  11259  11261     1
  11259  11262     1
  11260  11279     1
  11261  11278     1
  11261  11270     1
  11261  11271     1
  11262  11278     1
  11262  11270     1
  11262  11271     1
  11263  11279     1
  11264  20003     1
  11264  11276     1
  11264  11277     1
  11265  20003     1
  11265  11276     1
  11265  11277     1
  11266  11279     1
  11267  19980     1
  11267  11273     1
  11267  11274     1
  11268  19980     1
  11268  11273     1
  11268  11274     1
  11272  19979     1
  11273  19976     1
  11274  19976     1
  11275  20002     1
  11276  19999     1
  11277  19999     1
  11280  11294     1
  11280  11295     1
  11280  11297     1
  11280  11298     1
  11280  11291     1
  11280  11292     1
  11281  11285     1
  11281  11286     1
  11281  11288     1
  11281  11289     1
  11281  11306     1
  11281  11307     1
  11282  11284     1
  11282  11287     1
  11282  11309     1
  11282  11305     1
  11282  11294     1
  11282  11295     1
  11283  11284     1
  11283  11287     1
  11283  11309     1
  11283  11305     1
  11283  11294     1
  11283  11295     1
  11284  11288     1
  11284  11289     1
  11284  11303     1
  11284  11304     1
  11285  11287     1
  11285  11309     1
  11285  11302     1
  11285  11297     1
  11285  11298     1
  11286  11287     1
  11286  11309     1
  11286  11302     1
  11286  11297     1
  11286  11298     1
  11287  11300     1
  11287  11301     1
  11288  11309     1
  11288  11299     1
  11288  11291     1
  11288  11292     1
  11289  11309     1
  11289  11299     1
  11289  11291     1
  11289  11292     1
  11290  11309     1
  11291  11308     1
  11291  11300     1
  11291  11301     1
  11292  11308     1
  11292  11300     1
  11292  11301     1
  11293  11309     1
  11294  20049     1
  11294  11306     1
  11294  11307     1
  11295  20049     1
  11295  11306     1
  11295  11307     1
  11296  11309     1
  11297  20026     1
  11297  11303     1
  11297  11304     1
  11298  20026     1
  11298  11303     1
  11298  11304     1
  11302  20025     1
  11303  20022     1
  11304  20022     1
  11305  20048     1
  11306  20045     1
  11307  20045     1
  11310  11324     1
  11310  11325     1
  11310  11327     1
  11310  11328     1
  11310  11321     1
  11310  11322     1
  11311  11315     1
  11311  11316     1
  11311  11318     1
  11311  11319     1
  11311  11336     1
  11311  11337     1
  11312  11314     1
  11312  11317     1
  11312  11339     1
  11312  11335     1
  11312  11324     1
  11312  11325     1
  11313  11314     1
  11313  11317     1
  11313  11339     1
  11313  11335     1
  11313  11324     1
  11313  11325     1
  11314  11318     1
  11314  11319     1
  11314  11333     1
  11314  11334     1
  11315  11317     1
  11315  11339     1
  11315  11332     1
  11315  11327     1
  11315  11328     1
  11316  11317     1
  11316  11339     1
  11316  11332     1
  11316  11327     1
  11316  11328     1
  11317  11330     1
  11317  11331     1
  11318  11339     1
  11318  11329     1
  11318  11321     1
  11318  11322     1
  11319  11339     1
  11319  11329     1
  11319  11321     1
  11319  11322     1
  11320  11339     1
  11321  11338     1
  11321  11330     1
  11321  11331     1
  11322  11338     1
  11322  11330     1
  11322  11331     1
  11323  11339     1
  11324  20095     1
  11324  11336     1
  11324  11337     1
  11325  20095     1
  11325  11336     1
  11325  11337     1
  11326  11339     1
  11327  20072     1
  11327  11333     1
  11327  11334     1
  11328  20072     1
  11328  11333     1
  11328  11334     1
  11332  20071     1
  11333  20068     1
  11334  20068     1
  11335  20094     1
  11336  20091     1
  11337  20091     1
  11340  11354     1
  11340  11355     1
  11340  11357     1
  11340  11358     1
  11340  11351     1
  11340  11352     1
  11341  11345     1
  11341  11346     1
  11341  11348     1
  11341  11349     1
  11341  11366     1
  11341  11367     1
  11342  11344     1
  11342  11347     1
  11342  11369     1
  11342  11365     1
  11342  11354     1
  11342  11355     1
  11343  11344     1
  11343  11347     1
  11343  11369     1
  11343  11365     1
  11343  11354     1
  11343  11355     1
  11344  11348     1
  11344  11349     1
  11344  11363     1
  11344  11364     1
  11345  11347     1
  11345  11369     1
  11345  11362     1
  11345  11357     1
  11345  11358     1
  11346  11347     1
  11346  11369     1
  11346  11362     1
  11346  11357     1
  11346  11358     1
  11347  11360     1
  11347  11361     1
  11348  11369     1
  11348  11359     1
  11348  11351     1
  11348  11352     1
  11349  11369     1
  11349  11359     1
  11349  11351     1
  11349  11352     1
  11350  11369     1
  11351  11368     1
  11351  11360     1
  11351  11361     1
  11352  11368     1
  11352  11360     1
  11352  11361     1
  11353  11369     1
  11354  20141     1
  11354  11366     1
  11354  11367     1
  11355  20141     1
  11355  11366     1
  11355  11367     1
  11356  11369     1
  11357  20118     1
  11357  11363     1
  11357  11364     1
  11358  20118     1
  11358  11363     1
  11358  11364     1
  11362  20117     1
  11363  20114     1
  11364  20114     1
  11365  20140     1
  11366  20137     1
  11367  20137     1
  11370  11384     1
  11370  11385     1
  11370  11387     1
  11370  11388     1
  11370  11381     1
  11370  11382     1
  11371  11375     1
  11371  11376     1
  11371  11378     1
  11371  11379     1
  11371  11396     1
  11371  11397     1
  11372  11374     1
  11372  11377     1
  11372  11399     1
  11372  11395     1
  11372  11384     1
  11372  11385     1
  11373  11374     1
  11373  11377     1
  11373  11399     1
  11373  11395     1
  11373  11384     1
  11373  11385     1
  11374  11378     1
  11374  11379     1
  11374  11393     1
  11374  11394     1
  11375  11377     1
  11375  11399     1
  11375  11392     1
  11375  11387     1
  11375  11388     1
  11376  11377     1
  11376  11399     1
  11376  11392     1
  11376  11387     1
  11376  11388     1
  11377  11390     1
  11377  11391     1
  11378  11399     1
  11378  11389     1
  11378  11381     1
  11378  11382     1
  11379  11399     1
  11379  11389     1
  11379  11381     1
  11379  11382     1
  11380  11399     1
  11381  11398     1
  11381  11390     1
  11381  11391     1
  11382  11398     1
  11382  11390     1
  11382  11391     1
  11383  11399     1
  11384  20187     1
  11384  11396     1
  11384  11397     1
  11385  20187     1
  11385  11396     1
  11385  11397     1
  11386  11399     1
  11387  20164     1
  11387  11393     1
  11387  11394     1
  11388  20164     1
  11388  11393     1
  11388  11394     1
  11392  20163     1
  11393  20160     1
  11394  20160     1
  11395  20186     1
  11396  20183     1
  11397  20183     1
  11400  11414     1
  11400  11415     1
  11400  11417     1
  11400  11418     1
  11400  11411     1
  11400  11412     1
  11401  11405     1
  11401  11406     1
  11401  11408     1
  11401  11409     1
  11401  11426     1
  11401  11427     1
  11402  11404     1
  11402  11407     1
  11402  11429     1
  11402  11425     1
  11402  11414     1
  11402  11415     1
  11403  11404     1
  11403  11407     1
  11403  11429     1
  11403  11425     1
  11403  11414     1
  11403  11415     1
  11404  11408     1
  11404  11409     1
  11404  11423     1
  11404  11424     1
  11405  11407     1
  11405  11429     1
  11405  11422     1
  11405  11417     1
  11405  11418     1
  11406  11407     1
  11406  11429     1
  11406  11422     1
  11406  11417     1
  11406  11418     1
  11407  11420     1
  11407  11421     1
  11408  11429     1
  11408  11419     1
  11408  11411     1
  11408  11412     1
  11409  11429     1
  11409  11419     1
  11409  11411     1
  11409  11412     1
  11410  11429     1
  11411  11428     1
  11411  11420     1
  11411  11421     1
  11412  11428     1
  11412  11420     1
  11412  11421     1
  11413  11429     1
  11414  20233     1
  11414  11426     1
  11414  11427     1
  11415  20233     1
  11415  11426     1
  11415  11427     1
  11416  11429     1
  11417  20210     1
  11417  11423     1
  11417  11424     1
  11418  20210     1
  11418  11423     1
  11418  11424     1
  11422  20209     1
  11423  20206     1
  11424  20206     1
  11425  20232     1
  11426  20229     1
  11427  20229     1
  11430  11444     1
  11430  11445     1
  11430  11447     1
  11430  11448     1
  11430  11441     1
  11430  11442     1
  11431  11435     1
  11431  11436     1
  11431  11438     1
  11431  11439     1
  11431  11456     1
  11431  11457     1
  11432  11434     1
  11432  11437     1
  11432  11459     1
  11432  11455     1
  11432  11444     1
  11432  11445     1
  11433  11434     1
  11433  11437     1
  11433  11459     1
  11433  11455     1
  11433  11444     1
  11433  11445     1
  11434  11438     1
  11434  11439     1
  11434  11453     1
  11434  11454     1
  11435  11437     1
  11435  11459     1
  11435  11452     1
  11435  11447     1
  11435  11448     1
  11436  11437     1
  11436  11459     1
  11436  11452     1
  11436  11447     1
  11436  11448     1
  11437  11450     1
  11437  11451     1
  11438  11459     1
  11438  11449     1
  11438  11441     1
  11438  11442     1
  11439  11459     1
  11439  11449     1
  11439  11441     1
  11439  11442     1
  11440  11459     1
  11441  11458     1
  11441  11450     1
  11441  11451     1
  11442  11458     1
  11442  11450     1
  11442  11451     1
  11443  11459     1
  11444  20279     1
  11444  11456     1
  11444  11457     1
  11445  20279     1
  11445  11456     1
  11445  11457     1
  11446  11459     1
  11447  20256     1
  11447  11453     1
  11447  11454     1
  11448  20256     1
  11448  11453     1
  11448  11454     1
  11452  20255     1
  11453  20252     1
  11454  20252     1
  11455  20278     1
  11456  20275     1
  11457  20275     1
  11460  11468     1
  11460  11476     1
  11460  11481     1
  11460  11469     1
  11461  11478     1
  11461  11479     1
  11461  11467     1
  11461  11475     1
  11462  11464     1
  11462  11473     1
  11462  11463     1
  11462  11480     1
  11462  11478     1
  11462  11479     1
  11462  11466     1
  11463  11474     1
  11463  11482     1
  11463  11465     1
  11463  11472     1
  11463  11468     1
  11463  11476     1
  11464  11476     1
  11464  11469     1
  11464  11477     1
  11465  11475     1
  11466  11468     1
  11466  11477     1
  11467  11472     1
  11467  11468     1
  11467  11470     1
  11467  11482     1
  11467  11469     1
  11467  11477     1
  11468  11473     1
  11468  11471     1
  11468  11475     1
  11469  11471     1
  11478  11482     1
  11478  11481     1
  11479  11482     1
  11479  11481     1
  11483  11491     1
  11483  11499     1
  11483  11504     1
  11483  11492     1
  11484  11490     1
  11484  11498     1
  11484  11501     1
  11484  11502     1
  11485  11487     1
  11485  11496     1
  11485  11486     1
  11485  11503     1
  11485  11501     1
  11485  11502     1
  11485  11489     1
  11486  11488     1
  11486  11495     1
  11486  11491     1
  11486  11499     1
  11486  11497     1
  11486  11505     1
  11487  11492     1
  11487  11500     1
  11487  11499     1
  11488  11498     1
  11489  11500     1
  11489  11491     1
  11490  11493     1
  11490  11505     1
  11490  11492     1
  11490  11500     1
  11490  11495     1
  11490  11491     1
  11491  11494     1
  11491  11498     1
  11491  11496     1
  11492  11494     1
  11501  11504     1
  11501  11505     1
  11502  11504     1
  11502  11505     1
  11506  11514     1
  11506  11522     1
  11506  11527     1
  11506  11515     1
  11507  11524     1
  11507  11525     1
  11507  11513     1
  11507  11521     1
  11508  11510     1
  11508  11519     1
  11508  11509     1
  11508  11526     1
  11508  11524     1
  11508  11525     1
  11508  11512     1
  11509  11520     1
  11509  11528     1
  11509  11511     1
  11509  11518     1
  11509  11514     1
  11509  11522     1
  11510  11522     1
  11510  11515     1
  11510  11523     1
  11511  11521     1
  11512  11514     1
  11512  11523     1
  11513  11518     1
  11513  11514     1
  11513  11516     1
  11513  11528     1
  11513  11515     1
  11513  11523     1
  11514  11519     1
  11514  11517     1
  11514  11521     1
  11515  11517     1
  11524  11528     1
  11524  11527     1
  11525  11528     1
  11525  11527     1
  11529  11537     1
  11529  11545     1
  11529  11550     1
  11529  11538     1
  11530  11536     1
  11530  11544     1
  11530  11547     1
  11530  11548     1
  11531  11533     1
  11531  11542     1
  11531  11532     1
  11531  11549     1
  11531  11547     1
  11531  11548     1
  11531  11535     1
  11532  11534     1
  11532  11541     1
  11532  11537     1
  11532  11545     1
  11532  11543     1
  11532  11551     1
  11533  11538     1
  11533  11546     1
  11533  11545     1
  11534  11544     1
  11535  11546     1
  11535  11537     1
  11536  11539     1
  11536  11551     1
  11536  11538     1
  11536  11546     1
  11536  11541     1
  11536  11537     1
  11537  11540     1
  11537  11544     1
  11537  11542     1
  11538  11540     1
  11547  11550     1
  11547  11551     1
  11548  11550     1
  11548  11551     1
  11552  11560     1
  11552  11568     1
  11552  11573     1
  11552  11561     1
  11553  11570     1
  11553  11571     1
  11553  11559     1
  11553  11567     1
  11554  11556     1
  11554  11565     1
  11554  11555     1
  11554  11572     1
  11554  11570     1
  11554  11571     1
  11554  11558     1
  11555  11566     1
  11555  11574     1
  11555  11557     1
  11555  11564     1
  11555  11560     1
  11555  11568     1
  11556  11568     1
  11556  11561     1
  11556  11569     1
  11557  11567     1
  11558  11560     1
  11558  11569     1
  11559  11564     1
  11559  11560     1
  11559  11562     1
  11559  11574     1
  11559  11561     1
  11559  11569     1
  11560  11565     1
  11560  11563     1
  11560  11567     1
  11561  11563     1
  11570  11574     1
  11570  11573     1
  11571  11574     1
  11571  11573     1
  11575  11583     1
  11575  11591     1
  11575  11596     1
  11575  11584     1
  11576  11582     1
  11576  11590     1
  11576  11593     1
  11576  11594     1
  11577  11579     1
  11577  11588     1
  11577  11578     1
  11577  11595     1
  11577  11593     1
  11577  11594     1
  11577  11581     1
  11578  11580     1
  11578  11587     1
  11578  11583     1
  11578  11591     1
  11578  11589     1
  11578  11597     1
  11579  11584     1
  11579  11592     1
  11579  11591     1
  11580  11590     1
  11581  11592     1
  11581  11583     1
  11582  11585     1
  11582  11597     1
  11582  11584     1
  11582  11592     1
  11582  11587     1
  11582  11583     1
  11583  11586     1
  11583  11590     1
  11583  11588     1
  11584  11586     1
  11593  11596     1
  11593  11597     1
  11594  11596     1
  11594  11597     1
  11598  11606     1
  11598  11614     1
  11598  11619     1
  11598  11607     1
  11599  11616     1
  11599  11617     1
  11599  11605     1
  11599  11613     1
  11600  11602     1
  11600  11611     1
  11600  11601     1
  11600  11618     1
  11600  11616     1
  11600  11617     1
  11600  11604     1
  11601  11612     1
  11601  11620     1
  11601  11603     1
  11601  11610     1
  11601  11606     1
  11601  11614     1
  11602  11614     1
  11602  11607     1
  11602  11615     1
  11603  11613     1
  11604  11606     1
  11604  11615     1
  11605  11610     1
  11605  11606     1
  11605  11608     1
  11605  11620     1
  11605  11607     1
  11605  11615     1
  11606  11611     1
  11606  11609     1
  11606  11613     1
  11607  11609     1
  11616  11620     1
  11616  11619     1
  11617  11620     1
  11617  11619     1
  11621  11629     1
  11621  11637     1
  11621  11642     1
  11621  11630     1
  11622  11628     1
  11622  11636     1
  11622  11639     1
  11622  11640     1
  11623  11625     1
  11623  11634     1
  11623  11624     1
  11623  11641     1
  11623  11639     1
  11623  11640     1
  11623  11627     1
  11624  11626     1
  11624  11633     1
  11624  11629     1
  11624  11637     1
  11624  11635     1
  11624  11643     1
  11625  11630     1
  11625  11638     1
  11625  11637     1
  11626  11636     1
  11627  11638     1
  11627  11629     1
  11628  11631     1
  11628  11643     1
  11628  11630     1
  11628  11638     1
  11628  11633     1
  11628  11629     1
  11629  11632     1
  11629  11636     1
  11629  11634     1
  11630  11632     1
  11639  11642     1
  11639  11643     1
  11640  11642     1
  11640  11643     1
  11644  11652     1
  11644  11660     1
  11644  11665     1
  11644  11653     1
  11645  11662     1
  11645  11663     1
  11645  11651     1
  11645  11659     1
  11646  11648     1
  11646  11657     1
  11646  11647     1
  11646  11664     1
  11646  11662     1
  11646  11663     1
  11646  11650     1
  11647  11658     1
  11647  11666     1
  11647  11649     1
  11647  11656     1
  11647  11652     1
  11647  11660     1
  11648  11660     1
  11648  11653     1
  11648  11661     1
  11649  11659     1
  11650  11652     1
  11650  11661     1
  11651  11656     1
  11651  11652     1
  11651  11654     1
  11651  11666     1
  11651  11653     1
  11651  11661     1
  11652  11657     1
  11652  11655     1
  11652  11659     1
  11653  11655     1
  11662  11666     1
  11662  11665     1
  11663  11666     1
  11663  11665     1
  11667  11675     1
  11667  11683     1
  11667  11688     1
  11667  11676     1
  11668  11674     1
  11668  11682     1
  11668  11685     1
  11668  11686     1
  11669  11671     1
  11669  11680     1
  11669  11670     1
  11669  11687     1
  11669  11685     1
  11669  11686     1
  11669  11673     1
  11670  11672     1
  11670  11679     1
  11670  11675     1
  11670  11683     1
  11670  11681     1
  11670  11689     1
  11671  11676     1
  11671  11684     1
  11671  11683     1
  11672  11682     1
  11673  11684     1
  11673  11675     1
  11674  11677     1
  11674  11689     1
  11674  11676     1
  11674  11684     1
  11674  11679     1
  11674  11675     1
  11675  11678     1
  11675  11682     1
  11675  11680     1
  11676  11678     1
  11685  11688     1
  11685  11689     1
  11686  11688     1
  11686  11689     1
  11690  11698     1
  11690  11706     1
  11690  11711     1
  11690  11699     1
  11691  11708     1
  11691  11709     1
  11691  11697     1
  11691  11705     1
  11692  11694     1
  11692  11703     1
  11692  11693     1
  11692  11710     1
  11692  11708     1
  11692  11709     1
  11692  11696     1
  11693  11704     1
  11693  11712     1
  11693  11695     1
  11693  11702     1
  11693  11698     1
  11693  11706     1
  11694  11706     1
  11694  11699     1
  11694  11707     1
  11695  11705     1
  11696  11698     1
  11696  11707     1
  11697  11702     1
  11697  11698     1
  11697  11700     1
  11697  11712     1
  11697  11699     1
  11697  11707     1
  11698  11703     1
  11698  11701     1
  11698  11705     1
  11699  11701     1
  11708  11712     1
  11708  11711     1
  11709  11712     1
  11709  11711     1
  11713  11721     1
  11713  11729     1
  11713  11734     1
  11713  11722     1
  11714  11720     1
  11714  11728     1
  11714  11731     1
  11714  11732     1
  11715  11717     1
  11715  11726     1
  11715  11716     1
  11715  11733     1
  11715  11731     1
  11715  11732     1
  11715  11719     1
  11716  11718     1
  11716  11725     1
  11716  11721     1
  11716  11729     1
  11716  11727     1
  11716  11735     1
  11717  11722     1
  11717  11730     1
  11717  11729     1
  11718  11728     1
  11719  11730     1
  11719  11721     1
  11720  11723     1
  11720  11735     1
  11720  11722     1
  11720  11730     1
  11720  11725     1
  11720  11721     1
  11721  11724     1
  11721  11728     1
  11721  11726     1
  11722  11724     1
  11731  11734     1
  11731  11735     1
  11732  11734     1
  11732  11735     1
  11736  11744     1
  11736  11752     1
  11736  11757     1
  11736  11745     1
  11737  11754     1
  11737  11755     1
  11737  11743     1
  11737  11751     1
  11738  11740     1
  11738  11749     1
  11738  11739     1
  11738  11756     1
  11738  11754     1
  11738  11755     1
  11738  11742     1
  11739  11750     1
  11739  11758     1
  11739  11741     1
  11739  11748     1
  11739  11744     1
  11739  11752     1
  11740  11752     1
  11740  11745     1
  11740  11753     1
  11741  11751     1
  11742  11744     1
  11742  11753     1
  11743  11748     1
  11743  11744     1
  11743  11746     1
  11743  11758     1
  11743  11745     1
  11743  11753     1
  11744  11749     1
  11744  11747     1
  11744  11751     1
  11745  11747     1
  11754  11758     1
  11754  11757     1
  11755  11758     1
  11755  11757     1
  11759  11767     1
  11759  11775     1
  11759  11780     1
  11759  11768     1
  11760  11766     1
  11760  11774     1
  11760  11777     1
  11760  11778     1
  11761  11763     1
  11761  11772     1
  11761  11762     1
  11761  11779     1
  11761  11777     1
  11761  11778     1
  11761  11765     1
  11762  11764     1
  11762  11771     1
  11762  11767     1
  11762  11775     1
  11762  11773     1
  11762  11781     1
  11763  11768     1
  11763  11776     1
  11763  11775     1
  11764  11774     1
  11765  11776     1
  11765  11767     1
  11766  11769     1
  11766  11781     1
  11766  11768     1
  11766  11776     1
  11766  11771     1
  11766  11767     1
  11767  11770     1
  11767  11774     1
  11767  11772     1
  11768  11770     1
  11777  11780     1
  11777  11781     1
  11778  11780     1
  11778  11781     1
  11782  11790     1
  11782  11798     1
  11782  11803     1
  11782  11791     1
  11783  11800     1
  11783  11801     1
  11783  11789     1
  11783  11797     1
  11784  11786     1
  11784  11795     1
  11784  11785     1
  11784  11802     1
  11784  11800     1
  11784  11801     1
  11784  11788     1
  11785  11796     1
  11785  11804     1
  11785  11787     1
  11785  11794     1
  11785  11790     1
  11785  11798     1
  11786  11798     1
  11786  11791     1
  11786  11799     1
  11787  11797     1
  11788  11790     1
  11788  11799     1
  11789  11794     1
  11789  11790     1
  11789  11792     1
  11789  11804     1
  11789  11791     1
  11789  11799     1
  11790  11795     1
  11790  11793     1
  11790  11797     1
  11791  11793     1
  11800  11804     1
  11800  11803     1
  11801  11804     1
  11801  11803     1
  11805  11813     1
  11805  11821     1
  11805  11826     1
  11805  11814     1
  11806  11812     1
  11806  11820     1
  11806  11823     1
  11806  11824     1
  11807  11809     1
  11807  11818     1
  11807  11808     1
  11807  11825     1
  11807  11823     1
  11807  11824     1
  11807  11811     1
  11808  11810     1
  11808  11817     1
  11808  11813     1
  11808  11821     1
  11808  11819     1
  11808  11827     1
  11809  11814     1
  11809  11822     1
  11809  11821     1
  11810  11820     1
  11811  11822     1
  11811  11813     1
  11812  11815     1
  11812  11827     1
  11812  11814     1
  11812  11822     1
  11812  11817     1
  11812  11813     1
  11813  11816     1
  11813  11820     1
  11813  11818     1
  11814  11816     1
  11823  11826     1
  11823  11827     1
  11824  11826     1
  11824  11827     1
  11828  11836     1
  11828  11844     1
  11828  11849     1
  11828  11837     1
  11829  11846     1
  11829  11847     1
  11829  11835     1
  11829  11843     1
  11830  11832     1
  11830  11841     1
  11830  11831     1
  11830  11848     1
  11830  11846     1
  11830  11847     1
  11830  11834     1
  11831  11842     1
  11831  11850     1
  11831  11833     1
  11831  11840     1
  11831  11836     1
  11831  11844     1
  11832  11844     1
  11832  11837     1
  11832  11845     1
  11833  11843     1
  11834  11836     1
  11834  11845     1
  11835  11840     1
  11835  11836     1
  11835  11838     1
  11835  11850     1
  11835  11837     1
  11835  11845     1
  11836  11841     1
  11836  11839     1
  11836  11843     1
  11837  11839     1
  11846  11850     1
  11846  11849     1
  11847  11850     1
  11847  11849     1
  11851  11859     1
  11851  11867     1
  11851  11872     1
  11851  11860     1
  11852  11858     1
  11852  11866     1
  11852  11869     1
  11852  11870     1
  11853  11855     1
  11853  11864     1
  11853  11854     1
  11853  11871     1
  11853  11869     1
  11853  11870     1
  11853  11857     1
  11854  11856     1
  11854  11863     1
  11854  11859     1
  11854  11867     1
  11854  11865     1
  11854  11873     1
  11855  11860     1
  11855  11868     1
  11855  11867     1
  11856  11866     1
  11857  11868     1
  11857  11859     1
  11858  11861     1
  11858  11873     1
  11858  11860     1
  11858  11868     1
  11858  11863     1
  11858  11859     1
  11859  11862     1
  11859  11866     1
  11859  11864     1
  11860  11862     1
  11869  11872     1
  11869  11873     1
  11870  11872     1
  11870  11873     1
  11874  11882     1
  11874  11890     1
  11874  11895     1
  11874  11883     1
  11875  11892     1
  11875  11893     1
  11875  11881     1
  11875  11889     1
  11876  11878     1
  11876  11887     1
  11876  11877     1
  11876  11894     1
  11876  11892     1
  11876  11893     1
  11876  11880     1
  11877  11888     1
  11877  11896     1
  11877  11879     1
  11877  11886     1
  11877  11882     1
  11877  11890     1
  11878  11890     1
  11878  11883     1
  11878  11891     1
  11879  11889     1
  11880  11882     1
  11880  11891     1
  11881  11886     1
  11881  11882     1
  11881  11884     1
  11881  11896     1
  11881  11883     1
  11881  11891     1
  11882  11887     1
  11882  11885     1
  11882  11889     1
  11883  11885     1
  11892  11896     1
  11892  11895     1
  11893  11896     1
  11893  11895     1
  11897  11905     1
  11897  11913     1
  11897  11918     1
  11897  11906     1
  11898  11904     1
  11898  11912     1
  11898  11915     1
  11898  11916     1
  11899  11901     1
  11899  11910     1
  11899  11900     1
  11899  11917     1
  11899  11915     1
  11899  11916     1
  11899  11903     1
  11900  11902     1
  11900  11909     1
  11900  11905     1
  11900  11913     1
  11900  11911     1
  11900  11919     1
  11901  11906     1
  11901  11914     1
  11901  11913     1
  11902  11912     1
  11903  11914     1
  11903  11905     1
  11904  11907     1
  11904  11919     1
  11904  11906     1
  11904  11914     1
  11904  11909     1
  11904  11905     1
  11905  11908     1
  11905  11912     1
  11905  11910     1
  11906  11908     1
  11915  11918     1
  11915  11919     1
  11916  11918     1
  11916  11919     1
  11920  11928     1
  11920  11936     1
  11920  11941     1
  11920  11929     1
  11921  11938     1
  11921  11939     1
  11921  11927     1
  11921  11935     1
  11922  11924     1
  11922  11933     1
  11922  11923     1
  11922  11940     1
  11922  11938     1
  11922  11939     1
  11922  11926     1
  11923  11934     1
  11923  11942     1
  11923  11925     1
  11923  11932     1
  11923  11928     1
  11923  11936     1
  11924  11936     1
  11924  11929     1
  11924  11937     1
  11925  11935     1
  11926  11928     1
  11926  11937     1
  11927  11932     1
  11927  11928     1
  11927  11930     1
  11927  11942     1
  11927  11929     1
  11927  11937     1
  11928  11933     1
  11928  11931     1
  11928  11935     1
  11929  11931     1
  11938  11942     1
  11938  11941     1
  11939  11942     1
  11939  11941     1
  11943  11951     1
  11943  11959     1
  11943  11964     1
  11943  11952     1
  11944  11950     1
  11944  11958     1
  11944  11961     1
  11944  11962     1
  11945  11947     1
  11945  11956     1
  11945  11946     1
  11945  11963     1
  11945  11961     1
  11945  11962     1
  11945  11949     1
  11946  11948     1
  11946  11955     1
  11946  11951     1
  11946  11959     1
  11946  11957     1
  11946  11965     1
  11947  11952     1
  11947  11960     1
  11947  11959     1
  11948  11958     1
  11949  11960     1
  11949  11951     1
  11950  11953     1
  11950  11965     1
  11950  11952     1
  11950  11960     1
  11950  11955     1
  11950  11951     1
  11951  11954     1
  11951  11958     1
  11951  11956     1
  11952  11954     1
  11961  11964     1
  11961  11965     1
  11962  11964     1
  11962  11965     1
  11966  11974     1
  11966  11982     1
  11966  11987     1
  11966  11975     1
  11967  11984     1
  11967  11985     1
  11967  11973     1
  11967  11981     1
  11968  11970     1
  11968  11979     1
  11968  11969     1
  11968  11986     1
  11968  11984     1
  11968  11985     1
  11968  11972     1
  11969  11980     1
  11969  11988     1
  11969  11971     1
  11969  11978     1
  11969  11974     1
  11969  11982     1
  11970  11982     1
  11970  11975     1
  11970  11983     1
  11971  11981     1
  11972  11974     1
  11972  11983     1
  11973  11978     1
  11973  11974     1
  11973  11976     1
  11973  11988     1
  11973  11975     1
  11973  11983     1
  11974  11979     1
  11974  11977     1
  11974  11981     1
  11975  11977     1
  11984  11988     1
  11984  11987     1
  11985  11988     1
  11985  11987     1
  11989  11997     1
  11989  12005     1
  11989  12010     1
  11989  11998     1
  11990  11996     1
  11990  12004     1
  11990  12007     1
  11990  12008     1
  11991  11993     1
  11991  12002     1
  11991  11992     1
  11991  12009     1
  11991  12007     1
  11991  12008     1
  11991  11995     1
  11992  11994     1
  11992  12001     1
  11992  11997     1
  11992  12005     1
  11992  12003     1
  11992  12011     1
  11993  11998     1
  11993  12006     1
  11993  12005     1
  11994  12004     1
  11995  12006     1
  11995  11997     1
  11996  11999     1
  11996  12011     1
  11996  11998     1
  11996  12006     1
  11996  12001     1
  11996  11997     1
  11997  12000     1
  11997  12004     1
  11997  12002     1
  11998  12000     1
  12007  12010     1
  12007  12011     1
  12008  12010     1
  12008  12011     1
  12012  12020     1
  12012  12028     1
  12012  12033     1
  12012  12021     1
  12013  12030     1
  12013  12031     1
  12013  12019     1
  12013  12027     1
  12014  12016     1
  12014  12025     1
  12014  12015     1
  12014  12032     1
  12014  12030     1
  12014  12031     1
  12014  12018     1
  12015  12026     1
  12015  12034     1
  12015  12017     1
  12015  12024     1
  12015  12020     1
  12015  12028     1
  12016  12028     1
  12016  12021     1
  12016  12029     1
  12017  12027     1
  12018  12020     1
  12018  12029     1
  12019  12024     1
  12019  12020     1
  12019  12022     1
  12019  12034     1
  12019  12021     1
  12019  12029     1
  12020  12025     1
  12020  12023     1
  12020  12027     1
  12021  12023     1
  12030  12034     1
  12030  12033     1
  12031  12034     1
  12031  12033     1
  12035  12043     1
  12035  12051     1
  12035  12056     1
  12035  12044     1
  12036  12042     1
  12036  12050     1
  12036  12053     1
  12036  12054     1
  12037  12039     1
  12037  12048     1
  12037  12038     1
  12037  12055     1
  12037  12053     1
  12037  12054     1
  12037  12041     1
  12038  12040     1
  12038  12047     1
  12038  12043     1
  12038  12051     1
  12038  12049     1
  12038  12057     1
  12039  12044     1
  12039  12052     1
  12039  12051     1
  12040  12050     1
  12041  12052     1
  12041  12043     1
  12042  12045     1
  12042  12057     1
  12042  12044     1
  12042  12052     1
  12042  12047     1
  12042  12043     1
  12043  12046     1
  12043  12050     1
  12043  12048     1
  12044  12046     1
  12053  12056     1
  12053  12057     1
  12054  12056     1
  12054  12057     1
  12058  12066     1
  12058  12074     1
  12058  12079     1
  12058  12067     1
  12059  12076     1
  12059  12077     1
  12059  12065     1
  12059  12073     1
  12060  12062     1
  12060  12071     1
  12060  12061     1
  12060  12078     1
  12060  12076     1
  12060  12077     1
  12060  12064     1
  12061  12072     1
  12061  12080     1
  12061  12063     1
  12061  12070     1
  12061  12066     1
  12061  12074     1
  12062  12074     1
  12062  12067     1
  12062  12075     1
  12063  12073     1
  12064  12066     1
  12064  12075     1
  12065  12070     1
  12065  12066     1
  12065  12068     1
  12065  12080     1
  12065  12067     1
  12065  12075     1
  12066  12071     1
  12066  12069     1
  12066  12073     1
  12067  12069     1
  12076  12080     1
  12076  12079     1
  12077  12080     1
  12077  12079     1
  12081  12089     1
  12081  12097     1
  12081  12102     1
  12081  12090     1
  12082  12088     1
  12082  12096     1
  12082  12099     1
  12082  12100     1
  12083  12085     1
  12083  12094     1
  12083  12084     1
  12083  12101     1
  12083  12099     1
  12083  12100     1
  12083  12087     1
  12084  12086     1
  12084  12093     1
  12084  12089     1
  12084  12097     1
  12084  12095     1
  12084  12103     1
  12085  12090     1
  12085  12098     1
  12085  12097     1
  12086  12096     1
  12087  12098     1
  12087  12089     1
  12088  12091     1
  12088  12103     1
  12088  12090     1
  12088  12098     1
  12088  12093     1
  12088  12089     1
  12089  12092     1
  12089  12096     1
  12089  12094     1
  12090  12092     1
  12099  12102     1
  12099  12103     1
  12100  12102     1
  12100  12103     1
  12104  12112     1
  12104  12120     1
  12104  12125     1
  12104  12113     1
  12105  12122     1
  12105  12123     1
  12105  12111     1
  12105  12119     1
  12106  12108     1
  12106  12117     1
  12106  12107     1
  12106  12124     1
  12106  12122     1
  12106  12123     1
  12106  12110     1
  12107  12118     1
  12107  12126     1
  12107  12109     1
  12107  12116     1
  12107  12112     1
  12107  12120     1
  12108  12120     1
  12108  12113     1
  12108  12121     1
  12109  12119     1
  12110  12112     1
  12110  12121     1
  12111  12116     1
  12111  12112     1
  12111  12114     1
  12111  12126     1
  12111  12113     1
  12111  12121     1
  12112  12117     1
  12112  12115     1
  12112  12119     1
  12113  12115     1
  12122  12126     1
  12122  12125     1
  12123  12126     1
  12123  12125     1
  12127  12135     1
  12127  12143     1
  12127  12148     1
  12127  12136     1
  12128  12134     1
  12128  12142     1
  12128  12145     1
  12128  12146     1
  12129  12131     1
  12129  12140     1
  12129  12130     1
  12129  12147     1
  12129  12145     1
  12129  12146     1
  12129  12133     1
  12130  12132     1
  12130  12139     1
  12130  12135     1
  12130  12143     1
  12130  12141     1
  12130  12149     1
  12131  12136     1
  12131  12144     1
  12131  12143     1
  12132  12142     1
  12133  12144     1
  12133  12135     1
  12134  12137     1
  12134  12149     1
  12134  12136     1
  12134  12144     1
  12134  12139     1
  12134  12135     1
  12135  12138     1
  12135  12142     1
  12135  12140     1
  12136  12138     1
  12145  12148     1
  12145  12149     1
  12146  12148     1
  12146  12149     1
  12150  12158     1
  12150  12166     1
  12150  12171     1
  12150  12159     1
  12151  12168     1
  12151  12169     1
  12151  12157     1
  12151  12165     1
  12152  12154     1
  12152  12163     1
  12152  12153     1
  12152  12170     1
  12152  12168     1
  12152  12169     1
  12152  12156     1
  12153  12164     1
  12153  12172     1
  12153  12155     1
  12153  12162     1
  12153  12158     1
  12153  12166     1
  12154  12166     1
  12154  12159     1
  12154  12167     1
  12155  12165     1
  12156  12158     1
  12156  12167     1
  12157  12162     1
  12157  12158     1
  12157  12160     1
  12157  12172     1
  12157  12159     1
  12157  12167     1
  12158  12163     1
  12158  12161     1
  12158  12165     1
  12159  12161     1
  12168  12172     1
  12168  12171     1
  12169  12172     1
  12169  12171     1
  12173  12181     1
  12173  12189     1
  12173  12194     1
  12173  12182     1
  12174  12180     1
  12174  12188     1
  12174  12191     1
  12174  12192     1
  12175  12177     1
  12175  12186     1
  12175  12176     1
  12175  12193     1
  12175  12191     1
  12175  12192     1
  12175  12179     1
  12176  12178     1
  12176  12185     1
  12176  12181     1
  12176  12189     1
  12176  12187     1
  12176  12195     1
  12177  12182     1
  12177  12190     1
  12177  12189     1
  12178  12188     1
  12179  12190     1
  12179  12181     1
  12180  12183     1
  12180  12195     1
  12180  12182     1
  12180  12190     1
  12180  12185     1
  12180  12181     1
  12181  12184     1
  12181  12188     1
  12181  12186     1
  12182  12184     1
  12191  12194     1
  12191  12195     1
  12192  12194     1
  12192  12195     1
  12196  12204     1
  12196  12212     1
  12196  12217     1
  12196  12205     1
  12197  12214     1
  12197  12215     1
  12197  12203     1
  12197  12211     1
  12198  12200     1
  12198  12209     1
  12198  12199     1
  12198  12216     1
  12198  12214     1
  12198  12215     1
  12198  12202     1
  12199  12210     1
  12199  12218     1
  12199  12201     1
  12199  12208     1
  12199  12204     1
  12199  12212     1
  12200  12212     1
  12200  12205     1
  12200  12213     1
  12201  12211     1
  12202  12204     1
  12202  12213     1
  12203  12208     1
  12203  12204     1
  12203  12206     1
  12203  12218     1
  12203  12205     1
  12203  12213     1
  12204  12209     1
  12204  12207     1
  12204  12211     1
  12205  12207     1
  12214  12218     1
  12214  12217     1
  12215  12218     1
  12215  12217     1
  12219  12227     1
  12219  12235     1
  12219  12240     1
  12219  12228     1
  12220  12226     1
  12220  12234     1
  12220  12237     1
  12220  12238     1
  12221  12223     1
  12221  12232     1
  12221  12222     1
  12221  12239     1
  12221  12237     1
  12221  12238     1
  12221  12225     1
  12222  12224     1
  12222  12231     1
  12222  12227     1
  12222  12235     1
  12222  12233     1
  12222  12241     1
  12223  12228     1
  12223  12236     1
  12223  12235     1
  12224  12234     1
  12225  12236     1
  12225  12227     1
  12226  12229     1
  12226  12241     1
  12226  12228     1
  12226  12236     1
  12226  12231     1
  12226  12227     1
  12227  12230     1
  12227  12234     1
  12227  12232     1
  12228  12230     1
  12237  12240     1
  12237  12241     1
  12238  12240     1
  12238  12241     1
  12242  12250     1
  12242  12258     1
  12242  12263     1
  12242  12251     1
  12243  12260     1
  12243  12261     1
  12243  12249     1
  12243  12257     1
  12244  12246     1
  12244  12255     1
  12244  12245     1
  12244  12262     1
  12244  12260     1
  12244  12261     1
  12244  12248     1
  12245  12256     1
  12245  12264     1
  12245  12247     1
  12245  12254     1
  12245  12250     1
  12245  12258     1
  12246  12258     1
  12246  12251     1
  12246  12259     1
  12247  12257     1
  12248  12250     1
  12248  12259     1
  12249  12254     1
  12249  12250     1
  12249  12252     1
  12249  12264     1
  12249  12251     1
  12249  12259     1
  12250  12255     1
  12250  12253     1
  12250  12257     1
  12251  12253     1
  12260  12264     1
  12260  12263     1
  12261  12264     1
  12261  12263     1
  12265  12273     1
  12265  12281     1
  12265  12286     1
  12265  12274     1
  12266  12272     1
  12266  12280     1
  12266  12283     1
  12266  12284     1
  12267  12269     1
  12267  12278     1
  12267  12268     1
  12267  12285     1
  12267  12283     1
  12267  12284     1
  12267  12271     1
  12268  12270     1
  12268  12277     1
  12268  12273     1
  12268  12281     1
  12268  12279     1
  12268  12287     1
  12269  12274     1
  12269  12282     1
  12269  12281     1
  12270  12280     1
  12271  12282     1
  12271  12273     1
  12272  12275     1
  12272  12287     1
  12272  12274     1
  12272  12282     1
  12272  12277     1
  12272  12273     1
  12273  12276     1
  12273  12280     1
  12273  12278     1
  12274  12276     1
  12283  12286     1
  12283  12287     1
  12284  12286     1
  12284  12287     1
  12288  12296     1
  12288  12304     1
  12288  12309     1
  12288  12297     1
  12289  12306     1
  12289  12307     1
  12289  12295     1
  12289  12303     1
  12290  12292     1
  12290  12301     1
  12290  12291     1
  12290  12308     1
  12290  12306     1
  12290  12307     1
  12290  12294     1
  12291  12302     1
  12291  12310     1
  12291  12293     1
  12291  12300     1
  12291  12296     1
  12291  12304     1
  12292  12304     1
  12292  12297     1
  12292  12305     1
  12293  12303     1
  12294  12296     1
  12294  12305     1
  12295  12300     1
  12295  12296     1
  12295  12298     1
  12295  12310     1
  12295  12297     1
  12295  12305     1
  12296  12301     1
  12296  12299     1
  12296  12303     1
  12297  12299     1
  12306  12310     1
  12306  12309     1
  12307  12310     1
  12307  12309     1
  12311  12319     1
  12311  12327     1
  12311  12332     1
  12311  12320     1
  12312  12318     1
  12312  12326     1
  12312  12329     1
  12312  12330     1
  12313  12315     1
  12313  12324     1
  12313  12314     1
  12313  12331     1
  12313  12329     1
  12313  12330     1
  12313  12317     1
  12314  12316     1
  12314  12323     1
  12314  12319     1
  12314  12327     1
  12314  12325     1
  12314  12333     1
  12315  12320     1
  12315  12328     1
  12315  12327     1
  12316  12326     1
  12317  12328     1
  12317  12319     1
  12318  12321     1
  12318  12333     1
  12318  12320     1
  12318  12328     1
  12318  12323     1
  12318  12319     1
  12319  12322     1
  12319  12326     1
  12319  12324     1
  12320  12322     1
  12329  12332     1
  12329  12333     1
  12330  12332     1
  12330  12333     1
  12334  12342     1
  12334  12350     1
  12334  12355     1
  12334  12343     1
  12335  12352     1
  12335  12353     1
  12335  12341     1
  12335  12349     1
  12336  12338     1
  12336  12347     1
  12336  12337     1
  12336  12354     1
  12336  12352     1
  12336  12353     1
  12336  12340     1
  12337  12348     1
  12337  12356     1
  12337  12339     1
  12337  12346     1
  12337  12342     1
  12337  12350     1
  12338  12350     1
  12338  12343     1
  12338  12351     1
  12339  12349     1
  12340  12342     1
  12340  12351     1
  12341  12346     1
  12341  12342     1
  12341  12344     1
  12341  12356     1
  12341  12343     1
  12341  12351     1
  12342  12347     1
  12342  12345     1
  12342  12349     1
  12343  12345     1
  12352  12356     1
  12352  12355     1
  12353  12356     1
  12353  12355     1
  12357  12365     1
  12357  12373     1
  12357  12378     1
  12357  12366     1
  12358  12364     1
  12358  12372     1
  12358  12375     1
  12358  12376     1
  12359  12361     1
  12359  12370     1
  12359  12360     1
  12359  12377     1
  12359  12375     1
  12359  12376     1
  12359  12363     1
  12360  12362     1
  12360  12369     1
  12360  12365     1
  12360  12373     1
  12360  12371     1
  12360  12379     1
  12361  12366     1
  12361  12374     1
  12361  12373     1
  12362  12372     1
  12363  12374     1
  12363  12365     1
  12364  12367     1
  12364  12379     1
  12364  12366     1
  12364  12374     1
  12364  12369     1
  12364  12365     1
  12365  12368     1
  12365  12372     1
  12365  12370     1
  12366  12368     1
  12375  12378     1
  12375  12379     1
  12376  12378     1
  12376  12379     1
  12380  12388     1
  12380  12396     1
  12380  12401     1
  12380  12389     1
  12381  12398     1
  12381  12399     1
  12381  12387     1
  12381  12395     1
  12382  12384     1
  12382  12393     1
  12382  12383     1
  12382  12400     1
  12382  12398     1
  12382  12399     1
  12382  12386     1
  12383  12394     1
  12383  12402     1
  12383  12385     1
  12383  12392     1
  12383  12388     1
  12383  12396     1
  12384  12396     1
  12384  12389     1
  12384  12397     1
  12385  12395     1
  12386  12388     1
  12386  12397     1
  12387  12392     1
  12387  12388     1
  12387  12390     1
  12387  12402     1
  12387  12389     1
  12387  12397     1
  12388  12393     1
  12388  12391     1
  12388  12395     1
  12389  12391     1
  12398  12402     1
  12398  12401     1
  12399  12402     1
  12399  12401     1
  12403  12411     1
  12403  12419     1
  12403  12424     1
  12403  12412     1
  12404  12410     1
  12404  12418     1
  12404  12421     1
  12404  12422     1
  12405  12407     1
  12405  12416     1
  12405  12406     1
  12405  12423     1
  12405  12421     1
  12405  12422     1
  12405  12409     1
  12406  12408     1
  12406  12415     1
  12406  12411     1
  12406  12419     1
  12406  12417     1
  12406  12425     1
  12407  12412     1
  12407  12420     1
  12407  12419     1
  12408  12418     1
  12409  12420     1
  12409  12411     1
  12410  12413     1
  12410  12425     1
  12410  12412     1
  12410  12420     1
  12410  12415     1
  12410  12411     1
  12411  12414     1
  12411  12418     1
  12411  12416     1
  12412  12414     1
  12421  12424     1
  12421  12425     1
  12422  12424     1
  12422  12425     1
  12426  12434     1
  12426  12442     1
  12426  12447     1
  12426  12435     1
  12427  12444     1
  12427  12445     1
  12427  12433     1
  12427  12441     1
  12428  12430     1
  12428  12439     1
  12428  12429     1
  12428  12446     1
  12428  12444     1
  12428  12445     1
  12428  12432     1
  12429  12440     1
  12429  12448     1
  12429  12431     1
  12429  12438     1
  12429  12434     1
  12429  12442     1
  12430  12442     1
  12430  12435     1
  12430  12443     1
  12431  12441     1
  12432  12434     1
  12432  12443     1
  12433  12438     1
  12433  12434     1
  12433  12436     1
  12433  12448     1
  12433  12435     1
  12433  12443     1
  12434  12439     1
  12434  12437     1
  12434  12441     1
  12435  12437     1
  12444  12448     1
  12444  12447     1
  12445  12448     1
  12445  12447     1
  12449  12457     1
  12449  12465     1
  12449  12470     1
  12449  12458     1
  12450  12456     1
  12450  12464     1
  12450  12467     1
  12450  12468     1
  12451  12453     1
  12451  12462     1
  12451  12452     1
  12451  12469     1
  12451  12467     1
  12451  12468     1
  12451  12455     1
  12452  12454     1
  12452  12461     1
  12452  12457     1
  12452  12465     1
  12452  12463     1
  12452  12471     1
  12453  12458     1
  12453  12466     1
  12453  12465     1
  12454  12464     1
  12455  12466     1
  12455  12457     1
  12456  12459     1
  12456  12471     1
  12456  12458     1
  12456  12466     1
  12456  12461     1
  12456  12457     1
  12457  12460     1
  12457  12464     1
  12457  12462     1
  12458  12460     1
  12467  12470     1
  12467  12471     1
  12468  12470     1
  12468  12471     1
  12472  12480     1
  12472  12488     1
  12472  12493     1
  12472  12481     1
  12473  12490     1
  12473  12491     1
  12473  12479     1
  12473  12487     1
  12474  12476     1
  12474  12485     1
  12474  12475     1
  12474  12492     1
  12474  12490     1
  12474  12491     1
  12474  12478     1
  12475  12486     1
  12475  12494     1
  12475  12477     1
  12475  12484     1
  12475  12480     1
  12475  12488     1
  12476  12488     1
  12476  12481     1
  12476  12489     1
  12477  12487     1
  12478  12480     1
  12478  12489     1
  12479  12484     1
  12479  12480     1
  12479  12482     1
  12479  12494     1
  12479  12481     1
  12479  12489     1
  12480  12485     1
  12480  12483     1
  12480  12487     1
  12481  12483     1
  12490  12494     1
  12490  12493     1
  12491  12494     1
  12491  12493     1
  12495  12503     1
  12495  12511     1
  12495  12516     1
  12495  12504     1
  12496  12502     1
  12496  12510     1
  12496  12513     1
  12496  12514     1
  12497  12499     1
  12497  12508     1
  12497  12498     1
  12497  12515     1
  12497  12513     1
  12497  12514     1
  12497  12501     1
  12498  12500     1
  12498  12507     1
  12498  12503     1
  12498  12511     1
  12498  12509     1
  12498  12517     1
  12499  12504     1
  12499  12512     1
  12499  12511     1
  12500  12510     1
  12501  12512     1
  12501  12503     1
  12502  12505     1
  12502  12517     1
  12502  12504     1
  12502  12512     1
  12502  12507     1
  12502  12503     1
  12503  12506     1
  12503  12510     1
  12503  12508     1
  12504  12506     1
  12513  12516     1
  12513  12517     1
  12514  12516     1
  12514  12517     1
  12518  12526     1
  12518  12534     1
  12518  12539     1
  12518  12527     1
  12519  12536     1
  12519  12537     1
  12519  12525     1
  12519  12533     1
  12520  12522     1
  12520  12531     1
  12520  12521     1
  12520  12538     1
  12520  12536     1
  12520  12537     1
  12520  12524     1
  12521  12532     1
  12521  12540     1
  12521  12523     1
  12521  12530     1
  12521  12526     1
  12521  12534     1
  12522  12534     1
  12522  12527     1
  12522  12535     1
  12523  12533     1
  12524  12526     1
  12524  12535     1
  12525  12530     1
  12525  12526     1
  12525  12528     1
  12525  12540     1
  12525  12527     1
  12525  12535     1
  12526  12531     1
  12526  12529     1
  12526  12533     1
  12527  12529     1
  12536  12540     1
  12536  12539     1
  12537  12540     1
  12537  12539     1
  12541  12549     1
  12541  12557     1
  12541  12562     1
  12541  12550     1
  12542  12548     1
  12542  12556     1
  12542  12559     1
  12542  12560     1
  12543  12545     1
  12543  12554     1
  12543  12544     1
  12543  12561     1
  12543  12559     1
  12543  12560     1
  12543  12547     1
  12544  12546     1
  12544  12553     1
  12544  12549     1
  12544  12557     1
  12544  12555     1
  12544  12563     1
  12545  12550     1
  12545  12558     1
  12545  12557     1
  12546  12556     1
  12547  12558     1
  12547  12549     1
  12548  12551     1
  12548  12563     1
  12548  12550     1
  12548  12558     1
  12548  12553     1
  12548  12549     1
  12549  12552     1
  12549  12556     1
  12549  12554     1
  12550  12552     1
  12559  12562     1
  12559  12563     1
  12560  12562     1
  12560  12563     1
  12564  12572     1
  12564  12580     1
  12564  12585     1
  12564  12573     1
  12565  12582     1
  12565  12583     1
  12565  12571     1
  12565  12579     1
  12566  12568     1
  12566  12577     1
  12566  12567     1
  12566  12584     1
  12566  12582     1
  12566  12583     1
  12566  12570     1
  12567  12578     1
  12567  12586     1
  12567  12569     1
  12567  12576     1
  12567  12572     1
  12567  12580     1
  12568  12580     1
  12568  12573     1
  12568  12581     1
  12569  12579     1
  12570  12572     1
  12570  12581     1
  12571  12576     1
  12571  12572     1
  12571  12574     1
  12571  12586     1
  12571  12573     1
  12571  12581     1
  12572  12577     1
  12572  12575     1
  12572  12579     1
  12573  12575     1
  12582  12586     1
  12582  12585     1
  12583  12586     1
  12583  12585     1
  12587  12595     1
  12587  12603     1
  12587  12608     1
  12587  12596     1
  12588  12594     1
  12588  12602     1
  12588  12605     1
  12588  12606     1
  12589  12591     1
  12589  12600     1
  12589  12590     1
  12589  12607     1
  12589  12605     1
  12589  12606     1
  12589  12593     1
  12590  12592     1
  12590  12599     1
  12590  12595     1
  12590  12603     1
  12590  12601     1
  12590  12609     1
  12591  12596     1
  12591  12604     1
  12591  12603     1
  12592  12602     1
  12593  12604     1
  12593  12595     1
  12594  12597     1
  12594  12609     1
  12594  12596     1
  12594  12604     1
  12594  12599     1
  12594  12595     1
  12595  12598     1
  12595  12602     1
  12595  12600     1
  12596  12598     1
  12605  12608     1
  12605  12609     1
  12606  12608     1
  12606  12609     1
  12610  12618     1
  12610  12626     1
  12610  12631     1
  12610  12619     1
  12611  12628     1
  12611  12629     1
  12611  12617     1
  12611  12625     1
  12612  12614     1
  12612  12623     1
  12612  12613     1
  12612  12630     1
  12612  12628     1
  12612  12629     1
  12612  12616     1
  12613  12624     1
  12613  12632     1
  12613  12615     1
  12613  12622     1
  12613  12618     1
  12613  12626     1
  12614  12626     1
  12614  12619     1
  12614  12627     1
  12615  12625     1
  12616  12618     1
  12616  12627     1
  12617  12622     1
  12617  12618     1
  12617  12620     1
  12617  12632     1
  12617  12619     1
  12617  12627     1
  12618  12623     1
  12618  12621     1
  12618  12625     1
  12619  12621     1
  12628  12632     1
  12628  12631     1
  12629  12632     1
  12629  12631     1
  12633  12641     1
  12633  12649     1
  12633  12654     1
  12633  12642     1
  12634  12640     1
  12634  12648     1
  12634  12651     1
  12634  12652     1
  12635  12637     1
  12635  12646     1
  12635  12636     1
  12635  12653     1
  12635  12651     1
  12635  12652     1
  12635  12639     1
  12636  12638     1
  12636  12645     1
  12636  12641     1
  12636  12649     1
  12636  12647     1
  12636  12655     1
  12637  12642     1
  12637  12650     1
  12637  12649     1
  12638  12648     1
  12639  12650     1
  12639  12641     1
  12640  12643     1
  12640  12655     1
  12640  12642     1
  12640  12650     1
  12640  12645     1
  12640  12641     1
  12641  12644     1
  12641  12648     1
  12641  12646     1
  12642  12644     1
  12651  12654     1
  12651  12655     1
  12652  12654     1
  12652  12655     1
  12656  12664     1
  12656  12672     1
  12656  12677     1
  12656  12665     1
  12657  12674     1
  12657  12675     1
  12657  12663     1
  12657  12671     1
  12658  12660     1
  12658  12669     1
  12658  12659     1
  12658  12676     1
  12658  12674     1
  12658  12675     1
  12658  12662     1
  12659  12670     1
  12659  12678     1
  12659  12661     1
  12659  12668     1
  12659  12664     1
  12659  12672     1
  12660  12672     1
  12660  12665     1
  12660  12673     1
  12661  12671     1
  12662  12664     1
  12662  12673     1
  12663  12668     1
  12663  12664     1
  12663  12666     1
  12663  12678     1
  12663  12665     1
  12663  12673     1
  12664  12669     1
  12664  12667     1
  12664  12671     1
  12665  12667     1
  12674  12678     1
  12674  12677     1
  12675  12678     1
  12675  12677     1
  12679  12687     1
  12679  12695     1
  12679  12700     1
  12679  12688     1
  12680  12686     1
  12680  12694     1
  12680  12697     1
  12680  12698     1
  12681  12683     1
  12681  12692     1
  12681  12682     1
  12681  12699     1
  12681  12697     1
  12681  12698     1
  12681  12685     1
  12682  12684     1
  12682  12691     1
  12682  12687     1
  12682  12695     1
  12682  12693     1
  12682  12701     1
  12683  12688     1
  12683  12696     1
  12683  12695     1
  12684  12694     1
  12685  12696     1
  12685  12687     1
  12686  12689     1
  12686  12701     1
  12686  12688     1
  12686  12696     1
  12686  12691     1
  12686  12687     1
  12687  12690     1
  12687  12694     1
  12687  12692     1
  12688  12690     1
  12697  12700     1
  12697  12701     1
  12698  12700     1
  12698  12701     1
  12702  12710     1
  12702  12718     1
  12702  12723     1
  12702  12711     1
  12703  12720     1
  12703  12721     1
  12703  12709     1
  12703  12717     1
  12704  12706     1
  12704  12715     1
  12704  12705     1
  12704  12722     1
  12704  12720     1
  12704  12721     1
  12704  12708     1
  12705  12716     1
  12705  12724     1
  12705  12707     1
  12705  12714     1
  12705  12710     1
  12705  12718     1
  12706  12718     1
  12706  12711     1
  12706  12719     1
  12707  12717     1
  12708  12710     1
  12708  12719     1
  12709  12714     1
  12709  12710     1
  12709  12712     1
  12709  12724     1
  12709  12711     1
  12709  12719     1
  12710  12715     1
  12710  12713     1
  12710  12717     1
  12711  12713     1
  12720  12724     1
  12720  12723     1
  12721  12724     1
  12721  12723     1
  12725  12733     1
  12725  12741     1
  12725  12746     1
  12725  12734     1
  12726  12732     1
  12726  12740     1
  12726  12743     1
  12726  12744     1
  12727  12729     1
  12727  12738     1
  12727  12728     1
  12727  12745     1
  12727  12743     1
  12727  12744     1
  12727  12731     1
  12728  12730     1
  12728  12737     1
  12728  12733     1
  12728  12741     1
  12728  12739     1
  12728  12747     1
  12729  12734     1
  12729  12742     1
  12729  12741     1
  12730  12740     1
  12731  12742     1
  12731  12733     1
  12732  12735     1
  12732  12747     1
  12732  12734     1
  12732  12742     1
  12732  12737     1
  12732  12733     1
  12733  12736     1
  12733  12740     1
  12733  12738     1
  12734  12736     1
  12743  12746     1
  12743  12747     1
  12744  12746     1
  12744  12747     1
  12748  12756     1
  12748  12764     1
  12748  12769     1
  12748  12757     1
  12749  12766     1
  12749  12767     1
  12749  12755     1
  12749  12763     1
  12750  12752     1
  12750  12761     1
  12750  12751     1
  12750  12768     1
  12750  12766     1
  12750  12767     1
  12750  12754     1
  12751  12762     1
  12751  12770     1
  12751  12753     1
  12751  12760     1
  12751  12756     1
  12751  12764     1
  12752  12764     1
  12752  12757     1
  12752  12765     1
  12753  12763     1
  12754  12756     1
  12754  12765     1
  12755  12760     1
  12755  12756     1
  12755  12758     1
  12755  12770     1
  12755  12757     1
  12755  12765     1
  12756  12761     1
  12756  12759     1
  12756  12763     1
  12757  12759     1
  12766  12770     1
  12766  12769     1
  12767  12770     1
  12767  12769     1
  12771  12779     1
  12771  12787     1
  12771  12792     1
  12771  12780     1
  12772  12778     1
  12772  12786     1
  12772  12789     1
  12772  12790     1
  12773  12775     1
  12773  12784     1
  12773  12774     1
  12773  12791     1
  12773  12789     1
  12773  12790     1
  12773  12777     1
  12774  12776     1
  12774  12783     1
  12774  12779     1
  12774  12787     1
  12774  12785     1
  12774  12793     1
  12775  12780     1
  12775  12788     1
  12775  12787     1
  12776  12786     1
  12777  12788     1
  12777  12779     1
  12778  12781     1
  12778  12793     1
  12778  12780     1
  12778  12788     1
  12778  12783     1
  12778  12779     1
  12779  12782     1
  12779  12786     1
  12779  12784     1
  12780  12782     1
  12789  12792     1
  12789  12793     1
  12790  12792     1
  12790  12793     1
  12794  12802     1
  12794  12810     1
  12794  12815     1
  12794  12803     1
  12795  12812     1
  12795  12813     1
  12795  12801     1
  12795  12809     1
  12796  12798     1
  12796  12807     1
  12796  12797     1
  12796  12814     1
  12796  12812     1
  12796  12813     1
  12796  12800     1
  12797  12808     1
  12797  12816     1
  12797  12799     1
  12797  12806     1
  12797  12802     1
  12797  12810     1
  12798  12810     1
  12798  12803     1
  12798  12811     1
  12799  12809     1
  12800  12802     1
  12800  12811     1
  12801  12806     1
  12801  12802     1
  12801  12804     1
  12801  12816     1
  12801  12803     1
  12801  12811     1
  12802  12807     1
  12802  12805     1
  12802  12809     1
  12803  12805     1
  12812  12816     1
  12812  12815     1
  12813  12816     1
  12813  12815     1
  12817  12825     1
  12817  12833     1
  12817  12838     1
  12817  12826     1
  12818  12824     1
  12818  12832     1
  12818  12835     1
  12818  12836     1
  12819  12821     1
  12819  12830     1
  12819  12820     1
  12819  12837     1
  12819  12835     1
  12819  12836     1
  12819  12823     1
  12820  12822     1
  12820  12829     1
  12820  12825     1
  12820  12833     1
  12820  12831     1
  12820  12839     1
  12821  12826     1
  12821  12834     1
  12821  12833     1
  12822  12832     1
  12823  12834     1
  12823  12825     1
  12824  12827     1
  12824  12839     1
  12824  12826     1
  12824  12834     1
  12824  12829     1
  12824  12825     1
  12825  12828     1
  12825  12832     1
  12825  12830     1
  12826  12828     1
  12835  12838     1
  12835  12839     1
  12836  12838     1
  12836  12839     1
  12840  12848     1
  12840  12856     1
  12840  12861     1
  12840  12849     1
  12841  12858     1
  12841  12859     1
  12841  12847     1
  12841  12855     1
  12842  12844     1
  12842  12853     1
  12842  12843     1
  12842  12860     1
  12842  12858     1
  12842  12859     1
  12842  12846     1
  12843  12854     1
  12843  12862     1
  12843  12845     1
  12843  12852     1
  12843  12848     1
  12843  12856     1
  12844  12856     1
  12844  12849     1
  12844  12857     1
  12845  12855     1
  12846  12848     1
  12846  12857     1
  12847  12852     1
  12847  12848     1
  12847  12850     1
  12847  12862     1
  12847  12849     1
  12847  12857     1
  12848  12853     1
  12848  12851     1
  12848  12855     1
  12849  12851     1
  12858  12862     1
  12858  12861     1
  12859  12862     1
  12859  12861     1
  12863  12871     1
  12863  12879     1
  12863  12884     1
  12863  12872     1
  12864  12870     1
  12864  12878     1
  12864  12881     1
  12864  12882     1
  12865  12867     1
  12865  12876     1
  12865  12866     1
  12865  12883     1
  12865  12881     1
  12865  12882     1
  12865  12869     1
  12866  12868     1
  12866  12875     1
  12866  12871     1
  12866  12879     1
  12866  12877     1
  12866  12885     1
  12867  12872     1
  12867  12880     1
  12867  12879     1
  12868  12878     1
  12869  12880     1
  12869  12871     1
  12870  12873     1
  12870  12885     1
  12870  12872     1
  12870  12880     1
  12870  12875     1
  12870  12871     1
  12871  12874     1
  12871  12878     1
  12871  12876     1
  12872  12874     1
  12881  12884     1
  12881  12885     1
  12882  12884     1
  12882  12885     1
  12886  12894     1
  12886  12902     1
  12886  12907     1
  12886  12895     1
  12887  12904     1
  12887  12905     1
  12887  12893     1
  12887  12901     1
  12888  12890     1
  12888  12899     1
  12888  12889     1
  12888  12906     1
  12888  12904     1
  12888  12905     1
  12888  12892     1
  12889  12900     1
  12889  12908     1
  12889  12891     1
  12889  12898     1
  12889  12894     1
  12889  12902     1
  12890  12902     1
  12890  12895     1
  12890  12903     1
  12891  12901     1
  12892  12894     1
  12892  12903     1
  12893  12898     1
  12893  12894     1
  12893  12896     1
  12893  12908     1
  12893  12895     1
  12893  12903     1
  12894  12899     1
  12894  12897     1
  12894  12901     1
  12895  12897     1
  12904  12908     1
  12904  12907     1
  12905  12908     1
  12905  12907     1
  12909  12917     1
  12909  12925     1
  12909  12930     1
  12909  12918     1
  12910  12916     1
  12910  12924     1
  12910  12927     1
  12910  12928     1
  12911  12913     1
  12911  12922     1
  12911  12912     1
  12911  12929     1
  12911  12927     1
  12911  12928     1
  12911  12915     1
  12912  12914     1
  12912  12921     1
  12912  12917     1
  12912  12925     1
  12912  12923     1
  12912  12931     1
  12913  12918     1
  12913  12926     1
  12913  12925     1
  12914  12924     1
  12915  12926     1
  12915  12917     1
  12916  12919     1
  12916  12931     1
  12916  12918     1
  12916  12926     1
  12916  12921     1
  12916  12917     1
  12917  12920     1
  12917  12924     1
  12917  12922     1
  12918  12920     1
  12927  12930     1
  12927  12931     1
  12928  12930     1
  12928  12931     1
  12932  12940     1
  12932  12948     1
  12932  12953     1
  12932  12941     1
  12933  12950     1
  12933  12951     1
  12933  12939     1
  12933  12947     1
  12934  12936     1
  12934  12945     1
  12934  12935     1
  12934  12952     1
  12934  12950     1
  12934  12951     1
  12934  12938     1
  12935  12946     1
  12935  12954     1
  12935  12937     1
  12935  12944     1
  12935  12940     1
  12935  12948     1
  12936  12948     1
  12936  12941     1
  12936  12949     1
  12937  12947     1
  12938  12940     1
  12938  12949     1
  12939  12944     1
  12939  12940     1
  12939  12942     1
  12939  12954     1
  12939  12941     1
  12939  12949     1
  12940  12945     1
  12940  12943     1
  12940  12947     1
  12941  12943     1
  12950  12954     1
  12950  12953     1
  12951  12954     1
  12951  12953     1
  12955  12963     1
  12955  12971     1
  12955  12976     1
  12955  12964     1
  12956  12962     1
  12956  12970     1
  12956  12973     1
  12956  12974     1
  12957  12959     1
  12957  12968     1
  12957  12958     1
  12957  12975     1
  12957  12973     1
  12957  12974     1
  12957  12961     1
  12958  12960     1
  12958  12967     1
  12958  12963     1
  12958  12971     1
  12958  12969     1
  12958  12977     1
  12959  12964     1
  12959  12972     1
  12959  12971     1
  12960  12970     1
  12961  12972     1
  12961  12963     1
  12962  12965     1
  12962  12977     1
  12962  12964     1
  12962  12972     1
  12962  12967     1
  12962  12963     1
  12963  12966     1
  12963  12970     1
  12963  12968     1
  12964  12966     1
  12973  12976     1
  12973  12977     1
  12974  12976     1
  12974  12977     1
  12978  12986     1
  12978  12994     1
  12978  12999     1
  12978  12987     1
  12979  12996     1
  12979  12997     1
  12979  12985     1
  12979  12993     1
  12980  12982     1
  12980  12991     1
  12980  12981     1
  12980  12998     1
  12980  12996     1
  12980  12997     1
  12980  12984     1
  12981  12992     1
  12981  13000     1
  12981  12983     1
  12981  12990     1
  12981  12986     1
  12981  12994     1
  12982  12994     1
  12982  12987     1
  12982  12995     1
  12983  12993     1
  12984  12986     1
  12984  12995     1
  12985  12990     1
  12985  12986     1
  12985  12988     1
  12985  13000     1
  12985  12987     1
  12985  12995     1
  12986  12991     1
  12986  12989     1
  12986  12993     1
  12987  12989     1
  12996  13000     1
  12996  12999     1
  12997  13000     1
  12997  12999     1
  13001  13009     1
  13001  13017     1
  13001  13022     1
  13001  13010     1
  13002  13008     1
  13002  13016     1
  13002  13019     1
  13002  13020     1
  13003  13005     1
  13003  13014     1
  13003  13004     1
  13003  13021     1
  13003  13019     1
  13003  13020     1
  13003  13007     1
  13004  13006     1
  13004  13013     1
  13004  13009     1
  13004  13017     1
  13004  13015     1
  13004  13023     1
  13005  13010     1
  13005  13018     1
  13005  13017     1
  13006  13016     1
  13007  13018     1
  13007  13009     1
  13008  13011     1
  13008  13023     1
  13008  13010     1
  13008  13018     1
  13008  13013     1
  13008  13009     1
  13009  13012     1
  13009  13016     1
  13009  13014     1
  13010  13012     1
  13019  13022     1
  13019  13023     1
  13020  13022     1
  13020  13023     1
  13024  13032     1
  13024  13040     1
  13024  13045     1
  13024  13033     1
  13025  13042     1
  13025  13043     1
  13025  13031     1
  13025  13039     1
  13026  13028     1
  13026  13037     1
  13026  13027     1
  13026  13044     1
  13026  13042     1
  13026  13043     1
  13026  13030     1
  13027  13038     1
  13027  13046     1
  13027  13029     1
  13027  13036     1
  13027  13032     1
  13027  13040     1
  13028  13040     1
  13028  13033     1
  13028  13041     1
  13029  13039     1
  13030  13032     1
  13030  13041     1
  13031  13036     1
  13031  13032     1
  13031  13034     1
  13031  13046     1
  13031  13033     1
  13031  13041     1
  13032  13037     1
  13032  13035     1
  13032  13039     1
  13033  13035     1
  13042  13046     1
  13042  13045     1
  13043  13046     1
  13043  13045     1
  13047  13055     1
  13047  13063     1
  13047  13068     1
  13047  13056     1
  13048  13054     1
  13048  13062     1
  13048  13065     1
  13048  13066     1
  13049  13051     1
  13049  13060     1
  13049  13050     1
  13049  13067     1
  13049  13065     1
  13049  13066     1
  13049  13053     1
  13050  13052     1
  13050  13059     1
  13050  13055     1
  13050  13063     1
  13050  13061     1
  13050  13069     1
  13051  13056     1
  13051  13064     1
  13051  13063     1
  13052  13062     1
  13053  13064     1
  13053  13055     1
  13054  13057     1
  13054  13069     1
  13054  13056     1
  13054  13064     1
  13054  13059     1
  13054  13055     1
  13055  13058     1
  13055  13062     1
  13055  13060     1
  13056  13058     1
  13065  13068     1
  13065  13069     1
  13066  13068     1
  13066  13069     1
  13070  13078     1
  13070  13086     1
  13070  13091     1
  13070  13079     1
  13071  13088     1
  13071  13089     1
  13071  13077     1
  13071  13085     1
  13072  13074     1
  13072  13083     1
  13072  13073     1
  13072  13090     1
  13072  13088     1
  13072  13089     1
  13072  13076     1
  13073  13084     1
  13073  13092     1
  13073  13075     1
  13073  13082     1
  13073  13078     1
  13073  13086     1
  13074  13086     1
  13074  13079     1
  13074  13087     1
  13075  13085     1
  13076  13078     1
  13076  13087     1
  13077  13082     1
  13077  13078     1
  13077  13080     1
  13077  13092     1
  13077  13079     1
  13077  13087     1
  13078  13083     1
  13078  13081     1
  13078  13085     1
  13079  13081     1
  13088  13092     1
  13088  13091     1
  13089  13092     1
  13089  13091     1
  13093  13101     1
  13093  13109     1
  13093  13114     1
  13093  13102     1
  13094  13100     1
  13094  13108     1
  13094  13111     1
  13094  13112     1
  13095  13097     1
  13095  13106     1
  13095  13096     1
  13095  13113     1
  13095  13111     1
  13095  13112     1
  13095  13099     1
  13096  13098     1
  13096  13105     1
  13096  13101     1
  13096  13109     1
  13096  13107     1
  13096  13115     1
  13097  13102     1
  13097  13110     1
  13097  13109     1
  13098  13108     1
  13099  13110     1
  13099  13101     1
  13100  13103     1
  13100  13115     1
  13100  13102     1
  13100  13110     1
  13100  13105     1
  13100  13101     1
  13101  13104     1
  13101  13108     1
  13101  13106     1
  13102  13104     1
  13111  13114     1
  13111  13115     1
  13112  13114     1
  13112  13115     1
  13116  13124     1
  13116  13132     1
  13116  13137     1
  13116  13125     1
  13117  13134     1
  13117  13135     1
  13117  13123     1
  13117  13131     1
  13118  13120     1
  13118  13129     1
  13118  13119     1
  13118  13136     1
  13118  13134     1
  13118  13135     1
  13118  13122     1
  13119  13130     1
  13119  13138     1
  13119  13121     1
  13119  13128     1
  13119  13124     1
  13119  13132     1
  13120  13132     1
  13120  13125     1
  13120  13133     1
  13121  13131     1
  13122  13124     1
  13122  13133     1
  13123  13128     1
  13123  13124     1
  13123  13126     1
  13123  13138     1
  13123  13125     1
  13123  13133     1
  13124  13129     1
  13124  13127     1
  13124  13131     1
  13125  13127     1
  13134  13138     1
  13134  13137     1
  13135  13138     1
  13135  13137     1
  13139  13147     1
  13139  13155     1
  13139  13160     1
  13139  13148     1
  13140  13146     1
  13140  13154     1
  13140  13157     1
  13140  13158     1
  13141  13143     1
  13141  13152     1
  13141  13142     1
  13141  13159     1
  13141  13157     1
  13141  13158     1
  13141  13145     1
  13142  13144     1
  13142  13151     1
  13142  13147     1
  13142  13155     1
  13142  13153     1
  13142  13161     1
  13143  13148     1
  13143  13156     1
  13143  13155     1
  13144  13154     1
  13145  13156     1
  13145  13147     1
  13146  13149     1
  13146  13161     1
  13146  13148     1
  13146  13156     1
  13146  13151     1
  13146  13147     1
  13147  13150     1
  13147  13154     1
  13147  13152     1
  13148  13150     1
  13157  13160     1
  13157  13161     1
  13158  13160     1
  13158  13161     1
  13162  13170     1
  13162  13178     1
  13162  13183     1
  13162  13171     1
  13163  13180     1
  13163  13181     1
  13163  13169     1
  13163  13177     1
  13164  13166     1
  13164  13175     1
  13164  13165     1
  13164  13182     1
  13164  13180     1
  13164  13181     1
  13164  13168     1
  13165  13176     1
  13165  13184     1
  13165  13167     1
  13165  13174     1
  13165  13170     1
  13165  13178     1
  13166  13178     1
  13166  13171     1
  13166  13179     1
  13167  13177     1
  13168  13170     1
  13168  13179     1
  13169  13174     1
  13169  13170     1
  13169  13172     1
  13169  13184     1
  13169  13171     1
  13169  13179     1
  13170  13175     1
  13170  13173     1
  13170  13177     1
  13171  13173     1
  13180  13184     1
  13180  13183     1
  13181  13184     1
  13181  13183     1
  13185  13193     1
  13185  13201     1
  13185  13206     1
  13185  13194     1
  13186  13192     1
  13186  13200     1
  13186  13203     1
  13186  13204     1
  13187  13189     1
  13187  13198     1
  13187  13188     1
  13187  13205     1
  13187  13203     1
  13187  13204     1
  13187  13191     1
  13188  13190     1
  13188  13197     1
  13188  13193     1
  13188  13201     1
  13188  13199     1
  13188  13207     1
  13189  13194     1
  13189  13202     1
  13189  13201     1
  13190  13200     1
  13191  13202     1
  13191  13193     1
  13192  13195     1
  13192  13207     1
  13192  13194     1
  13192  13202     1
  13192  13197     1
  13192  13193     1
  13193  13196     1
  13193  13200     1
  13193  13198     1
  13194  13196     1
  13203  13206     1
  13203  13207     1
  13204  13206     1
  13204  13207     1
  13208  13216     1
  13208  13224     1
  13208  13229     1
  13208  13217     1
  13209  13226     1
  13209  13227     1
  13209  13215     1
  13209  13223     1
  13210  13212     1
  13210  13221     1
  13210  13211     1
  13210  13228     1
  13210  13226     1
  13210  13227     1
  13210  13214     1
  13211  13222     1
  13211  13230     1
  13211  13213     1
  13211  13220     1
  13211  13216     1
  13211  13224     1
  13212  13224     1
  13212  13217     1
  13212  13225     1
  13213  13223     1
  13214  13216     1
  13214  13225     1
  13215  13220     1
  13215  13216     1
  13215  13218     1
  13215  13230     1
  13215  13217     1
  13215  13225     1
  13216  13221     1
  13216  13219     1
  13216  13223     1
  13217  13219     1
  13226  13230     1
  13226  13229     1
  13227  13230     1
  13227  13229     1
  13231  13239     1
  13231  13247     1
  13231  13252     1
  13231  13240     1
  13232  13238     1
  13232  13246     1
  13232  13249     1
  13232  13250     1
  13233  13235     1
  13233  13244     1
  13233  13234     1
  13233  13251     1
  13233  13249     1
  13233  13250     1
  13233  13237     1
  13234  13236     1
  13234  13243     1
  13234  13239     1
  13234  13247     1
  13234  13245     1
  13234  13253     1
  13235  13240     1
  13235  13248     1
  13235  13247     1
  13236  13246     1
  13237  13248     1
  13237  13239     1
  13238  13241     1
  13238  13253     1
  13238  13240     1
  13238  13248     1
  13238  13243     1
  13238  13239     1
  13239  13242     1
  13239  13246     1
  13239  13244     1
  13240  13242     1
  13249  13252     1
  13249  13253     1
  13250  13252     1
  13250  13253     1
  13254  13262     1
  13254  13270     1
  13254  13275     1
  13254  13263     1
  13255  13272     1
  13255  13273     1
  13255  13261     1
  13255  13269     1
  13256  13258     1
  13256  13267     1
  13256  13257     1
  13256  13274     1
  13256  13272     1
  13256  13273     1
  13256  13260     1
  13257  13268     1
  13257  13276     1
  13257  13259     1
  13257  13266     1
  13257  13262     1
  13257  13270     1
  13258  13270     1
  13258  13263     1
  13258  13271     1
  13259  13269     1
  13260  13262     1
  13260  13271     1
  13261  13266     1
  13261  13262     1
  13261  13264     1
  13261  13276     1
  13261  13263     1
  13261  13271     1
  13262  13267     1
  13262  13265     1
  13262  13269     1
  13263  13265     1
  13272  13276     1
  13272  13275     1
  13273  13276     1
  13273  13275     1
  13277  13285     1
  13277  13293     1
  13277  13298     1
  13277  13286     1
  13278  13284     1
  13278  13292     1
  13278  13295     1
  13278  13296     1
  13279  13281     1
  13279  13290     1
  13279  13280     1
  13279  13297     1
  13279  13295     1
  13279  13296     1
  13279  13283     1
  13280  13282     1
  13280  13289     1
  13280  13285     1
  13280  13293     1
  13280  13291     1
  13280  13299     1
  13281  13286     1
  13281  13294     1
  13281  13293     1
  13282  13292     1
  13283  13294     1
  13283  13285     1
  13284  13287     1
  13284  13299     1
  13284  13286     1
  13284  13294     1
  13284  13289     1
  13284  13285     1
  13285  13288     1
  13285  13292     1
  13285  13290     1
  13286  13288     1
  13295  13298     1
  13295  13299     1
  13296  13298     1
  13296  13299     1
  13300  13308     1
  13300  13316     1
  13300  13321     1
  13300  13309     1
  13301  13318     1
  13301  13319     1
  13301  13307     1
  13301  13315     1
  13302  13304     1
  13302  13313     1
  13302  13303     1
  13302  13320     1
  13302  13318     1
  13302  13319     1
  13302  13306     1
  13303  13314     1
  13303  13322     1
  13303  13305     1
  13303  13312     1
  13303  13308     1
  13303  13316     1
  13304  13316     1
  13304  13309     1
  13304  13317     1
  13305  13315     1
  13306  13308     1
  13306  13317     1
  13307  13312     1
  13307  13308     1
  13307  13310     1
  13307  13322     1
  13307  13309     1
  13307  13317     1
  13308  13313     1
  13308  13311     1
  13308  13315     1
  13309  13311     1
  13318  13322     1
  13318  13321     1
  13319  13322     1
  13319  13321     1
  13323  13331     1
  13323  13339     1
  13323  13344     1
  13323  13332     1
  13324  13330     1
  13324  13338     1
  13324  13341     1
  13324  13342     1
  13325  13327     1
  13325  13336     1
  13325  13326     1
  13325  13343     1
  13325  13341     1
  13325  13342     1
  13325  13329     1
  13326  13328     1
  13326  13335     1
  13326  13331     1
  13326  13339     1
  13326  13337     1
  13326  13345     1
  13327  13332     1
  13327  13340     1
  13327  13339     1
  13328  13338     1
  13329  13340     1
  13329  13331     1
  13330  13333     1
  13330  13345     1
  13330  13332     1
  13330  13340     1
  13330  13335     1
  13330  13331     1
  13331  13334     1
  13331  13338     1
  13331  13336     1
  13332  13334     1
  13341  13344     1
  13341  13345     1
  13342  13344     1
  13342  13345     1
  13346  13354     1
  13346  13362     1
  13346  13367     1
  13346  13355     1
  13347  13364     1
  13347  13365     1
  13347  13353     1
  13347  13361     1
  13348  13350     1
  13348  13359     1
  13348  13349     1
  13348  13366     1
  13348  13364     1
  13348  13365     1
  13348  13352     1
  13349  13360     1
  13349  13368     1
  13349  13351     1
  13349  13358     1
  13349  13354     1
  13349  13362     1
  13350  13362     1
  13350  13355     1
  13350  13363     1
  13351  13361     1
  13352  13354     1
  13352  13363     1
  13353  13358     1
  13353  13354     1
  13353  13356     1
  13353  13368     1
  13353  13355     1
  13353  13363     1
  13354  13359     1
  13354  13357     1
  13354  13361     1
  13355  13357     1
  13364  13368     1
  13364  13367     1
  13365  13368     1
  13365  13367     1
  13369  13377     1
  13369  13385     1
  13369  13390     1
  13369  13378     1
  13370  13376     1
  13370  13384     1
  13370  13387     1
  13370  13388     1
  13371  13373     1
  13371  13382     1
  13371  13372     1
  13371  13389     1
  13371  13387     1
  13371  13388     1
  13371  13375     1
  13372  13374     1
  13372  13381     1
  13372  13377     1
  13372  13385     1
  13372  13383     1
  13372  13391     1
  13373  13378     1
  13373  13386     1
  13373  13385     1
  13374  13384     1
  13375  13386     1
  13375  13377     1
  13376  13379     1
  13376  13391     1
  13376  13378     1
  13376  13386     1
  13376  13381     1
  13376  13377     1
  13377  13380     1
  13377  13384     1
  13377  13382     1
  13378  13380     1
  13387  13390     1
  13387  13391     1
  13388  13390     1
  13388  13391     1
  13392  13400     1
  13392  13408     1
  13392  13413     1
  13392  13401     1
  13393  13410     1
  13393  13411     1
  13393  13399     1
  13393  13407     1
  13394  13396     1
  13394  13405     1
  13394  13395     1
  13394  13412     1
  13394  13410     1
  13394  13411     1
  13394  13398     1
  13395  13406     1
  13395  13414     1
  13395  13397     1
  13395  13404     1
  13395  13400     1
  13395  13408     1
  13396  13408     1
  13396  13401     1
  13396  13409     1
  13397  13407     1
  13398  13400     1
  13398  13409     1
  13399  13404     1
  13399  13400     1
  13399  13402     1
  13399  13414     1
  13399  13401     1
  13399  13409     1
  13400  13405     1
  13400  13403     1
  13400  13407     1
  13401  13403     1
  13410  13414     1
  13410  13413     1
  13411  13414     1
  13411  13413     1
  13415  13423     1
  13415  13431     1
  13415  13436     1
  13415  13424     1
  13416  13422     1
  13416  13430     1
  13416  13433     1
  13416  13434     1
  13417  13419     1
  13417  13428     1
  13417  13418     1
  13417  13435     1
  13417  13433     1
  13417  13434     1
  13417  13421     1
  13418  13420     1
  13418  13427     1
  13418  13423     1
  13418  13431     1
  13418  13429     1
  13418  13437     1
  13419  13424     1
  13419  13432     1
  13419  13431     1
  13420  13430     1
  13421  13432     1
  13421  13423     1
  13422  13425     1
  13422  13437     1
  13422  13424     1
  13422  13432     1
  13422  13427     1
  13422  13423     1
  13423  13426     1
  13423  13430     1
  13423  13428     1
  13424  13426     1
  13433  13436     1
  13433  13437     1
  13434  13436     1
  13434  13437     1
  13438  13446     1
  13438  13454     1
  13438  13459     1
  13438  13447     1
  13439  13456     1
  13439  13457     1
  13439  13445     1
  13439  13453     1
  13440  13442     1
  13440  13451     1
  13440  13441     1
  13440  13458     1
  13440  13456     1
  13440  13457     1
  13440  13444     1
  13441  13452     1
  13441  13460     1
  13441  13443     1
  13441  13450     1
  13441  13446     1
  13441  13454     1
  13442  13454     1
  13442  13447     1
  13442  13455     1
  13443  13453     1
  13444  13446     1
  13444  13455     1
  13445  13450     1
  13445  13446     1
  13445  13448     1
  13445  13460     1
  13445  13447     1
  13445  13455     1
  13446  13451     1
  13446  13449     1
  13446  13453     1
  13447  13449     1
  13456  13460     1
  13456  13459     1
  13457  13460     1
  13457  13459     1
  13461  13469     1
  13461  13477     1
  13461  13482     1
  13461  13470     1
  13462  13468     1
  13462  13476     1
  13462  13479     1
  13462  13480     1
  13463  13465     1
  13463  13474     1
  13463  13464     1
  13463  13481     1
  13463  13479     1
  13463  13480     1
  13463  13467     1
  13464  13466     1
  13464  13473     1
  13464  13469     1
  13464  13477     1
  13464  13475     1
  13464  13483     1
  13465  13470     1
  13465  13478     1
  13465  13477     1
  13466  13476     1
  13467  13478     1
  13467  13469     1
  13468  13471     1
  13468  13483     1
  13468  13470     1
  13468  13478     1
  13468  13473     1
  13468  13469     1
  13469  13472     1
  13469  13476     1
  13469  13474     1
  13470  13472     1
  13479  13482     1
  13479  13483     1
  13480  13482     1
  13480  13483     1
  13484  13492     1
  13484  13500     1
  13484  13505     1
  13484  13493     1
  13485  13502     1
  13485  13503     1
  13485  13491     1
  13485  13499     1
  13486  13488     1
  13486  13497     1
  13486  13487     1
  13486  13504     1
  13486  13502     1
  13486  13503     1
  13486  13490     1
  13487  13498     1
  13487  13506     1
  13487  13489     1
  13487  13496     1
  13487  13492     1
  13487  13500     1
  13488  13500     1
  13488  13493     1
  13488  13501     1
  13489  13499     1
  13490  13492     1
  13490  13501     1
  13491  13496     1
  13491  13492     1
  13491  13494     1
  13491  13506     1
  13491  13493     1
  13491  13501     1
  13492  13497     1
  13492  13495     1
  13492  13499     1
  13493  13495     1
  13502  13506     1
  13502  13505     1
  13503  13506     1
  13503  13505     1
  13507  13515     1
  13507  13523     1
  13507  13528     1
  13507  13516     1
  13508  13514     1
  13508  13522     1
  13508  13525     1
  13508  13526     1
  13509  13511     1
  13509  13520     1
  13509  13510     1
  13509  13527     1
  13509  13525     1
  13509  13526     1
  13509  13513     1
  13510  13512     1
  13510  13519     1
  13510  13515     1
  13510  13523     1
  13510  13521     1
  13510  13529     1
  13511  13516     1
  13511  13524     1
  13511  13523     1
  13512  13522     1
  13513  13524     1
  13513  13515     1
  13514  13517     1
  13514  13529     1
  13514  13516     1
  13514  13524     1
  13514  13519     1
  13514  13515     1
  13515  13518     1
  13515  13522     1
  13515  13520     1
  13516  13518     1
  13525  13528     1
  13525  13529     1
  13526  13528     1
  13526  13529     1
  13530  13538     1
  13530  13546     1
  13530  13551     1
  13530  13539     1
  13531  13548     1
  13531  13549     1
  13531  13537     1
  13531  13545     1
  13532  13534     1
  13532  13543     1
  13532  13533     1
  13532  13550     1
  13532  13548     1
  13532  13549     1
  13532  13536     1
  13533  13544     1
  13533  13552     1
  13533  13535     1
  13533  13542     1
  13533  13538     1
  13533  13546     1
  13534  13546     1
  13534  13539     1
  13534  13547     1
  13535  13545     1
  13536  13538     1
  13536  13547     1
  13537  13542     1
  13537  13538     1
  13537  13540     1
  13537  13552     1
  13537  13539     1
  13537  13547     1
  13538  13543     1
  13538  13541     1
  13538  13545     1
  13539  13541     1
  13548  13552     1
  13548  13551     1
  13549  13552     1
  13549  13551     1
  13553  13561     1
  13553  13569     1
  13553  13574     1
  13553  13562     1
  13554  13560     1
  13554  13568     1
  13554  13571     1
  13554  13572     1
  13555  13557     1
  13555  13566     1
  13555  13556     1
  13555  13573     1
  13555  13571     1
  13555  13572     1
  13555  13559     1
  13556  13558     1
  13556  13565     1
  13556  13561     1
  13556  13569     1
  13556  13567     1
  13556  13575     1
  13557  13562     1
  13557  13570     1
  13557  13569     1
  13558  13568     1
  13559  13570     1
  13559  13561     1
  13560  13563     1
  13560  13575     1
  13560  13562     1
  13560  13570     1
  13560  13565     1
  13560  13561     1
  13561  13564     1
  13561  13568     1
  13561  13566     1
  13562  13564     1
  13571  13574     1
  13571  13575     1
  13572  13574     1
  13572  13575     1
  13576  13584     1
  13576  13592     1
  13576  13597     1
  13576  13585     1
  13577  13594     1
  13577  13595     1
  13577  13583     1
  13577  13591     1
  13578  13580     1
  13578  13589     1
  13578  13579     1
  13578  13596     1
  13578  13594     1
  13578  13595     1
  13578  13582     1
  13579  13590     1
  13579  13598     1
  13579  13581     1
  13579  13588     1
  13579  13584     1
  13579  13592     1
  13580  13592     1
  13580  13585     1
  13580  13593     1
  13581  13591     1
  13582  13584     1
  13582  13593     1
  13583  13588     1
  13583  13584     1
  13583  13586     1
  13583  13598     1
  13583  13585     1
  13583  13593     1
  13584  13589     1
  13584  13587     1
  13584  13591     1
  13585  13587     1
  13594  13598     1
  13594  13597     1
  13595  13598     1
  13595  13597     1
  13599  13607     1
  13599  13615     1
  13599  13620     1
  13599  13608     1
  13600  13606     1
  13600  13614     1
  13600  13617     1
  13600  13618     1
  13601  13603     1
  13601  13612     1
  13601  13602     1
  13601  13619     1
  13601  13617     1
  13601  13618     1
  13601  13605     1
  13602  13604     1
  13602  13611     1
  13602  13607     1
  13602  13615     1
  13602  13613     1
  13602  13621     1
  13603  13608     1
  13603  13616     1
  13603  13615     1
  13604  13614     1
  13605  13616     1
  13605  13607     1
  13606  13609     1
  13606  13621     1
  13606  13608     1
  13606  13616     1
  13606  13611     1
  13606  13607     1
  13607  13610     1
  13607  13614     1
  13607  13612     1
  13608  13610     1
  13617  13620     1
  13617  13621     1
  13618  13620     1
  13618  13621     1
  13622  13630     1
  13622  13638     1
  13622  13643     1
  13622  13631     1
  13623  13640     1
  13623  13641     1
  13623  13629     1
  13623  13637     1
  13624  13626     1
  13624  13635     1
  13624  13625     1
  13624  13642     1
  13624  13640     1
  13624  13641     1
  13624  13628     1
  13625  13636     1
  13625  13644     1
  13625  13627     1
  13625  13634     1
  13625  13630     1
  13625  13638     1
  13626  13638     1
  13626  13631     1
  13626  13639     1
  13627  13637     1
  13628  13630     1
  13628  13639     1
  13629  13634     1
  13629  13630     1
  13629  13632     1
  13629  13644     1
  13629  13631     1
  13629  13639     1
  13630  13635     1
  13630  13633     1
  13630  13637     1
  13631  13633     1
  13640  13644     1
  13640  13643     1
  13641  13644     1
  13641  13643     1
  13645  13653     1
  13645  13661     1
  13645  13666     1
  13645  13654     1
  13646  13652     1
  13646  13660     1
  13646  13663     1
  13646  13664     1
  13647  13649     1
  13647  13658     1
  13647  13648     1
  13647  13665     1
  13647  13663     1
  13647  13664     1
  13647  13651     1
  13648  13650     1
  13648  13657     1
  13648  13653     1
  13648  13661     1
  13648  13659     1
  13648  13667     1
  13649  13654     1
  13649  13662     1
  13649  13661     1
  13650  13660     1
  13651  13662     1
  13651  13653     1
  13652  13655     1
  13652  13667     1
  13652  13654     1
  13652  13662     1
  13652  13657     1
  13652  13653     1
  13653  13656     1
  13653  13660     1
  13653  13658     1
  13654  13656     1
  13663  13666     1
  13663  13667     1
  13664  13666     1
  13664  13667     1
  13668  13676     1
  13668  13684     1
  13668  13689     1
  13668  13677     1
  13669  13686     1
  13669  13687     1
  13669  13675     1
  13669  13683     1
  13670  13672     1
  13670  13681     1
  13670  13671     1
  13670  13688     1
  13670  13686     1
  13670  13687     1
  13670  13674     1
  13671  13682     1
  13671  13690     1
  13671  13673     1
  13671  13680     1
  13671  13676     1
  13671  13684     1
  13672  13684     1
  13672  13677     1
  13672  13685     1
  13673  13683     1
  13674  13676     1
  13674  13685     1
  13675  13680     1
  13675  13676     1
  13675  13678     1
  13675  13690     1
  13675  13677     1
  13675  13685     1
  13676  13681     1
  13676  13679     1
  13676  13683     1
  13677  13679     1
  13686  13690     1
  13686  13689     1
  13687  13690     1
  13687  13689     1
  13691  13699     1
  13691  13707     1
  13691  13712     1
  13691  13700     1
  13692  13698     1
  13692  13706     1
  13692  13709     1
  13692  13710     1
  13693  13695     1
  13693  13704     1
  13693  13694     1
  13693  13711     1
  13693  13709     1
  13693  13710     1
  13693  13697     1
  13694  13696     1
  13694  13703     1
  13694  13699     1
  13694  13707     1
  13694  13705     1
  13694  13713     1
  13695  13700     1
  13695  13708     1
  13695  13707     1
  13696  13706     1
  13697  13708     1
  13697  13699     1
  13698  13701     1
  13698  13713     1
  13698  13700     1
  13698  13708     1
  13698  13703     1
  13698  13699     1
  13699  13702     1
  13699  13706     1
  13699  13704     1
  13700  13702     1
  13709  13712     1
  13709  13713     1
  13710  13712     1
  13710  13713     1
  13714  13722     1
  13714  13730     1
  13714  13735     1
  13714  13723     1
  13715  13732     1
  13715  13733     1
  13715  13721     1
  13715  13729     1
  13716  13718     1
  13716  13727     1
  13716  13717     1
  13716  13734     1
  13716  13732     1
  13716  13733     1
  13716  13720     1
  13717  13728     1
  13717  13736     1
  13717  13719     1
  13717  13726     1
  13717  13722     1
  13717  13730     1
  13718  13730     1
  13718  13723     1
  13718  13731     1
  13719  13729     1
  13720  13722     1
  13720  13731     1
  13721  13726     1
  13721  13722     1
  13721  13724     1
  13721  13736     1
  13721  13723     1
  13721  13731     1
  13722  13727     1
  13722  13725     1
  13722  13729     1
  13723  13725     1
  13732  13736     1
  13732  13735     1
  13733  13736     1
  13733  13735     1
  13737  13745     1
  13737  13753     1
  13737  13758     1
  13737  13746     1
  13738  13744     1
  13738  13752     1
  13738  13755     1
  13738  13756     1
  13739  13741     1
  13739  13750     1
  13739  13740     1
  13739  13757     1
  13739  13755     1
  13739  13756     1
  13739  13743     1
  13740  13742     1
  13740  13749     1
  13740  13745     1
  13740  13753     1
  13740  13751     1
  13740  13759     1
  13741  13746     1
  13741  13754     1
  13741  13753     1
  13742  13752     1
  13743  13754     1
  13743  13745     1
  13744  13747     1
  13744  13759     1
  13744  13746     1
  13744  13754     1
  13744  13749     1
  13744  13745     1
  13745  13748     1
  13745  13752     1
  13745  13750     1
  13746  13748     1
  13755  13758     1
  13755  13759     1
  13756  13758     1
  13756  13759     1
  13760  13768     1
  13760  13776     1
  13760  13781     1
  13760  13769     1
  13761  13778     1
  13761  13779     1
  13761  13767     1
  13761  13775     1
  13762  13764     1
  13762  13773     1
  13762  13763     1
  13762  13780     1
  13762  13778     1
  13762  13779     1
  13762  13766     1
  13763  13774     1
  13763  13782     1
  13763  13765     1
  13763  13772     1
  13763  13768     1
  13763  13776     1
  13764  13776     1
  13764  13769     1
  13764  13777     1
  13765  13775     1
  13766  13768     1
  13766  13777     1
  13767  13772     1
  13767  13768     1
  13767  13770     1
  13767  13782     1
  13767  13769     1
  13767  13777     1
  13768  13773     1
  13768  13771     1
  13768  13775     1
  13769  13771     1
  13778  13782     1
  13778  13781     1
  13779  13782     1
  13779  13781     1
  13783  13791     1
  13783  13799     1
  13783  13804     1
  13783  13792     1
  13784  13790     1
  13784  13798     1
  13784  13801     1
  13784  13802     1
  13785  13787     1
  13785  13796     1
  13785  13786     1
  13785  13803     1
  13785  13801     1
  13785  13802     1
  13785  13789     1
  13786  13788     1
  13786  13795     1
  13786  13791     1
  13786  13799     1
  13786  13797     1
  13786  13805     1
  13787  13792     1
  13787  13800     1
  13787  13799     1
  13788  13798     1
  13789  13800     1
  13789  13791     1
  13790  13793     1
  13790  13805     1
  13790  13792     1
  13790  13800     1
  13790  13795     1
  13790  13791     1
  13791  13794     1
  13791  13798     1
  13791  13796     1
  13792  13794     1
  13801  13804     1
  13801  13805     1
  13802  13804     1
  13802  13805     1
  13806  13814     1
  13806  13822     1
  13806  13827     1
  13806  13815     1
  13807  13824     1
  13807  13825     1
  13807  13813     1
  13807  13821     1
  13808  13810     1
  13808  13819     1
  13808  13809     1
  13808  13826     1
  13808  13824     1
  13808  13825     1
  13808  13812     1
  13809  13820     1
  13809  13828     1
  13809  13811     1
  13809  13818     1
  13809  13814     1
  13809  13822     1
  13810  13822     1
  13810  13815     1
  13810  13823     1
  13811  13821     1
  13812  13814     1
  13812  13823     1
  13813  13818     1
  13813  13814     1
  13813  13816     1
  13813  13828     1
  13813  13815     1
  13813  13823     1
  13814  13819     1
  13814  13817     1
  13814  13821     1
  13815  13817     1
  13824  13828     1
  13824  13827     1
  13825  13828     1
  13825  13827     1
  13829  13837     1
  13829  13845     1
  13829  13850     1
  13829  13838     1
  13830  13836     1
  13830  13844     1
  13830  13847     1
  13830  13848     1
  13831  13833     1
  13831  13842     1
  13831  13832     1
  13831  13849     1
  13831  13847     1
  13831  13848     1
  13831  13835     1
  13832  13834     1
  13832  13841     1
  13832  13837     1
  13832  13845     1
  13832  13843     1
  13832  13851     1
  13833  13838     1
  13833  13846     1
  13833  13845     1
  13834  13844     1
  13835  13846     1
  13835  13837     1
  13836  13839     1
  13836  13851     1
  13836  13838     1
  13836  13846     1
  13836  13841     1
  13836  13837     1
  13837  13840     1
  13837  13844     1
  13837  13842     1
  13838  13840     1
  13847  13850     1
  13847  13851     1
  13848  13850     1
  13848  13851     1
  13852  13860     1
  13852  13868     1
  13852  13873     1
  13852  13861     1
  13853  13870     1
  13853  13871     1
  13853  13859     1
  13853  13867     1
  13854  13856     1
  13854  13865     1
  13854  13855     1
  13854  13872     1
  13854  13870     1
  13854  13871     1
  13854  13858     1
  13855  13866     1
  13855  13874     1
  13855  13857     1
  13855  13864     1
  13855  13860     1
  13855  13868     1
  13856  13868     1
  13856  13861     1
  13856  13869     1
  13857  13867     1
  13858  13860     1
  13858  13869     1
  13859  13864     1
  13859  13860     1
  13859  13862     1
  13859  13874     1
  13859  13861     1
  13859  13869     1
  13860  13865     1
  13860  13863     1
  13860  13867     1
  13861  13863     1
  13870  13874     1
  13870  13873     1
  13871  13874     1
  13871  13873     1
  13875  13883     1
  13875  13891     1
  13875  13896     1
  13875  13884     1
  13876  13882     1
  13876  13890     1
  13876  13893     1
  13876  13894     1
  13877  13879     1
  13877  13888     1
  13877  13878     1
  13877  13895     1
  13877  13893     1
  13877  13894     1
  13877  13881     1
  13878  13880     1
  13878  13887     1
  13878  13883     1
  13878  13891     1
  13878  13889     1
  13878  13897     1
  13879  13884     1
  13879  13892     1
  13879  13891     1
  13880  13890     1
  13881  13892     1
  13881  13883     1
  13882  13885     1
  13882  13897     1
  13882  13884     1
  13882  13892     1
  13882  13887     1
  13882  13883     1
  13883  13886     1
  13883  13890     1
  13883  13888     1
  13884  13886     1
  13893  13896     1
  13893  13897     1
  13894  13896     1
  13894  13897     1
  13898  13906     1
  13898  13914     1
  13898  13919     1
  13898  13907     1
  13899  13916     1
  13899  13917     1
  13899  13905     1
  13899  13913     1
  13900  13902     1
  13900  13911     1
  13900  13901     1
  13900  13918     1
  13900  13916     1
  13900  13917     1
  13900  13904     1
  13901  13912     1
  13901  13920     1
  13901  13903     1
  13901  13910     1
  13901  13906     1
  13901  13914     1
  13902  13914     1
  13902  13907     1
  13902  13915     1
  13903  13913     1
  13904  13906     1
  13904  13915     1
  13905  13910     1
  13905  13906     1
  13905  13908     1
  13905  13920     1
  13905  13907     1
  13905  13915     1
  13906  13911     1
  13906  13909     1
  13906  13913     1
  13907  13909     1
  13916  13920     1
  13916  13919     1
  13917  13920     1
  13917  13919     1
  13921  13929     1
  13921  13937     1
  13921  13942     1
  13921  13930     1
  13922  13928     1
  13922  13936     1
  13922  13939     1
  13922  13940     1
  13923  13925     1
  13923  13934     1
  13923  13924     1
  13923  13941     1
  13923  13939     1
  13923  13940     1
  13923  13927     1
  13924  13926     1
  13924  13933     1
  13924  13929     1
  13924  13937     1
  13924  13935     1
  13924  13943     1
  13925  13930     1
  13925  13938     1
  13925  13937     1
  13926  13936     1
  13927  13938     1
  13927  13929     1
  13928  13931     1
  13928  13943     1
  13928  13930     1
  13928  13938     1
  13928  13933     1
  13928  13929     1
  13929  13932     1
  13929  13936     1
  13929  13934     1
  13930  13932     1
  13939  13942     1
  13939  13943     1
  13940  13942     1
  13940  13943     1
  13944  13952     1
  13944  13960     1
  13944  13965     1
  13944  13953     1
  13945  13962     1
  13945  13963     1
  13945  13951     1
  13945  13959     1
  13946  13948     1
  13946  13957     1
  13946  13947     1
  13946  13964     1
  13946  13962     1
  13946  13963     1
  13946  13950     1
  13947  13958     1
  13947  13966     1
  13947  13949     1
  13947  13956     1
  13947  13952     1
  13947  13960     1
  13948  13960     1
  13948  13953     1
  13948  13961     1
  13949  13959     1
  13950  13952     1
  13950  13961     1
  13951  13956     1
  13951  13952     1
  13951  13954     1
  13951  13966     1
  13951  13953     1
  13951  13961     1
  13952  13957     1
  13952  13955     1
  13952  13959     1
  13953  13955     1
  13962  13966     1
  13962  13965     1
  13963  13966     1
  13963  13965     1
  13967  13975     1
  13967  13983     1
  13967  13988     1
  13967  13976     1
  13968  13974     1
  13968  13982     1
  13968  13985     1
  13968  13986     1
  13969  13971     1
  13969  13980     1
  13969  13970     1
  13969  13987     1
  13969  13985     1
  13969  13986     1
  13969  13973     1
  13970  13972     1
  13970  13979     1
  13970  13975     1
  13970  13983     1
  13970  13981     1
  13970  13989     1
  13971  13976     1
  13971  13984     1
  13971  13983     1
  13972  13982     1
  13973  13984     1
  13973  13975     1
  13974  13977     1
  13974  13989     1
  13974  13976     1
  13974  13984     1
  13974  13979     1
  13974  13975     1
  13975  13978     1
  13975  13982     1
  13975  13980     1
  13976  13978     1
  13985  13988     1
  13985  13989     1
  13986  13988     1
  13986  13989     1
  13990  13998     1
  13990  14006     1
  13990  14011     1
  13990  13999     1
  13991  14008     1
  13991  14009     1
  13991  13997     1
  13991  14005     1
  13992  13994     1
  13992  14003     1
  13992  13993     1
  13992  14010     1
  13992  14008     1
  13992  14009     1
  13992  13996     1
  13993  14004     1
  13993  14012     1
  13993  13995     1
  13993  14002     1
  13993  13998     1
  13993  14006     1
  13994  14006     1
  13994  13999     1
  13994  14007     1
  13995  14005     1
  13996  13998     1
  13996  14007     1
  13997  14002     1
  13997  13998     1
  13997  14000     1
  13997  14012     1
  13997  13999     1
  13997  14007     1
  13998  14003     1
  13998  14001     1
  13998  14005     1
  13999  14001     1
  14008  14012     1
  14008  14011     1
  14009  14012     1
  14009  14011     1
  14013  14021     1
  14013  14029     1
  14013  14034     1
  14013  14022     1
  14014  14020     1
  14014  14028     1
  14014  14031     1
  14014  14032     1
  14015  14017     1
  14015  14026     1
  14015  14016     1
  14015  14033     1
  14015  14031     1
  14015  14032     1
  14015  14019     1
  14016  14018     1
  14016  14025     1
  14016  14021     1
  14016  14029     1
  14016  14027     1
  14016  14035     1
  14017  14022     1
  14017  14030     1
  14017  14029     1
  14018  14028     1
  14019  14030     1
  14019  14021     1
  14020  14023     1
  14020  14035     1
  14020  14022     1
  14020  14030     1
  14020  14025     1
  14020  14021     1
  14021  14024     1
  14021  14028     1
  14021  14026     1
  14022  14024     1
  14031  14034     1
  14031  14035     1
  14032  14034     1
  14032  14035     1
  14036  14044     1
  14036  14052     1
  14036  14057     1
  14036  14045     1
  14037  14054     1
  14037  14055     1
  14037  14043     1
  14037  14051     1
  14038  14040     1
  14038  14049     1
  14038  14039     1
  14038  14056     1
  14038  14054     1
  14038  14055     1
  14038  14042     1
  14039  14050     1
  14039  14058     1
  14039  14041     1
  14039  14048     1
  14039  14044     1
  14039  14052     1
  14040  14052     1
  14040  14045     1
  14040  14053     1
  14041  14051     1
  14042  14044     1
  14042  14053     1
  14043  14048     1
  14043  14044     1
  14043  14046     1
  14043  14058     1
  14043  14045     1
  14043  14053     1
  14044  14049     1
  14044  14047     1
  14044  14051     1
  14045  14047     1
  14054  14058     1
  14054  14057     1
  14055  14058     1
  14055  14057     1
  14059  14067     1
  14059  14075     1
  14059  14080     1
  14059  14068     1
  14060  14066     1
  14060  14074     1
  14060  14077     1
  14060  14078     1
  14061  14063     1
  14061  14072     1
  14061  14062     1
  14061  14079     1
  14061  14077     1
  14061  14078     1
  14061  14065     1
  14062  14064     1
  14062  14071     1
  14062  14067     1
  14062  14075     1
  14062  14073     1
  14062  14081     1
  14063  14068     1
  14063  14076     1
  14063  14075     1
  14064  14074     1
  14065  14076     1
  14065  14067     1
  14066  14069     1
  14066  14081     1
  14066  14068     1
  14066  14076     1
  14066  14071     1
  14066  14067     1
  14067  14070     1
  14067  14074     1
  14067  14072     1
  14068  14070     1
  14077  14080     1
  14077  14081     1
  14078  14080     1
  14078  14081     1
  14082  14090     1
  14082  14098     1
  14082  14103     1
  14082  14091     1
  14083  14100     1
  14083  14101     1
  14083  14089     1
  14083  14097     1
  14084  14086     1
  14084  14095     1
  14084  14085     1
  14084  14102     1
  14084  14100     1
  14084  14101     1
  14084  14088     1
  14085  14096     1
  14085  14104     1
  14085  14087     1
  14085  14094     1
  14085  14090     1
  14085  14098     1
  14086  14098     1
  14086  14091     1
  14086  14099     1
  14087  14097     1
  14088  14090     1
  14088  14099     1
  14089  14094     1
  14089  14090     1
  14089  14092     1
  14089  14104     1
  14089  14091     1
  14089  14099     1
  14090  14095     1
  14090  14093     1
  14090  14097     1
  14091  14093     1
  14100  14104     1
  14100  14103     1
  14101  14104     1
  14101  14103     1
  14105  14113     1
  14105  14121     1
  14105  14126     1
  14105  14114     1
  14106  14112     1
  14106  14120     1
  14106  14123     1
  14106  14124     1
  14107  14109     1
  14107  14118     1
  14107  14108     1
  14107  14125     1
  14107  14123     1
  14107  14124     1
  14107  14111     1
  14108  14110     1
  14108  14117     1
  14108  14113     1
  14108  14121     1
  14108  14119     1
  14108  14127     1
  14109  14114     1
  14109  14122     1
  14109  14121     1
  14110  14120     1
  14111  14122     1
  14111  14113     1
  14112  14115     1
  14112  14127     1
  14112  14114     1
  14112  14122     1
  14112  14117     1
  14112  14113     1
  14113  14116     1
  14113  14120     1
  14113  14118     1
  14114  14116     1
  14123  14126     1
  14123  14127     1
  14124  14126     1
  14124  14127     1
  14128  14136     1
  14128  14144     1
  14128  14149     1
  14128  14137     1
  14129  14146     1
  14129  14147     1
  14129  14135     1
  14129  14143     1
  14130  14132     1
  14130  14141     1
  14130  14131     1
  14130  14148     1
  14130  14146     1
  14130  14147     1
  14130  14134     1
  14131  14142     1
  14131  14150     1
  14131  14133     1
  14131  14140     1
  14131  14136     1
  14131  14144     1
  14132  14144     1
  14132  14137     1
  14132  14145     1
  14133  14143     1
  14134  14136     1
  14134  14145     1
  14135  14140     1
  14135  14136     1
  14135  14138     1
  14135  14150     1
  14135  14137     1
  14135  14145     1
  14136  14141     1
  14136  14139     1
  14136  14143     1
  14137  14139     1
  14146  14150     1
  14146  14149     1
  14147  14150     1
  14147  14149     1
  14151  14159     1
  14151  14167     1
  14151  14172     1
  14151  14160     1
  14152  14158     1
  14152  14166     1
  14152  14169     1
  14152  14170     1
  14153  14155     1
  14153  14164     1
  14153  14154     1
  14153  14171     1
  14153  14169     1
  14153  14170     1
  14153  14157     1
  14154  14156     1
  14154  14163     1
  14154  14159     1
  14154  14167     1
  14154  14165     1
  14154  14173     1
  14155  14160     1
  14155  14168     1
  14155  14167     1
  14156  14166     1
  14157  14168     1
  14157  14159     1
  14158  14161     1
  14158  14173     1
  14158  14160     1
  14158  14168     1
  14158  14163     1
  14158  14159     1
  14159  14162     1
  14159  14166     1
  14159  14164     1
  14160  14162     1
  14169  14172     1
  14169  14173     1
  14170  14172     1
  14170  14173     1
  14174  14182     1
  14174  14190     1
  14174  14195     1
  14174  14183     1
  14175  14192     1
  14175  14193     1
  14175  14181     1
  14175  14189     1
  14176  14178     1
  14176  14187     1
  14176  14177     1
  14176  14194     1
  14176  14192     1
  14176  14193     1
  14176  14180     1
  14177  14188     1
  14177  14196     1
  14177  14179     1
  14177  14186     1
  14177  14182     1
  14177  14190     1
  14178  14190     1
  14178  14183     1
  14178  14191     1
  14179  14189     1
  14180  14182     1
  14180  14191     1
  14181  14186     1
  14181  14182     1
  14181  14184     1
  14181  14196     1
  14181  14183     1
  14181  14191     1
  14182  14187     1
  14182  14185     1
  14182  14189     1
  14183  14185     1
  14192  14196     1
  14192  14195     1
  14193  14196     1
  14193  14195     1
  14197  14205     1
  14197  14213     1
  14197  14218     1
  14197  14206     1
  14198  14204     1
  14198  14212     1
  14198  14215     1
  14198  14216     1
  14199  14201     1
  14199  14210     1
  14199  14200     1
  14199  14217     1
  14199  14215     1
  14199  14216     1
  14199  14203     1
  14200  14202     1
  14200  14209     1
  14200  14205     1
  14200  14213     1
  14200  14211     1
  14200  14219     1
  14201  14206     1
  14201  14214     1
  14201  14213     1
  14202  14212     1
  14203  14214     1
  14203  14205     1
  14204  14207     1
  14204  14219     1
  14204  14206     1
  14204  14214     1
  14204  14209     1
  14204  14205     1
  14205  14208     1
  14205  14212     1
  14205  14210     1
  14206  14208     1
  14215  14218     1
  14215  14219     1
  14216  14218     1
  14216  14219     1
  14220  14228     1
  14220  14236     1
  14220  14241     1
  14220  14229     1
  14221  14238     1
  14221  14239     1
  14221  14227     1
  14221  14235     1
  14222  14224     1
  14222  14233     1
  14222  14223     1
  14222  14240     1
  14222  14238     1
  14222  14239     1
  14222  14226     1
  14223  14234     1
  14223  14242     1
  14223  14225     1
  14223  14232     1
  14223  14228     1
  14223  14236     1
  14224  14236     1
  14224  14229     1
  14224  14237     1
  14225  14235     1
  14226  14228     1
  14226  14237     1
  14227  14232     1
  14227  14228     1
  14227  14230     1
  14227  14242     1
  14227  14229     1
  14227  14237     1
  14228  14233     1
  14228  14231     1
  14228  14235     1
  14229  14231     1
  14238  14242     1
  14238  14241     1
  14239  14242     1
  14239  14241     1
  14243  14251     1
  14243  14259     1
  14243  14264     1
  14243  14252     1
  14244  14250     1
  14244  14258     1
  14244  14261     1
  14244  14262     1
  14245  14247     1
  14245  14256     1
  14245  14246     1
  14245  14263     1
  14245  14261     1
  14245  14262     1
  14245  14249     1
  14246  14248     1
  14246  14255     1
  14246  14251     1
  14246  14259     1
  14246  14257     1
  14246  14265     1
  14247  14252     1
  14247  14260     1
  14247  14259     1
  14248  14258     1
  14249  14260     1
  14249  14251     1
  14250  14253     1
  14250  14265     1
  14250  14252     1
  14250  14260     1
  14250  14255     1
  14250  14251     1
  14251  14254     1
  14251  14258     1
  14251  14256     1
  14252  14254     1
  14261  14264     1
  14261  14265     1
  14262  14264     1
  14262  14265     1
  14266  14274     1
  14266  14282     1
  14266  14287     1
  14266  14275     1
  14267  14284     1
  14267  14285     1
  14267  14273     1
  14267  14281     1
  14268  14270     1
  14268  14279     1
  14268  14269     1
  14268  14286     1
  14268  14284     1
  14268  14285     1
  14268  14272     1
  14269  14280     1
  14269  14288     1
  14269  14271     1
  14269  14278     1
  14269  14274     1
  14269  14282     1
  14270  14282     1
  14270  14275     1
  14270  14283     1
  14271  14281     1
  14272  14274     1
  14272  14283     1
  14273  14278     1
  14273  14274     1
  14273  14276     1
  14273  14288     1
  14273  14275     1
  14273  14283     1
  14274  14279     1
  14274  14277     1
  14274  14281     1
  14275  14277     1
  14284  14288     1
  14284  14287     1
  14285  14288     1
  14285  14287     1
  14289  14297     1
  14289  14305     1
  14289  14310     1
  14289  14298     1
  14290  14296     1
  14290  14304     1
  14290  14307     1
  14290  14308     1
  14291  14293     1
  14291  14302     1
  14291  14292     1
  14291  14309     1
  14291  14307     1
  14291  14308     1
  14291  14295     1
  14292  14294     1
  14292  14301     1
  14292  14297     1
  14292  14305     1
  14292  14303     1
  14292  14311     1
  14293  14298     1
  14293  14306     1
  14293  14305     1
  14294  14304     1
  14295  14306     1
  14295  14297     1
  14296  14299     1
  14296  14311     1
  14296  14298     1
  14296  14306     1
  14296  14301     1
  14296  14297     1
  14297  14300     1
  14297  14304     1
  14297  14302     1
  14298  14300     1
  14307  14310     1
  14307  14311     1
  14308  14310     1
  14308  14311     1
  14312  14320     1
  14312  14328     1
  14312  14333     1
  14312  14321     1
  14313  14330     1
  14313  14331     1
  14313  14319     1
  14313  14327     1
  14314  14316     1
  14314  14325     1
  14314  14315     1
  14314  14332     1
  14314  14330     1
  14314  14331     1
  14314  14318     1
  14315  14326     1
  14315  14334     1
  14315  14317     1
  14315  14324     1
  14315  14320     1
  14315  14328     1
  14316  14328     1
  14316  14321     1
  14316  14329     1
  14317  14327     1
  14318  14320     1
  14318  14329     1
  14319  14324     1
  14319  14320     1
  14319  14322     1
  14319  14334     1
  14319  14321     1
  14319  14329     1
  14320  14325     1
  14320  14323     1
  14320  14327     1
  14321  14323     1
  14330  14334     1
  14330  14333     1
  14331  14334     1
  14331  14333     1
  14335  14343     1
  14335  14351     1
  14335  14356     1
  14335  14344     1
  14336  14342     1
  14336  14350     1
  14336  14353     1
  14336  14354     1
  14337  14339     1
  14337  14348     1
  14337  14338     1
  14337  14355     1
  14337  14353     1
  14337  14354     1
  14337  14341     1
  14338  14340     1
  14338  14347     1
  14338  14343     1
  14338  14351     1
  14338  14349     1
  14338  14357     1
  14339  14344     1
  14339  14352     1
  14339  14351     1
  14340  14350     1
  14341  14352     1
  14341  14343     1
  14342  14345     1
  14342  14357     1
  14342  14344     1
  14342  14352     1
  14342  14347     1
  14342  14343     1
  14343  14346     1
  14343  14350     1
  14343  14348     1
  14344  14346     1
  14353  14356     1
  14353  14357     1
  14354  14356     1
  14354  14357     1
  14358  14366     1
  14358  14374     1
  14358  14379     1
  14358  14367     1
  14359  14376     1
  14359  14377     1
  14359  14365     1
  14359  14373     1
  14360  14362     1
  14360  14371     1
  14360  14361     1
  14360  14378     1
  14360  14376     1
  14360  14377     1
  14360  14364     1
  14361  14372     1
  14361  14380     1
  14361  14363     1
  14361  14370     1
  14361  14366     1
  14361  14374     1
  14362  14374     1
  14362  14367     1
  14362  14375     1
  14363  14373     1
  14364  14366     1
  14364  14375     1
  14365  14370     1
  14365  14366     1
  14365  14368     1
  14365  14380     1
  14365  14367     1
  14365  14375     1
  14366  14371     1
  14366  14369     1
  14366  14373     1
  14367  14369     1
  14376  14380     1
  14376  14379     1
  14377  14380     1
  14377  14379     1
  14381  14389     1
  14381  14397     1
  14381  14402     1
  14381  14390     1
  14382  14388     1
  14382  14396     1
  14382  14399     1
  14382  14400     1
  14383  14385     1
  14383  14394     1
  14383  14384     1
  14383  14401     1
  14383  14399     1
  14383  14400     1
  14383  14387     1
  14384  14386     1
  14384  14393     1
  14384  14389     1
  14384  14397     1
  14384  14395     1
  14384  14403     1
  14385  14390     1
  14385  14398     1
  14385  14397     1
  14386  14396     1
  14387  14398     1
  14387  14389     1
  14388  14391     1
  14388  14403     1
  14388  14390     1
  14388  14398     1
  14388  14393     1
  14388  14389     1
  14389  14392     1
  14389  14396     1
  14389  14394     1
  14390  14392     1
  14399  14402     1
  14399  14403     1
  14400  14402     1
  14400  14403     1
  14404  14412     1
  14404  14420     1
  14404  14425     1
  14404  14413     1
  14405  14422     1
  14405  14423     1
  14405  14411     1
  14405  14419     1
  14406  14408     1
  14406  14417     1
  14406  14407     1
  14406  14424     1
  14406  14422     1
  14406  14423     1
  14406  14410     1
  14407  14418     1
  14407  14426     1
  14407  14409     1
  14407  14416     1
  14407  14412     1
  14407  14420     1
  14408  14420     1
  14408  14413     1
  14408  14421     1
  14409  14419     1
  14410  14412     1
  14410  14421     1
  14411  14416     1
  14411  14412     1
  14411  14414     1
  14411  14426     1
  14411  14413     1
  14411  14421     1
  14412  14417     1
  14412  14415     1
  14412  14419     1
  14413  14415     1
  14422  14426     1
  14422  14425     1
  14423  14426     1
  14423  14425     1
  14427  14435     1
  14427  14443     1
  14427  14448     1
  14427  14436     1
  14428  14434     1
  14428  14442     1
  14428  14445     1
  14428  14446     1
  14429  14431     1
  14429  14440     1
  14429  14430     1
  14429  14447     1
  14429  14445     1
  14429  14446     1
  14429  14433     1
  14430  14432     1
  14430  14439     1
  14430  14435     1
  14430  14443     1
  14430  14441     1
  14430  14449     1
  14431  14436     1
  14431  14444     1
  14431  14443     1
  14432  14442     1
  14433  14444     1
  14433  14435     1
  14434  14437     1
  14434  14449     1
  14434  14436     1
  14434  14444     1
  14434  14439     1
  14434  14435     1
  14435  14438     1
  14435  14442     1
  14435  14440     1
  14436  14438     1
  14445  14448     1
  14445  14449     1
  14446  14448     1
  14446  14449     1
  14450  14458     1
  14450  14466     1
  14450  14471     1
  14450  14459     1
  14451  14468     1
  14451  14469     1
  14451  14457     1
  14451  14465     1
  14452  14454     1
  14452  14463     1
  14452  14453     1
  14452  14470     1
  14452  14468     1
  14452  14469     1
  14452  14456     1
  14453  14464     1
  14453  14472     1
  14453  14455     1
  14453  14462     1
  14453  14458     1
  14453  14466     1
  14454  14466     1
  14454  14459     1
  14454  14467     1
  14455  14465     1
  14456  14458     1
  14456  14467     1
  14457  14462     1
  14457  14458     1
  14457  14460     1
  14457  14472     1
  14457  14459     1
  14457  14467     1
  14458  14463     1
  14458  14461     1
  14458  14465     1
  14459  14461     1
  14468  14472     1
  14468  14471     1
  14469  14472     1
  14469  14471     1
  14473  14481     1
  14473  14489     1
  14473  14494     1
  14473  14482     1
  14474  14480     1
  14474  14488     1
  14474  14491     1
  14474  14492     1
  14475  14477     1
  14475  14486     1
  14475  14476     1
  14475  14493     1
  14475  14491     1
  14475  14492     1
  14475  14479     1
  14476  14478     1
  14476  14485     1
  14476  14481     1
  14476  14489     1
  14476  14487     1
  14476  14495     1
  14477  14482     1
  14477  14490     1
  14477  14489     1
  14478  14488     1
  14479  14490     1
  14479  14481     1
  14480  14483     1
  14480  14495     1
  14480  14482     1
  14480  14490     1
  14480  14485     1
  14480  14481     1
  14481  14484     1
  14481  14488     1
  14481  14486     1
  14482  14484     1
  14491  14494     1
  14491  14495     1
  14492  14494     1
  14492  14495     1
  14496  14504     1
  14496  14512     1
  14496  14517     1
  14496  14505     1
  14497  14514     1
  14497  14515     1
  14497  14503     1
  14497  14511     1
  14498  14500     1
  14498  14509     1
  14498  14499     1
  14498  14516     1
  14498  14514     1
  14498  14515     1
  14498  14502     1
  14499  14510     1
  14499  14518     1
  14499  14501     1
  14499  14508     1
  14499  14504     1
  14499  14512     1
  14500  14512     1
  14500  14505     1
  14500  14513     1
  14501  14511     1
  14502  14504     1
  14502  14513     1
  14503  14508     1
  14503  14504     1
  14503  14506     1
  14503  14518     1
  14503  14505     1
  14503  14513     1
  14504  14509     1
  14504  14507     1
  14504  14511     1
  14505  14507     1
  14514  14518     1
  14514  14517     1
  14515  14518     1
  14515  14517     1
  14519  14527     1
  14519  14535     1
  14519  14540     1
  14519  14528     1
  14520  14526     1
  14520  14534     1
  14520  14537     1
  14520  14538     1
  14521  14523     1
  14521  14532     1
  14521  14522     1
  14521  14539     1
  14521  14537     1
  14521  14538     1
  14521  14525     1
  14522  14524     1
  14522  14531     1
  14522  14527     1
  14522  14535     1
  14522  14533     1
  14522  14541     1
  14523  14528     1
  14523  14536     1
  14523  14535     1
  14524  14534     1
  14525  14536     1
  14525  14527     1
  14526  14529     1
  14526  14541     1
  14526  14528     1
  14526  14536     1
  14526  14531     1
  14526  14527     1
  14527  14530     1
  14527  14534     1
  14527  14532     1
  14528  14530     1
  14537  14540     1
  14537  14541     1
  14538  14540     1
  14538  14541     1
  14542  14550     1
  14542  14558     1
  14542  14563     1
  14542  14551     1
  14543  14560     1
  14543  14561     1
  14543  14549     1
  14543  14557     1
  14544  14546     1
  14544  14555     1
  14544  14545     1
  14544  14562     1
  14544  14560     1
  14544  14561     1
  14544  14548     1
  14545  14556     1
  14545  14564     1
  14545  14547     1
  14545  14554     1
  14545  14550     1
  14545  14558     1
  14546  14558     1
  14546  14551     1
  14546  14559     1
  14547  14557     1
  14548  14550     1
  14548  14559     1
  14549  14554     1
  14549  14550     1
  14549  14552     1
  14549  14564     1
  14549  14551     1
  14549  14559     1
  14550  14555     1
  14550  14553     1
  14550  14557     1
  14551  14553     1
  14560  14564     1
  14560  14563     1
  14561  14564     1
  14561  14563     1
  14565  14573     1
  14565  14581     1
  14565  14586     1
  14565  14574     1
  14566  14572     1
  14566  14580     1
  14566  14583     1
  14566  14584     1
  14567  14569     1
  14567  14578     1
  14567  14568     1
  14567  14585     1
  14567  14583     1
  14567  14584     1
  14567  14571     1
  14568  14570     1
  14568  14577     1
  14568  14573     1
  14568  14581     1
  14568  14579     1
  14568  14587     1
  14569  14574     1
  14569  14582     1
  14569  14581     1
  14570  14580     1
  14571  14582     1
  14571  14573     1
  14572  14575     1
  14572  14587     1
  14572  14574     1
  14572  14582     1
  14572  14577     1
  14572  14573     1
  14573  14576     1
  14573  14580     1
  14573  14578     1
  14574  14576     1
  14583  14586     1
  14583  14587     1
  14584  14586     1
  14584  14587     1
  14588  14596     1
  14588  14604     1
  14588  14609     1
  14588  14597     1
  14589  14606     1
  14589  14607     1
  14589  14595     1
  14589  14603     1
  14590  14592     1
  14590  14601     1
  14590  14591     1
  14590  14608     1
  14590  14606     1
  14590  14607     1
  14590  14594     1
  14591  14602     1
  14591  14610     1
  14591  14593     1
  14591  14600     1
  14591  14596     1
  14591  14604     1
  14592  14604     1
  14592  14597     1
  14592  14605     1
  14593  14603     1
  14594  14596     1
  14594  14605     1
  14595  14600     1
  14595  14596     1
  14595  14598     1
  14595  14610     1
  14595  14597     1
  14595  14605     1
  14596  14601     1
  14596  14599     1
  14596  14603     1
  14597  14599     1
  14606  14610     1
  14606  14609     1
  14607  14610     1
  14607  14609     1
  14611  14619     1
  14611  14627     1
  14611  14632     1
  14611  14620     1
  14612  14618     1
  14612  14626     1
  14612  14629     1
  14612  14630     1
  14613  14615     1
  14613  14624     1
  14613  14614     1
  14613  14631     1
  14613  14629     1
  14613  14630     1
  14613  14617     1
  14614  14616     1
  14614  14623     1
  14614  14619     1
  14614  14627     1
  14614  14625     1
  14614  14633     1
  14615  14620     1
  14615  14628     1
  14615  14627     1
  14616  14626     1
  14617  14628     1
  14617  14619     1
  14618  14621     1
  14618  14633     1
  14618  14620     1
  14618  14628     1
  14618  14623     1
  14618  14619     1
  14619  14622     1
  14619  14626     1
  14619  14624     1
  14620  14622     1
  14629  14632     1
  14629  14633     1
  14630  14632     1
  14630  14633     1
  14634  14642     1
  14634  14650     1
  14634  14655     1
  14634  14643     1
  14635  14652     1
  14635  14653     1
  14635  14641     1
  14635  14649     1
  14636  14638     1
  14636  14647     1
  14636  14637     1
  14636  14654     1
  14636  14652     1
  14636  14653     1
  14636  14640     1
  14637  14648     1
  14637  14656     1
  14637  14639     1
  14637  14646     1
  14637  14642     1
  14637  14650     1
  14638  14650     1
  14638  14643     1
  14638  14651     1
  14639  14649     1
  14640  14642     1
  14640  14651     1
  14641  14646     1
  14641  14642     1
  14641  14644     1
  14641  14656     1
  14641  14643     1
  14641  14651     1
  14642  14647     1
  14642  14645     1
  14642  14649     1
  14643  14645     1
  14652  14656     1
  14652  14655     1
  14653  14656     1
  14653  14655     1
  14657  14665     1
  14657  14673     1
  14657  14678     1
  14657  14666     1
  14658  14664     1
  14658  14672     1
  14658  14675     1
  14658  14676     1
  14659  14661     1
  14659  14670     1
  14659  14660     1
  14659  14677     1
  14659  14675     1
  14659  14676     1
  14659  14663     1
  14660  14662     1
  14660  14669     1
  14660  14665     1
  14660  14673     1
  14660  14671     1
  14660  14679     1
  14661  14666     1
  14661  14674     1
  14661  14673     1
  14662  14672     1
  14663  14674     1
  14663  14665     1
  14664  14667     1
  14664  14679     1
  14664  14666     1
  14664  14674     1
  14664  14669     1
  14664  14665     1
  14665  14668     1
  14665  14672     1
  14665  14670     1
  14666  14668     1
  14675  14678     1
  14675  14679     1
  14676  14678     1
  14676  14679     1
  14680  14688     1
  14680  14696     1
  14680  14701     1
  14680  14689     1
  14681  14698     1
  14681  14699     1
  14681  14687     1
  14681  14695     1
  14682  14684     1
  14682  14693     1
  14682  14683     1
  14682  14700     1
  14682  14698     1
  14682  14699     1
  14682  14686     1
  14683  14694     1
  14683  14702     1
  14683  14685     1
  14683  14692     1
  14683  14688     1
  14683  14696     1
  14684  14696     1
  14684  14689     1
  14684  14697     1
  14685  14695     1
  14686  14688     1
  14686  14697     1
  14687  14692     1
  14687  14688     1
  14687  14690     1
  14687  14702     1
  14687  14689     1
  14687  14697     1
  14688  14693     1
  14688  14691     1
  14688  14695     1
  14689  14691     1
  14698  14702     1
  14698  14701     1
  14699  14702     1
  14699  14701     1
  14703  14711     1
  14703  14719     1
  14703  14724     1
  14703  14712     1
  14704  14710     1
  14704  14718     1
  14704  14721     1
  14704  14722     1
  14705  14707     1
  14705  14716     1
  14705  14706     1
  14705  14723     1
  14705  14721     1
  14705  14722     1
  14705  14709     1
  14706  14708     1
  14706  14715     1
  14706  14711     1
  14706  14719     1
  14706  14717     1
  14706  14725     1
  14707  14712     1
  14707  14720     1
  14707  14719     1
  14708  14718     1
  14709  14720     1
  14709  14711     1
  14710  14713     1
  14710  14725     1
  14710  14712     1
  14710  14720     1
  14710  14715     1
  14710  14711     1
  14711  14714     1
  14711  14718     1
  14711  14716     1
  14712  14714     1
  14721  14724     1
  14721  14725     1
  14722  14724     1
  14722  14725     1
  14726  14734     1
  14726  14742     1
  14726  14747     1
  14726  14735     1
  14727  14744     1
  14727  14745     1
  14727  14733     1
  14727  14741     1
  14728  14730     1
  14728  14739     1
  14728  14729     1
  14728  14746     1
  14728  14744     1
  14728  14745     1
  14728  14732     1
  14729  14740     1
  14729  14748     1
  14729  14731     1
  14729  14738     1
  14729  14734     1
  14729  14742     1
  14730  14742     1
  14730  14735     1
  14730  14743     1
  14731  14741     1
  14732  14734     1
  14732  14743     1
  14733  14738     1
  14733  14734     1
  14733  14736     1
  14733  14748     1
  14733  14735     1
  14733  14743     1
  14734  14739     1
  14734  14737     1
  14734  14741     1
  14735  14737     1
  14744  14748     1
  14744  14747     1
  14745  14748     1
  14745  14747     1
  14749  14757     1
  14749  14765     1
  14749  14770     1
  14749  14758     1
  14750  14756     1
  14750  14764     1
  14750  14767     1
  14750  14768     1
  14751  14753     1
  14751  14762     1
  14751  14752     1
  14751  14769     1
  14751  14767     1
  14751  14768     1
  14751  14755     1
  14752  14754     1
  14752  14761     1
  14752  14757     1
  14752  14765     1
  14752  14763     1
  14752  14771     1
  14753  14758     1
  14753  14766     1
  14753  14765     1
  14754  14764     1
  14755  14766     1
  14755  14757     1
  14756  14759     1
  14756  14771     1
  14756  14758     1
  14756  14766     1
  14756  14761     1
  14756  14757     1
  14757  14760     1
  14757  14764     1
  14757  14762     1
  14758  14760     1
  14767  14770     1
  14767  14771     1
  14768  14770     1
  14768  14771     1
  14772  14780     1
  14772  14788     1
  14772  14793     1
  14772  14781     1
  14773  14790     1
  14773  14791     1
  14773  14779     1
  14773  14787     1
  14774  14776     1
  14774  14785     1
  14774  14775     1
  14774  14792     1
  14774  14790     1
  14774  14791     1
  14774  14778     1
  14775  14786     1
  14775  14794     1
  14775  14777     1
  14775  14784     1
  14775  14780     1
  14775  14788     1
  14776  14788     1
  14776  14781     1
  14776  14789     1
  14777  14787     1
  14778  14780     1
  14778  14789     1
  14779  14784     1
  14779  14780     1
  14779  14782     1
  14779  14794     1
  14779  14781     1
  14779  14789     1
  14780  14785     1
  14780  14783     1
  14780  14787     1
  14781  14783     1
  14790  14794     1
  14790  14793     1
  14791  14794     1
  14791  14793     1
  14795  14803     1
  14795  14811     1
  14795  14816     1
  14795  14804     1
  14796  14802     1
  14796  14810     1
  14796  14813     1
  14796  14814     1
  14797  14799     1
  14797  14808     1
  14797  14798     1
  14797  14815     1
  14797  14813     1
  14797  14814     1
  14797  14801     1
  14798  14800     1
  14798  14807     1
  14798  14803     1
  14798  14811     1
  14798  14809     1
  14798  14817     1
  14799  14804     1
  14799  14812     1
  14799  14811     1
  14800  14810     1
  14801  14812     1
  14801  14803     1
  14802  14805     1
  14802  14817     1
  14802  14804     1
  14802  14812     1
  14802  14807     1
  14802  14803     1
  14803  14806     1
  14803  14810     1
  14803  14808     1
  14804  14806     1
  14813  14816     1
  14813  14817     1
  14814  14816     1
  14814  14817     1
  14818  14826     1
  14818  14834     1
  14818  14839     1
  14818  14827     1
  14819  14836     1
  14819  14837     1
  14819  14825     1
  14819  14833     1
  14820  14822     1
  14820  14831     1
  14820  14821     1
  14820  14838     1
  14820  14836     1
  14820  14837     1
  14820  14824     1
  14821  14832     1
  14821  14840     1
  14821  14823     1
  14821  14830     1
  14821  14826     1
  14821  14834     1
  14822  14834     1
  14822  14827     1
  14822  14835     1
  14823  14833     1
  14824  14826     1
  14824  14835     1
  14825  14830     1
  14825  14826     1
  14825  14828     1
  14825  14840     1
  14825  14827     1
  14825  14835     1
  14826  14831     1
  14826  14829     1
  14826  14833     1
  14827  14829     1
  14836  14840     1
  14836  14839     1
  14837  14840     1
  14837  14839     1
  14841  14849     1
  14841  14857     1
  14841  14862     1
  14841  14850     1
  14842  14848     1
  14842  14856     1
  14842  14859     1
  14842  14860     1
  14843  14845     1
  14843  14854     1
  14843  14844     1
  14843  14861     1
  14843  14859     1
  14843  14860     1
  14843  14847     1
  14844  14846     1
  14844  14853     1
  14844  14849     1
  14844  14857     1
  14844  14855     1
  14844  14863     1
  14845  14850     1
  14845  14858     1
  14845  14857     1
  14846  14856     1
  14847  14858     1
  14847  14849     1
  14848  14851     1
  14848  14863     1
  14848  14850     1
  14848  14858     1
  14848  14853     1
  14848  14849     1
  14849  14852     1
  14849  14856     1
  14849  14854     1
  14850  14852     1
  14859  14862     1
  14859  14863     1
  14860  14862     1
  14860  14863     1
  14864  14872     1
  14864  14880     1
  14864  14885     1
  14864  14873     1
  14865  14882     1
  14865  14883     1
  14865  14871     1
  14865  14879     1
  14866  14868     1
  14866  14877     1
  14866  14867     1
  14866  14884     1
  14866  14882     1
  14866  14883     1
  14866  14870     1
  14867  14878     1
  14867  14886     1
  14867  14869     1
  14867  14876     1
  14867  14872     1
  14867  14880     1
  14868  14880     1
  14868  14873     1
  14868  14881     1
  14869  14879     1
  14870  14872     1
  14870  14881     1
  14871  14876     1
  14871  14872     1
  14871  14874     1
  14871  14886     1
  14871  14873     1
  14871  14881     1
  14872  14877     1
  14872  14875     1
  14872  14879     1
  14873  14875     1
  14882  14886     1
  14882  14885     1
  14883  14886     1
  14883  14885     1
  14887  14895     1
  14887  14903     1
  14887  14908     1
  14887  14896     1
  14888  14894     1
  14888  14902     1
  14888  14905     1
  14888  14906     1
  14889  14891     1
  14889  14900     1
  14889  14890     1
  14889  14907     1
  14889  14905     1
  14889  14906     1
  14889  14893     1
  14890  14892     1
  14890  14899     1
  14890  14895     1
  14890  14903     1
  14890  14901     1
  14890  14909     1
  14891  14896     1
  14891  14904     1
  14891  14903     1
  14892  14902     1
  14893  14904     1
  14893  14895     1
  14894  14897     1
  14894  14909     1
  14894  14896     1
  14894  14904     1
  14894  14899     1
  14894  14895     1
  14895  14898     1
  14895  14902     1
  14895  14900     1
  14896  14898     1
  14905  14908     1
  14905  14909     1
  14906  14908     1
  14906  14909     1
  14910  14918     1
  14910  14926     1
  14910  14931     1
  14910  14919     1
  14911  14928     1
  14911  14929     1
  14911  14917     1
  14911  14925     1
  14912  14914     1
  14912  14923     1
  14912  14913     1
  14912  14930     1
  14912  14928     1
  14912  14929     1
  14912  14916     1
  14913  14924     1
  14913  14932     1
  14913  14915     1
  14913  14922     1
  14913  14918     1
  14913  14926     1
  14914  14926     1
  14914  14919     1
  14914  14927     1
  14915  14925     1
  14916  14918     1
  14916  14927     1
  14917  14922     1
  14917  14918     1
  14917  14920     1
  14917  14932     1
  14917  14919     1
  14917  14927     1
  14918  14923     1
  14918  14921     1
  14918  14925     1
  14919  14921     1
  14928  14932     1
  14928  14931     1
  14929  14932     1
  14929  14931     1
  14933  14941     1
  14933  14949     1
  14933  14954     1
  14933  14942     1
  14934  14940     1
  14934  14948     1
  14934  14951     1
  14934  14952     1
  14935  14937     1
  14935  14946     1
  14935  14936     1
  14935  14953     1
  14935  14951     1
  14935  14952     1
  14935  14939     1
  14936  14938     1
  14936  14945     1
  14936  14941     1
  14936  14949     1
  14936  14947     1
  14936  14955     1
  14937  14942     1
  14937  14950     1
  14937  14949     1
  14938  14948     1
  14939  14950     1
  14939  14941     1
  14940  14943     1
  14940  14955     1
  14940  14942     1
  14940  14950     1
  14940  14945     1
  14940  14941     1
  14941  14944     1
  14941  14948     1
  14941  14946     1
  14942  14944     1
  14951  14954     1
  14951  14955     1
  14952  14954     1
  14952  14955     1
  14956  14964     1
  14956  14972     1
  14956  14977     1
  14956  14965     1
  14957  14974     1
  14957  14975     1
  14957  14963     1
  14957  14971     1
  14958  14960     1
  14958  14969     1
  14958  14959     1
  14958  14976     1
  14958  14974     1
  14958  14975     1
  14958  14962     1
  14959  14970     1
  14959  14978     1
  14959  14961     1
  14959  14968     1
  14959  14964     1
  14959  14972     1
  14960  14972     1
  14960  14965     1
  14960  14973     1
  14961  14971     1
  14962  14964     1
  14962  14973     1
  14963  14968     1
  14963  14964     1
  14963  14966     1
  14963  14978     1
  14963  14965     1
  14963  14973     1
  14964  14969     1
  14964  14967     1
  14964  14971     1
  14965  14967     1
  14974  14978     1
  14974  14977     1
  14975  14978     1
  14975  14977     1
  14979  14987     1
  14979  14995     1
  14979  15000     1
  14979  14988     1
  14980  14986     1
  14980  14994     1
  14980  14997     1
  14980  14998     1
  14981  14983     1
  14981  14992     1
  14981  14982     1
  14981  14999     1
  14981  14997     1
  14981  14998     1
  14981  14985     1
  14982  14984     1
  14982  14991     1
  14982  14987     1
  14982  14995     1
  14982  14993     1
  14982  15001     1
  14983  14988     1
  14983  14996     1
  14983  14995     1
  14984  14994     1
  14985  14996     1
  14985  14987     1
  14986  14989     1
  14986  15001     1
  14986  14988     1
  14986  14996     1
  14986  14991     1
  14986  14987     1
  14987  14990     1
  14987  14994     1
  14987  14992     1
  14988  14990     1
  14997  15000     1
  14997  15001     1
  14998  15000     1
  14998  15001     1
  15002  15010     1
  15002  15018     1
  15002  15023     1
  15002  15011     1
  15003  15020     1
  15003  15021     1
  15003  15009     1
  15003  15017     1
  15004  15006     1
  15004  15015     1
  15004  15005     1
  15004  15022     1
  15004  15020     1
  15004  15021     1
  15004  15008     1
  15005  15016     1
  15005  15024     1
  15005  15007     1
  15005  15014     1
  15005  15010     1
  15005  15018     1
  15006  15018     1
  15006  15011     1
  15006  15019     1
  15007  15017     1
  15008  15010     1
  15008  15019     1
  15009  15014     1
  15009  15010     1
  15009  15012     1
  15009  15024     1
  15009  15011     1
  15009  15019     1
  15010  15015     1
  15010  15013     1
  15010  15017     1
  15011  15013     1
  15020  15024     1
  15020  15023     1
  15021  15024     1
  15021  15023     1
  15025  15033     1
  15025  15041     1
  15025  15046     1
  15025  15034     1
  15026  15032     1
  15026  15040     1
  15026  15043     1
  15026  15044     1
  15027  15029     1
  15027  15038     1
  15027  15028     1
  15027  15045     1
  15027  15043     1
  15027  15044     1
  15027  15031     1
  15028  15030     1
  15028  15037     1
  15028  15033     1
  15028  15041     1
  15028  15039     1
  15028  15047     1
  15029  15034     1
  15029  15042     1
  15029  15041     1
  15030  15040     1
  15031  15042     1
  15031  15033     1
  15032  15035     1
  15032  15047     1
  15032  15034     1
  15032  15042     1
  15032  15037     1
  15032  15033     1
  15033  15036     1
  15033  15040     1
  15033  15038     1
  15034  15036     1
  15043  15046     1
  15043  15047     1
  15044  15046     1
  15044  15047     1
  15048  15056     1
  15048  15064     1
  15048  15069     1
  15048  15057     1
  15049  15066     1
  15049  15067     1
  15049  15055     1
  15049  15063     1
  15050  15052     1
  15050  15061     1
  15050  15051     1
  15050  15068     1
  15050  15066     1
  15050  15067     1
  15050  15054     1
  15051  15062     1
  15051  15070     1
  15051  15053     1
  15051  15060     1
  15051  15056     1
  15051  15064     1
  15052  15064     1
  15052  15057     1
  15052  15065     1
  15053  15063     1
  15054  15056     1
  15054  15065     1
  15055  15060     1
  15055  15056     1
  15055  15058     1
  15055  15070     1
  15055  15057     1
  15055  15065     1
  15056  15061     1
  15056  15059     1
  15056  15063     1
  15057  15059     1
  15066  15070     1
  15066  15069     1
  15067  15070     1
  15067  15069     1
  15071  15079     1
  15071  15087     1
  15071  15092     1
  15071  15080     1
  15072  15078     1
  15072  15086     1
  15072  15089     1
  15072  15090     1
  15073  15075     1
  15073  15084     1
  15073  15074     1
  15073  15091     1
  15073  15089     1
  15073  15090     1
  15073  15077     1
  15074  15076     1
  15074  15083     1
  15074  15079     1
  15074  15087     1
  15074  15085     1
  15074  15093     1
  15075  15080     1
  15075  15088     1
  15075  15087     1
  15076  15086     1
  15077  15088     1
  15077  15079     1
  15078  15081     1
  15078  15093     1
  15078  15080     1
  15078  15088     1
  15078  15083     1
  15078  15079     1
  15079  15082     1
  15079  15086     1
  15079  15084     1
  15080  15082     1
  15089  15092     1
  15089  15093     1
  15090  15092     1
  15090  15093     1
  15094  15102     1
  15094  15110     1
  15094  15115     1
  15094  15103     1
  15095  15112     1
  15095  15113     1
  15095  15101     1
  15095  15109     1
  15096  15098     1
  15096  15107     1
  15096  15097     1
  15096  15114     1
  15096  15112     1
  15096  15113     1
  15096  15100     1
  15097  15108     1
  15097  15116     1
  15097  15099     1
  15097  15106     1
  15097  15102     1
  15097  15110     1
  15098  15110     1
  15098  15103     1
  15098  15111     1
  15099  15109     1
  15100  15102     1
  15100  15111     1
  15101  15106     1
  15101  15102     1
  15101  15104     1
  15101  15116     1
  15101  15103     1
  15101  15111     1
  15102  15107     1
  15102  15105     1
  15102  15109     1
  15103  15105     1
  15112  15116     1
  15112  15115     1
  15113  15116     1
  15113  15115     1
  15117  15125     1
  15117  15133     1
  15117  15138     1
  15117  15126     1
  15118  15124     1
  15118  15132     1
  15118  15135     1
  15118  15136     1
  15119  15121     1
  15119  15130     1
  15119  15120     1
  15119  15137     1
  15119  15135     1
  15119  15136     1
  15119  15123     1
  15120  15122     1
  15120  15129     1
  15120  15125     1
  15120  15133     1
  15120  15131     1
  15120  15139     1
  15121  15126     1
  15121  15134     1
  15121  15133     1
  15122  15132     1
  15123  15134     1
  15123  15125     1
  15124  15127     1
  15124  15139     1
  15124  15126     1
  15124  15134     1
  15124  15129     1
  15124  15125     1
  15125  15128     1
  15125  15132     1
  15125  15130     1
  15126  15128     1
  15135  15138     1
  15135  15139     1
  15136  15138     1
  15136  15139     1
  15140  15148     1
  15140  15156     1
  15140  15161     1
  15140  15149     1
  15141  15158     1
  15141  15159     1
  15141  15147     1
  15141  15155     1
  15142  15144     1
  15142  15153     1
  15142  15143     1
  15142  15160     1
  15142  15158     1
  15142  15159     1
  15142  15146     1
  15143  15154     1
  15143  15162     1
  15143  15145     1
  15143  15152     1
  15143  15148     1
  15143  15156     1
  15144  15156     1
  15144  15149     1
  15144  15157     1
  15145  15155     1
  15146  15148     1
  15146  15157     1
  15147  15152     1
  15147  15148     1
  15147  15150     1
  15147  15162     1
  15147  15149     1
  15147  15157     1
  15148  15153     1
  15148  15151     1
  15148  15155     1
  15149  15151     1
  15158  15162     1
  15158  15161     1
  15159  15162     1
  15159  15161     1
  15163  15171     1
  15163  15179     1
  15163  15184     1
  15163  15172     1
  15164  15170     1
  15164  15178     1
  15164  15181     1
  15164  15182     1
  15165  15167     1
  15165  15176     1
  15165  15166     1
  15165  15183     1
  15165  15181     1
  15165  15182     1
  15165  15169     1
  15166  15168     1
  15166  15175     1
  15166  15171     1
  15166  15179     1
  15166  15177     1
  15166  15185     1
  15167  15172     1
  15167  15180     1
  15167  15179     1
  15168  15178     1
  15169  15180     1
  15169  15171     1
  15170  15173     1
  15170  15185     1
  15170  15172     1
  15170  15180     1
  15170  15175     1
  15170  15171     1
  15171  15174     1
  15171  15178     1
  15171  15176     1
  15172  15174     1
  15181  15184     1
  15181  15185     1
  15182  15184     1
  15182  15185     1
  15186  15194     1
  15186  15202     1
  15186  15207     1
  15186  15195     1
  15187  15204     1
  15187  15205     1
  15187  15193     1
  15187  15201     1
  15188  15190     1
  15188  15199     1
  15188  15189     1
  15188  15206     1
  15188  15204     1
  15188  15205     1
  15188  15192     1
  15189  15200     1
  15189  15208     1
  15189  15191     1
  15189  15198     1
  15189  15194     1
  15189  15202     1
  15190  15202     1
  15190  15195     1
  15190  15203     1
  15191  15201     1
  15192  15194     1
  15192  15203     1
  15193  15198     1
  15193  15194     1
  15193  15196     1
  15193  15208     1
  15193  15195     1
  15193  15203     1
  15194  15199     1
  15194  15197     1
  15194  15201     1
  15195  15197     1
  15204  15208     1
  15204  15207     1
  15205  15208     1
  15205  15207     1
  15209  15217     1
  15209  15225     1
  15209  15230     1
  15209  15218     1
  15210  15216     1
  15210  15224     1
  15210  15227     1
  15210  15228     1
  15211  15213     1
  15211  15222     1
  15211  15212     1
  15211  15229     1
  15211  15227     1
  15211  15228     1
  15211  15215     1
  15212  15214     1
  15212  15221     1
  15212  15217     1
  15212  15225     1
  15212  15223     1
  15212  15231     1
  15213  15218     1
  15213  15226     1
  15213  15225     1
  15214  15224     1
  15215  15226     1
  15215  15217     1
  15216  15219     1
  15216  15231     1
  15216  15218     1
  15216  15226     1
  15216  15221     1
  15216  15217     1
  15217  15220     1
  15217  15224     1
  15217  15222     1
  15218  15220     1
  15227  15230     1
  15227  15231     1
  15228  15230     1
  15228  15231     1
  15232  15240     1
  15232  15248     1
  15232  15253     1
  15232  15241     1
  15233  15250     1
  15233  15251     1
  15233  15239     1
  15233  15247     1
  15234  15236     1
  15234  15245     1
  15234  15235     1
  15234  15252     1
  15234  15250     1
  15234  15251     1
  15234  15238     1
  15235  15246     1
  15235  15254     1
  15235  15237     1
  15235  15244     1
  15235  15240     1
  15235  15248     1
  15236  15248     1
  15236  15241     1
  15236  15249     1
  15237  15247     1
  15238  15240     1
  15238  15249     1
  15239  15244     1
  15239  15240     1
  15239  15242     1
  15239  15254     1
  15239  15241     1
  15239  15249     1
  15240  15245     1
  15240  15243     1
  15240  15247     1
  15241  15243     1
  15250  15254     1
  15250  15253     1
  15251  15254     1
  15251  15253     1
  15255  15263     1
  15255  15271     1
  15255  15276     1
  15255  15264     1
  15256  15262     1
  15256  15270     1
  15256  15273     1
  15256  15274     1
  15257  15259     1
  15257  15268     1
  15257  15258     1
  15257  15275     1
  15257  15273     1
  15257  15274     1
  15257  15261     1
  15258  15260     1
  15258  15267     1
  15258  15263     1
  15258  15271     1
  15258  15269     1
  15258  15277     1
  15259  15264     1
  15259  15272     1
  15259  15271     1
  15260  15270     1
  15261  15272     1
  15261  15263     1
  15262  15265     1
  15262  15277     1
  15262  15264     1
  15262  15272     1
  15262  15267     1
  15262  15263     1
  15263  15266     1
  15263  15270     1
  15263  15268     1
  15264  15266     1
  15273  15276     1
  15273  15277     1
  15274  15276     1
  15274  15277     1
  15278  15286     1
  15278  15294     1
  15278  15299     1
  15278  15287     1
  15279  15296     1
  15279  15297     1
  15279  15285     1
  15279  15293     1
  15280  15282     1
  15280  15291     1
  15280  15281     1
  15280  15298     1
  15280  15296     1
  15280  15297     1
  15280  15284     1
  15281  15292     1
  15281  15300     1
  15281  15283     1
  15281  15290     1
  15281  15286     1
  15281  15294     1
  15282  15294     1
  15282  15287     1
  15282  15295     1
  15283  15293     1
  15284  15286     1
  15284  15295     1
  15285  15290     1
  15285  15286     1
  15285  15288     1
  15285  15300     1
  15285  15287     1
  15285  15295     1
  15286  15291     1
  15286  15289     1
  15286  15293     1
  15287  15289     1
  15296  15300     1
  15296  15299     1
  15297  15300     1
  15297  15299     1
  15301  15309     1
  15301  15317     1
  15301  15322     1
  15301  15310     1
  15302  15308     1
  15302  15316     1
  15302  15319     1
  15302  15320     1
  15303  15305     1
  15303  15314     1
  15303  15304     1
  15303  15321     1
  15303  15319     1
  15303  15320     1
  15303  15307     1
  15304  15306     1
  15304  15313     1
  15304  15309     1
  15304  15317     1
  15304  15315     1
  15304  15323     1
  15305  15310     1
  15305  15318     1
  15305  15317     1
  15306  15316     1
  15307  15318     1
  15307  15309     1
  15308  15311     1
  15308  15323     1
  15308  15310     1
  15308  15318     1
  15308  15313     1
  15308  15309     1
  15309  15312     1
  15309  15316     1
  15309  15314     1
  15310  15312     1
  15319  15322     1
  15319  15323     1
  15320  15322     1
  15320  15323     1
  15324  15332     1
  15324  15340     1
  15324  15345     1
  15324  15333     1
  15325  15342     1
  15325  15343     1
  15325  15331     1
  15325  15339     1
  15326  15328     1
  15326  15337     1
  15326  15327     1
  15326  15344     1
  15326  15342     1
  15326  15343     1
  15326  15330     1
  15327  15338     1
  15327  15346     1
  15327  15329     1
  15327  15336     1
  15327  15332     1
  15327  15340     1
  15328  15340     1
  15328  15333     1
  15328  15341     1
  15329  15339     1
  15330  15332     1
  15330  15341     1
  15331  15336     1
  15331  15332     1
  15331  15334     1
  15331  15346     1
  15331  15333     1
  15331  15341     1
  15332  15337     1
  15332  15335     1
  15332  15339     1
  15333  15335     1
  15342  15346     1
  15342  15345     1
  15343  15346     1
  15343  15345     1
  15347  15355     1
  15347  15363     1
  15347  15368     1
  15347  15356     1
  15348  15354     1
  15348  15362     1
  15348  15365     1
  15348  15366     1
  15349  15351     1
  15349  15360     1
  15349  15350     1
  15349  15367     1
  15349  15365     1
  15349  15366     1
  15349  15353     1
  15350  15352     1
  15350  15359     1
  15350  15355     1
  15350  15363     1
  15350  15361     1
  15350  15369     1
  15351  15356     1
  15351  15364     1
  15351  15363     1
  15352  15362     1
  15353  15364     1
  15353  15355     1
  15354  15357     1
  15354  15369     1
  15354  15356     1
  15354  15364     1
  15354  15359     1
  15354  15355     1
  15355  15358     1
  15355  15362     1
  15355  15360     1
  15356  15358     1
  15365  15368     1
  15365  15369     1
  15366  15368     1
  15366  15369     1
  15370  15378     1
  15370  15386     1
  15370  15391     1
  15370  15379     1
  15371  15388     1
  15371  15389     1
  15371  15377     1
  15371  15385     1
  15372  15374     1
  15372  15383     1
  15372  15373     1
  15372  15390     1
  15372  15388     1
  15372  15389     1
  15372  15376     1
  15373  15384     1
  15373  15392     1
  15373  15375     1
  15373  15382     1
  15373  15378     1
  15373  15386     1
  15374  15386     1
  15374  15379     1
  15374  15387     1
  15375  15385     1
  15376  15378     1
  15376  15387     1
  15377  15382     1
  15377  15378     1
  15377  15380     1
  15377  15392     1
  15377  15379     1
  15377  15387     1
  15378  15383     1
  15378  15381     1
  15378  15385     1
  15379  15381     1
  15388  15392     1
  15388  15391     1
  15389  15392     1
  15389  15391     1
  15393  15401     1
  15393  15409     1
  15393  15414     1
  15393  15402     1
  15394  15400     1
  15394  15408     1
  15394  15411     1
  15394  15412     1
  15395  15397     1
  15395  15406     1
  15395  15396     1
  15395  15413     1
  15395  15411     1
  15395  15412     1
  15395  15399     1
  15396  15398     1
  15396  15405     1
  15396  15401     1
  15396  15409     1
  15396  15407     1
  15396  15415     1
  15397  15402     1
  15397  15410     1
  15397  15409     1
  15398  15408     1
  15399  15410     1
  15399  15401     1
  15400  15403     1
  15400  15415     1
  15400  15402     1
  15400  15410     1
  15400  15405     1
  15400  15401     1
  15401  15404     1
  15401  15408     1
  15401  15406     1
  15402  15404     1
  15411  15414     1
  15411  15415     1
  15412  15414     1
  15412  15415     1
  15416  15424     1
  15416  15432     1
  15416  15437     1
  15416  15425     1
  15417  15434     1
  15417  15435     1
  15417  15423     1
  15417  15431     1
  15418  15420     1
  15418  15429     1
  15418  15419     1
  15418  15436     1
  15418  15434     1
  15418  15435     1
  15418  15422     1
  15419  15430     1
  15419  15438     1
  15419  15421     1
  15419  15428     1
  15419  15424     1
  15419  15432     1
  15420  15432     1
  15420  15425     1
  15420  15433     1
  15421  15431     1
  15422  15424     1
  15422  15433     1
  15423  15428     1
  15423  15424     1
  15423  15426     1
  15423  15438     1
  15423  15425     1
  15423  15433     1
  15424  15429     1
  15424  15427     1
  15424  15431     1
  15425  15427     1
  15434  15438     1
  15434  15437     1
  15435  15438     1
  15435  15437     1
  15439  15447     1
  15439  15455     1
  15439  15460     1
  15439  15448     1
  15440  15446     1
  15440  15454     1
  15440  15457     1
  15440  15458     1
  15441  15443     1
  15441  15452     1
  15441  15442     1
  15441  15459     1
  15441  15457     1
  15441  15458     1
  15441  15445     1
  15442  15444     1
  15442  15451     1
  15442  15447     1
  15442  15455     1
  15442  15453     1
  15442  15461     1
  15443  15448     1
  15443  15456     1
  15443  15455     1
  15444  15454     1
  15445  15456     1
  15445  15447     1
  15446  15449     1
  15446  15461     1
  15446  15448     1
  15446  15456     1
  15446  15451     1
  15446  15447     1
  15447  15450     1
  15447  15454     1
  15447  15452     1
  15448  15450     1
  15457  15460     1
  15457  15461     1
  15458  15460     1
  15458  15461     1
  15462  15470     1
  15462  15478     1
  15462  15483     1
  15462  15471     1
  15463  15480     1
  15463  15481     1
  15463  15469     1
  15463  15477     1
  15464  15466     1
  15464  15475     1
  15464  15465     1
  15464  15482     1
  15464  15480     1
  15464  15481     1
  15464  15468     1
  15465  15476     1
  15465  15484     1
  15465  15467     1
  15465  15474     1
  15465  15470     1
  15465  15478     1
  15466  15478     1
  15466  15471     1
  15466  15479     1
  15467  15477     1
  15468  15470     1
  15468  15479     1
  15469  15474     1
  15469  15470     1
  15469  15472     1
  15469  15484     1
  15469  15471     1
  15469  15479     1
  15470  15475     1
  15470  15473     1
  15470  15477     1
  15471  15473     1
  15480  15484     1
  15480  15483     1
  15481  15484     1
  15481  15483     1
  15485  15493     1
  15485  15501     1
  15485  15506     1
  15485  15494     1
  15486  15492     1
  15486  15500     1
  15486  15503     1
  15486  15504     1
  15487  15489     1
  15487  15498     1
  15487  15488     1
  15487  15505     1
  15487  15503     1
  15487  15504     1
  15487  15491     1
  15488  15490     1
  15488  15497     1
  15488  15493     1
  15488  15501     1
  15488  15499     1
  15488  15507     1
  15489  15494     1
  15489  15502     1
  15489  15501     1
  15490  15500     1
  15491  15502     1
  15491  15493     1
  15492  15495     1
  15492  15507     1
  15492  15494     1
  15492  15502     1
  15492  15497     1
  15492  15493     1
  15493  15496     1
  15493  15500     1
  15493  15498     1
  15494  15496     1
  15503  15506     1
  15503  15507     1
  15504  15506     1
  15504  15507     1
  15508  15516     1
  15508  15524     1
  15508  15529     1
  15508  15517     1
  15509  15526     1
  15509  15527     1
  15509  15515     1
  15509  15523     1
  15510  15512     1
  15510  15521     1
  15510  15511     1
  15510  15528     1
  15510  15526     1
  15510  15527     1
  15510  15514     1
  15511  15522     1
  15511  15530     1
  15511  15513     1
  15511  15520     1
  15511  15516     1
  15511  15524     1
  15512  15524     1
  15512  15517     1
  15512  15525     1
  15513  15523     1
  15514  15516     1
  15514  15525     1
  15515  15520     1
  15515  15516     1
  15515  15518     1
  15515  15530     1
  15515  15517     1
  15515  15525     1
  15516  15521     1
  15516  15519     1
  15516  15523     1
  15517  15519     1
  15526  15530     1
  15526  15529     1
  15527  15530     1
  15527  15529     1
  15531  15539     1
  15531  15547     1
  15531  15552     1
  15531  15540     1
  15532  15538     1
  15532  15546     1
  15532  15549     1
  15532  15550     1
  15533  15535     1
  15533  15544     1
  15533  15534     1
  15533  15551     1
  15533  15549     1
  15533  15550     1
  15533  15537     1
  15534  15536     1
  15534  15543     1
  15534  15539     1
  15534  15547     1
  15534  15545     1
  15534  15553     1
  15535  15540     1
  15535  15548     1
  15535  15547     1
  15536  15546     1
  15537  15548     1
  15537  15539     1
  15538  15541     1
  15538  15553     1
  15538  15540     1
  15538  15548     1
  15538  15543     1
  15538  15539     1
  15539  15542     1
  15539  15546     1
  15539  15544     1
  15540  15542     1
  15549  15552     1
  15549  15553     1
  15550  15552     1
  15550  15553     1
  15554  15562     1
  15554  15570     1
  15554  15575     1
  15554  15563     1
  15555  15572     1
  15555  15573     1
  15555  15561     1
  15555  15569     1
  15556  15558     1
  15556  15567     1
  15556  15557     1
  15556  15574     1
  15556  15572     1
  15556  15573     1
  15556  15560     1
  15557  15568     1
  15557  15576     1
  15557  15559     1
  15557  15566     1
  15557  15562     1
  15557  15570     1
  15558  15570     1
  15558  15563     1
  15558  15571     1
  15559  15569     1
  15560  15562     1
  15560  15571     1
  15561  15566     1
  15561  15562     1
  15561  15564     1
  15561  15576     1
  15561  15563     1
  15561  15571     1
  15562  15567     1
  15562  15565     1
  15562  15569     1
  15563  15565     1
  15572  15576     1
  15572  15575     1
  15573  15576     1
  15573  15575     1
  15577  15585     1
  15577  15593     1
  15577  15598     1
  15577  15586     1
  15578  15584     1
  15578  15592     1
  15578  15595     1
  15578  15596     1
  15579  15581     1
  15579  15590     1
  15579  15580     1
  15579  15597     1
  15579  15595     1
  15579  15596     1
  15579  15583     1
  15580  15582     1
  15580  15589     1
  15580  15585     1
  15580  15593     1
  15580  15591     1
  15580  15599     1
  15581  15586     1
  15581  15594     1
  15581  15593     1
  15582  15592     1
  15583  15594     1
  15583  15585     1
  15584  15587     1
  15584  15599     1
  15584  15586     1
  15584  15594     1
  15584  15589     1
  15584  15585     1
  15585  15588     1
  15585  15592     1
  15585  15590     1
  15586  15588     1
  15595  15598     1
  15595  15599     1
  15596  15598     1
  15596  15599     1
  15600  15608     1
  15600  15616     1
  15600  15621     1
  15600  15609     1
  15601  15618     1
  15601  15619     1
  15601  15607     1
  15601  15615     1
  15602  15604     1
  15602  15613     1
  15602  15603     1
  15602  15620     1
  15602  15618     1
  15602  15619     1
  15602  15606     1
  15603  15614     1
  15603  15622     1
  15603  15605     1
  15603  15612     1
  15603  15608     1
  15603  15616     1
  15604  15616     1
  15604  15609     1
  15604  15617     1
  15605  15615     1
  15606  15608     1
  15606  15617     1
  15607  15612     1
  15607  15608     1
  15607  15610     1
  15607  15622     1
  15607  15609     1
  15607  15617     1
  15608  15613     1
  15608  15611     1
  15608  15615     1
  15609  15611     1
  15618  15622     1
  15618  15621     1
  15619  15622     1
  15619  15621     1
  15623  15631     1
  15623  15639     1
  15623  15644     1
  15623  15632     1
  15624  15630     1
  15624  15638     1
  15624  15641     1
  15624  15642     1
  15625  15627     1
  15625  15636     1
  15625  15626     1
  15625  15643     1
  15625  15641     1
  15625  15642     1
  15625  15629     1
  15626  15628     1
  15626  15635     1
  15626  15631     1
  15626  15639     1
  15626  15637     1
  15626  15645     1
  15627  15632     1
  15627  15640     1
  15627  15639     1
  15628  15638     1
  15629  15640     1
  15629  15631     1
  15630  15633     1
  15630  15645     1
  15630  15632     1
  15630  15640     1
  15630  15635     1
  15630  15631     1
  15631  15634     1
  15631  15638     1
  15631  15636     1
  15632  15634     1
  15641  15644     1
  15641  15645     1
  15642  15644     1
  15642  15645     1
  15646  15654     1
  15646  15662     1
  15646  15667     1
  15646  15655     1
  15647  15664     1
  15647  15665     1
  15647  15653     1
  15647  15661     1
  15648  15650     1
  15648  15659     1
  15648  15649     1
  15648  15666     1
  15648  15664     1
  15648  15665     1
  15648  15652     1
  15649  15660     1
  15649  15668     1
  15649  15651     1
  15649  15658     1
  15649  15654     1
  15649  15662     1
  15650  15662     1
  15650  15655     1
  15650  15663     1
  15651  15661     1
  15652  15654     1
  15652  15663     1
  15653  15658     1
  15653  15654     1
  15653  15656     1
  15653  15668     1
  15653  15655     1
  15653  15663     1
  15654  15659     1
  15654  15657     1
  15654  15661     1
  15655  15657     1
  15664  15668     1
  15664  15667     1
  15665  15668     1
  15665  15667     1
  15669  15677     1
  15669  15685     1
  15669  15690     1
  15669  15678     1
  15670  15676     1
  15670  15684     1
  15670  15687     1
  15670  15688     1
  15671  15673     1
  15671  15682     1
  15671  15672     1
  15671  15689     1
  15671  15687     1
  15671  15688     1
  15671  15675     1
  15672  15674     1
  15672  15681     1
  15672  15677     1
  15672  15685     1
  15672  15683     1
  15672  15691     1
  15673  15678     1
  15673  15686     1
  15673  15685     1
  15674  15684     1
  15675  15686     1
  15675  15677     1
  15676  15679     1
  15676  15691     1
  15676  15678     1
  15676  15686     1
  15676  15681     1
  15676  15677     1
  15677  15680     1
  15677  15684     1
  15677  15682     1
  15678  15680     1
  15687  15690     1
  15687  15691     1
  15688  15690     1
  15688  15691     1
  15692  15700     1
  15692  15708     1
  15692  15713     1
  15692  15701     1
  15693  15710     1
  15693  15711     1
  15693  15699     1
  15693  15707     1
  15694  15696     1
  15694  15705     1
  15694  15695     1
  15694  15712     1
  15694  15710     1
  15694  15711     1
  15694  15698     1
  15695  15706     1
  15695  15714     1
  15695  15697     1
  15695  15704     1
  15695  15700     1
  15695  15708     1
  15696  15708     1
  15696  15701     1
  15696  15709     1
  15697  15707     1
  15698  15700     1
  15698  15709     1
  15699  15704     1
  15699  15700     1
  15699  15702     1
  15699  15714     1
  15699  15701     1
  15699  15709     1
  15700  15705     1
  15700  15703     1
  15700  15707     1
  15701  15703     1
  15710  15714     1
  15710  15713     1
  15711  15714     1
  15711  15713     1
  15715  15723     1
  15715  15731     1
  15715  15736     1
  15715  15724     1
  15716  15722     1
  15716  15730     1
  15716  15733     1
  15716  15734     1
  15717  15719     1
  15717  15728     1
  15717  15718     1
  15717  15735     1
  15717  15733     1
  15717  15734     1
  15717  15721     1
  15718  15720     1
  15718  15727     1
  15718  15723     1
  15718  15731     1
  15718  15729     1
  15718  15737     1
  15719  15724     1
  15719  15732     1
  15719  15731     1
  15720  15730     1
  15721  15732     1
  15721  15723     1
  15722  15725     1
  15722  15737     1
  15722  15724     1
  15722  15732     1
  15722  15727     1
  15722  15723     1
  15723  15726     1
  15723  15730     1
  15723  15728     1
  15724  15726     1
  15733  15736     1
  15733  15737     1
  15734  15736     1
  15734  15737     1
  15738  15746     1
  15738  15754     1
  15738  15759     1
  15738  15747     1
  15739  15756     1
  15739  15757     1
  15739  15745     1
  15739  15753     1
  15740  15742     1
  15740  15751     1
  15740  15741     1
  15740  15758     1
  15740  15756     1
  15740  15757     1
  15740  15744     1
  15741  15752     1
  15741  15760     1
  15741  15743     1
  15741  15750     1
  15741  15746     1
  15741  15754     1
  15742  15754     1
  15742  15747     1
  15742  15755     1
  15743  15753     1
  15744  15746     1
  15744  15755     1
  15745  15750     1
  15745  15746     1
  15745  15748     1
  15745  15760     1
  15745  15747     1
  15745  15755     1
  15746  15751     1
  15746  15749     1
  15746  15753     1
  15747  15749     1
  15756  15760     1
  15756  15759     1
  15757  15760     1
  15757  15759     1
  15761  15769     1
  15761  15777     1
  15761  15782     1
  15761  15770     1
  15762  15768     1
  15762  15776     1
  15762  15779     1
  15762  15780     1
  15763  15765     1
  15763  15774     1
  15763  15764     1
  15763  15781     1
  15763  15779     1
  15763  15780     1
  15763  15767     1
  15764  15766     1
  15764  15773     1
  15764  15769     1
  15764  15777     1
  15764  15775     1
  15764  15783     1
  15765  15770     1
  15765  15778     1
  15765  15777     1
  15766  15776     1
  15767  15778     1
  15767  15769     1
  15768  15771     1
  15768  15783     1
  15768  15770     1
  15768  15778     1
  15768  15773     1
  15768  15769     1
  15769  15772     1
  15769  15776     1
  15769  15774     1
  15770  15772     1
  15779  15782     1
  15779  15783     1
  15780  15782     1
  15780  15783     1
  15784  15792     1
  15784  15800     1
  15784  15805     1
  15784  15793     1
  15785  15802     1
  15785  15803     1
  15785  15791     1
  15785  15799     1
  15786  15788     1
  15786  15797     1
  15786  15787     1
  15786  15804     1
  15786  15802     1
  15786  15803     1
  15786  15790     1
  15787  15798     1
  15787  15806     1
  15787  15789     1
  15787  15796     1
  15787  15792     1
  15787  15800     1
  15788  15800     1
  15788  15793     1
  15788  15801     1
  15789  15799     1
  15790  15792     1
  15790  15801     1
  15791  15796     1
  15791  15792     1
  15791  15794     1
  15791  15806     1
  15791  15793     1
  15791  15801     1
  15792  15797     1
  15792  15795     1
  15792  15799     1
  15793  15795     1
  15802  15806     1
  15802  15805     1
  15803  15806     1
  15803  15805     1
  15807  15815     1
  15807  15823     1
  15807  15828     1
  15807  15816     1
  15808  15814     1
  15808  15822     1
  15808  15825     1
  15808  15826     1
  15809  15811     1
  15809  15820     1
  15809  15810     1
  15809  15827     1
  15809  15825     1
  15809  15826     1
  15809  15813     1
  15810  15812     1
  15810  15819     1
  15810  15815     1
  15810  15823     1
  15810  15821     1
  15810  15829     1
  15811  15816     1
  15811  15824     1
  15811  15823     1
  15812  15822     1
  15813  15824     1
  15813  15815     1
  15814  15817     1
  15814  15829     1
  15814  15816     1
  15814  15824     1
  15814  15819     1
  15814  15815     1
  15815  15818     1
  15815  15822     1
  15815  15820     1
  15816  15818     1
  15825  15828     1
  15825  15829     1
  15826  15828     1
  15826  15829     1
  15830  15838     1
  15830  15846     1
  15830  15851     1
  15830  15839     1
  15831  15848     1
  15831  15849     1
  15831  15837     1
  15831  15845     1
  15832  15834     1
  15832  15843     1
  15832  15833     1
  15832  15850     1
  15832  15848     1
  15832  15849     1
  15832  15836     1
  15833  15844     1
  15833  15852     1
  15833  15835     1
  15833  15842     1
  15833  15838     1
  15833  15846     1
  15834  15846     1
  15834  15839     1
  15834  15847     1
  15835  15845     1
  15836  15838     1
  15836  15847     1
  15837  15842     1
  15837  15838     1
  15837  15840     1
  15837  15852     1
  15837  15839     1
  15837  15847     1
  15838  15843     1
  15838  15841     1
  15838  15845     1
  15839  15841     1
  15848  15852     1
  15848  15851     1
  15849  15852     1
  15849  15851     1
  15853  15861     1
  15853  15869     1
  15853  15874     1
  15853  15862     1
  15854  15860     1
  15854  15868     1
  15854  15871     1
  15854  15872     1
  15855  15857     1
  15855  15866     1
  15855  15856     1
  15855  15873     1
  15855  15871     1
  15855  15872     1
  15855  15859     1
  15856  15858     1
  15856  15865     1
  15856  15861     1
  15856  15869     1
  15856  15867     1
  15856  15875     1
  15857  15862     1
  15857  15870     1
  15857  15869     1
  15858  15868     1
  15859  15870     1
  15859  15861     1
  15860  15863     1
  15860  15875     1
  15860  15862     1
  15860  15870     1
  15860  15865     1
  15860  15861     1
  15861  15864     1
  15861  15868     1
  15861  15866     1
  15862  15864     1
  15871  15874     1
  15871  15875     1
  15872  15874     1
  15872  15875     1
  15876  15884     1
  15876  15892     1
  15876  15897     1
  15876  15885     1
  15877  15894     1
  15877  15895     1
  15877  15883     1
  15877  15891     1
  15878  15880     1
  15878  15889     1
  15878  15879     1
  15878  15896     1
  15878  15894     1
  15878  15895     1
  15878  15882     1
  15879  15890     1
  15879  15898     1
  15879  15881     1
  15879  15888     1
  15879  15884     1
  15879  15892     1
  15880  15892     1
  15880  15885     1
  15880  15893     1
  15881  15891     1
  15882  15884     1
  15882  15893     1
  15883  15888     1
  15883  15884     1
  15883  15886     1
  15883  15898     1
  15883  15885     1
  15883  15893     1
  15884  15889     1
  15884  15887     1
  15884  15891     1
  15885  15887     1
  15894  15898     1
  15894  15897     1
  15895  15898     1
  15895  15897     1
  15899  15907     1
  15899  15915     1
  15899  15920     1
  15899  15908     1
  15900  15906     1
  15900  15914     1
  15900  15917     1
  15900  15918     1
  15901  15903     1
  15901  15912     1
  15901  15902     1
  15901  15919     1
  15901  15917     1
  15901  15918     1
  15901  15905     1
  15902  15904     1
  15902  15911     1
  15902  15907     1
  15902  15915     1
  15902  15913     1
  15902  15921     1
  15903  15908     1
  15903  15916     1
  15903  15915     1
  15904  15914     1
  15905  15916     1
  15905  15907     1
  15906  15909     1
  15906  15921     1
  15906  15908     1
  15906  15916     1
  15906  15911     1
  15906  15907     1
  15907  15910     1
  15907  15914     1
  15907  15912     1
  15908  15910     1
  15917  15920     1
  15917  15921     1
  15918  15920     1
  15918  15921     1
  15922  15930     1
  15922  15938     1
  15922  15943     1
  15922  15931     1
  15923  15940     1
  15923  15941     1
  15923  15929     1
  15923  15937     1
  15924  15926     1
  15924  15935     1
  15924  15925     1
  15924  15942     1
  15924  15940     1
  15924  15941     1
  15924  15928     1
  15925  15936     1
  15925  15944     1
  15925  15927     1
  15925  15934     1
  15925  15930     1
  15925  15938     1
  15926  15938     1
  15926  15931     1
  15926  15939     1
  15927  15937     1
  15928  15930     1
  15928  15939     1
  15929  15934     1
  15929  15930     1
  15929  15932     1
  15929  15944     1
  15929  15931     1
  15929  15939     1
  15930  15935     1
  15930  15933     1
  15930  15937     1
  15931  15933     1
  15940  15944     1
  15940  15943     1
  15941  15944     1
  15941  15943     1
  15945  15953     1
  15945  15961     1
  15945  15966     1
  15945  15954     1
  15946  15952     1
  15946  15960     1
  15946  15963     1
  15946  15964     1
  15947  15949     1
  15947  15958     1
  15947  15948     1
  15947  15965     1
  15947  15963     1
  15947  15964     1
  15947  15951     1
  15948  15950     1
  15948  15957     1
  15948  15953     1
  15948  15961     1
  15948  15959     1
  15948  15967     1
  15949  15954     1
  15949  15962     1
  15949  15961     1
  15950  15960     1
  15951  15962     1
  15951  15953     1
  15952  15955     1
  15952  15967     1
  15952  15954     1
  15952  15962     1
  15952  15957     1
  15952  15953     1
  15953  15956     1
  15953  15960     1
  15953  15958     1
  15954  15956     1
  15963  15966     1
  15963  15967     1
  15964  15966     1
  15964  15967     1
  15968  15976     1
  15968  15984     1
  15968  15989     1
  15968  15977     1
  15969  15986     1
  15969  15987     1
  15969  15975     1
  15969  15983     1
  15970  15972     1
  15970  15981     1
  15970  15971     1
  15970  15988     1
  15970  15986     1
  15970  15987     1
  15970  15974     1
  15971  15982     1
  15971  15990     1
  15971  15973     1
  15971  15980     1
  15971  15976     1
  15971  15984     1
  15972  15984     1
  15972  15977     1
  15972  15985     1
  15973  15983     1
  15974  15976     1
  15974  15985     1
  15975  15980     1
  15975  15976     1
  15975  15978     1
  15975  15990     1
  15975  15977     1
  15975  15985     1
  15976  15981     1
  15976  15979     1
  15976  15983     1
  15977  15979     1
  15986  15990     1
  15986  15989     1
  15987  15990     1
  15987  15989     1
  15991  15999     1
  15991  16007     1
  15991  16012     1
  15991  16000     1
  15992  15998     1
  15992  16006     1
  15992  16009     1
  15992  16010     1
  15993  15995     1
  15993  16004     1
  15993  15994     1
  15993  16011     1
  15993  16009     1
  15993  16010     1
  15993  15997     1
  15994  15996     1
  15994  16003     1
  15994  15999     1
  15994  16007     1
  15994  16005     1
  15994  16013     1
  15995  16000     1
  15995  16008     1
  15995  16007     1
  15996  16006     1
  15997  16008     1
  15997  15999     1
  15998  16001     1
  15998  16013     1
  15998  16000     1
  15998  16008     1
  15998  16003     1
  15998  15999     1
  15999  16002     1
  15999  16006     1
  15999  16004     1
  16000  16002     1
  16009  16012     1
  16009  16013     1
  16010  16012     1
  16010  16013     1
  16014  16022     1
  16014  16030     1
  16014  16035     1
  16014  16023     1
  16015  16032     1
  16015  16033     1
  16015  16021     1
  16015  16029     1
  16016  16018     1
  16016  16027     1
  16016  16017     1
  16016  16034     1
  16016  16032     1
  16016  16033     1
  16016  16020     1
  16017  16028     1
  16017  16036     1
  16017  16019     1
  16017  16026     1
  16017  16022     1
  16017  16030     1
  16018  16030     1
  16018  16023     1
  16018  16031     1
  16019  16029     1
  16020  16022     1
  16020  16031     1
  16021  16026     1
  16021  16022     1
  16021  16024     1
  16021  16036     1
  16021  16023     1
  16021  16031     1
  16022  16027     1
  16022  16025     1
  16022  16029     1
  16023  16025     1
  16032  16036     1
  16032  16035     1
  16033  16036     1
  16033  16035     1
  16037  16045     1
  16037  16053     1
  16037  16058     1
  16037  16046     1
  16038  16044     1
  16038  16052     1
  16038  16055     1
  16038  16056     1
  16039  16041     1
  16039  16050     1
  16039  16040     1
  16039  16057     1
  16039  16055     1
  16039  16056     1
  16039  16043     1
  16040  16042     1
  16040  16049     1
  16040  16045     1
  16040  16053     1
  16040  16051     1
  16040  16059     1
  16041  16046     1
  16041  16054     1
  16041  16053     1
  16042  16052     1
  16043  16054     1
  16043  16045     1
  16044  16047     1
  16044  16059     1
  16044  16046     1
  16044  16054     1
  16044  16049     1
  16044  16045     1
  16045  16048     1
  16045  16052     1
  16045  16050     1
  16046  16048     1
  16055  16058     1
  16055  16059     1
  16056  16058     1
  16056  16059     1
  16060  16068     1
  16060  16076     1
  16060  16081     1
  16060  16069     1
  16061  16078     1
  16061  16079     1
  16061  16067     1
  16061  16075     1
  16062  16064     1
  16062  16073     1
  16062  16063     1
  16062  16080     1
  16062  16078     1
  16062  16079     1
  16062  16066     1
  16063  16074     1
  16063  16082     1
  16063  16065     1
  16063  16072     1
  16063  16068     1
  16063  16076     1
  16064  16076     1
  16064  16069     1
  16064  16077     1
  16065  16075     1
  16066  16068     1
  16066  16077     1
  16067  16072     1
  16067  16068     1
  16067  16070     1
  16067  16082     1
  16067  16069     1
  16067  16077     1
  16068  16073     1
  16068  16071     1
  16068  16075     1
  16069  16071     1
  16078  16082     1
  16078  16081     1
  16079  16082     1
  16079  16081     1
  16083  16091     1
  16083  16099     1
  16083  16104     1
  16083  16092     1
  16084  16090     1
  16084  16098     1
  16084  16101     1
  16084  16102     1
  16085  16087     1
  16085  16096     1
  16085  16086     1
  16085  16103     1
  16085  16101     1
  16085  16102     1
  16085  16089     1
  16086  16088     1
  16086  16095     1
  16086  16091     1
  16086  16099     1
  16086  16097     1
  16086  16105     1
  16087  16092     1
  16087  16100     1
  16087  16099     1
  16088  16098     1
  16089  16100     1
  16089  16091     1
  16090  16093     1
  16090  16105     1
  16090  16092     1
  16090  16100     1
  16090  16095     1
  16090  16091     1
  16091  16094     1
  16091  16098     1
  16091  16096     1
  16092  16094     1
  16101  16104     1
  16101  16105     1
  16102  16104     1
  16102  16105     1
  16106  16114     1
  16106  16122     1
  16106  16127     1
  16106  16115     1
  16107  16124     1
  16107  16125     1
  16107  16113     1
  16107  16121     1
  16108  16110     1
  16108  16119     1
  16108  16109     1
  16108  16126     1
  16108  16124     1
  16108  16125     1
  16108  16112     1
  16109  16120     1
  16109  16128     1
  16109  16111     1
  16109  16118     1
  16109  16114     1
  16109  16122     1
  16110  16122     1
  16110  16115     1
  16110  16123     1
  16111  16121     1
  16112  16114     1
  16112  16123     1
  16113  16118     1
  16113  16114     1
  16113  16116     1
  16113  16128     1
  16113  16115     1
  16113  16123     1
  16114  16119     1
  16114  16117     1
  16114  16121     1
  16115  16117     1
  16124  16128     1
  16124  16127     1
  16125  16128     1
  16125  16127     1
  16129  16137     1
  16129  16145     1
  16129  16150     1
  16129  16138     1
  16130  16136     1
  16130  16144     1
  16130  16147     1
  16130  16148     1
  16131  16133     1
  16131  16142     1
  16131  16132     1
  16131  16149     1
  16131  16147     1
  16131  16148     1
  16131  16135     1
  16132  16134     1
  16132  16141     1
  16132  16137     1
  16132  16145     1
  16132  16143     1
  16132  16151     1
  16133  16138     1
  16133  16146     1
  16133  16145     1
  16134  16144     1
  16135  16146     1
  16135  16137     1
  16136  16139     1
  16136  16151     1
  16136  16138     1
  16136  16146     1
  16136  16141     1
  16136  16137     1
  16137  16140     1
  16137  16144     1
  16137  16142     1
  16138  16140     1
  16147  16150     1
  16147  16151     1
  16148  16150     1
  16148  16151     1
  16152  16160     1
  16152  16168     1
  16152  16173     1
  16152  16161     1
  16153  16170     1
  16153  16171     1
  16153  16159     1
  16153  16167     1
  16154  16156     1
  16154  16165     1
  16154  16155     1
  16154  16172     1
  16154  16170     1
  16154  16171     1
  16154  16158     1
  16155  16166     1
  16155  16174     1
  16155  16157     1
  16155  16164     1
  16155  16160     1
  16155  16168     1
  16156  16168     1
  16156  16161     1
  16156  16169     1
  16157  16167     1
  16158  16160     1
  16158  16169     1
  16159  16164     1
  16159  16160     1
  16159  16162     1
  16159  16174     1
  16159  16161     1
  16159  16169     1
  16160  16165     1
  16160  16163     1
  16160  16167     1
  16161  16163     1
  16170  16174     1
  16170  16173     1
  16171  16174     1
  16171  16173     1
  16175  16183     1
  16175  16191     1
  16175  16196     1
  16175  16184     1
  16176  16182     1
  16176  16190     1
  16176  16193     1
  16176  16194     1
  16177  16179     1
  16177  16188     1
  16177  16178     1
  16177  16195     1
  16177  16193     1
  16177  16194     1
  16177  16181     1
  16178  16180     1
  16178  16187     1
  16178  16183     1
  16178  16191     1
  16178  16189     1
  16178  16197     1
  16179  16184     1
  16179  16192     1
  16179  16191     1
  16180  16190     1
  16181  16192     1
  16181  16183     1
  16182  16185     1
  16182  16197     1
  16182  16184     1
  16182  16192     1
  16182  16187     1
  16182  16183     1
  16183  16186     1
  16183  16190     1
  16183  16188     1
  16184  16186     1
  16193  16196     1
  16193  16197     1
  16194  16196     1
  16194  16197     1
  16198  16206     1
  16198  16214     1
  16198  16219     1
  16198  16207     1
  16199  16216     1
  16199  16217     1
  16199  16205     1
  16199  16213     1
  16200  16202     1
  16200  16211     1
  16200  16201     1
  16200  16218     1
  16200  16216     1
  16200  16217     1
  16200  16204     1
  16201  16212     1
  16201  16220     1
  16201  16203     1
  16201  16210     1
  16201  16206     1
  16201  16214     1
  16202  16214     1
  16202  16207     1
  16202  16215     1
  16203  16213     1
  16204  16206     1
  16204  16215     1
  16205  16210     1
  16205  16206     1
  16205  16208     1
  16205  16220     1
  16205  16207     1
  16205  16215     1
  16206  16211     1
  16206  16209     1
  16206  16213     1
  16207  16209     1
  16216  16220     1
  16216  16219     1
  16217  16220     1
  16217  16219     1
  16221  16229     1
  16221  16237     1
  16221  16242     1
  16221  16230     1
  16222  16228     1
  16222  16236     1
  16222  16239     1
  16222  16240     1
  16223  16225     1
  16223  16234     1
  16223  16224     1
  16223  16241     1
  16223  16239     1
  16223  16240     1
  16223  16227     1
  16224  16226     1
  16224  16233     1
  16224  16229     1
  16224  16237     1
  16224  16235     1
  16224  16243     1
  16225  16230     1
  16225  16238     1
  16225  16237     1
  16226  16236     1
  16227  16238     1
  16227  16229     1
  16228  16231     1
  16228  16243     1
  16228  16230     1
  16228  16238     1
  16228  16233     1
  16228  16229     1
  16229  16232     1
  16229  16236     1
  16229  16234     1
  16230  16232     1
  16239  16242     1
  16239  16243     1
  16240  16242     1
  16240  16243     1
  16244  16252     1
  16244  16260     1
  16244  16265     1
  16244  16253     1
  16245  16262     1
  16245  16263     1
  16245  16251     1
  16245  16259     1
  16246  16248     1
  16246  16257     1
  16246  16247     1
  16246  16264     1
  16246  16262     1
  16246  16263     1
  16246  16250     1
  16247  16258     1
  16247  16266     1
  16247  16249     1
  16247  16256     1
  16247  16252     1
  16247  16260     1
  16248  16260     1
  16248  16253     1
  16248  16261     1
  16249  16259     1
  16250  16252     1
  16250  16261     1
  16251  16256     1
  16251  16252     1
  16251  16254     1
  16251  16266     1
  16251  16253     1
  16251  16261     1
  16252  16257     1
  16252  16255     1
  16252  16259     1
  16253  16255     1
  16262  16266     1
  16262  16265     1
  16263  16266     1
  16263  16265     1
  16267  16275     1
  16267  16283     1
  16267  16288     1
  16267  16276     1
  16268  16274     1
  16268  16282     1
  16268  16285     1
  16268  16286     1
  16269  16271     1
  16269  16280     1
  16269  16270     1
  16269  16287     1
  16269  16285     1
  16269  16286     1
  16269  16273     1
  16270  16272     1
  16270  16279     1
  16270  16275     1
  16270  16283     1
  16270  16281     1
  16270  16289     1
  16271  16276     1
  16271  16284     1
  16271  16283     1
  16272  16282     1
  16273  16284     1
  16273  16275     1
  16274  16277     1
  16274  16289     1
  16274  16276     1
  16274  16284     1
  16274  16279     1
  16274  16275     1
  16275  16278     1
  16275  16282     1
  16275  16280     1
  16276  16278     1
  16285  16288     1
  16285  16289     1
  16286  16288     1
  16286  16289     1
  16290  16298     1
  16290  16306     1
  16290  16311     1
  16290  16299     1
  16291  16308     1
  16291  16309     1
  16291  16297     1
  16291  16305     1
  16292  16294     1
  16292  16303     1
  16292  16293     1
  16292  16310     1
  16292  16308     1
  16292  16309     1
  16292  16296     1
  16293  16304     1
  16293  16312     1
  16293  16295     1
  16293  16302     1
  16293  16298     1
  16293  16306     1
  16294  16306     1
  16294  16299     1
  16294  16307     1
  16295  16305     1
  16296  16298     1
  16296  16307     1
  16297  16302     1
  16297  16298     1
  16297  16300     1
  16297  16312     1
  16297  16299     1
  16297  16307     1
  16298  16303     1
  16298  16301     1
  16298  16305     1
  16299  16301     1
  16308  16312     1
  16308  16311     1
  16309  16312     1
  16309  16311     1
  16313  16321     1
  16313  16329     1
  16313  16334     1
  16313  16322     1
  16314  16320     1
  16314  16328     1
  16314  16331     1
  16314  16332     1
  16315  16317     1
  16315  16326     1
  16315  16316     1
  16315  16333     1
  16315  16331     1
  16315  16332     1
  16315  16319     1
  16316  16318     1
  16316  16325     1
  16316  16321     1
  16316  16329     1
  16316  16327     1
  16316  16335     1
  16317  16322     1
  16317  16330     1
  16317  16329     1
  16318  16328     1
  16319  16330     1
  16319  16321     1
  16320  16323     1
  16320  16335     1
  16320  16322     1
  16320  16330     1
  16320  16325     1
  16320  16321     1
  16321  16324     1
  16321  16328     1
  16321  16326     1
  16322  16324     1
  16331  16334     1
  16331  16335     1
  16332  16334     1
  16332  16335     1
  16336  16344     1
  16336  16352     1
  16336  16357     1
  16336  16345     1
  16337  16354     1
  16337  16355     1
  16337  16343     1
  16337  16351     1
  16338  16340     1
  16338  16349     1
  16338  16339     1
  16338  16356     1
  16338  16354     1
  16338  16355     1
  16338  16342     1
  16339  16350     1
  16339  16358     1
  16339  16341     1
  16339  16348     1
  16339  16344     1
  16339  16352     1
  16340  16352     1
  16340  16345     1
  16340  16353     1
  16341  16351     1
  16342  16344     1
  16342  16353     1
  16343  16348     1
  16343  16344     1
  16343  16346     1
  16343  16358     1
  16343  16345     1
  16343  16353     1
  16344  16349     1
  16344  16347     1
  16344  16351     1
  16345  16347     1
  16354  16358     1
  16354  16357     1
  16355  16358     1
  16355  16357     1
  16359  16367     1
  16359  16375     1
  16359  16380     1
  16359  16368     1
  16360  16366     1
  16360  16374     1
  16360  16377     1
  16360  16378     1
  16361  16363     1
  16361  16372     1
  16361  16362     1
  16361  16379     1
  16361  16377     1
  16361  16378     1
  16361  16365     1
  16362  16364     1
  16362  16371     1
  16362  16367     1
  16362  16375     1
  16362  16373     1
  16362  16381     1
  16363  16368     1
  16363  16376     1
  16363  16375     1
  16364  16374     1
  16365  16376     1
  16365  16367     1
  16366  16369     1
  16366  16381     1
  16366  16368     1
  16366  16376     1
  16366  16371     1
  16366  16367     1
  16367  16370     1
  16367  16374     1
  16367  16372     1
  16368  16370     1
  16377  16380     1
  16377  16381     1
  16378  16380     1
  16378  16381     1
  16382  16390     1
  16382  16398     1
  16382  16403     1
  16382  16391     1
  16383  16400     1
  16383  16401     1
  16383  16389     1
  16383  16397     1
  16384  16386     1
  16384  16395     1
  16384  16385     1
  16384  16402     1
  16384  16400     1
  16384  16401     1
  16384  16388     1
  16385  16396     1
  16385  16404     1
  16385  16387     1
  16385  16394     1
  16385  16390     1
  16385  16398     1
  16386  16398     1
  16386  16391     1
  16386  16399     1
  16387  16397     1
  16388  16390     1
  16388  16399     1
  16389  16394     1
  16389  16390     1
  16389  16392     1
  16389  16404     1
  16389  16391     1
  16389  16399     1
  16390  16395     1
  16390  16393     1
  16390  16397     1
  16391  16393     1
  16400  16404     1
  16400  16403     1
  16401  16404     1
  16401  16403     1
  16405  16413     1
  16405  16421     1
  16405  16426     1
  16405  16414     1
  16406  16412     1
  16406  16420     1
  16406  16423     1
  16406  16424     1
  16407  16409     1
  16407  16418     1
  16407  16408     1
  16407  16425     1
  16407  16423     1
  16407  16424     1
  16407  16411     1
  16408  16410     1
  16408  16417     1
  16408  16413     1
  16408  16421     1
  16408  16419     1
  16408  16427     1
  16409  16414     1
  16409  16422     1
  16409  16421     1
  16410  16420     1
  16411  16422     1
  16411  16413     1
  16412  16415     1
  16412  16427     1
  16412  16414     1
  16412  16422     1
  16412  16417     1
  16412  16413     1
  16413  16416     1
  16413  16420     1
  16413  16418     1
  16414  16416     1
  16423  16426     1
  16423  16427     1
  16424  16426     1
  16424  16427     1
  16428  16436     1
  16428  16444     1
  16428  16449     1
  16428  16437     1
  16429  16446     1
  16429  16447     1
  16429  16435     1
  16429  16443     1
  16430  16432     1
  16430  16441     1
  16430  16431     1
  16430  16448     1
  16430  16446     1
  16430  16447     1
  16430  16434     1
  16431  16442     1
  16431  16450     1
  16431  16433     1
  16431  16440     1
  16431  16436     1
  16431  16444     1
  16432  16444     1
  16432  16437     1
  16432  16445     1
  16433  16443     1
  16434  16436     1
  16434  16445     1
  16435  16440     1
  16435  16436     1
  16435  16438     1
  16435  16450     1
  16435  16437     1
  16435  16445     1
  16436  16441     1
  16436  16439     1
  16436  16443     1
  16437  16439     1
  16446  16450     1
  16446  16449     1
  16447  16450     1
  16447  16449     1
  16451  16459     1
  16451  16467     1
  16451  16472     1
  16451  16460     1
  16452  16458     1
  16452  16466     1
  16452  16469     1
  16452  16470     1
  16453  16455     1
  16453  16464     1
  16453  16454     1
  16453  16471     1
  16453  16469     1
  16453  16470     1
  16453  16457     1
  16454  16456     1
  16454  16463     1
  16454  16459     1
  16454  16467     1
  16454  16465     1
  16454  16473     1
  16455  16460     1
  16455  16468     1
  16455  16467     1
  16456  16466     1
  16457  16468     1
  16457  16459     1
  16458  16461     1
  16458  16473     1
  16458  16460     1
  16458  16468     1
  16458  16463     1
  16458  16459     1
  16459  16462     1
  16459  16466     1
  16459  16464     1
  16460  16462     1
  16469  16472     1
  16469  16473     1
  16470  16472     1
  16470  16473     1
  16474  16482     1
  16474  16490     1
  16474  16495     1
  16474  16483     1
  16475  16492     1
  16475  16493     1
  16475  16481     1
  16475  16489     1
  16476  16478     1
  16476  16487     1
  16476  16477     1
  16476  16494     1
  16476  16492     1
  16476  16493     1
  16476  16480     1
  16477  16488     1
  16477  16496     1
  16477  16479     1
  16477  16486     1
  16477  16482     1
  16477  16490     1
  16478  16490     1
  16478  16483     1
  16478  16491     1
  16479  16489     1
  16480  16482     1
  16480  16491     1
  16481  16486     1
  16481  16482     1
  16481  16484     1
  16481  16496     1
  16481  16483     1
  16481  16491     1
  16482  16487     1
  16482  16485     1
  16482  16489     1
  16483  16485     1
  16492  16496     1
  16492  16495     1
  16493  16496     1
  16493  16495     1
  16497  16505     1
  16497  16513     1
  16497  16518     1
  16497  16506     1
  16498  16504     1
  16498  16512     1
  16498  16515     1
  16498  16516     1
  16499  16501     1
  16499  16510     1
  16499  16500     1
  16499  16517     1
  16499  16515     1
  16499  16516     1
  16499  16503     1
  16500  16502     1
  16500  16509     1
  16500  16505     1
  16500  16513     1
  16500  16511     1
  16500  16519     1
  16501  16506     1
  16501  16514     1
  16501  16513     1
  16502  16512     1
  16503  16514     1
  16503  16505     1
  16504  16507     1
  16504  16519     1
  16504  16506     1
  16504  16514     1
  16504  16509     1
  16504  16505     1
  16505  16508     1
  16505  16512     1
  16505  16510     1
  16506  16508     1
  16515  16518     1
  16515  16519     1
  16516  16518     1
  16516  16519     1
  16520  16528     1
  16520  16536     1
  16520  16541     1
  16520  16529     1
  16521  16538     1
  16521  16539     1
  16521  16527     1
  16521  16535     1
  16522  16524     1
  16522  16533     1
  16522  16523     1
  16522  16540     1
  16522  16538     1
  16522  16539     1
  16522  16526     1
  16523  16534     1
  16523  16542     1
  16523  16525     1
  16523  16532     1
  16523  16528     1
  16523  16536     1
  16524  16536     1
  16524  16529     1
  16524  16537     1
  16525  16535     1
  16526  16528     1
  16526  16537     1
  16527  16532     1
  16527  16528     1
  16527  16530     1
  16527  16542     1
  16527  16529     1
  16527  16537     1
  16528  16533     1
  16528  16531     1
  16528  16535     1
  16529  16531     1
  16538  16542     1
  16538  16541     1
  16539  16542     1
  16539  16541     1
  16543  16551     1
  16543  16559     1
  16543  16564     1
  16543  16552     1
  16544  16550     1
  16544  16558     1
  16544  16561     1
  16544  16562     1
  16545  16547     1
  16545  16556     1
  16545  16546     1
  16545  16563     1
  16545  16561     1
  16545  16562     1
  16545  16549     1
  16546  16548     1
  16546  16555     1
  16546  16551     1
  16546  16559     1
  16546  16557     1
  16546  16565     1
  16547  16552     1
  16547  16560     1
  16547  16559     1
  16548  16558     1
  16549  16560     1
  16549  16551     1
  16550  16553     1
  16550  16565     1
  16550  16552     1
  16550  16560     1
  16550  16555     1
  16550  16551     1
  16551  16554     1
  16551  16558     1
  16551  16556     1
  16552  16554     1
  16561  16564     1
  16561  16565     1
  16562  16564     1
  16562  16565     1
  16566  16574     1
  16566  16582     1
  16566  16587     1
  16566  16575     1
  16567  16584     1
  16567  16585     1
  16567  16573     1
  16567  16581     1
  16568  16570     1
  16568  16579     1
  16568  16569     1
  16568  16586     1
  16568  16584     1
  16568  16585     1
  16568  16572     1
  16569  16580     1
  16569  16588     1
  16569  16571     1
  16569  16578     1
  16569  16574     1
  16569  16582     1
  16570  16582     1
  16570  16575     1
  16570  16583     1
  16571  16581     1
  16572  16574     1
  16572  16583     1
  16573  16578     1
  16573  16574     1
  16573  16576     1
  16573  16588     1
  16573  16575     1
  16573  16583     1
  16574  16579     1
  16574  16577     1
  16574  16581     1
  16575  16577     1
  16584  16588     1
  16584  16587     1
  16585  16588     1
  16585  16587     1
  16589  16597     1
  16589  16605     1
  16589  16610     1
  16589  16598     1
  16590  16596     1
  16590  16604     1
  16590  16607     1
  16590  16608     1
  16591  16593     1
  16591  16602     1
  16591  16592     1
  16591  16609     1
  16591  16607     1
  16591  16608     1
  16591  16595     1
  16592  16594     1
  16592  16601     1
  16592  16597     1
  16592  16605     1
  16592  16603     1
  16592  16611     1
  16593  16598     1
  16593  16606     1
  16593  16605     1
  16594  16604     1
  16595  16606     1
  16595  16597     1
  16596  16599     1
  16596  16611     1
  16596  16598     1
  16596  16606     1
  16596  16601     1
  16596  16597     1
  16597  16600     1
  16597  16604     1
  16597  16602     1
  16598  16600     1
  16607  16610     1
  16607  16611     1
  16608  16610     1
  16608  16611     1
  16612  16620     1
  16612  16628     1
  16612  16633     1
  16612  16621     1
  16613  16630     1
  16613  16631     1
  16613  16619     1
  16613  16627     1
  16614  16616     1
  16614  16625     1
  16614  16615     1
  16614  16632     1
  16614  16630     1
  16614  16631     1
  16614  16618     1
  16615  16626     1
  16615  16634     1
  16615  16617     1
  16615  16624     1
  16615  16620     1
  16615  16628     1
  16616  16628     1
  16616  16621     1
  16616  16629     1
  16617  16627     1
  16618  16620     1
  16618  16629     1
  16619  16624     1
  16619  16620     1
  16619  16622     1
  16619  16634     1
  16619  16621     1
  16619  16629     1
  16620  16625     1
  16620  16623     1
  16620  16627     1
  16621  16623     1
  16630  16634     1
  16630  16633     1
  16631  16634     1
  16631  16633     1
  16635  16643     1
  16635  16651     1
  16635  16656     1
  16635  16644     1
  16636  16642     1
  16636  16650     1
  16636  16653     1
  16636  16654     1
  16637  16639     1
  16637  16648     1
  16637  16638     1
  16637  16655     1
  16637  16653     1
  16637  16654     1
  16637  16641     1
  16638  16640     1
  16638  16647     1
  16638  16643     1
  16638  16651     1
  16638  16649     1
  16638  16657     1
  16639  16644     1
  16639  16652     1
  16639  16651     1
  16640  16650     1
  16641  16652     1
  16641  16643     1
  16642  16645     1
  16642  16657     1
  16642  16644     1
  16642  16652     1
  16642  16647     1
  16642  16643     1
  16643  16646     1
  16643  16650     1
  16643  16648     1
  16644  16646     1
  16653  16656     1
  16653  16657     1
  16654  16656     1
  16654  16657     1
  16658  16666     1
  16658  16674     1
  16658  16679     1
  16658  16667     1
  16659  16676     1
  16659  16677     1
  16659  16665     1
  16659  16673     1
  16660  16662     1
  16660  16671     1
  16660  16661     1
  16660  16678     1
  16660  16676     1
  16660  16677     1
  16660  16664     1
  16661  16672     1
  16661  16680     1
  16661  16663     1
  16661  16670     1
  16661  16666     1
  16661  16674     1
  16662  16674     1
  16662  16667     1
  16662  16675     1
  16663  16673     1
  16664  16666     1
  16664  16675     1
  16665  16670     1
  16665  16666     1
  16665  16668     1
  16665  16680     1
  16665  16667     1
  16665  16675     1
  16666  16671     1
  16666  16669     1
  16666  16673     1
  16667  16669     1
  16676  16680     1
  16676  16679     1
  16677  16680     1
  16677  16679     1
  16681  16689     1
  16681  16697     1
  16681  16702     1
  16681  16690     1
  16682  16688     1
  16682  16696     1
  16682  16699     1
  16682  16700     1
  16683  16685     1
  16683  16694     1
  16683  16684     1
  16683  16701     1
  16683  16699     1
  16683  16700     1
  16683  16687     1
  16684  16686     1
  16684  16693     1
  16684  16689     1
  16684  16697     1
  16684  16695     1
  16684  16703     1
  16685  16690     1
  16685  16698     1
  16685  16697     1
  16686  16696     1
  16687  16698     1
  16687  16689     1
  16688  16691     1
  16688  16703     1
  16688  16690     1
  16688  16698     1
  16688  16693     1
  16688  16689     1
  16689  16692     1
  16689  16696     1
  16689  16694     1
  16690  16692     1
  16699  16702     1
  16699  16703     1
  16700  16702     1
  16700  16703     1
  16704  16712     1
  16704  16720     1
  16704  16725     1
  16704  16713     1
  16705  16722     1
  16705  16723     1
  16705  16711     1
  16705  16719     1
  16706  16708     1
  16706  16717     1
  16706  16707     1
  16706  16724     1
  16706  16722     1
  16706  16723     1
  16706  16710     1
  16707  16718     1
  16707  16726     1
  16707  16709     1
  16707  16716     1
  16707  16712     1
  16707  16720     1
  16708  16720     1
  16708  16713     1
  16708  16721     1
  16709  16719     1
  16710  16712     1
  16710  16721     1
  16711  16716     1
  16711  16712     1
  16711  16714     1
  16711  16726     1
  16711  16713     1
  16711  16721     1
  16712  16717     1
  16712  16715     1
  16712  16719     1
  16713  16715     1
  16722  16726     1
  16722  16725     1
  16723  16726     1
  16723  16725     1
  16727  16735     1
  16727  16743     1
  16727  16748     1
  16727  16736     1
  16728  16734     1
  16728  16742     1
  16728  16745     1
  16728  16746     1
  16729  16731     1
  16729  16740     1
  16729  16730     1
  16729  16747     1
  16729  16745     1
  16729  16746     1
  16729  16733     1
  16730  16732     1
  16730  16739     1
  16730  16735     1
  16730  16743     1
  16730  16741     1
  16730  16749     1
  16731  16736     1
  16731  16744     1
  16731  16743     1
  16732  16742     1
  16733  16744     1
  16733  16735     1
  16734  16737     1
  16734  16749     1
  16734  16736     1
  16734  16744     1
  16734  16739     1
  16734  16735     1
  16735  16738     1
  16735  16742     1
  16735  16740     1
  16736  16738     1
  16745  16748     1
  16745  16749     1
  16746  16748     1
  16746  16749     1
  16750  16758     1
  16750  16766     1
  16750  16771     1
  16750  16759     1
  16751  16768     1
  16751  16769     1
  16751  16757     1
  16751  16765     1
  16752  16754     1
  16752  16763     1
  16752  16753     1
  16752  16770     1
  16752  16768     1
  16752  16769     1
  16752  16756     1
  16753  16764     1
  16753  16772     1
  16753  16755     1
  16753  16762     1
  16753  16758     1
  16753  16766     1
  16754  16766     1
  16754  16759     1
  16754  16767     1
  16755  16765     1
  16756  16758     1
  16756  16767     1
  16757  16762     1
  16757  16758     1
  16757  16760     1
  16757  16772     1
  16757  16759     1
  16757  16767     1
  16758  16763     1
  16758  16761     1
  16758  16765     1
  16759  16761     1
  16768  16772     1
  16768  16771     1
  16769  16772     1
  16769  16771     1
  16773  16781     1
  16773  16789     1
  16773  16794     1
  16773  16782     1
  16774  16780     1
  16774  16788     1
  16774  16791     1
  16774  16792     1
  16775  16777     1
  16775  16786     1
  16775  16776     1
  16775  16793     1
  16775  16791     1
  16775  16792     1
  16775  16779     1
  16776  16778     1
  16776  16785     1
  16776  16781     1
  16776  16789     1
  16776  16787     1
  16776  16795     1
  16777  16782     1
  16777  16790     1
  16777  16789     1
  16778  16788     1
  16779  16790     1
  16779  16781     1
  16780  16783     1
  16780  16795     1
  16780  16782     1
  16780  16790     1
  16780  16785     1
  16780  16781     1
  16781  16784     1
  16781  16788     1
  16781  16786     1
  16782  16784     1
  16791  16794     1
  16791  16795     1
  16792  16794     1
  16792  16795     1
  16796  16804     1
  16796  16812     1
  16796  16817     1
  16796  16805     1
  16797  16814     1
  16797  16815     1
  16797  16803     1
  16797  16811     1
  16798  16800     1
  16798  16809     1
  16798  16799     1
  16798  16816     1
  16798  16814     1
  16798  16815     1
  16798  16802     1
  16799  16810     1
  16799  16818     1
  16799  16801     1
  16799  16808     1
  16799  16804     1
  16799  16812     1
  16800  16812     1
  16800  16805     1
  16800  16813     1
  16801  16811     1
  16802  16804     1
  16802  16813     1
  16803  16808     1
  16803  16804     1
  16803  16806     1
  16803  16818     1
  16803  16805     1
  16803  16813     1
  16804  16809     1
  16804  16807     1
  16804  16811     1
  16805  16807     1
  16814  16818     1
  16814  16817     1
  16815  16818     1
  16815  16817     1
  16819  16827     1
  16819  16835     1
  16819  16840     1
  16819  16828     1
  16820  16826     1
  16820  16834     1
  16820  16837     1
  16820  16838     1
  16821  16823     1
  16821  16832     1
  16821  16822     1
  16821  16839     1
  16821  16837     1
  16821  16838     1
  16821  16825     1
  16822  16824     1
  16822  16831     1
  16822  16827     1
  16822  16835     1
  16822  16833     1
  16822  16841     1
  16823  16828     1
  16823  16836     1
  16823  16835     1
  16824  16834     1
  16825  16836     1
  16825  16827     1
  16826  16829     1
  16826  16841     1
  16826  16828     1
  16826  16836     1
  16826  16831     1
  16826  16827     1
  16827  16830     1
  16827  16834     1
  16827  16832     1
  16828  16830     1
  16837  16840     1
  16837  16841     1
  16838  16840     1
  16838  16841     1
  16842  16850     1
  16842  16858     1
  16842  16863     1
  16842  16851     1
  16843  16860     1
  16843  16861     1
  16843  16849     1
  16843  16857     1
  16844  16846     1
  16844  16855     1
  16844  16845     1
  16844  16862     1
  16844  16860     1
  16844  16861     1
  16844  16848     1
  16845  16856     1
  16845  16864     1
  16845  16847     1
  16845  16854     1
  16845  16850     1
  16845  16858     1
  16846  16858     1
  16846  16851     1
  16846  16859     1
  16847  16857     1
  16848  16850     1
  16848  16859     1
  16849  16854     1
  16849  16850     1
  16849  16852     1
  16849  16864     1
  16849  16851     1
  16849  16859     1
  16850  16855     1
  16850  16853     1
  16850  16857     1
  16851  16853     1
  16860  16864     1
  16860  16863     1
  16861  16864     1
  16861  16863     1
  16865  16873     1
  16865  16881     1
  16865  16886     1
  16865  16874     1
  16866  16872     1
  16866  16880     1
  16866  16883     1
  16866  16884     1
  16867  16869     1
  16867  16878     1
  16867  16868     1
  16867  16885     1
  16867  16883     1
  16867  16884     1
  16867  16871     1
  16868  16870     1
  16868  16877     1
  16868  16873     1
  16868  16881     1
  16868  16879     1
  16868  16887     1
  16869  16874     1
  16869  16882     1
  16869  16881     1
  16870  16880     1
  16871  16882     1
  16871  16873     1
  16872  16875     1
  16872  16887     1
  16872  16874     1
  16872  16882     1
  16872  16877     1
  16872  16873     1
  16873  16876     1
  16873  16880     1
  16873  16878     1
  16874  16876     1
  16883  16886     1
  16883  16887     1
  16884  16886     1
  16884  16887     1
  16888  16896     1
  16888  16904     1
  16888  16909     1
  16888  16897     1
  16889  16906     1
  16889  16907     1
  16889  16895     1
  16889  16903     1
  16890  16892     1
  16890  16901     1
  16890  16891     1
  16890  16908     1
  16890  16906     1
  16890  16907     1
  16890  16894     1
  16891  16902     1
  16891  16910     1
  16891  16893     1
  16891  16900     1
  16891  16896     1
  16891  16904     1
  16892  16904     1
  16892  16897     1
  16892  16905     1
  16893  16903     1
  16894  16896     1
  16894  16905     1
  16895  16900     1
  16895  16896     1
  16895  16898     1
  16895  16910     1
  16895  16897     1
  16895  16905     1
  16896  16901     1
  16896  16899     1
  16896  16903     1
  16897  16899     1
  16906  16910     1
  16906  16909     1
  16907  16910     1
  16907  16909     1
  16911  16919     1
  16911  16927     1
  16911  16932     1
  16911  16920     1
  16912  16918     1
  16912  16926     1
  16912  16929     1
  16912  16930     1
  16913  16915     1
  16913  16924     1
  16913  16914     1
  16913  16931     1
  16913  16929     1
  16913  16930     1
  16913  16917     1
  16914  16916     1
  16914  16923     1
  16914  16919     1
  16914  16927     1
  16914  16925     1
  16914  16933     1
  16915  16920     1
  16915  16928     1
  16915  16927     1
  16916  16926     1
  16917  16928     1
  16917  16919     1
  16918  16921     1
  16918  16933     1
  16918  16920     1
  16918  16928     1
  16918  16923     1
  16918  16919     1
  16919  16922     1
  16919  16926     1
  16919  16924     1
  16920  16922     1
  16929  16932     1
  16929  16933     1
  16930  16932     1
  16930  16933     1
  16934  16942     1
  16934  16950     1
  16934  16955     1
  16934  16943     1
  16935  16952     1
  16935  16953     1
  16935  16941     1
  16935  16949     1
  16936  16938     1
  16936  16947     1
  16936  16937     1
  16936  16954     1
  16936  16952     1
  16936  16953     1
  16936  16940     1
  16937  16948     1
  16937  16956     1
  16937  16939     1
  16937  16946     1
  16937  16942     1
  16937  16950     1
  16938  16950     1
  16938  16943     1
  16938  16951     1
  16939  16949     1
  16940  16942     1
  16940  16951     1
  16941  16946     1
  16941  16942     1
  16941  16944     1
  16941  16956     1
  16941  16943     1
  16941  16951     1
  16942  16947     1
  16942  16945     1
  16942  16949     1
  16943  16945     1
  16952  16956     1
  16952  16955     1
  16953  16956     1
  16953  16955     1
  16957  16965     1
  16957  16973     1
  16957  16978     1
  16957  16966     1
  16958  16964     1
  16958  16972     1
  16958  16975     1
  16958  16976     1
  16959  16961     1
  16959  16970     1
  16959  16960     1
  16959  16977     1
  16959  16975     1
  16959  16976     1
  16959  16963     1
  16960  16962     1
  16960  16969     1
  16960  16965     1
  16960  16973     1
  16960  16971     1
  16960  16979     1
  16961  16966     1
  16961  16974     1
  16961  16973     1
  16962  16972     1
  16963  16974     1
  16963  16965     1
  16964  16967     1
  16964  16979     1
  16964  16966     1
  16964  16974     1
  16964  16969     1
  16964  16965     1
  16965  16968     1
  16965  16972     1
  16965  16970     1
  16966  16968     1
  16975  16978     1
  16975  16979     1
  16976  16978     1
  16976  16979     1
  16980  16988     1
  16980  16996     1
  16980  17001     1
  16980  16989     1
  16981  16998     1
  16981  16999     1
  16981  16987     1
  16981  16995     1
  16982  16984     1
  16982  16993     1
  16982  16983     1
  16982  17000     1
  16982  16998     1
  16982  16999     1
  16982  16986     1
  16983  16994     1
  16983  17002     1
  16983  16985     1
  16983  16992     1
  16983  16988     1
  16983  16996     1
  16984  16996     1
  16984  16989     1
  16984  16997     1
  16985  16995     1
  16986  16988     1
  16986  16997     1
  16987  16992     1
  16987  16988     1
  16987  16990     1
  16987  17002     1
  16987  16989     1
  16987  16997     1
  16988  16993     1
  16988  16991     1
  16988  16995     1
  16989  16991     1
  16998  17002     1
  16998  17001     1
  16999  17002     1
  16999  17001     1
  17003  17011     1
  17003  17019     1
  17003  17024     1
  17003  17012     1
  17004  17010     1
  17004  17018     1
  17004  17021     1
  17004  17022     1
  17005  17007     1
  17005  17016     1
  17005  17006     1
  17005  17023     1
  17005  17021     1
  17005  17022     1
  17005  17009     1
  17006  17008     1
  17006  17015     1
  17006  17011     1
  17006  17019     1
  17006  17017     1
  17006  17025     1
  17007  17012     1
  17007  17020     1
  17007  17019     1
  17008  17018     1
  17009  17020     1
  17009  17011     1
  17010  17013     1
  17010  17025     1
  17010  17012     1
  17010  17020     1
  17010  17015     1
  17010  17011     1
  17011  17014     1
  17011  17018     1
  17011  17016     1
  17012  17014     1
  17021  17024     1
  17021  17025     1
  17022  17024     1
  17022  17025     1
  17026  17034     1
  17026  17042     1
  17026  17047     1
  17026  17035     1
  17027  17044     1
  17027  17045     1
  17027  17033     1
  17027  17041     1
  17028  17030     1
  17028  17039     1
  17028  17029     1
  17028  17046     1
  17028  17044     1
  17028  17045     1
  17028  17032     1
  17029  17040     1
  17029  17048     1
  17029  17031     1
  17029  17038     1
  17029  17034     1
  17029  17042     1
  17030  17042     1
  17030  17035     1
  17030  17043     1
  17031  17041     1
  17032  17034     1
  17032  17043     1
  17033  17038     1
  17033  17034     1
  17033  17036     1
  17033  17048     1
  17033  17035     1
  17033  17043     1
  17034  17039     1
  17034  17037     1
  17034  17041     1
  17035  17037     1
  17044  17048     1
  17044  17047     1
  17045  17048     1
  17045  17047     1
  17049  17057     1
  17049  17065     1
  17049  17070     1
  17049  17058     1
  17050  17056     1
  17050  17064     1
  17050  17067     1
  17050  17068     1
  17051  17053     1
  17051  17062     1
  17051  17052     1
  17051  17069     1
  17051  17067     1
  17051  17068     1
  17051  17055     1
  17052  17054     1
  17052  17061     1
  17052  17057     1
  17052  17065     1
  17052  17063     1
  17052  17071     1
  17053  17058     1
  17053  17066     1
  17053  17065     1
  17054  17064     1
  17055  17066     1
  17055  17057     1
  17056  17059     1
  17056  17071     1
  17056  17058     1
  17056  17066     1
  17056  17061     1
  17056  17057     1
  17057  17060     1
  17057  17064     1
  17057  17062     1
  17058  17060     1
  17067  17070     1
  17067  17071     1
  17068  17070     1
  17068  17071     1
  17072  17080     1
  17072  17088     1
  17072  17093     1
  17072  17081     1
  17073  17090     1
  17073  17091     1
  17073  17079     1
  17073  17087     1
  17074  17076     1
  17074  17085     1
  17074  17075     1
  17074  17092     1
  17074  17090     1
  17074  17091     1
  17074  17078     1
  17075  17086     1
  17075  17094     1
  17075  17077     1
  17075  17084     1
  17075  17080     1
  17075  17088     1
  17076  17088     1
  17076  17081     1
  17076  17089     1
  17077  17087     1
  17078  17080     1
  17078  17089     1
  17079  17084     1
  17079  17080     1
  17079  17082     1
  17079  17094     1
  17079  17081     1
  17079  17089     1
  17080  17085     1
  17080  17083     1
  17080  17087     1
  17081  17083     1
  17090  17094     1
  17090  17093     1
  17091  17094     1
  17091  17093     1
  17095  17103     1
  17095  17111     1
  17095  17116     1
  17095  17104     1
  17096  17102     1
  17096  17110     1
  17096  17113     1
  17096  17114     1
  17097  17099     1
  17097  17108     1
  17097  17098     1
  17097  17115     1
  17097  17113     1
  17097  17114     1
  17097  17101     1
  17098  17100     1
  17098  17107     1
  17098  17103     1
  17098  17111     1
  17098  17109     1
  17098  17117     1
  17099  17104     1
  17099  17112     1
  17099  17111     1
  17100  17110     1
  17101  17112     1
  17101  17103     1
  17102  17105     1
  17102  17117     1
  17102  17104     1
  17102  17112     1
  17102  17107     1
  17102  17103     1
  17103  17106     1
  17103  17110     1
  17103  17108     1
  17104  17106     1
  17113  17116     1
  17113  17117     1
  17114  17116     1
  17114  17117     1
  17118  17126     1
  17118  17134     1
  17118  17139     1
  17118  17127     1
  17119  17136     1
  17119  17137     1
  17119  17125     1
  17119  17133     1
  17120  17122     1
  17120  17131     1
  17120  17121     1
  17120  17138     1
  17120  17136     1
  17120  17137     1
  17120  17124     1
  17121  17132     1
  17121  17140     1
  17121  17123     1
  17121  17130     1
  17121  17126     1
  17121  17134     1
  17122  17134     1
  17122  17127     1
  17122  17135     1
  17123  17133     1
  17124  17126     1
  17124  17135     1
  17125  17130     1
  17125  17126     1
  17125  17128     1
  17125  17140     1
  17125  17127     1
  17125  17135     1
  17126  17131     1
  17126  17129     1
  17126  17133     1
  17127  17129     1
  17136  17140     1
  17136  17139     1
  17137  17140     1
  17137  17139     1
  17141  17149     1
  17141  17157     1
  17141  17162     1
  17141  17150     1
  17142  17148     1
  17142  17156     1
  17142  17159     1
  17142  17160     1
  17143  17145     1
  17143  17154     1
  17143  17144     1
  17143  17161     1
  17143  17159     1
  17143  17160     1
  17143  17147     1
  17144  17146     1
  17144  17153     1
  17144  17149     1
  17144  17157     1
  17144  17155     1
  17144  17163     1
  17145  17150     1
  17145  17158     1
  17145  17157     1
  17146  17156     1
  17147  17158     1
  17147  17149     1
  17148  17151     1
  17148  17163     1
  17148  17150     1
  17148  17158     1
  17148  17153     1
  17148  17149     1
  17149  17152     1
  17149  17156     1
  17149  17154     1
  17150  17152     1
  17159  17162     1
  17159  17163     1
  17160  17162     1
  17160  17163     1
  17164  17172     1
  17164  17180     1
  17164  17185     1
  17164  17173     1
  17165  17182     1
  17165  17183     1
  17165  17171     1
  17165  17179     1
  17166  17168     1
  17166  17177     1
  17166  17167     1
  17166  17184     1
  17166  17182     1
  17166  17183     1
  17166  17170     1
  17167  17178     1
  17167  17186     1
  17167  17169     1
  17167  17176     1
  17167  17172     1
  17167  17180     1
  17168  17180     1
  17168  17173     1
  17168  17181     1
  17169  17179     1
  17170  17172     1
  17170  17181     1
  17171  17176     1
  17171  17172     1
  17171  17174     1
  17171  17186     1
  17171  17173     1
  17171  17181     1
  17172  17177     1
  17172  17175     1
  17172  17179     1
  17173  17175     1
  17182  17186     1
  17182  17185     1
  17183  17186     1
  17183  17185     1
  17187  17195     1
  17187  17203     1
  17187  17208     1
  17187  17196     1
  17188  17194     1
  17188  17202     1
  17188  17205     1
  17188  17206     1
  17189  17191     1
  17189  17200     1
  17189  17190     1
  17189  17207     1
  17189  17205     1
  17189  17206     1
  17189  17193     1
  17190  17192     1
  17190  17199     1
  17190  17195     1
  17190  17203     1
  17190  17201     1
  17190  17209     1
  17191  17196     1
  17191  17204     1
  17191  17203     1
  17192  17202     1
  17193  17204     1
  17193  17195     1
  17194  17197     1
  17194  17209     1
  17194  17196     1
  17194  17204     1
  17194  17199     1
  17194  17195     1
  17195  17198     1
  17195  17202     1
  17195  17200     1
  17196  17198     1
  17205  17208     1
  17205  17209     1
  17206  17208     1
  17206  17209     1
  17210  17218     1
  17210  17226     1
  17210  17231     1
  17210  17219     1
  17211  17228     1
  17211  17229     1
  17211  17217     1
  17211  17225     1
  17212  17214     1
  17212  17223     1
  17212  17213     1
  17212  17230     1
  17212  17228     1
  17212  17229     1
  17212  17216     1
  17213  17224     1
  17213  17232     1
  17213  17215     1
  17213  17222     1
  17213  17218     1
  17213  17226     1
  17214  17226     1
  17214  17219     1
  17214  17227     1
  17215  17225     1
  17216  17218     1
  17216  17227     1
  17217  17222     1
  17217  17218     1
  17217  17220     1
  17217  17232     1
  17217  17219     1
  17217  17227     1
  17218  17223     1
  17218  17221     1
  17218  17225     1
  17219  17221     1
  17228  17232     1
  17228  17231     1
  17229  17232     1
  17229  17231     1
  17233  17241     1
  17233  17249     1
  17233  17254     1
  17233  17242     1
  17234  17240     1
  17234  17248     1
  17234  17251     1
  17234  17252     1
  17235  17237     1
  17235  17246     1
  17235  17236     1
  17235  17253     1
  17235  17251     1
  17235  17252     1
  17235  17239     1
  17236  17238     1
  17236  17245     1
  17236  17241     1
  17236  17249     1
  17236  17247     1
  17236  17255     1
  17237  17242     1
  17237  17250     1
  17237  17249     1
  17238  17248     1
  17239  17250     1
  17239  17241     1
  17240  17243     1
  17240  17255     1
  17240  17242     1
  17240  17250     1
  17240  17245     1
  17240  17241     1
  17241  17244     1
  17241  17248     1
  17241  17246     1
  17242  17244     1
  17251  17254     1
  17251  17255     1
  17252  17254     1
  17252  17255     1
  17256  17264     1
  17256  17272     1
  17256  17277     1
  17256  17265     1
  17257  17274     1
  17257  17275     1
  17257  17263     1
  17257  17271     1
  17258  17260     1
  17258  17269     1
  17258  17259     1
  17258  17276     1
  17258  17274     1
  17258  17275     1
  17258  17262     1
  17259  17270     1
  17259  17278     1
  17259  17261     1
  17259  17268     1
  17259  17264     1
  17259  17272     1
  17260  17272     1
  17260  17265     1
  17260  17273     1
  17261  17271     1
  17262  17264     1
  17262  17273     1
  17263  17268     1
  17263  17264     1
  17263  17266     1
  17263  17278     1
  17263  17265     1
  17263  17273     1
  17264  17269     1
  17264  17267     1
  17264  17271     1
  17265  17267     1
  17274  17278     1
  17274  17277     1
  17275  17278     1
  17275  17277     1
  17279  17287     1
  17279  17295     1
  17279  17300     1
  17279  17288     1
  17280  17286     1
  17280  17294     1
  17280  17297     1
  17280  17298     1
  17281  17283     1
  17281  17292     1
  17281  17282     1
  17281  17299     1
  17281  17297     1
  17281  17298     1
  17281  17285     1
  17282  17284     1
  17282  17291     1
  17282  17287     1
  17282  17295     1
  17282  17293     1
  17282  17301     1
  17283  17288     1
  17283  17296     1
  17283  17295     1
  17284  17294     1
  17285  17296     1
  17285  17287     1
  17286  17289     1
  17286  17301     1
  17286  17288     1
  17286  17296     1
  17286  17291     1
  17286  17287     1
  17287  17290     1
  17287  17294     1
  17287  17292     1
  17288  17290     1
  17297  17300     1
  17297  17301     1
  17298  17300     1
  17298  17301     1
  17302  17310     1
  17302  17318     1
  17302  17323     1
  17302  17311     1
  17303  17320     1
  17303  17321     1
  17303  17309     1
  17303  17317     1
  17304  17306     1
  17304  17315     1
  17304  17305     1
  17304  17322     1
  17304  17320     1
  17304  17321     1
  17304  17308     1
  17305  17316     1
  17305  17324     1
  17305  17307     1
  17305  17314     1
  17305  17310     1
  17305  17318     1
  17306  17318     1
  17306  17311     1
  17306  17319     1
  17307  17317     1
  17308  17310     1
  17308  17319     1
  17309  17314     1
  17309  17310     1
  17309  17312     1
  17309  17324     1
  17309  17311     1
  17309  17319     1
  17310  17315     1
  17310  17313     1
  17310  17317     1
  17311  17313     1
  17320  17324     1
  17320  17323     1
  17321  17324     1
  17321  17323     1
  17325  17333     1
  17325  17341     1
  17325  17346     1
  17325  17334     1
  17326  17332     1
  17326  17340     1
  17326  17343     1
  17326  17344     1
  17327  17329     1
  17327  17338     1
  17327  17328     1
  17327  17345     1
  17327  17343     1
  17327  17344     1
  17327  17331     1
  17328  17330     1
  17328  17337     1
  17328  17333     1
  17328  17341     1
  17328  17339     1
  17328  17347     1
  17329  17334     1
  17329  17342     1
  17329  17341     1
  17330  17340     1
  17331  17342     1
  17331  17333     1
  17332  17335     1
  17332  17347     1
  17332  17334     1
  17332  17342     1
  17332  17337     1
  17332  17333     1
  17333  17336     1
  17333  17340     1
  17333  17338     1
  17334  17336     1
  17343  17346     1
  17343  17347     1
  17344  17346     1
  17344  17347     1
  17348  17356     1
  17348  17364     1
  17348  17369     1
  17348  17357     1
  17349  17366     1
  17349  17367     1
  17349  17355     1
  17349  17363     1
  17350  17352     1
  17350  17361     1
  17350  17351     1
  17350  17368     1
  17350  17366     1
  17350  17367     1
  17350  17354     1
  17351  17362     1
  17351  17370     1
  17351  17353     1
  17351  17360     1
  17351  17356     1
  17351  17364     1
  17352  17364     1
  17352  17357     1
  17352  17365     1
  17353  17363     1
  17354  17356     1
  17354  17365     1
  17355  17360     1
  17355  17356     1
  17355  17358     1
  17355  17370     1
  17355  17357     1
  17355  17365     1
  17356  17361     1
  17356  17359     1
  17356  17363     1
  17357  17359     1
  17366  17370     1
  17366  17369     1
  17367  17370     1
  17367  17369     1
  17371  17379     1
  17371  17387     1
  17371  17392     1
  17371  17380     1
  17372  17378     1
  17372  17386     1
  17372  17389     1
  17372  17390     1
  17373  17375     1
  17373  17384     1
  17373  17374     1
  17373  17391     1
  17373  17389     1
  17373  17390     1
  17373  17377     1
  17374  17376     1
  17374  17383     1
  17374  17379     1
  17374  17387     1
  17374  17385     1
  17374  17393     1
  17375  17380     1
  17375  17388     1
  17375  17387     1
  17376  17386     1
  17377  17388     1
  17377  17379     1
  17378  17381     1
  17378  17393     1
  17378  17380     1
  17378  17388     1
  17378  17383     1
  17378  17379     1
  17379  17382     1
  17379  17386     1
  17379  17384     1
  17380  17382     1
  17389  17392     1
  17389  17393     1
  17390  17392     1
  17390  17393     1
  17394  17402     1
  17394  17410     1
  17394  17415     1
  17394  17403     1
  17395  17412     1
  17395  17413     1
  17395  17401     1
  17395  17409     1
  17396  17398     1
  17396  17407     1
  17396  17397     1
  17396  17414     1
  17396  17412     1
  17396  17413     1
  17396  17400     1
  17397  17408     1
  17397  17416     1
  17397  17399     1
  17397  17406     1
  17397  17402     1
  17397  17410     1
  17398  17410     1
  17398  17403     1
  17398  17411     1
  17399  17409     1
  17400  17402     1
  17400  17411     1
  17401  17406     1
  17401  17402     1
  17401  17404     1
  17401  17416     1
  17401  17403     1
  17401  17411     1
  17402  17407     1
  17402  17405     1
  17402  17409     1
  17403  17405     1
  17412  17416     1
  17412  17415     1
  17413  17416     1
  17413  17415     1
  17417  17425     1
  17417  17433     1
  17417  17438     1
  17417  17426     1
  17418  17424     1
  17418  17432     1
  17418  17435     1
  17418  17436     1
  17419  17421     1
  17419  17430     1
  17419  17420     1
  17419  17437     1
  17419  17435     1
  17419  17436     1
  17419  17423     1
  17420  17422     1
  17420  17429     1
  17420  17425     1
  17420  17433     1
  17420  17431     1
  17420  17439     1
  17421  17426     1
  17421  17434     1
  17421  17433     1
  17422  17432     1
  17423  17434     1
  17423  17425     1
  17424  17427     1
  17424  17439     1
  17424  17426     1
  17424  17434     1
  17424  17429     1
  17424  17425     1
  17425  17428     1
  17425  17432     1
  17425  17430     1
  17426  17428     1
  17435  17438     1
  17435  17439     1
  17436  17438     1
  17436  17439     1
  17440  17448     1
  17440  17456     1
  17440  17461     1
  17440  17449     1
  17441  17458     1
  17441  17459     1
  17441  17447     1
  17441  17455     1
  17442  17444     1
  17442  17453     1
  17442  17443     1
  17442  17460     1
  17442  17458     1
  17442  17459     1
  17442  17446     1
  17443  17454     1
  17443  17462     1
  17443  17445     1
  17443  17452     1
  17443  17448     1
  17443  17456     1
  17444  17456     1
  17444  17449     1
  17444  17457     1
  17445  17455     1
  17446  17448     1
  17446  17457     1
  17447  17452     1
  17447  17448     1
  17447  17450     1
  17447  17462     1
  17447  17449     1
  17447  17457     1
  17448  17453     1
  17448  17451     1
  17448  17455     1
  17449  17451     1
  17458  17462     1
  17458  17461     1
  17459  17462     1
  17459  17461     1
  17463  17471     1
  17463  17479     1
  17463  17484     1
  17463  17472     1
  17464  17470     1
  17464  17478     1
  17464  17481     1
  17464  17482     1
  17465  17467     1
  17465  17476     1
  17465  17466     1
  17465  17483     1
  17465  17481     1
  17465  17482     1
  17465  17469     1
  17466  17468     1
  17466  17475     1
  17466  17471     1
  17466  17479     1
  17466  17477     1
  17466  17485     1
  17467  17472     1
  17467  17480     1
  17467  17479     1
  17468  17478     1
  17469  17480     1
  17469  17471     1
  17470  17473     1
  17470  17485     1
  17470  17472     1
  17470  17480     1
  17470  17475     1
  17470  17471     1
  17471  17474     1
  17471  17478     1
  17471  17476     1
  17472  17474     1
  17481  17484     1
  17481  17485     1
  17482  17484     1
  17482  17485     1
  17486  17494     1
  17486  17502     1
  17486  17507     1
  17486  17495     1
  17487  17504     1
  17487  17505     1
  17487  17493     1
  17487  17501     1
  17488  17490     1
  17488  17499     1
  17488  17489     1
  17488  17506     1
  17488  17504     1
  17488  17505     1
  17488  17492     1
  17489  17500     1
  17489  17508     1
  17489  17491     1
  17489  17498     1
  17489  17494     1
  17489  17502     1
  17490  17502     1
  17490  17495     1
  17490  17503     1
  17491  17501     1
  17492  17494     1
  17492  17503     1
  17493  17498     1
  17493  17494     1
  17493  17496     1
  17493  17508     1
  17493  17495     1
  17493  17503     1
  17494  17499     1
  17494  17497     1
  17494  17501     1
  17495  17497     1
  17504  17508     1
  17504  17507     1
  17505  17508     1
  17505  17507     1
  17509  17517     1
  17509  17525     1
  17509  17530     1
  17509  17518     1
  17510  17516     1
  17510  17524     1
  17510  17527     1
  17510  17528     1
  17511  17513     1
  17511  17522     1
  17511  17512     1
  17511  17529     1
  17511  17527     1
  17511  17528     1
  17511  17515     1
  17512  17514     1
  17512  17521     1
  17512  17517     1
  17512  17525     1
  17512  17523     1
  17512  17531     1
  17513  17518     1
  17513  17526     1
  17513  17525     1
  17514  17524     1
  17515  17526     1
  17515  17517     1
  17516  17519     1
  17516  17531     1
  17516  17518     1
  17516  17526     1
  17516  17521     1
  17516  17517     1
  17517  17520     1
  17517  17524     1
  17517  17522     1
  17518  17520     1
  17527  17530     1
  17527  17531     1
  17528  17530     1
  17528  17531     1
  17532  17540     1
  17532  17548     1
  17532  17553     1
  17532  17541     1
  17533  17550     1
  17533  17551     1
  17533  17539     1
  17533  17547     1
  17534  17536     1
  17534  17545     1
  17534  17535     1
  17534  17552     1
  17534  17550     1
  17534  17551     1
  17534  17538     1
  17535  17546     1
  17535  17554     1
  17535  17537     1
  17535  17544     1
  17535  17540     1
  17535  17548     1
  17536  17548     1
  17536  17541     1
  17536  17549     1
  17537  17547     1
  17538  17540     1
  17538  17549     1
  17539  17544     1
  17539  17540     1
  17539  17542     1
  17539  17554     1
  17539  17541     1
  17539  17549     1
  17540  17545     1
  17540  17543     1
  17540  17547     1
  17541  17543     1
  17550  17554     1
  17550  17553     1
  17551  17554     1
  17551  17553     1
  17555  17563     1
  17555  17571     1
  17555  17576     1
  17555  17564     1
  17556  17562     1
  17556  17570     1
  17556  17573     1
  17556  17574     1
  17557  17559     1
  17557  17568     1
  17557  17558     1
  17557  17575     1
  17557  17573     1
  17557  17574     1
  17557  17561     1
  17558  17560     1
  17558  17567     1
  17558  17563     1
  17558  17571     1
  17558  17569     1
  17558  17577     1
  17559  17564     1
  17559  17572     1
  17559  17571     1
  17560  17570     1
  17561  17572     1
  17561  17563     1
  17562  17565     1
  17562  17577     1
  17562  17564     1
  17562  17572     1
  17562  17567     1
  17562  17563     1
  17563  17566     1
  17563  17570     1
  17563  17568     1
  17564  17566     1
  17573  17576     1
  17573  17577     1
  17574  17576     1
  17574  17577     1
  17578  17586     1
  17578  17594     1
  17578  17599     1
  17578  17587     1
  17579  17596     1
  17579  17597     1
  17579  17585     1
  17579  17593     1
  17580  17582     1
  17580  17591     1
  17580  17581     1
  17580  17598     1
  17580  17596     1
  17580  17597     1
  17580  17584     1
  17581  17592     1
  17581  17600     1
  17581  17583     1
  17581  17590     1
  17581  17586     1
  17581  17594     1
  17582  17594     1
  17582  17587     1
  17582  17595     1
  17583  17593     1
  17584  17586     1
  17584  17595     1
  17585  17590     1
  17585  17586     1
  17585  17588     1
  17585  17600     1
  17585  17587     1
  17585  17595     1
  17586  17591     1
  17586  17589     1
  17586  17593     1
  17587  17589     1
  17596  17600     1
  17596  17599     1
  17597  17600     1
  17597  17599     1
  17601  17609     1
  17601  17617     1
  17601  17622     1
  17601  17610     1
  17602  17608     1
  17602  17616     1
  17602  17619     1
  17602  17620     1
  17603  17605     1
  17603  17614     1
  17603  17604     1
  17603  17621     1
  17603  17619     1
  17603  17620     1
  17603  17607     1
  17604  17606     1
  17604  17613     1
  17604  17609     1
  17604  17617     1
  17604  17615     1
  17604  17623     1
  17605  17610     1
  17605  17618     1
  17605  17617     1
  17606  17616     1
  17607  17618     1
  17607  17609     1
  17608  17611     1
  17608  17623     1
  17608  17610     1
  17608  17618     1
  17608  17613     1
  17608  17609     1
  17609  17612     1
  17609  17616     1
  17609  17614     1
  17610  17612     1
  17619  17622     1
  17619  17623     1
  17620  17622     1
  17620  17623     1
  17624  17632     1
  17624  17640     1
  17624  17645     1
  17624  17633     1
  17625  17642     1
  17625  17643     1
  17625  17631     1
  17625  17639     1
  17626  17628     1
  17626  17637     1
  17626  17627     1
  17626  17644     1
  17626  17642     1
  17626  17643     1
  17626  17630     1
  17627  17638     1
  17627  17646     1
  17627  17629     1
  17627  17636     1
  17627  17632     1
  17627  17640     1
  17628  17640     1
  17628  17633     1
  17628  17641     1
  17629  17639     1
  17630  17632     1
  17630  17641     1
  17631  17636     1
  17631  17632     1
  17631  17634     1
  17631  17646     1
  17631  17633     1
  17631  17641     1
  17632  17637     1
  17632  17635     1
  17632  17639     1
  17633  17635     1
  17642  17646     1
  17642  17645     1
  17643  17646     1
  17643  17645     1
  17647  17655     1
  17647  17663     1
  17647  17668     1
  17647  17656     1
  17648  17654     1
  17648  17662     1
  17648  17665     1
  17648  17666     1
  17649  17651     1
  17649  17660     1
  17649  17650     1
  17649  17667     1
  17649  17665     1
  17649  17666     1
  17649  17653     1
  17650  17652     1
  17650  17659     1
  17650  17655     1
  17650  17663     1
  17650  17661     1
  17650  17669     1
  17651  17656     1
  17651  17664     1
  17651  17663     1
  17652  17662     1
  17653  17664     1
  17653  17655     1
  17654  17657     1
  17654  17669     1
  17654  17656     1
  17654  17664     1
  17654  17659     1
  17654  17655     1
  17655  17658     1
  17655  17662     1
  17655  17660     1
  17656  17658     1
  17665  17668     1
  17665  17669     1
  17666  17668     1
  17666  17669     1
  17670  17678     1
  17670  17686     1
  17670  17691     1
  17670  17679     1
  17671  17688     1
  17671  17689     1
  17671  17677     1
  17671  17685     1
  17672  17674     1
  17672  17683     1
  17672  17673     1
  17672  17690     1
  17672  17688     1
  17672  17689     1
  17672  17676     1
  17673  17684     1
  17673  17692     1
  17673  17675     1
  17673  17682     1
  17673  17678     1
  17673  17686     1
  17674  17686     1
  17674  17679     1
  17674  17687     1
  17675  17685     1
  17676  17678     1
  17676  17687     1
  17677  17682     1
  17677  17678     1
  17677  17680     1
  17677  17692     1
  17677  17679     1
  17677  17687     1
  17678  17683     1
  17678  17681     1
  17678  17685     1
  17679  17681     1
  17688  17692     1
  17688  17691     1
  17689  17692     1
  17689  17691     1
  17693  17701     1
  17693  17709     1
  17693  17714     1
  17693  17702     1
  17694  17700     1
  17694  17708     1
  17694  17711     1
  17694  17712     1
  17695  17697     1
  17695  17706     1
  17695  17696     1
  17695  17713     1
  17695  17711     1
  17695  17712     1
  17695  17699     1
  17696  17698     1
  17696  17705     1
  17696  17701     1
  17696  17709     1
  17696  17707     1
  17696  17715     1
  17697  17702     1
  17697  17710     1
  17697  17709     1
  17698  17708     1
  17699  17710     1
  17699  17701     1
  17700  17703     1
  17700  17715     1
  17700  17702     1
  17700  17710     1
  17700  17705     1
  17700  17701     1
  17701  17704     1
  17701  17708     1
  17701  17706     1
  17702  17704     1
  17711  17714     1
  17711  17715     1
  17712  17714     1
  17712  17715     1
  17716  17724     1
  17716  17732     1
  17716  17737     1
  17716  17725     1
  17717  17734     1
  17717  17735     1
  17717  17723     1
  17717  17731     1
  17718  17720     1
  17718  17729     1
  17718  17719     1
  17718  17736     1
  17718  17734     1
  17718  17735     1
  17718  17722     1
  17719  17730     1
  17719  17738     1
  17719  17721     1
  17719  17728     1
  17719  17724     1
  17719  17732     1
  17720  17732     1
  17720  17725     1
  17720  17733     1
  17721  17731     1
  17722  17724     1
  17722  17733     1
  17723  17728     1
  17723  17724     1
  17723  17726     1
  17723  17738     1
  17723  17725     1
  17723  17733     1
  17724  17729     1
  17724  17727     1
  17724  17731     1
  17725  17727     1
  17734  17738     1
  17734  17737     1
  17735  17738     1
  17735  17737     1
  17739  17747     1
  17739  17755     1
  17739  17760     1
  17739  17748     1
  17740  17746     1
  17740  17754     1
  17740  17757     1
  17740  17758     1
  17741  17743     1
  17741  17752     1
  17741  17742     1
  17741  17759     1
  17741  17757     1
  17741  17758     1
  17741  17745     1
  17742  17744     1
  17742  17751     1
  17742  17747     1
  17742  17755     1
  17742  17753     1
  17742  17761     1
  17743  17748     1
  17743  17756     1
  17743  17755     1
  17744  17754     1
  17745  17756     1
  17745  17747     1
  17746  17749     1
  17746  17761     1
  17746  17748     1
  17746  17756     1
  17746  17751     1
  17746  17747     1
  17747  17750     1
  17747  17754     1
  17747  17752     1
  17748  17750     1
  17757  17760     1
  17757  17761     1
  17758  17760     1
  17758  17761     1
  17762  17770     1
  17762  17778     1
  17762  17783     1
  17762  17771     1
  17763  17780     1
  17763  17781     1
  17763  17769     1
  17763  17777     1
  17764  17766     1
  17764  17775     1
  17764  17765     1
  17764  17782     1
  17764  17780     1
  17764  17781     1
  17764  17768     1
  17765  17776     1
  17765  17784     1
  17765  17767     1
  17765  17774     1
  17765  17770     1
  17765  17778     1
  17766  17778     1
  17766  17771     1
  17766  17779     1
  17767  17777     1
  17768  17770     1
  17768  17779     1
  17769  17774     1
  17769  17770     1
  17769  17772     1
  17769  17784     1
  17769  17771     1
  17769  17779     1
  17770  17775     1
  17770  17773     1
  17770  17777     1
  17771  17773     1
  17780  17784     1
  17780  17783     1
  17781  17784     1
  17781  17783     1
  17785  17793     1
  17785  17801     1
  17785  17806     1
  17785  17794     1
  17786  17792     1
  17786  17800     1
  17786  17803     1
  17786  17804     1
  17787  17789     1
  17787  17798     1
  17787  17788     1
  17787  17805     1
  17787  17803     1
  17787  17804     1
  17787  17791     1
  17788  17790     1
  17788  17797     1
  17788  17793     1
  17788  17801     1
  17788  17799     1
  17788  17807     1
  17789  17794     1
  17789  17802     1
  17789  17801     1
  17790  17800     1
  17791  17802     1
  17791  17793     1
  17792  17795     1
  17792  17807     1
  17792  17794     1
  17792  17802     1
  17792  17797     1
  17792  17793     1
  17793  17796     1
  17793  17800     1
  17793  17798     1
  17794  17796     1
  17803  17806     1
  17803  17807     1
  17804  17806     1
  17804  17807     1
  17808  17816     1
  17808  17824     1
  17808  17829     1
  17808  17817     1
  17809  17826     1
  17809  17827     1
  17809  17815     1
  17809  17823     1
  17810  17812     1
  17810  17821     1
  17810  17811     1
  17810  17828     1
  17810  17826     1
  17810  17827     1
  17810  17814     1
  17811  17822     1
  17811  17830     1
  17811  17813     1
  17811  17820     1
  17811  17816     1
  17811  17824     1
  17812  17824     1
  17812  17817     1
  17812  17825     1
  17813  17823     1
  17814  17816     1
  17814  17825     1
  17815  17820     1
  17815  17816     1
  17815  17818     1
  17815  17830     1
  17815  17817     1
  17815  17825     1
  17816  17821     1
  17816  17819     1
  17816  17823     1
  17817  17819     1
  17826  17830     1
  17826  17829     1
  17827  17830     1
  17827  17829     1
  17831  17839     1
  17831  17847     1
  17831  17852     1
  17831  17840     1
  17832  17838     1
  17832  17846     1
  17832  17849     1
  17832  17850     1
  17833  17835     1
  17833  17844     1
  17833  17834     1
  17833  17851     1
  17833  17849     1
  17833  17850     1
  17833  17837     1
  17834  17836     1
  17834  17843     1
  17834  17839     1
  17834  17847     1
  17834  17845     1
  17834  17853     1
  17835  17840     1
  17835  17848     1
  17835  17847     1
  17836  17846     1
  17837  17848     1
  17837  17839     1
  17838  17841     1
  17838  17853     1
  17838  17840     1
  17838  17848     1
  17838  17843     1
  17838  17839     1
  17839  17842     1
  17839  17846     1
  17839  17844     1
  17840  17842     1
  17849  17852     1
  17849  17853     1
  17850  17852     1
  17850  17853     1
  17854  17862     1
  17854  17870     1
  17854  17875     1
  17854  17863     1
  17855  17872     1
  17855  17873     1
  17855  17861     1
  17855  17869     1
  17856  17858     1
  17856  17867     1
  17856  17857     1
  17856  17874     1
  17856  17872     1
  17856  17873     1
  17856  17860     1
  17857  17868     1
  17857  17876     1
  17857  17859     1
  17857  17866     1
  17857  17862     1
  17857  17870     1
  17858  17870     1
  17858  17863     1
  17858  17871     1
  17859  17869     1
  17860  17862     1
  17860  17871     1
  17861  17866     1
  17861  17862     1
  17861  17864     1
  17861  17876     1
  17861  17863     1
  17861  17871     1
  17862  17867     1
  17862  17865     1
  17862  17869     1
  17863  17865     1
  17872  17876     1
  17872  17875     1
  17873  17876     1
  17873  17875     1
  17877  17885     1
  17877  17893     1
  17877  17898     1
  17877  17886     1
  17878  17884     1
  17878  17892     1
  17878  17895     1
  17878  17896     1
  17879  17881     1
  17879  17890     1
  17879  17880     1
  17879  17897     1
  17879  17895     1
  17879  17896     1
  17879  17883     1
  17880  17882     1
  17880  17889     1
  17880  17885     1
  17880  17893     1
  17880  17891     1
  17880  17899     1
  17881  17886     1
  17881  17894     1
  17881  17893     1
  17882  17892     1
  17883  17894     1
  17883  17885     1
  17884  17887     1
  17884  17899     1
  17884  17886     1
  17884  17894     1
  17884  17889     1
  17884  17885     1
  17885  17888     1
  17885  17892     1
  17885  17890     1
  17886  17888     1
  17895  17898     1
  17895  17899     1
  17896  17898     1
  17896  17899     1
  17900  17908     1
  17900  17916     1
  17900  17921     1
  17900  17909     1
  17901  17918     1
  17901  17919     1
  17901  17907     1
  17901  17915     1
  17902  17904     1
  17902  17913     1
  17902  17903     1
  17902  17920     1
  17902  17918     1
  17902  17919     1
  17902  17906     1
  17903  17914     1
  17903  17922     1
  17903  17905     1
  17903  17912     1
  17903  17908     1
  17903  17916     1
  17904  17916     1
  17904  17909     1
  17904  17917     1
  17905  17915     1
  17906  17908     1
  17906  17917     1
  17907  17912     1
  17907  17908     1
  17907  17910     1
  17907  17922     1
  17907  17909     1
  17907  17917     1
  17908  17913     1
  17908  17911     1
  17908  17915     1
  17909  17911     1
  17918  17922     1
  17918  17921     1
  17919  17922     1
  17919  17921     1
  17923  17931     1
  17923  17939     1
  17923  17944     1
  17923  17932     1
  17924  17930     1
  17924  17938     1
  17924  17941     1
  17924  17942     1
  17925  17927     1
  17925  17936     1
  17925  17926     1
  17925  17943     1
  17925  17941     1
  17925  17942     1
  17925  17929     1
  17926  17928     1
  17926  17935     1
  17926  17931     1
  17926  17939     1
  17926  17937     1
  17926  17945     1
  17927  17932     1
  17927  17940     1
  17927  17939     1
  17928  17938     1
  17929  17940     1
  17929  17931     1
  17930  17933     1
  17930  17945     1
  17930  17932     1
  17930  17940     1
  17930  17935     1
  17930  17931     1
  17931  17934     1
  17931  17938     1
  17931  17936     1
  17932  17934     1
  17941  17944     1
  17941  17945     1
  17942  17944     1
  17942  17945     1
  17946  17954     1
  17946  17962     1
  17946  17967     1
  17946  17955     1
  17947  17964     1
  17947  17965     1
  17947  17953     1
  17947  17961     1
  17948  17950     1
  17948  17959     1
  17948  17949     1
  17948  17966     1
  17948  17964     1
  17948  17965     1
  17948  17952     1
  17949  17960     1
  17949  17968     1
  17949  17951     1
  17949  17958     1
  17949  17954     1
  17949  17962     1
  17950  17962     1
  17950  17955     1
  17950  17963     1
  17951  17961     1
  17952  17954     1
  17952  17963     1
  17953  17958     1
  17953  17954     1
  17953  17956     1
  17953  17968     1
  17953  17955     1
  17953  17963     1
  17954  17959     1
  17954  17957     1
  17954  17961     1
  17955  17957     1
  17964  17968     1
  17964  17967     1
  17965  17968     1
  17965  17967     1
  17969  17977     1
  17969  17985     1
  17969  17990     1
  17969  17978     1
  17970  17976     1
  17970  17984     1
  17970  17987     1
  17970  17988     1
  17971  17973     1
  17971  17982     1
  17971  17972     1
  17971  17989     1
  17971  17987     1
  17971  17988     1
  17971  17975     1
  17972  17974     1
  17972  17981     1
  17972  17977     1
  17972  17985     1
  17972  17983     1
  17972  17991     1
  17973  17978     1
  17973  17986     1
  17973  17985     1
  17974  17984     1
  17975  17986     1
  17975  17977     1
  17976  17979     1
  17976  17991     1
  17976  17978     1
  17976  17986     1
  17976  17981     1
  17976  17977     1
  17977  17980     1
  17977  17984     1
  17977  17982     1
  17978  17980     1
  17987  17990     1
  17987  17991     1
  17988  17990     1
  17988  17991     1
  17992  18000     1
  17992  18008     1
  17992  18013     1
  17992  18001     1
  17993  18010     1
  17993  18011     1
  17993  17999     1
  17993  18007     1
  17994  17996     1
  17994  18005     1
  17994  17995     1
  17994  18012     1
  17994  18010     1
  17994  18011     1
  17994  17998     1
  17995  18006     1
  17995  18014     1
  17995  17997     1
  17995  18004     1
  17995  18000     1
  17995  18008     1
  17996  18008     1
  17996  18001     1
  17996  18009     1
  17997  18007     1
  17998  18000     1
  17998  18009     1
  17999  18004     1
  17999  18000     1
  17999  18002     1
  17999  18014     1
  17999  18001     1
  17999  18009     1
  18000  18005     1
  18000  18003     1
  18000  18007     1
  18001  18003     1
  18010  18014     1
  18010  18013     1
  18011  18014     1
  18011  18013     1
  18015  18023     1
  18015  18031     1
  18015  18036     1
  18015  18024     1
  18016  18022     1
  18016  18030     1
  18016  18033     1
  18016  18034     1
  18017  18019     1
  18017  18028     1
  18017  18018     1
  18017  18035     1
  18017  18033     1
  18017  18034     1
  18017  18021     1
  18018  18020     1
  18018  18027     1
  18018  18023     1
  18018  18031     1
  18018  18029     1
  18018  18037     1
  18019  18024     1
  18019  18032     1
  18019  18031     1
  18020  18030     1
  18021  18032     1
  18021  18023     1
  18022  18025     1
  18022  18037     1
  18022  18024     1
  18022  18032     1
  18022  18027     1
  18022  18023     1
  18023  18026     1
  18023  18030     1
  18023  18028     1
  18024  18026     1
  18033  18036     1
  18033  18037     1
  18034  18036     1
  18034  18037     1
  18038  18046     1
  18038  18054     1
  18038  18059     1
  18038  18047     1
  18039  18056     1
  18039  18057     1
  18039  18045     1
  18039  18053     1
  18040  18042     1
  18040  18051     1
  18040  18041     1
  18040  18058     1
  18040  18056     1
  18040  18057     1
  18040  18044     1
  18041  18052     1
  18041  18060     1
  18041  18043     1
  18041  18050     1
  18041  18046     1
  18041  18054     1
  18042  18054     1
  18042  18047     1
  18042  18055     1
  18043  18053     1
  18044  18046     1
  18044  18055     1
  18045  18050     1
  18045  18046     1
  18045  18048     1
  18045  18060     1
  18045  18047     1
  18045  18055     1
  18046  18051     1
  18046  18049     1
  18046  18053     1
  18047  18049     1
  18056  18060     1
  18056  18059     1
  18057  18060     1
  18057  18059     1
  18061  18069     1
  18061  18077     1
  18061  18082     1
  18061  18070     1
  18062  18068     1
  18062  18076     1
  18062  18079     1
  18062  18080     1
  18063  18065     1
  18063  18074     1
  18063  18064     1
  18063  18081     1
  18063  18079     1
  18063  18080     1
  18063  18067     1
  18064  18066     1
  18064  18073     1
  18064  18069     1
  18064  18077     1
  18064  18075     1
  18064  18083     1
  18065  18070     1
  18065  18078     1
  18065  18077     1
  18066  18076     1
  18067  18078     1
  18067  18069     1
  18068  18071     1
  18068  18083     1
  18068  18070     1
  18068  18078     1
  18068  18073     1
  18068  18069     1
  18069  18072     1
  18069  18076     1
  18069  18074     1
  18070  18072     1
  18079  18082     1
  18079  18083     1
  18080  18082     1
  18080  18083     1
  18084  18092     1
  18084  18100     1
  18084  18105     1
  18084  18093     1
  18085  18102     1
  18085  18103     1
  18085  18091     1
  18085  18099     1
  18086  18088     1
  18086  18097     1
  18086  18087     1
  18086  18104     1
  18086  18102     1
  18086  18103     1
  18086  18090     1
  18087  18098     1
  18087  18106     1
  18087  18089     1
  18087  18096     1
  18087  18092     1
  18087  18100     1
  18088  18100     1
  18088  18093     1
  18088  18101     1
  18089  18099     1
  18090  18092     1
  18090  18101     1
  18091  18096     1
  18091  18092     1
  18091  18094     1
  18091  18106     1
  18091  18093     1
  18091  18101     1
  18092  18097     1
  18092  18095     1
  18092  18099     1
  18093  18095     1
  18102  18106     1
  18102  18105     1
  18103  18106     1
  18103  18105     1
  18107  18115     1
  18107  18123     1
  18107  18128     1
  18107  18116     1
  18108  18114     1
  18108  18122     1
  18108  18125     1
  18108  18126     1
  18109  18111     1
  18109  18120     1
  18109  18110     1
  18109  18127     1
  18109  18125     1
  18109  18126     1
  18109  18113     1
  18110  18112     1
  18110  18119     1
  18110  18115     1
  18110  18123     1
  18110  18121     1
  18110  18129     1
  18111  18116     1
  18111  18124     1
  18111  18123     1
  18112  18122     1
  18113  18124     1
  18113  18115     1
  18114  18117     1
  18114  18129     1
  18114  18116     1
  18114  18124     1
  18114  18119     1
  18114  18115     1
  18115  18118     1
  18115  18122     1
  18115  18120     1
  18116  18118     1
  18125  18128     1
  18125  18129     1
  18126  18128     1
  18126  18129     1
  18130  18138     1
  18130  18146     1
  18130  18151     1
  18130  18139     1
  18131  18148     1
  18131  18149     1
  18131  18137     1
  18131  18145     1
  18132  18134     1
  18132  18143     1
  18132  18133     1
  18132  18150     1
  18132  18148     1
  18132  18149     1
  18132  18136     1
  18133  18144     1
  18133  18152     1
  18133  18135     1
  18133  18142     1
  18133  18138     1
  18133  18146     1
  18134  18146     1
  18134  18139     1
  18134  18147     1
  18135  18145     1
  18136  18138     1
  18136  18147     1
  18137  18142     1
  18137  18138     1
  18137  18140     1
  18137  18152     1
  18137  18139     1
  18137  18147     1
  18138  18143     1
  18138  18141     1
  18138  18145     1
  18139  18141     1
  18148  18152     1
  18148  18151     1
  18149  18152     1
  18149  18151     1
  18153  18161     1
  18153  18169     1
  18153  18174     1
  18153  18162     1
  18154  18160     1
  18154  18168     1
  18154  18171     1
  18154  18172     1
  18155  18157     1
  18155  18166     1
  18155  18156     1
  18155  18173     1
  18155  18171     1
  18155  18172     1
  18155  18159     1
  18156  18158     1
  18156  18165     1
  18156  18161     1
  18156  18169     1
  18156  18167     1
  18156  18175     1
  18157  18162     1
  18157  18170     1
  18157  18169     1
  18158  18168     1
  18159  18170     1
  18159  18161     1
  18160  18163     1
  18160  18175     1
  18160  18162     1
  18160  18170     1
  18160  18165     1
  18160  18161     1
  18161  18164     1
  18161  18168     1
  18161  18166     1
  18162  18164     1
  18171  18174     1
  18171  18175     1
  18172  18174     1
  18172  18175     1
  18176  18184     1
  18176  18192     1
  18176  18197     1
  18176  18185     1
  18177  18194     1
  18177  18195     1
  18177  18183     1
  18177  18191     1
  18178  18180     1
  18178  18189     1
  18178  18179     1
  18178  18196     1
  18178  18194     1
  18178  18195     1
  18178  18182     1
  18179  18190     1
  18179  18198     1
  18179  18181     1
  18179  18188     1
  18179  18184     1
  18179  18192     1
  18180  18192     1
  18180  18185     1
  18180  18193     1
  18181  18191     1
  18182  18184     1
  18182  18193     1
  18183  18188     1
  18183  18184     1
  18183  18186     1
  18183  18198     1
  18183  18185     1
  18183  18193     1
  18184  18189     1
  18184  18187     1
  18184  18191     1
  18185  18187     1
  18194  18198     1
  18194  18197     1
  18195  18198     1
  18195  18197     1
  18199  18207     1
  18199  18215     1
  18199  18220     1
  18199  18208     1
  18200  18206     1
  18200  18214     1
  18200  18217     1
  18200  18218     1
  18201  18203     1
  18201  18212     1
  18201  18202     1
  18201  18219     1
  18201  18217     1
  18201  18218     1
  18201  18205     1
  18202  18204     1
  18202  18211     1
  18202  18207     1
  18202  18215     1
  18202  18213     1
  18202  18221     1
  18203  18208     1
  18203  18216     1
  18203  18215     1
  18204  18214     1
  18205  18216     1
  18205  18207     1
  18206  18209     1
  18206  18221     1
  18206  18208     1
  18206  18216     1
  18206  18211     1
  18206  18207     1
  18207  18210     1
  18207  18214     1
  18207  18212     1
  18208  18210     1
  18217  18220     1
  18217  18221     1
  18218  18220     1
  18218  18221     1
  18222  18230     1
  18222  18238     1
  18222  18243     1
  18222  18231     1
  18223  18240     1
  18223  18241     1
  18223  18229     1
  18223  18237     1
  18224  18226     1
  18224  18235     1
  18224  18225     1
  18224  18242     1
  18224  18240     1
  18224  18241     1
  18224  18228     1
  18225  18236     1
  18225  18244     1
  18225  18227     1
  18225  18234     1
  18225  18230     1
  18225  18238     1
  18226  18238     1
  18226  18231     1
  18226  18239     1
  18227  18237     1
  18228  18230     1
  18228  18239     1
  18229  18234     1
  18229  18230     1
  18229  18232     1
  18229  18244     1
  18229  18231     1
  18229  18239     1
  18230  18235     1
  18230  18233     1
  18230  18237     1
  18231  18233     1
  18240  18244     1
  18240  18243     1
  18241  18244     1
  18241  18243     1
  18245  18253     1
  18245  18261     1
  18245  18266     1
  18245  18254     1
  18246  18252     1
  18246  18260     1
  18246  18263     1
  18246  18264     1
  18247  18249     1
  18247  18258     1
  18247  18248     1
  18247  18265     1
  18247  18263     1
  18247  18264     1
  18247  18251     1
  18248  18250     1
  18248  18257     1
  18248  18253     1
  18248  18261     1
  18248  18259     1
  18248  18267     1
  18249  18254     1
  18249  18262     1
  18249  18261     1
  18250  18260     1
  18251  18262     1
  18251  18253     1
  18252  18255     1
  18252  18267     1
  18252  18254     1
  18252  18262     1
  18252  18257     1
  18252  18253     1
  18253  18256     1
  18253  18260     1
  18253  18258     1
  18254  18256     1
  18263  18266     1
  18263  18267     1
  18264  18266     1
  18264  18267     1
  18268  18276     1
  18268  18284     1
  18268  18289     1
  18268  18277     1
  18269  18286     1
  18269  18287     1
  18269  18275     1
  18269  18283     1
  18270  18272     1
  18270  18281     1
  18270  18271     1
  18270  18288     1
  18270  18286     1
  18270  18287     1
  18270  18274     1
  18271  18282     1
  18271  18290     1
  18271  18273     1
  18271  18280     1
  18271  18276     1
  18271  18284     1
  18272  18284     1
  18272  18277     1
  18272  18285     1
  18273  18283     1
  18274  18276     1
  18274  18285     1
  18275  18280     1
  18275  18276     1
  18275  18278     1
  18275  18290     1
  18275  18277     1
  18275  18285     1
  18276  18281     1
  18276  18279     1
  18276  18283     1
  18277  18279     1
  18286  18290     1
  18286  18289     1
  18287  18290     1
  18287  18289     1
  18291  18299     1
  18291  18307     1
  18291  18312     1
  18291  18300     1
  18292  18298     1
  18292  18306     1
  18292  18309     1
  18292  18310     1
  18293  18295     1
  18293  18304     1
  18293  18294     1
  18293  18311     1
  18293  18309     1
  18293  18310     1
  18293  18297     1
  18294  18296     1
  18294  18303     1
  18294  18299     1
  18294  18307     1
  18294  18305     1
  18294  18313     1
  18295  18300     1
  18295  18308     1
  18295  18307     1
  18296  18306     1
  18297  18308     1
  18297  18299     1
  18298  18301     1
  18298  18313     1
  18298  18300     1
  18298  18308     1
  18298  18303     1
  18298  18299     1
  18299  18302     1
  18299  18306     1
  18299  18304     1
  18300  18302     1
  18309  18312     1
  18309  18313     1
  18310  18312     1
  18310  18313     1
  18314  18322     1
  18314  18330     1
  18314  18335     1
  18314  18323     1
  18315  18332     1
  18315  18333     1
  18315  18321     1
  18315  18329     1
  18316  18318     1
  18316  18327     1
  18316  18317     1
  18316  18334     1
  18316  18332     1
  18316  18333     1
  18316  18320     1
  18317  18328     1
  18317  18336     1
  18317  18319     1
  18317  18326     1
  18317  18322     1
  18317  18330     1
  18318  18330     1
  18318  18323     1
  18318  18331     1
  18319  18329     1
  18320  18322     1
  18320  18331     1
  18321  18326     1
  18321  18322     1
  18321  18324     1
  18321  18336     1
  18321  18323     1
  18321  18331     1
  18322  18327     1
  18322  18325     1
  18322  18329     1
  18323  18325     1
  18332  18336     1
  18332  18335     1
  18333  18336     1
  18333  18335     1
  18337  18345     1
  18337  18353     1
  18337  18358     1
  18337  18346     1
  18338  18344     1
  18338  18352     1
  18338  18355     1
  18338  18356     1
  18339  18341     1
  18339  18350     1
  18339  18340     1
  18339  18357     1
  18339  18355     1
  18339  18356     1
  18339  18343     1
  18340  18342     1
  18340  18349     1
  18340  18345     1
  18340  18353     1
  18340  18351     1
  18340  18359     1
  18341  18346     1
  18341  18354     1
  18341  18353     1
  18342  18352     1
  18343  18354     1
  18343  18345     1
  18344  18347     1
  18344  18359     1
  18344  18346     1
  18344  18354     1
  18344  18349     1
  18344  18345     1
  18345  18348     1
  18345  18352     1
  18345  18350     1
  18346  18348     1
  18355  18358     1
  18355  18359     1
  18356  18358     1
  18356  18359     1
  18360  18368     1
  18360  18376     1
  18360  18381     1
  18360  18369     1
  18361  18378     1
  18361  18379     1
  18361  18367     1
  18361  18375     1
  18362  18364     1
  18362  18373     1
  18362  18363     1
  18362  18380     1
  18362  18378     1
  18362  18379     1
  18362  18366     1
  18363  18374     1
  18363  18382     1
  18363  18365     1
  18363  18372     1
  18363  18368     1
  18363  18376     1
  18364  18376     1
  18364  18369     1
  18364  18377     1
  18365  18375     1
  18366  18368     1
  18366  18377     1
  18367  18372     1
  18367  18368     1
  18367  18370     1
  18367  18382     1
  18367  18369     1
  18367  18377     1
  18368  18373     1
  18368  18371     1
  18368  18375     1
  18369  18371     1
  18378  18382     1
  18378  18381     1
  18379  18382     1
  18379  18381     1
  18383  18391     1
  18383  18399     1
  18383  18404     1
  18383  18392     1
  18384  18390     1
  18384  18398     1
  18384  18401     1
  18384  18402     1
  18385  18387     1
  18385  18396     1
  18385  18386     1
  18385  18403     1
  18385  18401     1
  18385  18402     1
  18385  18389     1
  18386  18388     1
  18386  18395     1
  18386  18391     1
  18386  18399     1
  18386  18397     1
  18386  18405     1
  18387  18392     1
  18387  18400     1
  18387  18399     1
  18388  18398     1
  18389  18400     1
  18389  18391     1
  18390  18393     1
  18390  18405     1
  18390  18392     1
  18390  18400     1
  18390  18395     1
  18390  18391     1
  18391  18394     1
  18391  18398     1
  18391  18396     1
  18392  18394     1
  18401  18404     1
  18401  18405     1
  18402  18404     1
  18402  18405     1
  18406  18414     1
  18406  18422     1
  18406  18427     1
  18406  18415     1
  18407  18424     1
  18407  18425     1
  18407  18413     1
  18407  18421     1
  18408  18410     1
  18408  18419     1
  18408  18409     1
  18408  18426     1
  18408  18424     1
  18408  18425     1
  18408  18412     1
  18409  18420     1
  18409  18428     1
  18409  18411     1
  18409  18418     1
  18409  18414     1
  18409  18422     1
  18410  18422     1
  18410  18415     1
  18410  18423     1
  18411  18421     1
  18412  18414     1
  18412  18423     1
  18413  18418     1
  18413  18414     1
  18413  18416     1
  18413  18428     1
  18413  18415     1
  18413  18423     1
  18414  18419     1
  18414  18417     1
  18414  18421     1
  18415  18417     1
  18424  18428     1
  18424  18427     1
  18425  18428     1
  18425  18427     1
  18429  18437     1
  18429  18445     1
  18429  18450     1
  18429  18438     1
  18430  18436     1
  18430  18444     1
  18430  18447     1
  18430  18448     1
  18431  18433     1
  18431  18442     1
  18431  18432     1
  18431  18449     1
  18431  18447     1
  18431  18448     1
  18431  18435     1
  18432  18434     1
  18432  18441     1
  18432  18437     1
  18432  18445     1
  18432  18443     1
  18432  18451     1
  18433  18438     1
  18433  18446     1
  18433  18445     1
  18434  18444     1
  18435  18446     1
  18435  18437     1
  18436  18439     1
  18436  18451     1
  18436  18438     1
  18436  18446     1
  18436  18441     1
  18436  18437     1
  18437  18440     1
  18437  18444     1
  18437  18442     1
  18438  18440     1
  18447  18450     1
  18447  18451     1
  18448  18450     1
  18448  18451     1
  18452  18460     1
  18452  18468     1
  18452  18473     1
  18452  18461     1
  18453  18470     1
  18453  18471     1
  18453  18459     1
  18453  18467     1
  18454  18456     1
  18454  18465     1
  18454  18455     1
  18454  18472     1
  18454  18470     1
  18454  18471     1
  18454  18458     1
  18455  18466     1
  18455  18474     1
  18455  18457     1
  18455  18464     1
  18455  18460     1
  18455  18468     1
  18456  18468     1
  18456  18461     1
  18456  18469     1
  18457  18467     1
  18458  18460     1
  18458  18469     1
  18459  18464     1
  18459  18460     1
  18459  18462     1
  18459  18474     1
  18459  18461     1
  18459  18469     1
  18460  18465     1
  18460  18463     1
  18460  18467     1
  18461  18463     1
  18470  18474     1
  18470  18473     1
  18471  18474     1
  18471  18473     1
  18475  18483     1
  18475  18491     1
  18475  18496     1
  18475  18484     1
  18476  18482     1
  18476  18490     1
  18476  18493     1
  18476  18494     1
  18477  18479     1
  18477  18488     1
  18477  18478     1
  18477  18495     1
  18477  18493     1
  18477  18494     1
  18477  18481     1
  18478  18480     1
  18478  18487     1
  18478  18483     1
  18478  18491     1
  18478  18489     1
  18478  18497     1
  18479  18484     1
  18479  18492     1
  18479  18491     1
  18480  18490     1
  18481  18492     1
  18481  18483     1
  18482  18485     1
  18482  18497     1
  18482  18484     1
  18482  18492     1
  18482  18487     1
  18482  18483     1
  18483  18486     1
  18483  18490     1
  18483  18488     1
  18484  18486     1
  18493  18496     1
  18493  18497     1
  18494  18496     1
  18494  18497     1
  18498  18506     1
  18498  18514     1
  18498  18519     1
  18498  18507     1
  18499  18516     1
  18499  18517     1
  18499  18505     1
  18499  18513     1
  18500  18502     1
  18500  18511     1
  18500  18501     1
  18500  18518     1
  18500  18516     1
  18500  18517     1
  18500  18504     1
  18501  18512     1
  18501  18520     1
  18501  18503     1
  18501  18510     1
  18501  18506     1
  18501  18514     1
  18502  18514     1
  18502  18507     1
  18502  18515     1
  18503  18513     1
  18504  18506     1
  18504  18515     1
  18505  18510     1
  18505  18506     1
  18505  18508     1
  18505  18520     1
  18505  18507     1
  18505  18515     1
  18506  18511     1
  18506  18509     1
  18506  18513     1
  18507  18509     1
  18516  18520     1
  18516  18519     1
  18517  18520     1
  18517  18519     1
  18521  18529     1
  18521  18537     1
  18521  18542     1
  18521  18530     1
  18522  18528     1
  18522  18536     1
  18522  18539     1
  18522  18540     1
  18523  18525     1
  18523  18534     1
  18523  18524     1
  18523  18541     1
  18523  18539     1
  18523  18540     1
  18523  18527     1
  18524  18526     1
  18524  18533     1
  18524  18529     1
  18524  18537     1
  18524  18535     1
  18524  18543     1
  18525  18530     1
  18525  18538     1
  18525  18537     1
  18526  18536     1
  18527  18538     1
  18527  18529     1
  18528  18531     1
  18528  18543     1
  18528  18530     1
  18528  18538     1
  18528  18533     1
  18528  18529     1
  18529  18532     1
  18529  18536     1
  18529  18534     1
  18530  18532     1
  18539  18542     1
  18539  18543     1
  18540  18542     1
  18540  18543     1
  18544  18552     1
  18544  18560     1
  18544  18565     1
  18544  18553     1
  18545  18562     1
  18545  18563     1
  18545  18551     1
  18545  18559     1
  18546  18548     1
  18546  18557     1
  18546  18547     1
  18546  18564     1
  18546  18562     1
  18546  18563     1
  18546  18550     1
  18547  18558     1
  18547  18566     1
  18547  18549     1
  18547  18556     1
  18547  18552     1
  18547  18560     1
  18548  18560     1
  18548  18553     1
  18548  18561     1
  18549  18559     1
  18550  18552     1
  18550  18561     1
  18551  18556     1
  18551  18552     1
  18551  18554     1
  18551  18566     1
  18551  18553     1
  18551  18561     1
  18552  18557     1
  18552  18555     1
  18552  18559     1
  18553  18555     1
  18562  18566     1
  18562  18565     1
  18563  18566     1
  18563  18565     1
  18567  18575     1
  18567  18583     1
  18567  18588     1
  18567  18576     1
  18568  18574     1
  18568  18582     1
  18568  18585     1
  18568  18586     1
  18569  18571     1
  18569  18580     1
  18569  18570     1
  18569  18587     1
  18569  18585     1
  18569  18586     1
  18569  18573     1
  18570  18572     1
  18570  18579     1
  18570  18575     1
  18570  18583     1
  18570  18581     1
  18570  18589     1
  18571  18576     1
  18571  18584     1
  18571  18583     1
  18572  18582     1
  18573  18584     1
  18573  18575     1
  18574  18577     1
  18574  18589     1
  18574  18576     1
  18574  18584     1
  18574  18579     1
  18574  18575     1
  18575  18578     1
  18575  18582     1
  18575  18580     1
  18576  18578     1
  18585  18588     1
  18585  18589     1
  18586  18588     1
  18586  18589     1
  18590  18598     1
  18590  18606     1
  18590  18611     1
  18590  18599     1
  18591  18608     1
  18591  18609     1
  18591  18597     1
  18591  18605     1
  18592  18594     1
  18592  18603     1
  18592  18593     1
  18592  18610     1
  18592  18608     1
  18592  18609     1
  18592  18596     1
  18593  18604     1
  18593  18612     1
  18593  18595     1
  18593  18602     1
  18593  18598     1
  18593  18606     1
  18594  18606     1
  18594  18599     1
  18594  18607     1
  18595  18605     1
  18596  18598     1
  18596  18607     1
  18597  18602     1
  18597  18598     1
  18597  18600     1
  18597  18612     1
  18597  18599     1
  18597  18607     1
  18598  18603     1
  18598  18601     1
  18598  18605     1
  18599  18601     1
  18608  18612     1
  18608  18611     1
  18609  18612     1
  18609  18611     1
  18613  18621     1
  18613  18629     1
  18613  18634     1
  18613  18622     1
  18614  18620     1
  18614  18628     1
  18614  18631     1
  18614  18632     1
  18615  18617     1
  18615  18626     1
  18615  18616     1
  18615  18633     1
  18615  18631     1
  18615  18632     1
  18615  18619     1
  18616  18618     1
  18616  18625     1
  18616  18621     1
  18616  18629     1
  18616  18627     1
  18616  18635     1
  18617  18622     1
  18617  18630     1
  18617  18629     1
  18618  18628     1
  18619  18630     1
  18619  18621     1
  18620  18623     1
  18620  18635     1
  18620  18622     1
  18620  18630     1
  18620  18625     1
  18620  18621     1
  18621  18624     1
  18621  18628     1
  18621  18626     1
  18622  18624     1
  18631  18634     1
  18631  18635     1
  18632  18634     1
  18632  18635     1
  18636  18644     1
  18636  18652     1
  18636  18657     1
  18636  18645     1
  18637  18654     1
  18637  18655     1
  18637  18643     1
  18637  18651     1
  18638  18640     1
  18638  18649     1
  18638  18639     1
  18638  18656     1
  18638  18654     1
  18638  18655     1
  18638  18642     1
  18639  18650     1
  18639  18658     1
  18639  18641     1
  18639  18648     1
  18639  18644     1
  18639  18652     1
  18640  18652     1
  18640  18645     1
  18640  18653     1
  18641  18651     1
  18642  18644     1
  18642  18653     1
  18643  18648     1
  18643  18644     1
  18643  18646     1
  18643  18658     1
  18643  18645     1
  18643  18653     1
  18644  18649     1
  18644  18647     1
  18644  18651     1
  18645  18647     1
  18654  18658     1
  18654  18657     1
  18655  18658     1
  18655  18657     1
  18659  18667     1
  18659  18675     1
  18659  18680     1
  18659  18668     1
  18660  18666     1
  18660  18674     1
  18660  18677     1
  18660  18678     1
  18661  18663     1
  18661  18672     1
  18661  18662     1
  18661  18679     1
  18661  18677     1
  18661  18678     1
  18661  18665     1
  18662  18664     1
  18662  18671     1
  18662  18667     1
  18662  18675     1
  18662  18673     1
  18662  18681     1
  18663  18668     1
  18663  18676     1
  18663  18675     1
  18664  18674     1
  18665  18676     1
  18665  18667     1
  18666  18669     1
  18666  18681     1
  18666  18668     1
  18666  18676     1
  18666  18671     1
  18666  18667     1
  18667  18670     1
  18667  18674     1
  18667  18672     1
  18668  18670     1
  18677  18680     1
  18677  18681     1
  18678  18680     1
  18678  18681     1
  18682  18690     1
  18682  18698     1
  18682  18703     1
  18682  18691     1
  18683  18700     1
  18683  18701     1
  18683  18689     1
  18683  18697     1
  18684  18686     1
  18684  18695     1
  18684  18685     1
  18684  18702     1
  18684  18700     1
  18684  18701     1
  18684  18688     1
  18685  18696     1
  18685  18704     1
  18685  18687     1
  18685  18694     1
  18685  18690     1
  18685  18698     1
  18686  18698     1
  18686  18691     1
  18686  18699     1
  18687  18697     1
  18688  18690     1
  18688  18699     1
  18689  18694     1
  18689  18690     1
  18689  18692     1
  18689  18704     1
  18689  18691     1
  18689  18699     1
  18690  18695     1
  18690  18693     1
  18690  18697     1
  18691  18693     1
  18700  18704     1
  18700  18703     1
  18701  18704     1
  18701  18703     1
  18705  18713     1
  18705  18721     1
  18705  18726     1
  18705  18714     1
  18706  18712     1
  18706  18720     1
  18706  18723     1
  18706  18724     1
  18707  18709     1
  18707  18718     1
  18707  18708     1
  18707  18725     1
  18707  18723     1
  18707  18724     1
  18707  18711     1
  18708  18710     1
  18708  18717     1
  18708  18713     1
  18708  18721     1
  18708  18719     1
  18708  18727     1
  18709  18714     1
  18709  18722     1
  18709  18721     1
  18710  18720     1
  18711  18722     1
  18711  18713     1
  18712  18715     1
  18712  18727     1
  18712  18714     1
  18712  18722     1
  18712  18717     1
  18712  18713     1
  18713  18716     1
  18713  18720     1
  18713  18718     1
  18714  18716     1
  18723  18726     1
  18723  18727     1
  18724  18726     1
  18724  18727     1
  18728  18736     1
  18728  18744     1
  18728  18749     1
  18728  18737     1
  18729  18746     1
  18729  18747     1
  18729  18735     1
  18729  18743     1
  18730  18732     1
  18730  18741     1
  18730  18731     1
  18730  18748     1
  18730  18746     1
  18730  18747     1
  18730  18734     1
  18731  18742     1
  18731  18750     1
  18731  18733     1
  18731  18740     1
  18731  18736     1
  18731  18744     1
  18732  18744     1
  18732  18737     1
  18732  18745     1
  18733  18743     1
  18734  18736     1
  18734  18745     1
  18735  18740     1
  18735  18736     1
  18735  18738     1
  18735  18750     1
  18735  18737     1
  18735  18745     1
  18736  18741     1
  18736  18739     1
  18736  18743     1
  18737  18739     1
  18746  18750     1
  18746  18749     1
  18747  18750     1
  18747  18749     1
  18751  18759     1
  18751  18767     1
  18751  18772     1
  18751  18760     1
  18752  18758     1
  18752  18766     1
  18752  18769     1
  18752  18770     1
  18753  18755     1
  18753  18764     1
  18753  18754     1
  18753  18771     1
  18753  18769     1
  18753  18770     1
  18753  18757     1
  18754  18756     1
  18754  18763     1
  18754  18759     1
  18754  18767     1
  18754  18765     1
  18754  18773     1
  18755  18760     1
  18755  18768     1
  18755  18767     1
  18756  18766     1
  18757  18768     1
  18757  18759     1
  18758  18761     1
  18758  18773     1
  18758  18760     1
  18758  18768     1
  18758  18763     1
  18758  18759     1
  18759  18762     1
  18759  18766     1
  18759  18764     1
  18760  18762     1
  18769  18772     1
  18769  18773     1
  18770  18772     1
  18770  18773     1
  18774  18782     1
  18774  18790     1
  18774  18795     1
  18774  18783     1
  18775  18792     1
  18775  18793     1
  18775  18781     1
  18775  18789     1
  18776  18778     1
  18776  18787     1
  18776  18777     1
  18776  18794     1
  18776  18792     1
  18776  18793     1
  18776  18780     1
  18777  18788     1
  18777  18796     1
  18777  18779     1
  18777  18786     1
  18777  18782     1
  18777  18790     1
  18778  18790     1
  18778  18783     1
  18778  18791     1
  18779  18789     1
  18780  18782     1
  18780  18791     1
  18781  18786     1
  18781  18782     1
  18781  18784     1
  18781  18796     1
  18781  18783     1
  18781  18791     1
  18782  18787     1
  18782  18785     1
  18782  18789     1
  18783  18785     1
  18792  18796     1
  18792  18795     1
  18793  18796     1
  18793  18795     1
  18797  18805     1
  18797  18813     1
  18797  18818     1
  18797  18806     1
  18798  18804     1
  18798  18812     1
  18798  18815     1
  18798  18816     1
  18799  18801     1
  18799  18810     1
  18799  18800     1
  18799  18817     1
  18799  18815     1
  18799  18816     1
  18799  18803     1
  18800  18802     1
  18800  18809     1
  18800  18805     1
  18800  18813     1
  18800  18811     1
  18800  18819     1
  18801  18806     1
  18801  18814     1
  18801  18813     1
  18802  18812     1
  18803  18814     1
  18803  18805     1
  18804  18807     1
  18804  18819     1
  18804  18806     1
  18804  18814     1
  18804  18809     1
  18804  18805     1
  18805  18808     1
  18805  18812     1
  18805  18810     1
  18806  18808     1
  18815  18818     1
  18815  18819     1
  18816  18818     1
  18816  18819     1
  18820  18828     1
  18820  18836     1
  18820  18841     1
  18820  18829     1
  18821  18838     1
  18821  18839     1
  18821  18827     1
  18821  18835     1
  18822  18824     1
  18822  18833     1
  18822  18823     1
  18822  18840     1
  18822  18838     1
  18822  18839     1
  18822  18826     1
  18823  18834     1
  18823  18842     1
  18823  18825     1
  18823  18832     1
  18823  18828     1
  18823  18836     1
  18824  18836     1
  18824  18829     1
  18824  18837     1
  18825  18835     1
  18826  18828     1
  18826  18837     1
  18827  18832     1
  18827  18828     1
  18827  18830     1
  18827  18842     1
  18827  18829     1
  18827  18837     1
  18828  18833     1
  18828  18831     1
  18828  18835     1
  18829  18831     1
  18838  18842     1
  18838  18841     1
  18839  18842     1
  18839  18841     1
  18843  18851     1
  18843  18859     1
  18843  18864     1
  18843  18852     1
  18844  18850     1
  18844  18858     1
  18844  18861     1
  18844  18862     1
  18845  18847     1
  18845  18856     1
  18845  18846     1
  18845  18863     1
  18845  18861     1
  18845  18862     1
  18845  18849     1
  18846  18848     1
  18846  18855     1
  18846  18851     1
  18846  18859     1
  18846  18857     1
  18846  18865     1
  18847  18852     1
  18847  18860     1
  18847  18859     1
  18848  18858     1
  18849  18860     1
  18849  18851     1
  18850  18853     1
  18850  18865     1
  18850  18852     1
  18850  18860     1
  18850  18855     1
  18850  18851     1
  18851  18854     1
  18851  18858     1
  18851  18856     1
  18852  18854     1
  18861  18864     1
  18861  18865     1
  18862  18864     1
  18862  18865     1
  18866  18874     1
  18866  18882     1
  18866  18887     1
  18866  18875     1
  18867  18884     1
  18867  18885     1
  18867  18873     1
  18867  18881     1
  18868  18870     1
  18868  18879     1
  18868  18869     1
  18868  18886     1
  18868  18884     1
  18868  18885     1
  18868  18872     1
  18869  18880     1
  18869  18888     1
  18869  18871     1
  18869  18878     1
  18869  18874     1
  18869  18882     1
  18870  18882     1
  18870  18875     1
  18870  18883     1
  18871  18881     1
  18872  18874     1
  18872  18883     1
  18873  18878     1
  18873  18874     1
  18873  18876     1
  18873  18888     1
  18873  18875     1
  18873  18883     1
  18874  18879     1
  18874  18877     1
  18874  18881     1
  18875  18877     1
  18884  18888     1
  18884  18887     1
  18885  18888     1
  18885  18887     1
  18889  18897     1
  18889  18905     1
  18889  18910     1
  18889  18898     1
  18890  18896     1
  18890  18904     1
  18890  18907     1
  18890  18908     1
  18891  18893     1
  18891  18902     1
  18891  18892     1
  18891  18909     1
  18891  18907     1
  18891  18908     1
  18891  18895     1
  18892  18894     1
  18892  18901     1
  18892  18897     1
  18892  18905     1
  18892  18903     1
  18892  18911     1
  18893  18898     1
  18893  18906     1
  18893  18905     1
  18894  18904     1
  18895  18906     1
  18895  18897     1
  18896  18899     1
  18896  18911     1
  18896  18898     1
  18896  18906     1
  18896  18901     1
  18896  18897     1
  18897  18900     1
  18897  18904     1
  18897  18902     1
  18898  18900     1
  18907  18910     1
  18907  18911     1
  18908  18910     1
  18908  18911     1
  18912  18920     1
  18912  18928     1
  18912  18933     1
  18912  18921     1
  18913  18930     1
  18913  18931     1
  18913  18919     1
  18913  18927     1
  18914  18916     1
  18914  18925     1
  18914  18915     1
  18914  18932     1
  18914  18930     1
  18914  18931     1
  18914  18918     1
  18915  18926     1
  18915  18934     1
  18915  18917     1
  18915  18924     1
  18915  18920     1
  18915  18928     1
  18916  18928     1
  18916  18921     1
  18916  18929     1
  18917  18927     1
  18918  18920     1
  18918  18929     1
  18919  18924     1
  18919  18920     1
  18919  18922     1
  18919  18934     1
  18919  18921     1
  18919  18929     1
  18920  18925     1
  18920  18923     1
  18920  18927     1
  18921  18923     1
  18930  18934     1
  18930  18933     1
  18931  18934     1
  18931  18933     1
  18935  18943     1
  18935  18951     1
  18935  18956     1
  18935  18944     1
  18936  18942     1
  18936  18950     1
  18936  18953     1
  18936  18954     1
  18937  18939     1
  18937  18948     1
  18937  18938     1
  18937  18955     1
  18937  18953     1
  18937  18954     1
  18937  18941     1
  18938  18940     1
  18938  18947     1
  18938  18943     1
  18938  18951     1
  18938  18949     1
  18938  18957     1
  18939  18944     1
  18939  18952     1
  18939  18951     1
  18940  18950     1
  18941  18952     1
  18941  18943     1
  18942  18945     1
  18942  18957     1
  18942  18944     1
  18942  18952     1
  18942  18947     1
  18942  18943     1
  18943  18946     1
  18943  18950     1
  18943  18948     1
  18944  18946     1
  18953  18956     1
  18953  18957     1
  18954  18956     1
  18954  18957     1
  18958  18966     1
  18958  18974     1
  18958  18979     1
  18958  18967     1
  18959  18976     1
  18959  18977     1
  18959  18965     1
  18959  18973     1
  18960  18962     1
  18960  18971     1
  18960  18961     1
  18960  18978     1
  18960  18976     1
  18960  18977     1
  18960  18964     1
  18961  18972     1
  18961  18980     1
  18961  18963     1
  18961  18970     1
  18961  18966     1
  18961  18974     1
  18962  18974     1
  18962  18967     1
  18962  18975     1
  18963  18973     1
  18964  18966     1
  18964  18975     1
  18965  18970     1
  18965  18966     1
  18965  18968     1
  18965  18980     1
  18965  18967     1
  18965  18975     1
  18966  18971     1
  18966  18969     1
  18966  18973     1
  18967  18969     1
  18976  18980     1
  18976  18979     1
  18977  18980     1
  18977  18979     1
  18981  18989     1
  18981  18997     1
  18981  19002     1
  18981  18990     1
  18982  18988     1
  18982  18996     1
  18982  18999     1
  18982  19000     1
  18983  18985     1
  18983  18994     1
  18983  18984     1
  18983  19001     1
  18983  18999     1
  18983  19000     1
  18983  18987     1
  18984  18986     1
  18984  18993     1
  18984  18989     1
  18984  18997     1
  18984  18995     1
  18984  19003     1
  18985  18990     1
  18985  18998     1
  18985  18997     1
  18986  18996     1
  18987  18998     1
  18987  18989     1
  18988  18991     1
  18988  19003     1
  18988  18990     1
  18988  18998     1
  18988  18993     1
  18988  18989     1
  18989  18992     1
  18989  18996     1
  18989  18994     1
  18990  18992     1
  18999  19002     1
  18999  19003     1
  19000  19002     1
  19000  19003     1
  19004  19012     1
  19004  19020     1
  19004  19025     1
  19004  19013     1
  19005  19022     1
  19005  19023     1
  19005  19011     1
  19005  19019     1
  19006  19008     1
  19006  19017     1
  19006  19007     1
  19006  19024     1
  19006  19022     1
  19006  19023     1
  19006  19010     1
  19007  19018     1
  19007  19026     1
  19007  19009     1
  19007  19016     1
  19007  19012     1
  19007  19020     1
  19008  19020     1
  19008  19013     1
  19008  19021     1
  19009  19019     1
  19010  19012     1
  19010  19021     1
  19011  19016     1
  19011  19012     1
  19011  19014     1
  19011  19026     1
  19011  19013     1
  19011  19021     1
  19012  19017     1
  19012  19015     1
  19012  19019     1
  19013  19015     1
  19022  19026     1
  19022  19025     1
  19023  19026     1
  19023  19025     1
  19027  19035     1
  19027  19043     1
  19027  19048     1
  19027  19036     1
  19028  19034     1
  19028  19042     1
  19028  19045     1
  19028  19046     1
  19029  19031     1
  19029  19040     1
  19029  19030     1
  19029  19047     1
  19029  19045     1
  19029  19046     1
  19029  19033     1
  19030  19032     1
  19030  19039     1
  19030  19035     1
  19030  19043     1
  19030  19041     1
  19030  19049     1
  19031  19036     1
  19031  19044     1
  19031  19043     1
  19032  19042     1
  19033  19044     1
  19033  19035     1
  19034  19037     1
  19034  19049     1
  19034  19036     1
  19034  19044     1
  19034  19039     1
  19034  19035     1
  19035  19038     1
  19035  19042     1
  19035  19040     1
  19036  19038     1
  19045  19048     1
  19045  19049     1
  19046  19048     1
  19046  19049     1
  19050  19058     1
  19050  19066     1
  19050  19071     1
  19050  19059     1
  19051  19068     1
  19051  19069     1
  19051  19057     1
  19051  19065     1
  19052  19054     1
  19052  19063     1
  19052  19053     1
  19052  19070     1
  19052  19068     1
  19052  19069     1
  19052  19056     1
  19053  19064     1
  19053  19072     1
  19053  19055     1
  19053  19062     1
  19053  19058     1
  19053  19066     1
  19054  19066     1
  19054  19059     1
  19054  19067     1
  19055  19065     1
  19056  19058     1
  19056  19067     1
  19057  19062     1
  19057  19058     1
  19057  19060     1
  19057  19072     1
  19057  19059     1
  19057  19067     1
  19058  19063     1
  19058  19061     1
  19058  19065     1
  19059  19061     1
  19068  19072     1
  19068  19071     1
  19069  19072     1
  19069  19071     1
  19073  19081     1
  19073  19089     1
  19073  19094     1
  19073  19082     1
  19074  19080     1
  19074  19088     1
  19074  19091     1
  19074  19092     1
  19075  19077     1
  19075  19086     1
  19075  19076     1
  19075  19093     1
  19075  19091     1
  19075  19092     1
  19075  19079     1
  19076  19078     1
  19076  19085     1
  19076  19081     1
  19076  19089     1
  19076  19087     1
  19076  19095     1
  19077  19082     1
  19077  19090     1
  19077  19089     1
  19078  19088     1
  19079  19090     1
  19079  19081     1
  19080  19083     1
  19080  19095     1
  19080  19082     1
  19080  19090     1
  19080  19085     1
  19080  19081     1
  19081  19084     1
  19081  19088     1
  19081  19086     1
  19082  19084     1
  19091  19094     1
  19091  19095     1
  19092  19094     1
  19092  19095     1
  19096  19104     1
  19096  19112     1
  19096  19117     1
  19096  19105     1
  19097  19114     1
  19097  19115     1
  19097  19103     1
  19097  19111     1
  19098  19100     1
  19098  19109     1
  19098  19099     1
  19098  19116     1
  19098  19114     1
  19098  19115     1
  19098  19102     1
  19099  19110     1
  19099  19118     1
  19099  19101     1
  19099  19108     1
  19099  19104     1
  19099  19112     1
  19100  19112     1
  19100  19105     1
  19100  19113     1
  19101  19111     1
  19102  19104     1
  19102  19113     1
  19103  19108     1
  19103  19104     1
  19103  19106     1
  19103  19118     1
  19103  19105     1
  19103  19113     1
  19104  19109     1
  19104  19107     1
  19104  19111     1
  19105  19107     1
  19114  19118     1
  19114  19117     1
  19115  19118     1
  19115  19117     1
  19119  19127     1
  19119  19135     1
  19119  19140     1
  19119  19128     1
  19120  19126     1
  19120  19134     1
  19120  19137     1
  19120  19138     1
  19121  19123     1
  19121  19132     1
  19121  19122     1
  19121  19139     1
  19121  19137     1
  19121  19138     1
  19121  19125     1
  19122  19124     1
  19122  19131     1
  19122  19127     1
  19122  19135     1
  19122  19133     1
  19122  19141     1
  19123  19128     1
  19123  19136     1
  19123  19135     1
  19124  19134     1
  19125  19136     1
  19125  19127     1
  19126  19129     1
  19126  19141     1
  19126  19128     1
  19126  19136     1
  19126  19131     1
  19126  19127     1
  19127  19130     1
  19127  19134     1
  19127  19132     1
  19128  19130     1
  19137  19140     1
  19137  19141     1
  19138  19140     1
  19138  19141     1
  19142  19150     1
  19142  19158     1
  19142  19163     1
  19142  19151     1
  19143  19160     1
  19143  19161     1
  19143  19149     1
  19143  19157     1
  19144  19146     1
  19144  19155     1
  19144  19145     1
  19144  19162     1
  19144  19160     1
  19144  19161     1
  19144  19148     1
  19145  19156     1
  19145  19164     1
  19145  19147     1
  19145  19154     1
  19145  19150     1
  19145  19158     1
  19146  19158     1
  19146  19151     1
  19146  19159     1
  19147  19157     1
  19148  19150     1
  19148  19159     1
  19149  19154     1
  19149  19150     1
  19149  19152     1
  19149  19164     1
  19149  19151     1
  19149  19159     1
  19150  19155     1
  19150  19153     1
  19150  19157     1
  19151  19153     1
  19160  19164     1
  19160  19163     1
  19161  19164     1
  19161  19163     1
  19165  19173     1
  19165  19181     1
  19165  19186     1
  19165  19174     1
  19166  19172     1
  19166  19180     1
  19166  19183     1
  19166  19184     1
  19167  19169     1
  19167  19178     1
  19167  19168     1
  19167  19185     1
  19167  19183     1
  19167  19184     1
  19167  19171     1
  19168  19170     1
  19168  19177     1
  19168  19173     1
  19168  19181     1
  19168  19179     1
  19168  19187     1
  19169  19174     1
  19169  19182     1
  19169  19181     1
  19170  19180     1
  19171  19182     1
  19171  19173     1
  19172  19175     1
  19172  19187     1
  19172  19174     1
  19172  19182     1
  19172  19177     1
  19172  19173     1
  19173  19176     1
  19173  19180     1
  19173  19178     1
  19174  19176     1
  19183  19186     1
  19183  19187     1
  19184  19186     1
  19184  19187     1
  19188  19196     1
  19188  19204     1
  19188  19209     1
  19188  19197     1
  19189  19206     1
  19189  19207     1
  19189  19195     1
  19189  19203     1
  19190  19192     1
  19190  19201     1
  19190  19191     1
  19190  19208     1
  19190  19206     1
  19190  19207     1
  19190  19194     1
  19191  19202     1
  19191  19210     1
  19191  19193     1
  19191  19200     1
  19191  19196     1
  19191  19204     1
  19192  19204     1
  19192  19197     1
  19192  19205     1
  19193  19203     1
  19194  19196     1
  19194  19205     1
  19195  19200     1
  19195  19196     1
  19195  19198     1
  19195  19210     1
  19195  19197     1
  19195  19205     1
  19196  19201     1
  19196  19199     1
  19196  19203     1
  19197  19199     1
  19206  19210     1
  19206  19209     1
  19207  19210     1
  19207  19209     1
  19211  19219     1
  19211  19227     1
  19211  19232     1
  19211  19220     1
  19212  19218     1
  19212  19226     1
  19212  19229     1
  19212  19230     1
  19213  19215     1
  19213  19224     1
  19213  19214     1
  19213  19231     1
  19213  19229     1
  19213  19230     1
  19213  19217     1
  19214  19216     1
  19214  19223     1
  19214  19219     1
  19214  19227     1
  19214  19225     1
  19214  19233     1
  19215  19220     1
  19215  19228     1
  19215  19227     1
  19216  19226     1
  19217  19228     1
  19217  19219     1
  19218  19221     1
  19218  19233     1
  19218  19220     1
  19218  19228     1
  19218  19223     1
  19218  19219     1
  19219  19222     1
  19219  19226     1
  19219  19224     1
  19220  19222     1
  19229  19232     1
  19229  19233     1
  19230  19232     1
  19230  19233     1
  19234  19242     1
  19234  19250     1
  19234  19255     1
  19234  19243     1
  19235  19252     1
  19235  19253     1
  19235  19241     1
  19235  19249     1
  19236  19238     1
  19236  19247     1
  19236  19237     1
  19236  19254     1
  19236  19252     1
  19236  19253     1
  19236  19240     1
  19237  19248     1
  19237  19256     1
  19237  19239     1
  19237  19246     1
  19237  19242     1
  19237  19250     1
  19238  19250     1
  19238  19243     1
  19238  19251     1
  19239  19249     1
  19240  19242     1
  19240  19251     1
  19241  19246     1
  19241  19242     1
  19241  19244     1
  19241  19256     1
  19241  19243     1
  19241  19251     1
  19242  19247     1
  19242  19245     1
  19242  19249     1
  19243  19245     1
  19252  19256     1
  19252  19255     1
  19253  19256     1
  19253  19255     1
  19257  19265     1
  19257  19273     1
  19257  19278     1
  19257  19266     1
  19258  19264     1
  19258  19272     1
  19258  19275     1
  19258  19276     1
  19259  19261     1
  19259  19270     1
  19259  19260     1
  19259  19277     1
  19259  19275     1
  19259  19276     1
  19259  19263     1
  19260  19262     1
  19260  19269     1
  19260  19265     1
  19260  19273     1
  19260  19271     1
  19260  19279     1
  19261  19266     1
  19261  19274     1
  19261  19273     1
  19262  19272     1
  19263  19274     1
  19263  19265     1
  19264  19267     1
  19264  19279     1
  19264  19266     1
  19264  19274     1
  19264  19269     1
  19264  19265     1
  19265  19268     1
  19265  19272     1
  19265  19270     1
  19266  19268     1
  19275  19278     1
  19275  19279     1
  19276  19278     1
  19276  19279     1
  19280  19288     1
  19280  19296     1
  19280  19301     1
  19280  19289     1
  19281  19298     1
  19281  19299     1
  19281  19287     1
  19281  19295     1
  19282  19284     1
  19282  19293     1
  19282  19283     1
  19282  19300     1
  19282  19298     1
  19282  19299     1
  19282  19286     1
  19283  19294     1
  19283  19302     1
  19283  19285     1
  19283  19292     1
  19283  19288     1
  19283  19296     1
  19284  19296     1
  19284  19289     1
  19284  19297     1
  19285  19295     1
  19286  19288     1
  19286  19297     1
  19287  19292     1
  19287  19288     1
  19287  19290     1
  19287  19302     1
  19287  19289     1
  19287  19297     1
  19288  19293     1
  19288  19291     1
  19288  19295     1
  19289  19291     1
  19298  19302     1
  19298  19301     1
  19299  19302     1
  19299  19301     1
  19303  19311     1
  19303  19319     1
  19303  19324     1
  19303  19312     1
  19304  19310     1
  19304  19318     1
  19304  19321     1
  19304  19322     1
  19305  19307     1
  19305  19316     1
  19305  19306     1
  19305  19323     1
  19305  19321     1
  19305  19322     1
  19305  19309     1
  19306  19308     1
  19306  19315     1
  19306  19311     1
  19306  19319     1
  19306  19317     1
  19306  19325     1
  19307  19312     1
  19307  19320     1
  19307  19319     1
  19308  19318     1
  19309  19320     1
  19309  19311     1
  19310  19313     1
  19310  19325     1
  19310  19312     1
  19310  19320     1
  19310  19315     1
  19310  19311     1
  19311  19314     1
  19311  19318     1
  19311  19316     1
  19312  19314     1
  19321  19324     1
  19321  19325     1
  19322  19324     1
  19322  19325     1
  19326  19334     1
  19326  19342     1
  19326  19347     1
  19326  19335     1
  19327  19344     1
  19327  19345     1
  19327  19333     1
  19327  19341     1
  19328  19330     1
  19328  19339     1
  19328  19329     1
  19328  19346     1
  19328  19344     1
  19328  19345     1
  19328  19332     1
  19329  19340     1
  19329  19348     1
  19329  19331     1
  19329  19338     1
  19329  19334     1
  19329  19342     1
  19330  19342     1
  19330  19335     1
  19330  19343     1
  19331  19341     1
  19332  19334     1
  19332  19343     1
  19333  19338     1
  19333  19334     1
  19333  19336     1
  19333  19348     1
  19333  19335     1
  19333  19343     1
  19334  19339     1
  19334  19337     1
  19334  19341     1
  19335  19337     1
  19344  19348     1
  19344  19347     1
  19345  19348     1
  19345  19347     1
  19349  19357     1
  19349  19365     1
  19349  19370     1
  19349  19358     1
  19350  19356     1
  19350  19364     1
  19350  19367     1
  19350  19368     1
  19351  19353     1
  19351  19362     1
  19351  19352     1
  19351  19369     1
  19351  19367     1
  19351  19368     1
  19351  19355     1
  19352  19354     1
  19352  19361     1
  19352  19357     1
  19352  19365     1
  19352  19363     1
  19352  19371     1
  19353  19358     1
  19353  19366     1
  19353  19365     1
  19354  19364     1
  19355  19366     1
  19355  19357     1
  19356  19359     1
  19356  19371     1
  19356  19358     1
  19356  19366     1
  19356  19361     1
  19356  19357     1
  19357  19360     1
  19357  19364     1
  19357  19362     1
  19358  19360     1
  19367  19370     1
  19367  19371     1
  19368  19370     1
  19368  19371     1
  19372  19380     1
  19372  19388     1
  19372  19393     1
  19372  19381     1
  19373  19390     1
  19373  19391     1
  19373  19379     1
  19373  19387     1
  19374  19376     1
  19374  19385     1
  19374  19375     1
  19374  19392     1
  19374  19390     1
  19374  19391     1
  19374  19378     1
  19375  19386     1
  19375  19394     1
  19375  19377     1
  19375  19384     1
  19375  19380     1
  19375  19388     1
  19376  19388     1
  19376  19381     1
  19376  19389     1
  19377  19387     1
  19378  19380     1
  19378  19389     1
  19379  19384     1
  19379  19380     1
  19379  19382     1
  19379  19394     1
  19379  19381     1
  19379  19389     1
  19380  19385     1
  19380  19383     1
  19380  19387     1
  19381  19383     1
  19390  19394     1
  19390  19393     1
  19391  19394     1
  19391  19393     1
  19395  19403     1
  19395  19411     1
  19395  19416     1
  19395  19404     1
  19396  19402     1
  19396  19410     1
  19396  19413     1
  19396  19414     1
  19397  19399     1
  19397  19408     1
  19397  19398     1
  19397  19415     1
  19397  19413     1
  19397  19414     1
  19397  19401     1
  19398  19400     1
  19398  19407     1
  19398  19403     1
  19398  19411     1
  19398  19409     1
  19398  19417     1
  19399  19404     1
  19399  19412     1
  19399  19411     1
  19400  19410     1
  19401  19412     1
  19401  19403     1
  19402  19405     1
  19402  19417     1
  19402  19404     1
  19402  19412     1
  19402  19407     1
  19402  19403     1
  19403  19406     1
  19403  19410     1
  19403  19408     1
  19404  19406     1
  19413  19416     1
  19413  19417     1
  19414  19416     1
  19414  19417     1
  19418  19426     1
  19418  19434     1
  19418  19439     1
  19418  19427     1
  19419  19436     1
  19419  19437     1
  19419  19425     1
  19419  19433     1
  19420  19422     1
  19420  19431     1
  19420  19421     1
  19420  19438     1
  19420  19436     1
  19420  19437     1
  19420  19424     1
  19421  19432     1
  19421  19440     1
  19421  19423     1
  19421  19430     1
  19421  19426     1
  19421  19434     1
  19422  19434     1
  19422  19427     1
  19422  19435     1
  19423  19433     1
  19424  19426     1
  19424  19435     1
  19425  19430     1
  19425  19426     1
  19425  19428     1
  19425  19440     1
  19425  19427     1
  19425  19435     1
  19426  19431     1
  19426  19429     1
  19426  19433     1
  19427  19429     1
  19436  19440     1
  19436  19439     1
  19437  19440     1
  19437  19439     1
  19441  19449     1
  19441  19457     1
  19441  19462     1
  19441  19450     1
  19442  19448     1
  19442  19456     1
  19442  19459     1
  19442  19460     1
  19443  19445     1
  19443  19454     1
  19443  19444     1
  19443  19461     1
  19443  19459     1
  19443  19460     1
  19443  19447     1
  19444  19446     1
  19444  19453     1
  19444  19449     1
  19444  19457     1
  19444  19455     1
  19444  19463     1
  19445  19450     1
  19445  19458     1
  19445  19457     1
  19446  19456     1
  19447  19458     1
  19447  19449     1
  19448  19451     1
  19448  19463     1
  19448  19450     1
  19448  19458     1
  19448  19453     1
  19448  19449     1
  19449  19452     1
  19449  19456     1
  19449  19454     1
  19450  19452     1
  19459  19462     1
  19459  19463     1
  19460  19462     1
  19460  19463     1
  19464  19472     1
  19464  19480     1
  19464  19485     1
  19464  19473     1
  19465  19482     1
  19465  19483     1
  19465  19471     1
  19465  19479     1
  19466  19468     1
  19466  19477     1
  19466  19467     1
  19466  19484     1
  19466  19482     1
  19466  19483     1
  19466  19470     1
  19467  19478     1
  19467  19486     1
  19467  19469     1
  19467  19476     1
  19467  19472     1
  19467  19480     1
  19468  19480     1
  19468  19473     1
  19468  19481     1
  19469  19479     1
  19470  19472     1
  19470  19481     1
  19471  19476     1
  19471  19472     1
  19471  19474     1
  19471  19486     1
  19471  19473     1
  19471  19481     1
  19472  19477     1
  19472  19475     1
  19472  19479     1
  19473  19475     1
  19482  19486     1
  19482  19485     1
  19483  19486     1
  19483  19485     1
  19487  19495     1
  19487  19503     1
  19487  19508     1
  19487  19496     1
  19488  19494     1
  19488  19502     1
  19488  19505     1
  19488  19506     1
  19489  19491     1
  19489  19500     1
  19489  19490     1
  19489  19507     1
  19489  19505     1
  19489  19506     1
  19489  19493     1
  19490  19492     1
  19490  19499     1
  19490  19495     1
  19490  19503     1
  19490  19501     1
  19490  19509     1
  19491  19496     1
  19491  19504     1
  19491  19503     1
  19492  19502     1
  19493  19504     1
  19493  19495     1
  19494  19497     1
  19494  19509     1
  19494  19496     1
  19494  19504     1
  19494  19499     1
  19494  19495     1
  19495  19498     1
  19495  19502     1
  19495  19500     1
  19496  19498     1
  19505  19508     1
  19505  19509     1
  19506  19508     1
  19506  19509     1
  19510  19518     1
  19510  19526     1
  19510  19531     1
  19510  19519     1
  19511  19528     1
  19511  19529     1
  19511  19517     1
  19511  19525     1
  19512  19514     1
  19512  19523     1
  19512  19513     1
  19512  19530     1
  19512  19528     1
  19512  19529     1
  19512  19516     1
  19513  19524     1
  19513  19532     1
  19513  19515     1
  19513  19522     1
  19513  19518     1
  19513  19526     1
  19514  19526     1
  19514  19519     1
  19514  19527     1
  19515  19525     1
  19516  19518     1
  19516  19527     1
  19517  19522     1
  19517  19518     1
  19517  19520     1
  19517  19532     1
  19517  19519     1
  19517  19527     1
  19518  19523     1
  19518  19521     1
  19518  19525     1
  19519  19521     1
  19528  19532     1
  19528  19531     1
  19529  19532     1
  19529  19531     1
  19533  19541     1
  19533  19549     1
  19533  19554     1
  19533  19542     1
  19534  19540     1
  19534  19548     1
  19534  19551     1
  19534  19552     1
  19535  19537     1
  19535  19546     1
  19535  19536     1
  19535  19553     1
  19535  19551     1
  19535  19552     1
  19535  19539     1
  19536  19538     1
  19536  19545     1
  19536  19541     1
  19536  19549     1
  19536  19547     1
  19536  19555     1
  19537  19542     1
  19537  19550     1
  19537  19549     1
  19538  19548     1
  19539  19550     1
  19539  19541     1
  19540  19543     1
  19540  19555     1
  19540  19542     1
  19540  19550     1
  19540  19545     1
  19540  19541     1
  19541  19544     1
  19541  19548     1
  19541  19546     1
  19542  19544     1
  19551  19554     1
  19551  19555     1
  19552  19554     1
  19552  19555     1
  19556  19564     1
  19556  19572     1
  19556  19577     1
  19556  19565     1
  19557  19574     1
  19557  19575     1
  19557  19563     1
  19557  19571     1
  19558  19560     1
  19558  19569     1
  19558  19559     1
  19558  19576     1
  19558  19574     1
  19558  19575     1
  19558  19562     1
  19559  19570     1
  19559  19578     1
  19559  19561     1
  19559  19568     1
  19559  19564     1
  19559  19572     1
  19560  19572     1
  19560  19565     1
  19560  19573     1
  19561  19571     1
  19562  19564     1
  19562  19573     1
  19563  19568     1
  19563  19564     1
  19563  19566     1
  19563  19578     1
  19563  19565     1
  19563  19573     1
  19564  19569     1
  19564  19567     1
  19564  19571     1
  19565  19567     1
  19574  19578     1
  19574  19577     1
  19575  19578     1
  19575  19577     1
  19579  19587     1
  19579  19595     1
  19579  19600     1
  19579  19588     1
  19580  19586     1
  19580  19594     1
  19580  19597     1
  19580  19598     1
  19581  19583     1
  19581  19592     1
  19581  19582     1
  19581  19599     1
  19581  19597     1
  19581  19598     1
  19581  19585     1
  19582  19584     1
  19582  19591     1
  19582  19587     1
  19582  19595     1
  19582  19593     1
  19582  19601     1
  19583  19588     1
  19583  19596     1
  19583  19595     1
  19584  19594     1
  19585  19596     1
  19585  19587     1
  19586  19589     1
  19586  19601     1
  19586  19588     1
  19586  19596     1
  19586  19591     1
  19586  19587     1
  19587  19590     1
  19587  19594     1
  19587  19592     1
  19588  19590     1
  19597  19600     1
  19597  19601     1
  19598  19600     1
  19598  19601     1
  19602  19610     1
  19602  19618     1
  19602  19623     1
  19602  19611     1
  19603  19620     1
  19603  19621     1
  19603  19609     1
  19603  19617     1
  19604  19606     1
  19604  19615     1
  19604  19605     1
  19604  19622     1
  19604  19620     1
  19604  19621     1
  19604  19608     1
  19605  19616     1
  19605  19624     1
  19605  19607     1
  19605  19614     1
  19605  19610     1
  19605  19618     1
  19606  19618     1
  19606  19611     1
  19606  19619     1
  19607  19617     1
  19608  19610     1
  19608  19619     1
  19609  19614     1
  19609  19610     1
  19609  19612     1
  19609  19624     1
  19609  19611     1
  19609  19619     1
  19610  19615     1
  19610  19613     1
  19610  19617     1
  19611  19613     1
  19620  19624     1
  19620  19623     1
  19621  19624     1
  19621  19623     1
  19625  19633     1
  19625  19641     1
  19625  19646     1
  19625  19634     1
  19626  19632     1
  19626  19640     1
  19626  19643     1
  19626  19644     1
  19627  19629     1
  19627  19638     1
  19627  19628     1
  19627  19645     1
  19627  19643     1
  19627  19644     1
  19627  19631     1
  19628  19630     1
  19628  19637     1
  19628  19633     1
  19628  19641     1
  19628  19639     1
  19628  19647     1
  19629  19634     1
  19629  19642     1
  19629  19641     1
  19630  19640     1
  19631  19642     1
  19631  19633     1
  19632  19635     1
  19632  19647     1
  19632  19634     1
  19632  19642     1
  19632  19637     1
  19632  19633     1
  19633  19636     1
  19633  19640     1
  19633  19638     1
  19634  19636     1
  19643  19646     1
  19643  19647     1
  19644  19646     1
  19644  19647     1
  19648  19656     1
  19648  19664     1
  19648  19669     1
  19648  19657     1
  19649  19666     1
  19649  19667     1
  19649  19655     1
  19649  19663     1
  19650  19652     1
  19650  19661     1
  19650  19651     1
  19650  19668     1
  19650  19666     1
  19650  19667     1
  19650  19654     1
  19651  19662     1
  19651  19670     1
  19651  19653     1
  19651  19660     1
  19651  19656     1
  19651  19664     1
  19652  19664     1
  19652  19657     1
  19652  19665     1
  19653  19663     1
  19654  19656     1
  19654  19665     1
  19655  19660     1
  19655  19656     1
  19655  19658     1
  19655  19670     1
  19655  19657     1
  19655  19665     1
  19656  19661     1
  19656  19659     1
  19656  19663     1
  19657  19659     1
  19666  19670     1
  19666  19669     1
  19667  19670     1
  19667  19669     1
  19671  19679     1
  19671  19687     1
  19671  19692     1
  19671  19680     1
  19672  19678     1
  19672  19686     1
  19672  19689     1
  19672  19690     1
  19673  19675     1
  19673  19684     1
  19673  19674     1
  19673  19691     1
  19673  19689     1
  19673  19690     1
  19673  19677     1
  19674  19676     1
  19674  19683     1
  19674  19679     1
  19674  19687     1
  19674  19685     1
  19674  19693     1
  19675  19680     1
  19675  19688     1
  19675  19687     1
  19676  19686     1
  19677  19688     1
  19677  19679     1
  19678  19681     1
  19678  19693     1
  19678  19680     1
  19678  19688     1
  19678  19683     1
  19678  19679     1
  19679  19682     1
  19679  19686     1
  19679  19684     1
  19680  19682     1
  19689  19692     1
  19689  19693     1
  19690  19692     1
  19690  19693     1
  19694  19702     1
  19694  19710     1
  19694  19715     1
  19694  19703     1
  19695  19712     1
  19695  19713     1
  19695  19701     1
  19695  19709     1
  19696  19698     1
  19696  19707     1
  19696  19697     1
  19696  19714     1
  19696  19712     1
  19696  19713     1
  19696  19700     1
  19697  19708     1
  19697  19716     1
  19697  19699     1
  19697  19706     1
  19697  19702     1
  19697  19710     1
  19698  19710     1
  19698  19703     1
  19698  19711     1
  19699  19709     1
  19700  19702     1
  19700  19711     1
  19701  19706     1
  19701  19702     1
  19701  19704     1
  19701  19716     1
  19701  19703     1
  19701  19711     1
  19702  19707     1
  19702  19705     1
  19702  19709     1
  19703  19705     1
  19712  19716     1
  19712  19715     1
  19713  19716     1
  19713  19715     1
  19717  19725     1
  19717  19733     1
  19717  19738     1
  19717  19726     1
  19718  19724     1
  19718  19732     1
  19718  19735     1
  19718  19736     1
  19719  19721     1
  19719  19730     1
  19719  19720     1
  19719  19737     1
  19719  19735     1
  19719  19736     1
  19719  19723     1
  19720  19722     1
  19720  19729     1
  19720  19725     1
  19720  19733     1
  19720  19731     1
  19720  19739     1
  19721  19726     1
  19721  19734     1
  19721  19733     1
  19722  19732     1
  19723  19734     1
  19723  19725     1
  19724  19727     1
  19724  19739     1
  19724  19726     1
  19724  19734     1
  19724  19729     1
  19724  19725     1
  19725  19728     1
  19725  19732     1
  19725  19730     1
  19726  19728     1
  19735  19738     1
  19735  19739     1
  19736  19738     1
  19736  19739     1
  19740  19748     1
  19740  19756     1
  19740  19761     1
  19740  19749     1
  19741  19758     1
  19741  19759     1
  19741  19747     1
  19741  19755     1
  19742  19744     1
  19742  19753     1
  19742  19743     1
  19742  19760     1
  19742  19758     1
  19742  19759     1
  19742  19746     1
  19743  19754     1
  19743  19762     1
  19743  19745     1
  19743  19752     1
  19743  19748     1
  19743  19756     1
  19744  19756     1
  19744  19749     1
  19744  19757     1
  19745  19755     1
  19746  19748     1
  19746  19757     1
  19747  19752     1
  19747  19748     1
  19747  19750     1
  19747  19762     1
  19747  19749     1
  19747  19757     1
  19748  19753     1
  19748  19751     1
  19748  19755     1
  19749  19751     1
  19758  19762     1
  19758  19761     1
  19759  19762     1
  19759  19761     1
  19763  19771     1
  19763  19779     1
  19763  19784     1
  19763  19772     1
  19764  19770     1
  19764  19778     1
  19764  19781     1
  19764  19782     1
  19765  19767     1
  19765  19776     1
  19765  19766     1
  19765  19783     1
  19765  19781     1
  19765  19782     1
  19765  19769     1
  19766  19768     1
  19766  19775     1
  19766  19771     1
  19766  19779     1
  19766  19777     1
  19766  19785     1
  19767  19772     1
  19767  19780     1
  19767  19779     1
  19768  19778     1
  19769  19780     1
  19769  19771     1
  19770  19773     1
  19770  19785     1
  19770  19772     1
  19770  19780     1
  19770  19775     1
  19770  19771     1
  19771  19774     1
  19771  19778     1
  19771  19776     1
  19772  19774     1
  19781  19784     1
  19781  19785     1
  19782  19784     1
  19782  19785     1
  19786  19794     1
  19786  19802     1
  19786  19807     1
  19786  19795     1
  19787  19804     1
  19787  19805     1
  19787  19793     1
  19787  19801     1
  19788  19790     1
  19788  19799     1
  19788  19789     1
  19788  19806     1
  19788  19804     1
  19788  19805     1
  19788  19792     1
  19789  19800     1
  19789  19808     1
  19789  19791     1
  19789  19798     1
  19789  19794     1
  19789  19802     1
  19790  19802     1
  19790  19795     1
  19790  19803     1
  19791  19801     1
  19792  19794     1
  19792  19803     1
  19793  19798     1
  19793  19794     1
  19793  19796     1
  19793  19808     1
  19793  19795     1
  19793  19803     1
  19794  19799     1
  19794  19797     1
  19794  19801     1
  19795  19797     1
  19804  19808     1
  19804  19807     1
  19805  19808     1
  19805  19807     1
  19809  19817     1
  19809  19825     1
  19809  19830     1
  19809  19818     1
  19810  19816     1
  19810  19824     1
  19810  19827     1
  19810  19828     1
  19811  19813     1
  19811  19822     1
  19811  19812     1
  19811  19829     1
  19811  19827     1
  19811  19828     1
  19811  19815     1
  19812  19814     1
  19812  19821     1
  19812  19817     1
  19812  19825     1
  19812  19823     1
  19812  19831     1
  19813  19818     1
  19813  19826     1
  19813  19825     1
  19814  19824     1
  19815  19826     1
  19815  19817     1
  19816  19819     1
  19816  19831     1
  19816  19818     1
  19816  19826     1
  19816  19821     1
  19816  19817     1
  19817  19820     1
  19817  19824     1
  19817  19822     1
  19818  19820     1
  19827  19830     1
  19827  19831     1
  19828  19830     1
  19828  19831     1
  19832  19840     1
  19832  19848     1
  19832  19853     1
  19832  19841     1
  19833  19850     1
  19833  19851     1
  19833  19839     1
  19833  19847     1
  19834  19836     1
  19834  19845     1
  19834  19835     1
  19834  19852     1
  19834  19850     1
  19834  19851     1
  19834  19838     1
  19835  19846     1
  19835  19854     1
  19835  19837     1
  19835  19844     1
  19835  19840     1
  19835  19848     1
  19836  19848     1
  19836  19841     1
  19836  19849     1
  19837  19847     1
  19838  19840     1
  19838  19849     1
  19839  19844     1
  19839  19840     1
  19839  19842     1
  19839  19854     1
  19839  19841     1
  19839  19849     1
  19840  19845     1
  19840  19843     1
  19840  19847     1
  19841  19843     1
  19850  19854     1
  19850  19853     1
  19851  19854     1
  19851  19853     1
  19855  19863     1
  19855  19871     1
  19855  19876     1
  19855  19864     1
  19856  19862     1
  19856  19870     1
  19856  19873     1
  19856  19874     1
  19857  19859     1
  19857  19868     1
  19857  19858     1
  19857  19875     1
  19857  19873     1
  19857  19874     1
  19857  19861     1
  19858  19860     1
  19858  19867     1
  19858  19863     1
  19858  19871     1
  19858  19869     1
  19858  19877     1
  19859  19864     1
  19859  19872     1
  19859  19871     1
  19860  19870     1
  19861  19872     1
  19861  19863     1
  19862  19865     1
  19862  19877     1
  19862  19864     1
  19862  19872     1
  19862  19867     1
  19862  19863     1
  19863  19866     1
  19863  19870     1
  19863  19868     1
  19864  19866     1
  19873  19876     1
  19873  19877     1
  19874  19876     1
  19874  19877     1
  19878  19886     1
  19878  19894     1
  19878  19899     1
  19878  19887     1
  19879  19896     1
  19879  19897     1
  19879  19885     1
  19879  19893     1
  19880  19882     1
  19880  19891     1
  19880  19881     1
  19880  19898     1
  19880  19896     1
  19880  19897     1
  19880  19884     1
  19881  19892     1
  19881  19900     1
  19881  19883     1
  19881  19890     1
  19881  19886     1
  19881  19894     1
  19882  19894     1
  19882  19887     1
  19882  19895     1
  19883  19893     1
  19884  19886     1
  19884  19895     1
  19885  19890     1
  19885  19886     1
  19885  19888     1
  19885  19900     1
  19885  19887     1
  19885  19895     1
  19886  19891     1
  19886  19889     1
  19886  19893     1
  19887  19889     1
  19896  19900     1
  19896  19899     1
  19897  19900     1
  19897  19899     1
  19901  19909     1
  19901  19917     1
  19901  19922     1
  19901  19910     1
  19902  19908     1
  19902  19916     1
  19902  19919     1
  19902  19920     1
  19903  19905     1
  19903  19914     1
  19903  19904     1
  19903  19921     1
  19903  19919     1
  19903  19920     1
  19903  19907     1
  19904  19906     1
  19904  19913     1
  19904  19909     1
  19904  19917     1
  19904  19915     1
  19904  19923     1
  19905  19910     1
  19905  19918     1
  19905  19917     1
  19906  19916     1
  19907  19918     1
  19907  19909     1
  19908  19911     1
  19908  19923     1
  19908  19910     1
  19908  19918     1
  19908  19913     1
  19908  19909     1
  19909  19912     1
  19909  19916     1
  19909  19914     1
  19910  19912     1
  19919  19922     1
  19919  19923     1
  19920  19922     1
  19920  19923     1
  19924  19932     1
  19924  19940     1
  19924  19945     1
  19924  19933     1
  19925  19942     1
  19925  19943     1
  19925  19931     1
  19925  19939     1
  19926  19928     1
  19926  19937     1
  19926  19927     1
  19926  19944     1
  19926  19942     1
  19926  19943     1
  19926  19930     1
  19927  19938     1
  19927  19946     1
  19927  19929     1
  19927  19936     1
  19927  19932     1
  19927  19940     1
  19928  19940     1
  19928  19933     1
  19928  19941     1
  19929  19939     1
  19930  19932     1
  19930  19941     1
  19931  19936     1
  19931  19932     1
  19931  19934     1
  19931  19946     1
  19931  19933     1
  19931  19941     1
  19932  19937     1
  19932  19935     1
  19932  19939     1
  19933  19935     1
  19942  19946     1
  19942  19945     1
  19943  19946     1
  19943  19945     1
  19947  19955     1
  19947  19963     1
  19947  19968     1
  19947  19956     1
  19948  19954     1
  19948  19962     1
  19948  19965     1
  19948  19966     1
  19949  19951     1
  19949  19960     1
  19949  19950     1
  19949  19967     1
  19949  19965     1
  19949  19966     1
  19949  19953     1
  19950  19952     1
  19950  19959     1
  19950  19955     1
  19950  19963     1
  19950  19961     1
  19950  19969     1
  19951  19956     1
  19951  19964     1
  19951  19963     1
  19952  19962     1
  19953  19964     1
  19953  19955     1
  19954  19957     1
  19954  19969     1
  19954  19956     1
  19954  19964     1
  19954  19959     1
  19954  19955     1
  19955  19958     1
  19955  19962     1
  19955  19960     1
  19956  19958     1
  19965  19968     1
  19965  19969     1
  19966  19968     1
  19966  19969     1
  19970  19978     1
  19970  19986     1
  19970  19991     1
  19970  19979     1
  19971  19988     1
  19971  19989     1
  19971  19977     1
  19971  19985     1
  19972  19974     1
  19972  19983     1
  19972  19973     1
  19972  19990     1
  19972  19988     1
  19972  19989     1
  19972  19976     1
  19973  19984     1
  19973  19992     1
  19973  19975     1
  19973  19982     1
  19973  19978     1
  19973  19986     1
  19974  19986     1
  19974  19979     1
  19974  19987     1
  19975  19985     1
  19976  19978     1
  19976  19987     1
  19977  19982     1
  19977  19978     1
  19977  19980     1
  19977  19992     1
  19977  19979     1
  19977  19987     1
  19978  19983     1
  19978  19981     1
  19978  19985     1
  19979  19981     1
  19988  19992     1
  19988  19991     1
  19989  19992     1
  19989  19991     1
  19993  20001     1
  19993  20009     1
  19993  20014     1
  19993  20002     1
  19994  20000     1
  19994  20008     1
  19994  20011     1
  19994  20012     1
  19995  19997     1
  19995  20006     1
  19995  19996     1
  19995  20013     1
  19995  20011     1
  19995  20012     1
  19995  19999     1
  19996  19998     1
  19996  20005     1
  19996  20001     1
  19996  20009     1
  19996  20007     1
  19996  20015     1
  19997  20002     1
  19997  20010     1
  19997  20009     1
  19998  20008     1
  19999  20010     1
  19999  20001     1
  20000  20003     1
  20000  20015     1
  20000  20002     1
  20000  20010     1
  20000  20005     1
  20000  20001     1
  20001  20004     1
  20001  20008     1
  20001  20006     1
  20002  20004     1
  20011  20014     1
  20011  20015     1
  20012  20014     1
  20012  20015     1
  20016  20024     1
  20016  20032     1
  20016  20037     1
  20016  20025     1
  20017  20034     1
  20017  20035     1
  20017  20023     1
  20017  20031     1
  20018  20020     1
  20018  20029     1
  20018  20019     1
  20018  20036     1
  20018  20034     1
  20018  20035     1
  20018  20022     1
  20019  20030     1
  20019  20038     1
  20019  20021     1
  20019  20028     1
  20019  20024     1
  20019  20032     1
  20020  20032     1
  20020  20025     1
  20020  20033     1
  20021  20031     1
  20022  20024     1
  20022  20033     1
  20023  20028     1
  20023  20024     1
  20023  20026     1
  20023  20038     1
  20023  20025     1
  20023  20033     1
  20024  20029     1
  20024  20027     1
  20024  20031     1
  20025  20027     1
  20034  20038     1
  20034  20037     1
  20035  20038     1
  20035  20037     1
  20039  20047     1
  20039  20055     1
  20039  20060     1
  20039  20048     1
  20040  20046     1
  20040  20054     1
  20040  20057     1
  20040  20058     1
  20041  20043     1
  20041  20052     1
  20041  20042     1
  20041  20059     1
  20041  20057     1
  20041  20058     1
  20041  20045     1
  20042  20044     1
  20042  20051     1
  20042  20047     1
  20042  20055     1
  20042  20053     1
  20042  20061     1
  20043  20048     1
  20043  20056     1
  20043  20055     1
  20044  20054     1
  20045  20056     1
  20045  20047     1
  20046  20049     1
  20046  20061     1
  20046  20048     1
  20046  20056     1
  20046  20051     1
  20046  20047     1
  20047  20050     1
  20047  20054     1
  20047  20052     1
  20048  20050     1
  20057  20060     1
  20057  20061     1
  20058  20060     1
  20058  20061     1
  20062  20070     1
  20062  20078     1
  20062  20083     1
  20062  20071     1
  20063  20080     1
  20063  20081     1
  20063  20069     1
  20063  20077     1
  20064  20066     1
  20064  20075     1
  20064  20065     1
  20064  20082     1
  20064  20080     1
  20064  20081     1
  20064  20068     1
  20065  20076     1
  20065  20084     1
  20065  20067     1
  20065  20074     1
  20065  20070     1
  20065  20078     1
  20066  20078     1
  20066  20071     1
  20066  20079     1
  20067  20077     1
  20068  20070     1
  20068  20079     1
  20069  20074     1
  20069  20070     1
  20069  20072     1
  20069  20084     1
  20069  20071     1
  20069  20079     1
  20070  20075     1
  20070  20073     1
  20070  20077     1
  20071  20073     1
  20080  20084     1
  20080  20083     1
  20081  20084     1
  20081  20083     1
  20085  20093     1
  20085  20101     1
  20085  20106     1
  20085  20094     1
  20086  20092     1
  20086  20100     1
  20086  20103     1
  20086  20104     1
  20087  20089     1
  20087  20098     1
  20087  20088     1
  20087  20105     1
  20087  20103     1
  20087  20104     1
  20087  20091     1
  20088  20090     1
  20088  20097     1
  20088  20093     1
  20088  20101     1
  20088  20099     1
  20088  20107     1
  20089  20094     1
  20089  20102     1
  20089  20101     1
  20090  20100     1
  20091  20102     1
  20091  20093     1
  20092  20095     1
  20092  20107     1
  20092  20094     1
  20092  20102     1
  20092  20097     1
  20092  20093     1
  20093  20096     1
  20093  20100     1
  20093  20098     1
  20094  20096     1
  20103  20106     1
  20103  20107     1
  20104  20106     1
  20104  20107     1
  20108  20116     1
  20108  20124     1
  20108  20129     1
  20108  20117     1
  20109  20126     1
  20109  20127     1
  20109  20115     1
  20109  20123     1
  20110  20112     1
  20110  20121     1
  20110  20111     1
  20110  20128     1
  20110  20126     1
  20110  20127     1
  20110  20114     1
  20111  20122     1
  20111  20130     1
  20111  20113     1
  20111  20120     1
  20111  20116     1
  20111  20124     1
  20112  20124     1
  20112  20117     1
  20112  20125     1
  20113  20123     1
  20114  20116     1
  20114  20125     1
  20115  20120     1
  20115  20116     1
  20115  20118     1
  20115  20130     1
  20115  20117     1
  20115  20125     1
  20116  20121     1
  20116  20119     1
  20116  20123     1
  20117  20119     1
  20126  20130     1
  20126  20129     1
  20127  20130     1
  20127  20129     1
  20131  20139     1
  20131  20147     1
  20131  20152     1
  20131  20140     1
  20132  20138     1
  20132  20146     1
  20132  20149     1
  20132  20150     1
  20133  20135     1
  20133  20144     1
  20133  20134     1
  20133  20151     1
  20133  20149     1
  20133  20150     1
  20133  20137     1
  20134  20136     1
  20134  20143     1
  20134  20139     1
  20134  20147     1
  20134  20145     1
  20134  20153     1
  20135  20140     1
  20135  20148     1
  20135  20147     1
  20136  20146     1
  20137  20148     1
  20137  20139     1
  20138  20141     1
  20138  20153     1
  20138  20140     1
  20138  20148     1
  20138  20143     1
  20138  20139     1
  20139  20142     1
  20139  20146     1
  20139  20144     1
  20140  20142     1
  20149  20152     1
  20149  20153     1
  20150  20152     1
  20150  20153     1
  20154  20162     1
  20154  20170     1
  20154  20175     1
  20154  20163     1
  20155  20172     1
  20155  20173     1
  20155  20161     1
  20155  20169     1
  20156  20158     1
  20156  20167     1
  20156  20157     1
  20156  20174     1
  20156  20172     1
  20156  20173     1
  20156  20160     1
  20157  20168     1
  20157  20176     1
  20157  20159     1
  20157  20166     1
  20157  20162     1
  20157  20170     1
  20158  20170     1
  20158  20163     1
  20158  20171     1
  20159  20169     1
  20160  20162     1
  20160  20171     1
  20161  20166     1
  20161  20162     1
  20161  20164     1
  20161  20176     1
  20161  20163     1
  20161  20171     1
  20162  20167     1
  20162  20165     1
  20162  20169     1
  20163  20165     1
  20172  20176     1
  20172  20175     1
  20173  20176     1
  20173  20175     1
  20177  20185     1
  20177  20193     1
  20177  20198     1
  20177  20186     1
  20178  20184     1
  20178  20192     1
  20178  20195     1
  20178  20196     1
  20179  20181     1
  20179  20190     1
  20179  20180     1
  20179  20197     1
  20179  20195     1
  20179  20196     1
  20179  20183     1
  20180  20182     1
  20180  20189     1
  20180  20185     1
  20180  20193     1
  20180  20191     1
  20180  20199     1
  20181  20186     1
  20181  20194     1
  20181  20193     1
  20182  20192     1
  20183  20194     1
  20183  20185     1
  20184  20187     1
  20184  20199     1
  20184  20186     1
  20184  20194     1
  20184  20189     1
  20184  20185     1
  20185  20188     1
  20185  20192     1
  20185  20190     1
  20186  20188     1
  20195  20198     1
  20195  20199     1
  20196  20198     1
  20196  20199     1
  20200  20208     1
  20200  20216     1
  20200  20221     1
  20200  20209     1
  20201  20218     1
  20201  20219     1
  20201  20207     1
  20201  20215     1
  20202  20204     1
  20202  20213     1
  20202  20203     1
  20202  20220     1
  20202  20218     1
  20202  20219     1
  20202  20206     1
  20203  20214     1
  20203  20222     1
  20203  20205     1
  20203  20212     1
  20203  20208     1
  20203  20216     1
  20204  20216     1
  20204  20209     1
  20204  20217     1
  20205  20215     1
  20206  20208     1
  20206  20217     1
  20207  20212     1
  20207  20208     1
  20207  20210     1
  20207  20222     1
  20207  20209     1
  20207  20217     1
  20208  20213     1
  20208  20211     1
  20208  20215     1
  20209  20211     1
  20218  20222     1
  20218  20221     1
  20219  20222     1
  20219  20221     1
  20223  20231     1
  20223  20239     1
  20223  20244     1
  20223  20232     1
  20224  20230     1
  20224  20238     1
  20224  20241     1
  20224  20242     1
  20225  20227     1
  20225  20236     1
  20225  20226     1
  20225  20243     1
  20225  20241     1
  20225  20242     1
  20225  20229     1
  20226  20228     1
  20226  20235     1
  20226  20231     1
  20226  20239     1
  20226  20237     1
  20226  20245     1
  20227  20232     1
  20227  20240     1
  20227  20239     1
  20228  20238     1
  20229  20240     1
  20229  20231     1
  20230  20233     1
  20230  20245     1
  20230  20232     1
  20230  20240     1
  20230  20235     1
  20230  20231     1
  20231  20234     1
  20231  20238     1
  20231  20236     1
  20232  20234     1
  20241  20244     1
  20241  20245     1
  20242  20244     1
  20242  20245     1
  20246  20254     1
  20246  20262     1
  20246  20267     1
  20246  20255     1
  20247  20264     1
  20247  20265     1
  20247  20253     1
  20247  20261     1
  20248  20250     1
  20248  20259     1
  20248  20249     1
  20248  20266     1
  20248  20264     1
  20248  20265     1
  20248  20252     1
  20249  20260     1
  20249  20268     1
  20249  20251     1
  20249  20258     1
  20249  20254     1
  20249  20262     1
  20250  20262     1
  20250  20255     1
  20250  20263     1
  20251  20261     1
  20252  20254     1
  20252  20263     1
  20253  20258     1
  20253  20254     1
  20253  20256     1
  20253  20268     1
  20253  20255     1
  20253  20263     1
  20254  20259     1
  20254  20257     1
  20254  20261     1
  20255  20257     1
  20264  20268     1
  20264  20267     1
  20265  20268     1
  20265  20267     1
  20269  20277     1
  20269  20285     1
  20269  20290     1
  20269  20278     1
  20270  20276     1
  20270  20284     1
  20270  20287     1
  20270  20288     1
  20271  20273     1
  20271  20282     1
  20271  20272     1
  20271  20289     1
  20271  20287     1
  20271  20288     1
  20271  20275     1
  20272  20274     1
  20272  20281     1
  20272  20277     1
  20272  20285     1
  20272  20283     1
  20272  20291     1
  20273  20278     1
  20273  20286     1
  20273  20285     1
  20274  20284     1
  20275  20286     1
  20275  20277     1
  20276  20279     1
  20276  20291     1
  20276  20278     1
  20276  20286     1
  20276  20281     1
  20276  20277     1
  20277  20280     1
  20277  20284     1
  20277  20282     1
  20278  20280     1
  20287  20290     1
  20287  20291     1
  20288  20290     1
  20288  20291     1

[ angles ]
;    ai     aj     ak funct         c0         c1         c2         c3
      1      2     14     1   114.2100488 537.225600
      1      5     17     1   114.2100488 537.225600
      1      8     11     1   114.2100488 537.225600
      2      1      5     1   109.6600471 523.836800
      2      1      8     1   109.6600471 523.836800
      2     14     26     1   111.5100476 526.347200
      5      1      8     1   109.6600471 523.836800
      5     17     20     1   111.5100476 526.347200
      8     11     23     1   111.5100476 526.347200
     11     23     88     1   107.9700462 569.024000
     14     26    118     1   107.9700462 569.024000
     17     20     58     1   107.9700462 569.024000
     20     58     49     1   112.4800480 524.673600
     23     88     79     1   112.4800480 524.673600
     26    118    109     1   112.4800480 524.673600
     30     31     43     1   114.2100488 537.225600
     30     34     46     1   114.2100488 537.225600
     30     37     40     1   114.2100488 537.225600
     31     30     34     1   109.6600471 523.836800
     31     30     37     1   109.6600471 523.836800
     31     43     55     1   111.5100476 526.347200
     34     30     37     1   109.6600471 523.836800
     34     46     52     1   111.5100476 526.347200
     37     40     49     1   111.5100476 526.347200
     40     49     58     1   107.9700462 569.024000
     43     55    178     1   107.9700462 569.024000
     46     52    148     1   107.9700462 569.024000
     52    148    139     1   112.4800480 524.673600
     55    178    169     1   112.4800480 524.673600
     60     61     73     1   114.2100488 537.225600
     60     64     76     1   114.2100488 537.225600
     60     67     70     1   114.2100488 537.225600
     61     60     64     1   109.6600471 523.836800
     61     60     67     1   109.6600471 523.836800
     61     73     85     1   111.5100476 526.347200
     64     60     67     1   109.6600471 523.836800
     64     76     82     1   111.5100476 526.347200
     67     70     79     1   111.5100476 526.347200
     70     79     88     1   107.9700462 569.024000
     73     85    238     1   107.9700462 569.024000
     76     82    208     1   107.9700462 569.024000
     82    208    199     1   112.4800480 524.673600
     85    238    229     1   112.4800480 524.673600
     90     91    103     1   114.2100488 537.225600
     90     94    106     1   114.2100488 537.225600
     90     97    100     1   114.2100488 537.225600
     91     90     94     1   109.6600471 523.836800
     91     90     97     1   109.6600471 523.836800
     91    103    115     1   111.5100476 526.347200
     94     90     97     1   109.6600471 523.836800
     94    106    112     1   111.5100476 526.347200
     97    100    109     1   111.5100476 526.347200
    100    109    118     1   107.9700462 569.024000
    103    115    298     1   107.9700462 569.024000
    106    112    268     1   107.9700462 569.024000
    112    268    259     1   112.4800480 524.673600
    115    298    289     1   112.4800480 524.673600
    120    121    133     1   114.2100488 537.225600
    120    124    136     1   114.2100488 537.225600
    120    127    130     1   114.2100488 537.225600
    121    120    124     1   109.6600471 523.836800
    121    120    127     1   109.6600471 523.836800
    121    133    145     1   111.5100476 526.347200
    124    120    127     1   109.6600471 523.836800
    124    136    142     1   111.5100476 526.347200
    127    130    139     1   111.5100476 526.347200
    130    139    148     1   107.9700462 569.024000
    133    145    358     1   107.9700462 569.024000
    136    142    328     1   107.9700462 569.024000
    142    328    319     1   112.4800480 524.673600
    145    358    349     1   112.4800480 524.673600
    150    151    163     1   114.2100488 537.225600
    150    154    166     1   114.2100488 537.225600
    150    157    160     1   114.2100488 537.225600
    151    150    154     1   109.6600471 523.836800
    151    150    157     1   109.6600471 523.836800
    151    163    175     1   111.5100476 526.347200
    154    150    157     1   109.6600471 523.836800
    154    166    172     1   111.5100476 526.347200
    157    160    169     1   111.5100476 526.347200
    160    169    178     1   107.9700462 569.024000
    163    175    418     1   107.9700462 569.024000
    166    172    388     1   107.9700462 569.024000
    172    388    379     1   112.4800480 524.673600
    175    418    409     1   112.4800480 524.673600
    180    181    193     1   114.2100488 537.225600
    180    184    196     1   114.2100488 537.225600
    180    187    190     1   114.2100488 537.225600
    181    180    184     1   109.6600471 523.836800
    181    180    187     1   109.6600471 523.836800
    181    193    205     1   111.5100476 526.347200
    184    180    187     1   109.6600471 523.836800
    184    196    202     1   111.5100476 526.347200
    187    190    199     1   111.5100476 526.347200
    190    199    208     1   107.9700462 569.024000
    193    205    478     1   107.9700462 569.024000
    196    202    448     1   107.9700462 569.024000
    202    448    439     1   112.4800480 524.673600
    205    478    469     1   112.4800480 524.673600
    210    211    223     1   114.2100488 537.225600
    210    214    226     1   114.2100488 537.225600
    210    217    220     1   114.2100488 537.225600
    211    210    214     1   109.6600471 523.836800
    211    210    217     1   109.6600471 523.836800
    211    223    235     1   111.5100476 526.347200
    214    210    217     1   109.6600471 523.836800
    214    226    232     1   111.5100476 526.347200
    217    220    229     1   111.5100476 526.347200
    220    229    238     1   107.9700462 569.024000
    223    235    538     1   107.9700462 569.024000
    226    232    508     1   107.9700462 569.024000
    232    508    499     1   112.4800480 524.673600
    235    538    529     1   112.4800480 524.673600
    240    241    253     1   114.2100488 537.225600
    240    244    256     1   114.2100488 537.225600
    240    247    250     1   114.2100488 537.225600
    241    240    244     1   109.6600471 523.836800
    241    240    247     1   109.6600471 523.836800
    241    253    265     1   111.5100476 526.347200
    244    240    247     1   109.6600471 523.836800
    244    256    262     1   111.5100476 526.347200
    247    250    259     1   111.5100476 526.347200
    250    259    268     1   107.9700462 569.024000
    253    265    598     1   107.9700462 569.024000
    256    262    568     1   107.9700462 569.024000
    262    568    559     1   112.4800480 524.673600
    265    598    589     1   112.4800480 524.673600
    270    271    283     1   114.2100488 537.225600
    270    274    286     1   114.2100488 537.225600
    270    277    280     1   114.2100488 537.225600
    271    270    274     1   109.6600471 523.836800
    271    270    277     1   109.6600471 523.836800
    271    283    295     1   111.5100476 526.347200
    274    270    277     1   109.6600471 523.836800
    274    286    292     1   111.5100476 526.347200
    277    280    289     1   111.5100476 526.347200
    280    289    298     1   107.9700462 569.024000
    283    295    658     1   107.9700462 569.024000
    286    292    628     1   107.9700462 569.024000
    292    628    619     1   112.4800480 524.673600
    295    658    649     1   112.4800480 524.673600
    300    301    313     1   114.2100488 537.225600
    300    304    316     1   114.2100488 537.225600
    300    307    310     1   114.2100488 537.225600
    301    300    304     1   109.6600471 523.836800
    301    300    307     1   109.6600471 523.836800
    301    313    325     1   111.5100476 526.347200
    304    300    307     1   109.6600471 523.836800
    304    316    322     1   111.5100476 526.347200
    307    310    319     1   111.5100476 526.347200
    310    319    328     1   107.9700462 569.024000
    313    325    718     1   107.9700462 569.024000
    316    322    688     1   107.9700462 569.024000
    322    688    679     1   112.4800480 524.673600
    325    718    709     1   112.4800480 524.673600
    330    331    343     1   114.2100488 537.225600
    330    334    346     1   114.2100488 537.225600
    330    337    340     1   114.2100488 537.225600
    331    330    334     1   109.6600471 523.836800
    331    330    337     1   109.6600471 523.836800
    331    343    355     1   111.5100476 526.347200
    334    330    337     1   109.6600471 523.836800
    334    346    352     1   111.5100476 526.347200
    337    340    349     1   111.5100476 526.347200
    340    349    358     1   107.9700462 569.024000
    343    355    778     1   107.9700462 569.024000
    346    352    748     1   107.9700462 569.024000
    352    748    739     1   112.4800480 524.673600
    355    778    769     1   112.4800480 524.673600
    360    361    373     1   114.2100488 537.225600
    360    364    376     1   114.2100488 537.225600
    360    367    370     1   114.2100488 537.225600
    361    360    364     1   109.6600471 523.836800
    361    360    367     1   109.6600471 523.836800
    361    373    385     1   111.5100476 526.347200
    364    360    367     1   109.6600471 523.836800
    364    376    382     1   111.5100476 526.347200
    367    370    379     1   111.5100476 526.347200
    370    379    388     1   107.9700462 569.024000
    373    385    838     1   107.9700462 569.024000
    376    382    808     1   107.9700462 569.024000
    382    808    799     1   112.4800480 524.673600
    385    838    829     1   112.4800480 524.673600
    390    391    403     1   114.2100488 537.225600
    390    394    406     1   114.2100488 537.225600
    390    397    400     1   114.2100488 537.225600
    391    390    394     1   109.6600471 523.836800
    391    390    397     1   109.6600471 523.836800
    391    403    415     1   111.5100476 526.347200
    394    390    397     1   109.6600471 523.836800
    394    406    412     1   111.5100476 526.347200
    397    400    409     1   111.5100476 526.347200
    400    409    418     1   107.9700462 569.024000
    403    415    898     1   107.9700462 569.024000
    406    412    868     1   107.9700462 569.024000
    412    868    859     1   112.4800480 524.673600
    415    898    889     1   112.4800480 524.673600
    420    421    433     1   114.2100488 537.225600
    420    424    436     1   114.2100488 537.225600
    420    427    430     1   114.2100488 537.225600
    421    420    424     1   109.6600471 523.836800
    421    420    427     1   109.6600471 523.836800
    421    433    445     1   111.5100476 526.347200
    424    420    427     1   109.6600471 523.836800
    424    436    442     1   111.5100476 526.347200
    427    430    439     1   111.5100476 526.347200
    430    439    448     1   107.9700462 569.024000
    433    445    958     1   107.9700462 569.024000
    436    442    928     1   107.9700462 569.024000
    442    928    919     1   112.4800480 524.673600
    445    958    949     1   112.4800480 524.673600
    450    451    463     1   114.2100488 537.225600
    450    454    466     1   114.2100488 537.225600
    450    457    460     1   114.2100488 537.225600
    451    450    454     1   109.6600471 523.836800
    451    450    457     1   109.6600471 523.836800
    451    463    475     1   111.5100476 526.347200
    454    450    457     1   109.6600471 523.836800
    454    466    472     1   111.5100476 526.347200
    457    460    469     1   111.5100476 526.347200
    460    469    478     1   107.9700462 569.024000
    463    475   1018     1   107.9700462 569.024000
    466    472    988     1   107.9700462 569.024000
    472    988    979     1   112.4800480 524.673600
    475   1018   1009     1   112.4800480 524.673600
    480    481    493     1   114.2100488 537.225600
    480    484    496     1   114.2100488 537.225600
    480    487    490     1   114.2100488 537.225600
    481    480    484     1   109.6600471 523.836800
    481    480    487     1   109.6600471 523.836800
    481    493    505     1   111.5100476 526.347200
    484    480    487     1   109.6600471 523.836800
    484    496    502     1   111.5100476 526.347200
    487    490    499     1   111.5100476 526.347200
    490    499    508     1   107.9700462 569.024000
    493    505   1078     1   107.9700462 569.024000
    496    502   1048     1   107.9700462 569.024000
    502   1048   1039     1   112.4800480 524.673600
    505   1078   1069     1   112.4800480 524.673600
    510    511    523     1   114.2100488 537.225600
    510    514    526     1   114.2100488 537.225600
    510    517    520     1   114.2100488 537.225600
    511    510    514     1   109.6600471 523.836800
    511    510    517     1   109.6600471 523.836800
    511    523    535     1   111.5100476 526.347200
    514    510    517     1   109.6600471 523.836800
    514    526    532     1   111.5100476 526.347200
    517    520    529     1   111.5100476 526.347200
    520    529    538     1   107.9700462 569.024000
    523    535   1138     1   107.9700462 569.024000
    526    532   1108     1   107.9700462 569.024000
    532   1108   1099     1   112.4800480 524.673600
    535   1138   1129     1   112.4800480 524.673600
    540    541    553     1   114.2100488 537.225600
    540    544    556     1   114.2100488 537.225600
    540    547    550     1   114.2100488 537.225600
    541    540    544     1   109.6600471 523.836800
    541    540    547     1   109.6600471 523.836800
    541    553    565     1   111.5100476 526.347200
    544    540    547     1   109.6600471 523.836800
    544    556    562     1   111.5100476 526.347200
    547    550    559     1   111.5100476 526.347200
    550    559    568     1   107.9700462 569.024000
    553    565   1198     1   107.9700462 569.024000
    556    562   1168     1   107.9700462 569.024000
    562   1168   1159     1   112.4800480 524.673600
    565   1198   1189     1   112.4800480 524.673600
    570    571    583     1   114.2100488 537.225600
    570    574    586     1   114.2100488 537.225600
    570    577    580     1   114.2100488 537.225600
    571    570    574     1   109.6600471 523.836800
    571    570    577     1   109.6600471 523.836800
    571    583    595     1   111.5100476 526.347200
    574    570    577     1   109.6600471 523.836800
    574    586    592     1   111.5100476 526.347200
    577    580    589     1   111.5100476 526.347200
    580    589    598     1   107.9700462 569.024000
    583    595   1258     1   107.9700462 569.024000
    586    592   1228     1   107.9700462 569.024000
    592   1228   1219     1   112.4800480 524.673600
    595   1258   1249     1   112.4800480 524.673600
    600    601    613     1   114.2100488 537.225600
    600    604    616     1   114.2100488 537.225600
    600    607    610     1   114.2100488 537.225600
    601    600    604     1   109.6600471 523.836800
    601    600    607     1   109.6600471 523.836800
    601    613    625     1   111.5100476 526.347200
    604    600    607     1   109.6600471 523.836800
    604    616    622     1   111.5100476 526.347200
    607    610    619     1   111.5100476 526.347200
    610    619    628     1   107.9700462 569.024000
    613    625   1318     1   107.9700462 569.024000
    616    622   1288     1   107.9700462 569.024000
    622   1288   1279     1   112.4800480 524.673600
    625   1318   1309     1   112.4800480 524.673600
    630    631    643     1   114.2100488 537.225600
    630    634    646     1   114.2100488 537.225600
    630    637    640     1   114.2100488 537.225600
    631    630    634     1   109.6600471 523.836800
    631    630    637     1   109.6600471 523.836800
    631    643    655     1   111.5100476 526.347200
    634    630    637     1   109.6600471 523.836800
    634    646    652     1   111.5100476 526.347200
    637    640    649     1   111.5100476 526.347200
    640    649    658     1   107.9700462 569.024000
    643    655   1378     1   107.9700462 569.024000
    646    652   1348     1   107.9700462 569.024000
    652   1348   1339     1   112.4800480 524.673600
    655   1378   1369     1   112.4800480 524.673600
    660    661    673     1   114.2100488 537.225600
    660    664    676     1   114.2100488 537.225600
    660    667    670     1   114.2100488 537.225600
    661    660    664     1   109.6600471 523.836800
    661    660    667     1   109.6600471 523.836800
    661    673    685     1   111.5100476 526.347200
    664    660    667     1   109.6600471 523.836800
    664    676    682     1   111.5100476 526.347200
    667    670    679     1   111.5100476 526.347200
    670    679    688     1   107.9700462 569.024000
    673    685   1438     1   107.9700462 569.024000
    676    682   1408     1   107.9700462 569.024000
    682   1408   1399     1   112.4800480 524.673600
    685   1438   1429     1   112.4800480 524.673600
    690    691    703     1   114.2100488 537.225600
    690    694    706     1   114.2100488 537.225600
    690    697    700     1   114.2100488 537.225600
    691    690    694     1   109.6600471 523.836800
    691    690    697     1   109.6600471 523.836800
    691    703    715     1   111.5100476 526.347200
    694    690    697     1   109.6600471 523.836800
    694    706    712     1   111.5100476 526.347200
    697    700    709     1   111.5100476 526.347200
    700    709    718     1   107.9700462 569.024000
    703    715   1498     1   107.9700462 569.024000
    706    712   1468     1   107.9700462 569.024000
    712   1468   1459     1   112.4800480 524.673600
    715   1498   1489     1   112.4800480 524.673600
    720    721    733     1   114.2100488 537.225600
    720    724    736     1   114.2100488 537.225600
    720    727    730     1   114.2100488 537.225600
    721    720    724     1   109.6600471 523.836800
    721    720    727     1   109.6600471 523.836800
    721    733    745     1   111.5100476 526.347200
    724    720    727     1   109.6600471 523.836800
    724    736    742     1   111.5100476 526.347200
    727    730    739     1   111.5100476 526.347200
    730    739    748     1   107.9700462 569.024000
    733    745   1558     1   107.9700462 569.024000
    736    742   1528     1   107.9700462 569.024000
    742   1528   1519     1   112.4800480 524.673600
    745   1558   1549     1   112.4800480 524.673600
    750    751    763     1   114.2100488 537.225600
    750    754    766     1   114.2100488 537.225600
    750    757    760     1   114.2100488 537.225600
    751    750    754     1   109.6600471 523.836800
    751    750    757     1   109.6600471 523.836800
    751    763    775     1   111.5100476 526.347200
    754    750    757     1   109.6600471 523.836800
    754    766    772     1   111.5100476 526.347200
    757    760    769     1   111.5100476 526.347200
    760    769    778     1   107.9700462 569.024000
    763    775   1618     1   107.9700462 569.024000
    766    772   1588     1   107.9700462 569.024000
    772   1588   1579     1   112.4800480 524.673600
    775   1618   1609     1   112.4800480 524.673600
    780    781    793     1   114.2100488 537.225600
    780    784    796     1   114.2100488 537.225600
    780    787    790     1   114.2100488 537.225600
    781    780    784     1   109.6600471 523.836800
    781    780    787     1   109.6600471 523.836800
    781    793    805     1   111.5100476 526.347200
    784    780    787     1   109.6600471 523.836800
    784    796    802     1   111.5100476 526.347200
    787    790    799     1   111.5100476 526.347200
    790    799    808     1   107.9700462 569.024000
    793    805   1678     1   107.9700462 569.024000
    796    802   1648     1   107.9700462 569.024000
    802   1648   1639     1   112.4800480 524.673600
    805   1678   1669     1   112.4800480 524.673600
    810    811    823     1   114.2100488 537.225600
    810    814    826     1   114.2100488 537.225600
    810    817    820     1   114.2100488 537.225600
    811    810    814     1   109.6600471 523.836800
    811    810    817     1   109.6600471 523.836800
    811    823    835     1   111.5100476 526.347200
    814    810    817     1   109.6600471 523.836800
    814    826    832     1   111.5100476 526.347200
    817    820    829     1   111.5100476 526.347200
    820    829    838     1   107.9700462 569.024000
    823    835   1738     1   107.9700462 569.024000
    826    832   1708     1   107.9700462 569.024000
    832   1708   1699     1   112.4800480 524.673600
    835   1738   1729     1   112.4800480 524.673600
    840    841    853     1   114.2100488 537.225600
    840    844    856     1   114.2100488 537.225600
    840    847    850     1   114.2100488 537.225600
    841    840    844     1   109.6600471 523.836800
    841    840    847     1   109.6600471 523.836800
    841    853    865     1   111.5100476 526.347200
    844    840    847     1   109.6600471 523.836800
    844    856    862     1   111.5100476 526.347200
    847    850    859     1   111.5100476 526.347200
    850    859    868     1   107.9700462 569.024000
    853    865   1798     1   107.9700462 569.024000
    856    862   1768     1   107.9700462 569.024000
    862   1768   1759     1   112.4800480 524.673600
    865   1798   1789     1   112.4800480 524.673600
    870    871    883     1   114.2100488 537.225600
    870    874    886     1   114.2100488 537.225600
    870    877    880     1   114.2100488 537.225600
    871    870    874     1   109.6600471 523.836800
    871    870    877     1   109.6600471 523.836800
    871    883    895     1   111.5100476 526.347200
    874    870    877     1   109.6600471 523.836800
    874    886    892     1   111.5100476 526.347200
    877    880    889     1   111.5100476 526.347200
    880    889    898     1   107.9700462 569.024000
    883    895   1858     1   107.9700462 569.024000
    886    892   1828     1   107.9700462 569.024000
    892   1828   1819     1   112.4800480 524.673600
    895   1858   1849     1   112.4800480 524.673600
    900    901    913     1   114.2100488 537.225600
    900    904    916     1   114.2100488 537.225600
    900    907    910     1   114.2100488 537.225600
    901    900    904     1   109.6600471 523.836800
    901    900    907     1   109.6600471 523.836800
    901    913    925     1   111.5100476 526.347200
    904    900    907     1   109.6600471 523.836800
    904    916    922     1   111.5100476 526.347200
    907    910    919     1   111.5100476 526.347200
    910    919    928     1   107.9700462 569.024000
    913    925   1918     1   107.9700462 569.024000
    916    922   1888     1   107.9700462 569.024000
    922   1888   1879     1   112.4800480 524.673600
    925   1918   1909     1   112.4800480 524.673600
    930    931    943     1   114.2100488 537.225600
    930    934    946     1   114.2100488 537.225600
    930    937    940     1   114.2100488 537.225600
    931    930    934     1   109.6600471 523.836800
    931    930    937     1   109.6600471 523.836800
    931    943    955     1   111.5100476 526.347200
    934    930    937     1   109.6600471 523.836800
    934    946    952     1   111.5100476 526.347200
    937    940    949     1   111.5100476 526.347200
    940    949    958     1   107.9700462 569.024000
    943    955   1978     1   107.9700462 569.024000
    946    952   1948     1   107.9700462 569.024000
    952   1948   1939     1   112.4800480 524.673600
    955   1978   1969     1   112.4800480 524.673600
    960    961    973     1   114.2100488 537.225600
    960    964    976     1   114.2100488 537.225600
    960    967    970     1   114.2100488 537.225600
    961    960    964     1   109.6600471 523.836800
    961    960    967     1   109.6600471 523.836800
    961    973    985     1   111.5100476 526.347200
    964    960    967     1   109.6600471 523.836800
    964    976    982     1   111.5100476 526.347200
    967    970    979     1   111.5100476 526.347200
    970    979    988     1   107.9700462 569.024000
    973    985   2038     1   107.9700462 569.024000
    976    982   2008     1   107.9700462 569.024000
    982   2008   1999     1   112.4800480 524.673600
    985   2038   2029     1   112.4800480 524.673600
    990    991   1003     1   114.2100488 537.225600
    990    994   1006     1   114.2100488 537.225600
    990    997   1000     1   114.2100488 537.225600
    991    990    994     1   109.6600471 523.836800
    991    990    997     1   109.6600471 523.836800
    991   1003   1015     1   111.5100476 526.347200
    994    990    997     1   109.6600471 523.836800
    994   1006   1012     1   111.5100476 526.347200
    997   1000   1009     1   111.5100476 526.347200
   1000   1009   1018     1   107.9700462 569.024000
   1003   1015   2098     1   107.9700462 569.024000
   1006   1012   2068     1   107.9700462 569.024000
   1012   2068   2059     1   112.4800480 524.673600
   1015   2098   2089     1   112.4800480 524.673600
   1020   1021   1033     1   114.2100488 537.225600
   1020   1024   1036     1   114.2100488 537.225600
   1020   1027   1030     1   114.2100488 537.225600
   1021   1020   1024     1   109.6600471 523.836800
   1021   1020   1027     1   109.6600471 523.836800
   1021   1033   1045     1   111.5100476 526.347200
   1024   1020   1027     1   109.6600471 523.836800
   1024   1036   1042     1   111.5100476 526.347200
   1027   1030   1039     1   111.5100476 526.347200
   1030   1039   1048     1   107.9700462 569.024000
   1033   1045   2158     1   107.9700462 569.024000
   1036   1042   2128     1   107.9700462 569.024000
   1042   2128   2119     1   112.4800480 524.673600
   1045   2158   2149     1   112.4800480 524.673600
   1050   1051   1063     1   114.2100488 537.225600
   1050   1054   1066     1   114.2100488 537.225600
   1050   1057   1060     1   114.2100488 537.225600
   1051   1050   1054     1   109.6600471 523.836800
   1051   1050   1057     1   109.6600471 523.836800
   1051   1063   1075     1   111.5100476 526.347200
   1054   1050   1057     1   109.6600471 523.836800
   1054   1066   1072     1   111.5100476 526.347200
   1057   1060   1069     1   111.5100476 526.347200
   1060   1069   1078     1   107.9700462 569.024000
   1063   1075   2218     1   107.9700462 569.024000
   1066   1072   2188     1   107.9700462 569.024000
   1072   2188   2179     1   112.4800480 524.673600
   1075   2218   2209     1   112.4800480 524.673600
   1080   1081   1093     1   114.2100488 537.225600
   1080   1084   1096     1   114.2100488 537.225600
   1080   1087   1090     1   114.2100488 537.225600
   1081   1080   1084     1   109.6600471 523.836800
   1081   1080   1087     1   109.6600471 523.836800
   1081   1093   1105     1   111.5100476 526.347200
   1084   1080   1087     1   109.6600471 523.836800
   1084   1096   1102     1   111.5100476 526.347200
   1087   1090   1099     1   111.5100476 526.347200
   1090   1099   1108     1   107.9700462 569.024000
   1093   1105   2278     1   107.9700462 569.024000
   1096   1102   2248     1   107.9700462 569.024000
   1102   2248   2239     1   112.4800480 524.673600
   1105   2278   2269     1   112.4800480 524.673600
   1110   1111   1123     1   114.2100488 537.225600
   1110   1114   1126     1   114.2100488 537.225600
   1110   1117   1120     1   114.2100488 537.225600
   1111   1110   1114     1   109.6600471 523.836800
   1111   1110   1117     1   109.6600471 523.836800
   1111   1123   1135     1   111.5100476 526.347200
   1114   1110   1117     1   109.6600471 523.836800
   1114   1126   1132     1   111.5100476 526.347200
   1117   1120   1129     1   111.5100476 526.347200
   1120   1129   1138     1   107.9700462 569.024000
   1123   1135   2338     1   107.9700462 569.024000
   1126   1132   2308     1   107.9700462 569.024000
   1132   2308   2299     1   112.4800480 524.673600
   1135   2338   2329     1   112.4800480 524.673600
   1140   1141   1153     1   114.2100488 537.225600
   1140   1144   1156     1   114.2100488 537.225600
   1140   1147   1150     1   114.2100488 537.225600
   1141   1140   1144     1   109.6600471 523.836800
   1141   1140   1147     1   109.6600471 523.836800
   1141   1153   1165     1   111.5100476 526.347200
   1144   1140   1147     1   109.6600471 523.836800
   1144   1156   1162     1   111.5100476 526.347200
   1147   1150   1159     1   111.5100476 526.347200
   1150   1159   1168     1   107.9700462 569.024000
   1153   1165   2398     1   107.9700462 569.024000
   1156   1162   2368     1   107.9700462 569.024000
   1162   2368   2359     1   112.4800480 524.673600
   1165   2398   2389     1   112.4800480 524.673600
   1170   1171   1183     1   114.2100488 537.225600
   1170   1174   1186     1   114.2100488 537.225600
   1170   1177   1180     1   114.2100488 537.225600
   1171   1170   1174     1   109.6600471 523.836800
   1171   1170   1177     1   109.6600471 523.836800
   1171   1183   1195     1   111.5100476 526.347200
   1174   1170   1177     1   109.6600471 523.836800
   1174   1186   1192     1   111.5100476 526.347200
   1177   1180   1189     1   111.5100476 526.347200
   1180   1189   1198     1   107.9700462 569.024000
   1183   1195   2458     1   107.9700462 569.024000
   1186   1192   2428     1   107.9700462 569.024000
   1192   2428   2419     1   112.4800480 524.673600
   1195   2458   2449     1   112.4800480 524.673600
   1200   1201   1213     1   114.2100488 537.225600
   1200   1204   1216     1   114.2100488 537.225600
   1200   1207   1210     1   114.2100488 537.225600
   1201   1200   1204     1   109.6600471 523.836800
   1201   1200   1207     1   109.6600471 523.836800
   1201   1213   1225     1   111.5100476 526.347200
   1204   1200   1207     1   109.6600471 523.836800
   1204   1216   1222     1   111.5100476 526.347200
   1207   1210   1219     1   111.5100476 526.347200
   1210   1219   1228     1   107.9700462 569.024000
   1213   1225   2518     1   107.9700462 569.024000
   1216   1222   2488     1   107.9700462 569.024000
   1222   2488   2479     1   112.4800480 524.673600
   1225   2518   2509     1   112.4800480 524.673600
   1230   1231   1243     1   114.2100488 537.225600
   1230   1234   1246     1   114.2100488 537.225600
   1230   1237   1240     1   114.2100488 537.225600
   1231   1230   1234     1   109.6600471 523.836800
   1231   1230   1237     1   109.6600471 523.836800
   1231   1243   1255     1   111.5100476 526.347200
   1234   1230   1237     1   109.6600471 523.836800
   1234   1246   1252     1   111.5100476 526.347200
   1237   1240   1249     1   111.5100476 526.347200
   1240   1249   1258     1   107.9700462 569.024000
   1243   1255   2578     1   107.9700462 569.024000
   1246   1252   2548     1   107.9700462 569.024000
   1252   2548   2539     1   112.4800480 524.673600
   1255   2578   2569     1   112.4800480 524.673600
   1260   1261   1273     1   114.2100488 537.225600
   1260   1264   1276     1   114.2100488 537.225600
   1260   1267   1270     1   114.2100488 537.225600
   1261   1260   1264     1   109.6600471 523.836800
   1261   1260   1267     1   109.6600471 523.836800
   1261   1273   1285     1   111.5100476 526.347200
   1264   1260   1267     1   109.6600471 523.836800
   1264   1276   1282     1   111.5100476 526.347200
   1267   1270   1279     1   111.5100476 526.347200
   1270   1279   1288     1   107.9700462 569.024000
   1273   1285   2638     1   107.9700462 569.024000
   1276   1282   2608     1   107.9700462 569.024000
   1282   2608   2599     1   112.4800480 524.673600
   1285   2638   2629     1   112.4800480 524.673600
   1290   1291   1303     1   114.2100488 537.225600
   1290   1294   1306     1   114.2100488 537.225600
   1290   1297   1300     1   114.2100488 537.225600
   1291   1290   1294     1   109.6600471 523.836800
   1291   1290   1297     1   109.6600471 523.836800
   1291   1303   1315     1   111.5100476 526.347200
   1294   1290   1297     1   109.6600471 523.836800
   1294   1306   1312     1   111.5100476 526.347200
   1297   1300   1309     1   111.5100476 526.347200
   1300   1309   1318     1   107.9700462 569.024000
   1303   1315   2698     1   107.9700462 569.024000
   1306   1312   2668     1   107.9700462 569.024000
   1312   2668   2659     1   112.4800480 524.673600
   1315   2698   2689     1   112.4800480 524.673600
   1320   1321   1333     1   114.2100488 537.225600
   1320   1324   1336     1   114.2100488 537.225600
   1320   1327   1330     1   114.2100488 537.225600
   1321   1320   1324     1   109.6600471 523.836800
   1321   1320   1327     1   109.6600471 523.836800
   1321   1333   1345     1   111.5100476 526.347200
   1324   1320   1327     1   109.6600471 523.836800
   1324   1336   1342     1   111.5100476 526.347200
   1327   1330   1339     1   111.5100476 526.347200
   1330   1339   1348     1   107.9700462 569.024000
   1333   1345   2758     1   107.9700462 569.024000
   1336   1342   2728     1   107.9700462 569.024000
   1342   2728   2719     1   112.4800480 524.673600
   1345   2758   2749     1   112.4800480 524.673600
   1350   1351   1363     1   114.2100488 537.225600
   1350   1354   1366     1   114.2100488 537.225600
   1350   1357   1360     1   114.2100488 537.225600
   1351   1350   1354     1   109.6600471 523.836800
   1351   1350   1357     1   109.6600471 523.836800
   1351   1363   1375     1   111.5100476 526.347200
   1354   1350   1357     1   109.6600471 523.836800
   1354   1366   1372     1   111.5100476 526.347200
   1357   1360   1369     1   111.5100476 526.347200
   1360   1369   1378     1   107.9700462 569.024000
   1363   1375   2818     1   107.9700462 569.024000
   1366   1372   2788     1   107.9700462 569.024000
   1372   2788   2779     1   112.4800480 524.673600
   1375   2818   2809     1   112.4800480 524.673600
   1380   1381   1393     1   114.2100488 537.225600
   1380   1384   1396     1   114.2100488 537.225600
   1380   1387   1390     1   114.2100488 537.225600
   1381   1380   1384     1   109.6600471 523.836800
   1381   1380   1387     1   109.6600471 523.836800
   1381   1393   1405     1   111.5100476 526.347200
   1384   1380   1387     1   109.6600471 523.836800
   1384   1396   1402     1   111.5100476 526.347200
   1387   1390   1399     1   111.5100476 526.347200
   1390   1399   1408     1   107.9700462 569.024000
   1393   1405   2878     1   107.9700462 569.024000
   1396   1402   2848     1   107.9700462 569.024000
   1402   2848   2839     1   112.4800480 524.673600
   1405   2878   2869     1   112.4800480 524.673600
   1410   1411   1423     1   114.2100488 537.225600
   1410   1414   1426     1   114.2100488 537.225600
   1410   1417   1420     1   114.2100488 537.225600
   1411   1410   1414     1   109.6600471 523.836800
   1411   1410   1417     1   109.6600471 523.836800
   1411   1423   1435     1   111.5100476 526.347200
   1414   1410   1417     1   109.6600471 523.836800
   1414   1426   1432     1   111.5100476 526.347200
   1417   1420   1429     1   111.5100476 526.347200
   1420   1429   1438     1   107.9700462 569.024000
   1423   1435   2938     1   107.9700462 569.024000
   1426   1432   2908     1   107.9700462 569.024000
   1432   2908   2899     1   112.4800480 524.673600
   1435   2938   2929     1   112.4800480 524.673600
   1440   1441   1453     1   114.2100488 537.225600
   1440   1444   1456     1   114.2100488 537.225600
   1440   1447   1450     1   114.2100488 537.225600
   1441   1440   1444     1   109.6600471 523.836800
   1441   1440   1447     1   109.6600471 523.836800
   1441   1453   1465     1   111.5100476 526.347200
   1444   1440   1447     1   109.6600471 523.836800
   1444   1456   1462     1   111.5100476 526.347200
   1447   1450   1459     1   111.5100476 526.347200
   1450   1459   1468     1   107.9700462 569.024000
   1453   1465   2998     1   107.9700462 569.024000
   1456   1462   2968     1   107.9700462 569.024000
   1462   2968   2959     1   112.4800480 524.673600
   1465   2998   2989     1   112.4800480 524.673600
   1470   1471   1483     1   114.2100488 537.225600
   1470   1474   1486     1   114.2100488 537.225600
   1470   1477   1480     1   114.2100488 537.225600
   1471   1470   1474     1   109.6600471 523.836800
   1471   1470   1477     1   109.6600471 523.836800
   1471   1483   1495     1   111.5100476 526.347200
   1474   1470   1477     1   109.6600471 523.836800
   1474   1486   1492     1   111.5100476 526.347200
   1477   1480   1489     1   111.5100476 526.347200
   1480   1489   1498     1   107.9700462 569.024000
   1483   1495   3058     1   107.9700462 569.024000
   1486   1492   3028     1   107.9700462 569.024000
   1492   3028   3019     1   112.4800480 524.673600
   1495   3058   3049     1   112.4800480 524.673600
   1500   1501   1513     1   114.2100488 537.225600
   1500   1504   1516     1   114.2100488 537.225600
   1500   1507   1510     1   114.2100488 537.225600
   1501   1500   1504     1   109.6600471 523.836800
   1501   1500   1507     1   109.6600471 523.836800
   1501   1513   1525     1   111.5100476 526.347200
   1504   1500   1507     1   109.6600471 523.836800
   1504   1516   1522     1   111.5100476 526.347200
   1507   1510   1519     1   111.5100476 526.347200
   1510   1519   1528     1   107.9700462 569.024000
   1513   1525   3118     1   107.9700462 569.024000
   1516   1522   3088     1   107.9700462 569.024000
   1522   3088   3079     1   112.4800480 524.673600
   1525   3118   3109     1   112.4800480 524.673600
   1530   1531   1543     1   114.2100488 537.225600
   1530   1534   1546     1   114.2100488 537.225600
   1530   1537   1540     1   114.2100488 537.225600
   1531   1530   1534     1   109.6600471 523.836800
   1531   1530   1537     1   109.6600471 523.836800
   1531   1543   1555     1   111.5100476 526.347200
   1534   1530   1537     1   109.6600471 523.836800
   1534   1546   1552     1   111.5100476 526.347200
   1537   1540   1549     1   111.5100476 526.347200
   1540   1549   1558     1   107.9700462 569.024000
   1543   1555   3178     1   107.9700462 569.024000
   1546   1552   3148     1   107.9700462 569.024000
   1552   3148   3139     1   112.4800480 524.673600
   1555   3178   3169     1   112.4800480 524.673600
   1560   1561   1573     1   114.2100488 537.225600
   1560   1564   1576     1   114.2100488 537.225600
   1560   1567   1570     1   114.2100488 537.225600
   1561   1560   1564     1   109.6600471 523.836800
   1561   1560   1567     1   109.6600471 523.836800
   1561   1573   1585     1   111.5100476 526.347200
   1564   1560   1567     1   109.6600471 523.836800
   1564   1576   1582     1   111.5100476 526.347200
   1567   1570   1579     1   111.5100476 526.347200
   1570   1579   1588     1   107.9700462 569.024000
   1573   1585   3238     1   107.9700462 569.024000
   1576   1582   3208     1   107.9700462 569.024000
   1582   3208   3199     1   112.4800480 524.673600
   1585   3238   3229     1   112.4800480 524.673600
   1590   1591   1603     1   114.2100488 537.225600
   1590   1594   1606     1   114.2100488 537.225600
   1590   1597   1600     1   114.2100488 537.225600
   1591   1590   1594     1   109.6600471 523.836800
   1591   1590   1597     1   109.6600471 523.836800
   1591   1603   1615     1   111.5100476 526.347200
   1594   1590   1597     1   109.6600471 523.836800
   1594   1606   1612     1   111.5100476 526.347200
   1597   1600   1609     1   111.5100476 526.347200
   1600   1609   1618     1   107.9700462 569.024000
   1603   1615   3298     1   107.9700462 569.024000
   1606   1612   3268     1   107.9700462 569.024000
   1612   3268   3259     1   112.4800480 524.673600
   1615   3298   3289     1   112.4800480 524.673600
   1620   1621   1633     1   114.2100488 537.225600
   1620   1624   1636     1   114.2100488 537.225600
   1620   1627   1630     1   114.2100488 537.225600
   1621   1620   1624     1   109.6600471 523.836800
   1621   1620   1627     1   109.6600471 523.836800
   1621   1633   1645     1   111.5100476 526.347200
   1624   1620   1627     1   109.6600471 523.836800
   1624   1636   1642     1   111.5100476 526.347200
   1627   1630   1639     1   111.5100476 526.347200
   1630   1639   1648     1   107.9700462 569.024000
   1633   1645   3358     1   107.9700462 569.024000
   1636   1642   3328     1   107.9700462 569.024000
   1642   3328   3319     1   112.4800480 524.673600
   1645   3358   3349     1   112.4800480 524.673600
   1650   1651   1663     1   114.2100488 537.225600
   1650   1654   1666     1   114.2100488 537.225600
   1650   1657   1660     1   114.2100488 537.225600
   1651   1650   1654     1   109.6600471 523.836800
   1651   1650   1657     1   109.6600471 523.836800
   1651   1663   1675     1   111.5100476 526.347200
   1654   1650   1657     1   109.6600471 523.836800
   1654   1666   1672     1   111.5100476 526.347200
   1657   1660   1669     1   111.5100476 526.347200
   1660   1669   1678     1   107.9700462 569.024000
   1663   1675   3418     1   107.9700462 569.024000
   1666   1672   3388     1   107.9700462 569.024000
   1672   3388   3379     1   112.4800480 524.673600
   1675   3418   3409     1   112.4800480 524.673600
   1680   1681   1693     1   114.2100488 537.225600
   1680   1684   1696     1   114.2100488 537.225600
   1680   1687   1690     1   114.2100488 537.225600
   1681   1680   1684     1   109.6600471 523.836800
   1681   1680   1687     1   109.6600471 523.836800
   1681   1693   1705     1   111.5100476 526.347200
   1684   1680   1687     1   109.6600471 523.836800
   1684   1696   1702     1   111.5100476 526.347200
   1687   1690   1699     1   111.5100476 526.347200
   1690   1699   1708     1   107.9700462 569.024000
   1693   1705   3478     1   107.9700462 569.024000
   1696   1702   3448     1   107.9700462 569.024000
   1702   3448   3439     1   112.4800480 524.673600
   1705   3478   3469     1   112.4800480 524.673600
   1710   1711   1723     1   114.2100488 537.225600
   1710   1714   1726     1   114.2100488 537.225600
   1710   1717   1720     1   114.2100488 537.225600
   1711   1710   1714     1   109.6600471 523.836800
   1711   1710   1717     1   109.6600471 523.836800
   1711   1723   1735     1   111.5100476 526.347200
   1714   1710   1717     1   109.6600471 523.836800
   1714   1726   1732     1   111.5100476 526.347200
   1717   1720   1729     1   111.5100476 526.347200
   1720   1729   1738     1   107.9700462 569.024000
   1723   1735   3538     1   107.9700462 569.024000
   1726   1732   3508     1   107.9700462 569.024000
   1732   3508   3499     1   112.4800480 524.673600
   1735   3538   3529     1   112.4800480 524.673600
   1740   1741   1753     1   114.2100488 537.225600
   1740   1744   1756     1   114.2100488 537.225600
   1740   1747   1750     1   114.2100488 537.225600
   1741   1740   1744     1   109.6600471 523.836800
   1741   1740   1747     1   109.6600471 523.836800
   1741   1753   1765     1   111.5100476 526.347200
   1744   1740   1747     1   109.6600471 523.836800
   1744   1756   1762     1   111.5100476 526.347200
   1747   1750   1759     1   111.5100476 526.347200
   1750   1759   1768     1   107.9700462 569.024000
   1753   1765   3598     1   107.9700462 569.024000
   1756   1762   3568     1   107.9700462 569.024000
   1762   3568   3559     1   112.4800480 524.673600
   1765   3598   3589     1   112.4800480 524.673600
   1770   1771   1783     1   114.2100488 537.225600
   1770   1774   1786     1   114.2100488 537.225600
   1770   1777   1780     1   114.2100488 537.225600
   1771   1770   1774     1   109.6600471 523.836800
   1771   1770   1777     1   109.6600471 523.836800
   1771   1783   1795     1   111.5100476 526.347200
   1774   1770   1777     1   109.6600471 523.836800
   1774   1786   1792     1   111.5100476 526.347200
   1777   1780   1789     1   111.5100476 526.347200
   1780   1789   1798     1   107.9700462 569.024000
   1783   1795   3658     1   107.9700462 569.024000
   1786   1792   3628     1   107.9700462 569.024000
   1792   3628   3619     1   112.4800480 524.673600
   1795   3658   3649     1   112.4800480 524.673600
   1800   1801   1813     1   114.2100488 537.225600
   1800   1804   1816     1   114.2100488 537.225600
   1800   1807   1810     1   114.2100488 537.225600
   1801   1800   1804     1   109.6600471 523.836800
   1801   1800   1807     1   109.6600471 523.836800
   1801   1813   1825     1   111.5100476 526.347200
   1804   1800   1807     1   109.6600471 523.836800
   1804   1816   1822     1   111.5100476 526.347200
   1807   1810   1819     1   111.5100476 526.347200
   1810   1819   1828     1   107.9700462 569.024000
   1813   1825   3718     1   107.9700462 569.024000
   1816   1822   3688     1   107.9700462 569.024000
   1822   3688   3679     1   112.4800480 524.673600
   1825   3718   3709     1   112.4800480 524.673600
   1830   1831   1843     1   114.2100488 537.225600
   1830   1834   1846     1   114.2100488 537.225600
   1830   1837   1840     1   114.2100488 537.225600
   1831   1830   1834     1   109.6600471 523.836800
   1831   1830   1837     1   109.6600471 523.836800
   1831   1843   1855     1   111.5100476 526.347200
   1834   1830   1837     1   109.6600471 523.836800
   1834   1846   1852     1   111.5100476 526.347200
   1837   1840   1849     1   111.5100476 526.347200
   1840   1849   1858     1   107.9700462 569.024000
   1843   1855   3778     1   107.9700462 569.024000
   1846   1852   3748     1   107.9700462 569.024000
   1852   3748   3739     1   112.4800480 524.673600
   1855   3778   3769     1   112.4800480 524.673600
   1860   1861   1873     1   114.2100488 537.225600
   1860   1864   1876     1   114.2100488 537.225600
   1860   1867   1870     1   114.2100488 537.225600
   1861   1860   1864     1   109.6600471 523.836800
   1861   1860   1867     1   109.6600471 523.836800
   1861   1873   1885     1   111.5100476 526.347200
   1864   1860   1867     1   109.6600471 523.836800
   1864   1876   1882     1   111.5100476 526.347200
   1867   1870   1879     1   111.5100476 526.347200
   1870   1879   1888     1   107.9700462 569.024000
   1873   1885   3838     1   107.9700462 569.024000
   1876   1882   3808     1   107.9700462 569.024000
   1882   3808   3799     1   112.4800480 524.673600
   1885   3838   3829     1   112.4800480 524.673600
   1890   1891   1903     1   114.2100488 537.225600
   1890   1894   1906     1   114.2100488 537.225600
   1890   1897   1900     1   114.2100488 537.225600
   1891   1890   1894     1   109.6600471 523.836800
   1891   1890   1897     1   109.6600471 523.836800
   1891   1903   1915     1   111.5100476 526.347200
   1894   1890   1897     1   109.6600471 523.836800
   1894   1906   1912     1   111.5100476 526.347200
   1897   1900   1909     1   111.5100476 526.347200
   1900   1909   1918     1   107.9700462 569.024000
   1903   1915   3898     1   107.9700462 569.024000
   1906   1912   3868     1   107.9700462 569.024000
   1912   3868   3859     1   112.4800480 524.673600
   1915   3898   3889     1   112.4800480 524.673600
   1920   1921   1933     1   114.2100488 537.225600
   1920   1924   1936     1   114.2100488 537.225600
   1920   1927   1930     1   114.2100488 537.225600
   1921   1920   1924     1   109.6600471 523.836800
   1921   1920   1927     1   109.6600471 523.836800
   1921   1933   1945     1   111.5100476 526.347200
   1924   1920   1927     1   109.6600471 523.836800
   1924   1936   1942     1   111.5100476 526.347200
   1927   1930   1939     1   111.5100476 526.347200
   1930   1939   1948     1   107.9700462 569.024000
   1933   1945   3958     1   107.9700462 569.024000
   1936   1942   3928     1   107.9700462 569.024000
   1942   3928   3919     1   112.4800480 524.673600
   1945   3958   3949     1   112.4800480 524.673600
   1950   1951   1963     1   114.2100488 537.225600
   1950   1954   1966     1   114.2100488 537.225600
   1950   1957   1960     1   114.2100488 537.225600
   1951   1950   1954     1   109.6600471 523.836800
   1951   1950   1957     1   109.6600471 523.836800
   1951   1963   1975     1   111.5100476 526.347200
   1954   1950   1957     1   109.6600471 523.836800
   1954   1966   1972     1   111.5100476 526.347200
   1957   1960   1969     1   111.5100476 526.347200
   1960   1969   1978     1   107.9700462 569.024000
   1963   1975   4018     1   107.9700462 569.024000
   1966   1972   3988     1   107.9700462 569.024000
   1972   3988   3979     1   112.4800480 524.673600
   1975   4018   4009     1   112.4800480 524.673600
   1980   1981   1993     1   114.2100488 537.225600
   1980   1984   1996     1   114.2100488 537.225600
   1980   1987   1990     1   114.2100488 537.225600
   1981   1980   1984     1   109.6600471 523.836800
   1981   1980   1987     1   109.6600471 523.836800
   1981   1993   2005     1   111.5100476 526.347200
   1984   1980   1987     1   109.6600471 523.836800
   1984   1996   2002     1   111.5100476 526.347200
   1987   1990   1999     1   111.5100476 526.347200
   1990   1999   2008     1   107.9700462 569.024000
   1993   2005   4078     1   107.9700462 569.024000
   1996   2002   4048     1   107.9700462 569.024000
   2002   4048   4039     1   112.4800480 524.673600
   2005   4078   4069     1   112.4800480 524.673600
   2010   2011   2023     1   114.2100488 537.225600
   2010   2014   2026     1   114.2100488 537.225600
   2010   2017   2020     1   114.2100488 537.225600
   2011   2010   2014     1   109.6600471 523.836800
   2011   2010   2017     1   109.6600471 523.836800
   2011   2023   2035     1   111.5100476 526.347200
   2014   2010   2017     1   109.6600471 523.836800
   2014   2026   2032     1   111.5100476 526.347200
   2017   2020   2029     1   111.5100476 526.347200
   2020   2029   2038     1   107.9700462 569.024000
   2023   2035   4138     1   107.9700462 569.024000
   2026   2032   4108     1   107.9700462 569.024000
   2032   4108   4099     1   112.4800480 524.673600
   2035   4138   4129     1   112.4800480 524.673600
   2040   2041   2053     1   114.2100488 537.225600
   2040   2044   2056     1   114.2100488 537.225600
   2040   2047   2050     1   114.2100488 537.225600
   2041   2040   2044     1   109.6600471 523.836800
   2041   2040   2047     1   109.6600471 523.836800
   2041   2053   2065     1   111.5100476 526.347200
   2044   2040   2047     1   109.6600471 523.836800
   2044   2056   2062     1   111.5100476 526.347200
   2047   2050   2059     1   111.5100476 526.347200
   2050   2059   2068     1   107.9700462 569.024000
   2053   2065   4198     1   107.9700462 569.024000
   2056   2062   4168     1   107.9700462 569.024000
   2062   4168   4159     1   112.4800480 524.673600
   2065   4198   4189     1   112.4800480 524.673600
   2070   2071   2083     1   114.2100488 537.225600
   2070   2074   2086     1   114.2100488 537.225600
   2070   2077   2080     1   114.2100488 537.225600
   2071   2070   2074     1   109.6600471 523.836800
   2071   2070   2077     1   109.6600471 523.836800
   2071   2083   2095     1   111.5100476 526.347200
   2074   2070   2077     1   109.6600471 523.836800
   2074   2086   2092     1   111.5100476 526.347200
   2077   2080   2089     1   111.5100476 526.347200
   2080   2089   2098     1   107.9700462 569.024000
   2083   2095   4258     1   107.9700462 569.024000
   2086   2092   4228     1   107.9700462 569.024000
   2092   4228   4219     1   112.4800480 524.673600
   2095   4258   4249     1   112.4800480 524.673600
   2100   2101   2113     1   114.2100488 537.225600
   2100   2104   2116     1   114.2100488 537.225600
   2100   2107   2110     1   114.2100488 537.225600
   2101   2100   2104     1   109.6600471 523.836800
   2101   2100   2107     1   109.6600471 523.836800
   2101   2113   2125     1   111.5100476 526.347200
   2104   2100   2107     1   109.6600471 523.836800
   2104   2116   2122     1   111.5100476 526.347200
   2107   2110   2119     1   111.5100476 526.347200
   2110   2119   2128     1   107.9700462 569.024000
   2113   2125   4318     1   107.9700462 569.024000
   2116   2122   4288     1   107.9700462 569.024000
   2122   4288   4279     1   112.4800480 524.673600
   2125   4318   4309     1   112.4800480 524.673600
   2130   2131   2143     1   114.2100488 537.225600
   2130   2134   2146     1   114.2100488 537.225600
   2130   2137   2140     1   114.2100488 537.225600
   2131   2130   2134     1   109.6600471 523.836800
   2131   2130   2137     1   109.6600471 523.836800
   2131   2143   2155     1   111.5100476 526.347200
   2134   2130   2137     1   109.6600471 523.836800
   2134   2146   2152     1   111.5100476 526.347200
   2137   2140   2149     1   111.5100476 526.347200
   2140   2149   2158     1   107.9700462 569.024000
   2143   2155   4378     1   107.9700462 569.024000
   2146   2152   4348     1   107.9700462 569.024000
   2152   4348   4339     1   112.4800480 524.673600
   2155   4378   4369     1   112.4800480 524.673600
   2160   2161   2173     1   114.2100488 537.225600
   2160   2164   2176     1   114.2100488 537.225600
   2160   2167   2170     1   114.2100488 537.225600
   2161   2160   2164     1   109.6600471 523.836800
   2161   2160   2167     1   109.6600471 523.836800
   2161   2173   2185     1   111.5100476 526.347200
   2164   2160   2167     1   109.6600471 523.836800
   2164   2176   2182     1   111.5100476 526.347200
   2167   2170   2179     1   111.5100476 526.347200
   2170   2179   2188     1   107.9700462 569.024000
   2173   2185   4438     1   107.9700462 569.024000
   2176   2182   4408     1   107.9700462 569.024000
   2182   4408   4399     1   112.4800480 524.673600
   2185   4438   4429     1   112.4800480 524.673600
   2190   2191   2203     1   114.2100488 537.225600
   2190   2194   2206     1   114.2100488 537.225600
   2190   2197   2200     1   114.2100488 537.225600
   2191   2190   2194     1   109.6600471 523.836800
   2191   2190   2197     1   109.6600471 523.836800
   2191   2203   2215     1   111.5100476 526.347200
   2194   2190   2197     1   109.6600471 523.836800
   2194   2206   2212     1   111.5100476 526.347200
   2197   2200   2209     1   111.5100476 526.347200
   2200   2209   2218     1   107.9700462 569.024000
   2203   2215   4498     1   107.9700462 569.024000
   2206   2212   4468     1   107.9700462 569.024000
   2212   4468   4459     1   112.4800480 524.673600
   2215   4498   4489     1   112.4800480 524.673600
   2220   2221   2233     1   114.2100488 537.225600
   2220   2224   2236     1   114.2100488 537.225600
   2220   2227   2230     1   114.2100488 537.225600
   2221   2220   2224     1   109.6600471 523.836800
   2221   2220   2227     1   109.6600471 523.836800
   2221   2233   2245     1   111.5100476 526.347200
   2224   2220   2227     1   109.6600471 523.836800
   2224   2236   2242     1   111.5100476 526.347200
   2227   2230   2239     1   111.5100476 526.347200
   2230   2239   2248     1   107.9700462 569.024000
   2233   2245   4558     1   107.9700462 569.024000
   2236   2242   4528     1   107.9700462 569.024000
   2242   4528   4519     1   112.4800480 524.673600
   2245   4558   4549     1   112.4800480 524.673600
   2250   2251   2263     1   114.2100488 537.225600
   2250   2254   2266     1   114.2100488 537.225600
   2250   2257   2260     1   114.2100488 537.225600
   2251   2250   2254     1   109.6600471 523.836800
   2251   2250   2257     1   109.6600471 523.836800
   2251   2263   2275     1   111.5100476 526.347200
   2254   2250   2257     1   109.6600471 523.836800
   2254   2266   2272     1   111.5100476 526.347200
   2257   2260   2269     1   111.5100476 526.347200
   2260   2269   2278     1   107.9700462 569.024000
   2263   2275   4618     1   107.9700462 569.024000
   2266   2272   4588     1   107.9700462 569.024000
   2272   4588   4579     1   112.4800480 524.673600
   2275   4618   4609     1   112.4800480 524.673600
   2280   2281   2293     1   114.2100488 537.225600
   2280   2284   2296     1   114.2100488 537.225600
   2280   2287   2290     1   114.2100488 537.225600
   2281   2280   2284     1   109.6600471 523.836800
   2281   2280   2287     1   109.6600471 523.836800
   2281   2293   2305     1   111.5100476 526.347200
   2284   2280   2287     1   109.6600471 523.836800
   2284   2296   2302     1   111.5100476 526.347200
   2287   2290   2299     1   111.5100476 526.347200
   2290   2299   2308     1   107.9700462 569.024000
   2293   2305   4678     1   107.9700462 569.024000
   2296   2302   4648     1   107.9700462 569.024000
   2302   4648   4639     1   112.4800480 524.673600
   2305   4678   4669     1   112.4800480 524.673600
   2310   2311   2323     1   114.2100488 537.225600
   2310   2314   2326     1   114.2100488 537.225600
   2310   2317   2320     1   114.2100488 537.225600
   2311   2310   2314     1   109.6600471 523.836800
   2311   2310   2317     1   109.6600471 523.836800
   2311   2323   2335     1   111.5100476 526.347200
   2314   2310   2317     1   109.6600471 523.836800
   2314   2326   2332     1   111.5100476 526.347200
   2317   2320   2329     1   111.5100476 526.347200
   2320   2329   2338     1   107.9700462 569.024000
   2323   2335   4738     1   107.9700462 569.024000
   2326   2332   4708     1   107.9700462 569.024000
   2332   4708   4699     1   112.4800480 524.673600
   2335   4738   4729     1   112.4800480 524.673600
   2340   2341   2353     1   114.2100488 537.225600
   2340   2344   2356     1   114.2100488 537.225600
   2340   2347   2350     1   114.2100488 537.225600
   2341   2340   2344     1   109.6600471 523.836800
   2341   2340   2347     1   109.6600471 523.836800
   2341   2353   2365     1   111.5100476 526.347200
   2344   2340   2347     1   109.6600471 523.836800
   2344   2356   2362     1   111.5100476 526.347200
   2347   2350   2359     1   111.5100476 526.347200
   2350   2359   2368     1   107.9700462 569.024000
   2353   2365   4798     1   107.9700462 569.024000
   2356   2362   4768     1   107.9700462 569.024000
   2362   4768   4759     1   112.4800480 524.673600
   2365   4798   4789     1   112.4800480 524.673600
   2370   2371   2383     1   114.2100488 537.225600
   2370   2374   2386     1   114.2100488 537.225600
   2370   2377   2380     1   114.2100488 537.225600
   2371   2370   2374     1   109.6600471 523.836800
   2371   2370   2377     1   109.6600471 523.836800
   2371   2383   2395     1   111.5100476 526.347200
   2374   2370   2377     1   109.6600471 523.836800
   2374   2386   2392     1   111.5100476 526.347200
   2377   2380   2389     1   111.5100476 526.347200
   2380   2389   2398     1   107.9700462 569.024000
   2383   2395   4858     1   107.9700462 569.024000
   2386   2392   4828     1   107.9700462 569.024000
   2392   4828   4819     1   112.4800480 524.673600
   2395   4858   4849     1   112.4800480 524.673600
   2400   2401   2413     1   114.2100488 537.225600
   2400   2404   2416     1   114.2100488 537.225600
   2400   2407   2410     1   114.2100488 537.225600
   2401   2400   2404     1   109.6600471 523.836800
   2401   2400   2407     1   109.6600471 523.836800
   2401   2413   2425     1   111.5100476 526.347200
   2404   2400   2407     1   109.6600471 523.836800
   2404   2416   2422     1   111.5100476 526.347200
   2407   2410   2419     1   111.5100476 526.347200
   2410   2419   2428     1   107.9700462 569.024000
   2413   2425   4918     1   107.9700462 569.024000
   2416   2422   4888     1   107.9700462 569.024000
   2422   4888   4879     1   112.4800480 524.673600
   2425   4918   4909     1   112.4800480 524.673600
   2430   2431   2443     1   114.2100488 537.225600
   2430   2434   2446     1   114.2100488 537.225600
   2430   2437   2440     1   114.2100488 537.225600
   2431   2430   2434     1   109.6600471 523.836800
   2431   2430   2437     1   109.6600471 523.836800
   2431   2443   2455     1   111.5100476 526.347200
   2434   2430   2437     1   109.6600471 523.836800
   2434   2446   2452     1   111.5100476 526.347200
   2437   2440   2449     1   111.5100476 526.347200
   2440   2449   2458     1   107.9700462 569.024000
   2443   2455   4978     1   107.9700462 569.024000
   2446   2452   4948     1   107.9700462 569.024000
   2452   4948   4939     1   112.4800480 524.673600
   2455   4978   4969     1   112.4800480 524.673600
   2460   2461   2473     1   114.2100488 537.225600
   2460   2464   2476     1   114.2100488 537.225600
   2460   2467   2470     1   114.2100488 537.225600
   2461   2460   2464     1   109.6600471 523.836800
   2461   2460   2467     1   109.6600471 523.836800
   2461   2473   2485     1   111.5100476 526.347200
   2464   2460   2467     1   109.6600471 523.836800
   2464   2476   2482     1   111.5100476 526.347200
   2467   2470   2479     1   111.5100476 526.347200
   2470   2479   2488     1   107.9700462 569.024000
   2473   2485   5038     1   107.9700462 569.024000
   2476   2482   5008     1   107.9700462 569.024000
   2482   5008   4999     1   112.4800480 524.673600
   2485   5038   5029     1   112.4800480 524.673600
   2490   2491   2503     1   114.2100488 537.225600
   2490   2494   2506     1   114.2100488 537.225600
   2490   2497   2500     1   114.2100488 537.225600
   2491   2490   2494     1   109.6600471 523.836800
   2491   2490   2497     1   109.6600471 523.836800
   2491   2503   2515     1   111.5100476 526.347200
   2494   2490   2497     1   109.6600471 523.836800
   2494   2506   2512     1   111.5100476 526.347200
   2497   2500   2509     1   111.5100476 526.347200
   2500   2509   2518     1   107.9700462 569.024000
   2503   2515   5098     1   107.9700462 569.024000
   2506   2512   5068     1   107.9700462 569.024000
   2512   5068   5059     1   112.4800480 524.673600
   2515   5098   5089     1   112.4800480 524.673600
   2520   2521   2533     1   114.2100488 537.225600
   2520   2524   2536     1   114.2100488 537.225600
   2520   2527   2530     1   114.2100488 537.225600
   2521   2520   2524     1   109.6600471 523.836800
   2521   2520   2527     1   109.6600471 523.836800
   2521   2533   2545     1   111.5100476 526.347200
   2524   2520   2527     1   109.6600471 523.836800
   2524   2536   2542     1   111.5100476 526.347200
   2527   2530   2539     1   111.5100476 526.347200
   2530   2539   2548     1   107.9700462 569.024000
   2533   2545   5158     1   107.9700462 569.024000
   2536   2542   5128     1   107.9700462 569.024000
   2542   5128   5119     1   112.4800480 524.673600
   2545   5158   5149     1   112.4800480 524.673600
   2550   2551   2563     1   114.2100488 537.225600
   2550   2554   2566     1   114.2100488 537.225600
   2550   2557   2560     1   114.2100488 537.225600
   2551   2550   2554     1   109.6600471 523.836800
   2551   2550   2557     1   109.6600471 523.836800
   2551   2563   2575     1   111.5100476 526.347200
   2554   2550   2557     1   109.6600471 523.836800
   2554   2566   2572     1   111.5100476 526.347200
   2557   2560   2569     1   111.5100476 526.347200
   2560   2569   2578     1   107.9700462 569.024000
   2563   2575   5218     1   107.9700462 569.024000
   2566   2572   5188     1   107.9700462 569.024000
   2572   5188   5179     1   112.4800480 524.673600
   2575   5218   5209     1   112.4800480 524.673600
   2580   2581   2593     1   114.2100488 537.225600
   2580   2584   2596     1   114.2100488 537.225600
   2580   2587   2590     1   114.2100488 537.225600
   2581   2580   2584     1   109.6600471 523.836800
   2581   2580   2587     1   109.6600471 523.836800
   2581   2593   2605     1   111.5100476 526.347200
   2584   2580   2587     1   109.6600471 523.836800
   2584   2596   2602     1   111.5100476 526.347200
   2587   2590   2599     1   111.5100476 526.347200
   2590   2599   2608     1   107.9700462 569.024000
   2593   2605   5278     1   107.9700462 569.024000
   2596   2602   5248     1   107.9700462 569.024000
   2602   5248   5239     1   112.4800480 524.673600
   2605   5278   5269     1   112.4800480 524.673600
   2610   2611   2623     1   114.2100488 537.225600
   2610   2614   2626     1   114.2100488 537.225600
   2610   2617   2620     1   114.2100488 537.225600
   2611   2610   2614     1   109.6600471 523.836800
   2611   2610   2617     1   109.6600471 523.836800
   2611   2623   2635     1   111.5100476 526.347200
   2614   2610   2617     1   109.6600471 523.836800
   2614   2626   2632     1   111.5100476 526.347200
   2617   2620   2629     1   111.5100476 526.347200
   2620   2629   2638     1   107.9700462 569.024000
   2623   2635   5338     1   107.9700462 569.024000
   2626   2632   5308     1   107.9700462 569.024000
   2632   5308   5299     1   112.4800480 524.673600
   2635   5338   5329     1   112.4800480 524.673600
   2640   2641   2653     1   114.2100488 537.225600
   2640   2644   2656     1   114.2100488 537.225600
   2640   2647   2650     1   114.2100488 537.225600
   2641   2640   2644     1   109.6600471 523.836800
   2641   2640   2647     1   109.6600471 523.836800
   2641   2653   2665     1   111.5100476 526.347200
   2644   2640   2647     1   109.6600471 523.836800
   2644   2656   2662     1   111.5100476 526.347200
   2647   2650   2659     1   111.5100476 526.347200
   2650   2659   2668     1   107.9700462 569.024000
   2653   2665   5398     1   107.9700462 569.024000
   2656   2662   5368     1   107.9700462 569.024000
   2662   5368   5359     1   112.4800480 524.673600
   2665   5398   5389     1   112.4800480 524.673600
   2670   2671   2683     1   114.2100488 537.225600
   2670   2674   2686     1   114.2100488 537.225600
   2670   2677   2680     1   114.2100488 537.225600
   2671   2670   2674     1   109.6600471 523.836800
   2671   2670   2677     1   109.6600471 523.836800
   2671   2683   2695     1   111.5100476 526.347200
   2674   2670   2677     1   109.6600471 523.836800
   2674   2686   2692     1   111.5100476 526.347200
   2677   2680   2689     1   111.5100476 526.347200
   2680   2689   2698     1   107.9700462 569.024000
   2683   2695   5458     1   107.9700462 569.024000
   2686   2692   5428     1   107.9700462 569.024000
   2692   5428   5419     1   112.4800480 524.673600
   2695   5458   5449     1   112.4800480 524.673600
   2700   2701   2713     1   114.2100488 537.225600
   2700   2704   2716     1   114.2100488 537.225600
   2700   2707   2710     1   114.2100488 537.225600
   2701   2700   2704     1   109.6600471 523.836800
   2701   2700   2707     1   109.6600471 523.836800
   2701   2713   2725     1   111.5100476 526.347200
   2704   2700   2707     1   109.6600471 523.836800
   2704   2716   2722     1   111.5100476 526.347200
   2707   2710   2719     1   111.5100476 526.347200
   2710   2719   2728     1   107.9700462 569.024000
   2713   2725   5518     1   107.9700462 569.024000
   2716   2722   5488     1   107.9700462 569.024000
   2722   5488   5479     1   112.4800480 524.673600
   2725   5518   5509     1   112.4800480 524.673600
   2730   2731   2743     1   114.2100488 537.225600
   2730   2734   2746     1   114.2100488 537.225600
   2730   2737   2740     1   114.2100488 537.225600
   2731   2730   2734     1   109.6600471 523.836800
   2731   2730   2737     1   109.6600471 523.836800
   2731   2743   2755     1   111.5100476 526.347200
   2734   2730   2737     1   109.6600471 523.836800
   2734   2746   2752     1   111.5100476 526.347200
   2737   2740   2749     1   111.5100476 526.347200
   2740   2749   2758     1   107.9700462 569.024000
   2743   2755   5578     1   107.9700462 569.024000
   2746   2752   5548     1   107.9700462 569.024000
   2752   5548   5539     1   112.4800480 524.673600
   2755   5578   5569     1   112.4800480 524.673600
   2760   2761   2773     1   114.2100488 537.225600
   2760   2764   2776     1   114.2100488 537.225600
   2760   2767   2770     1   114.2100488 537.225600
   2761   2760   2764     1   109.6600471 523.836800
   2761   2760   2767     1   109.6600471 523.836800
   2761   2773   2785     1   111.5100476 526.347200
   2764   2760   2767     1   109.6600471 523.836800
   2764   2776   2782     1   111.5100476 526.347200
   2767   2770   2779     1   111.5100476 526.347200
   2770   2779   2788     1   107.9700462 569.024000
   2773   2785   5638     1   107.9700462 569.024000
   2776   2782   5608     1   107.9700462 569.024000
   2782   5608   5599     1   112.4800480 524.673600
   2785   5638   5629     1   112.4800480 524.673600
   2790   2791   2803     1   114.2100488 537.225600
   2790   2794   2806     1   114.2100488 537.225600
   2790   2797   2800     1   114.2100488 537.225600
   2791   2790   2794     1   109.6600471 523.836800
   2791   2790   2797     1   109.6600471 523.836800
   2791   2803   2815     1   111.5100476 526.347200
   2794   2790   2797     1   109.6600471 523.836800
   2794   2806   2812     1   111.5100476 526.347200
   2797   2800   2809     1   111.5100476 526.347200
   2800   2809   2818     1   107.9700462 569.024000
   2803   2815   5698     1   107.9700462 569.024000
   2806   2812   5668     1   107.9700462 569.024000
   2812   5668   5659     1   112.4800480 524.673600
   2815   5698   5689     1   112.4800480 524.673600
   2820   2821   2833     1   114.2100488 537.225600
   2820   2824   2836     1   114.2100488 537.225600
   2820   2827   2830     1   114.2100488 537.225600
   2821   2820   2824     1   109.6600471 523.836800
   2821   2820   2827     1   109.6600471 523.836800
   2821   2833   2845     1   111.5100476 526.347200
   2824   2820   2827     1   109.6600471 523.836800
   2824   2836   2842     1   111.5100476 526.347200
   2827   2830   2839     1   111.5100476 526.347200
   2830   2839   2848     1   107.9700462 569.024000
   2833   2845   5758     1   107.9700462 569.024000
   2836   2842   5728     1   107.9700462 569.024000
   2842   5728   5719     1   112.4800480 524.673600
   2845   5758   5749     1   112.4800480 524.673600
   2850   2851   2863     1   114.2100488 537.225600
   2850   2854   2866     1   114.2100488 537.225600
   2850   2857   2860     1   114.2100488 537.225600
   2851   2850   2854     1   109.6600471 523.836800
   2851   2850   2857     1   109.6600471 523.836800
   2851   2863   2875     1   111.5100476 526.347200
   2854   2850   2857     1   109.6600471 523.836800
   2854   2866   2872     1   111.5100476 526.347200
   2857   2860   2869     1   111.5100476 526.347200
   2860   2869   2878     1   107.9700462 569.024000
   2863   2875   5818     1   107.9700462 569.024000
   2866   2872   5788     1   107.9700462 569.024000
   2872   5788   5779     1   112.4800480 524.673600
   2875   5818   5809     1   112.4800480 524.673600
   2880   2881   2893     1   114.2100488 537.225600
   2880   2884   2896     1   114.2100488 537.225600
   2880   2887   2890     1   114.2100488 537.225600
   2881   2880   2884     1   109.6600471 523.836800
   2881   2880   2887     1   109.6600471 523.836800
   2881   2893   2905     1   111.5100476 526.347200
   2884   2880   2887     1   109.6600471 523.836800
   2884   2896   2902     1   111.5100476 526.347200
   2887   2890   2899     1   111.5100476 526.347200
   2890   2899   2908     1   107.9700462 569.024000
   2893   2905   5878     1   107.9700462 569.024000
   2896   2902   5848     1   107.9700462 569.024000
   2902   5848   5839     1   112.4800480 524.673600
   2905   5878   5869     1   112.4800480 524.673600
   2910   2911   2923     1   114.2100488 537.225600
   2910   2914   2926     1   114.2100488 537.225600
   2910   2917   2920     1   114.2100488 537.225600
   2911   2910   2914     1   109.6600471 523.836800
   2911   2910   2917     1   109.6600471 523.836800
   2911   2923   2935     1   111.5100476 526.347200
   2914   2910   2917     1   109.6600471 523.836800
   2914   2926   2932     1   111.5100476 526.347200
   2917   2920   2929     1   111.5100476 526.347200
   2920   2929   2938     1   107.9700462 569.024000
   2923   2935   5938     1   107.9700462 569.024000
   2926   2932   5908     1   107.9700462 569.024000
   2932   5908   5899     1   112.4800480 524.673600
   2935   5938   5929     1   112.4800480 524.673600
   2940   2941   2953     1   114.2100488 537.225600
   2940   2944   2956     1   114.2100488 537.225600
   2940   2947   2950     1   114.2100488 537.225600
   2941   2940   2944     1   109.6600471 523.836800
   2941   2940   2947     1   109.6600471 523.836800
   2941   2953   2965     1   111.5100476 526.347200
   2944   2940   2947     1   109.6600471 523.836800
   2944   2956   2962     1   111.5100476 526.347200
   2947   2950   2959     1   111.5100476 526.347200
   2950   2959   2968     1   107.9700462 569.024000
   2953   2965   5998     1   107.9700462 569.024000
   2956   2962   5968     1   107.9700462 569.024000
   2962   5968   5959     1   112.4800480 524.673600
   2965   5998   5989     1   112.4800480 524.673600
   2970   2971   2983     1   114.2100488 537.225600
   2970   2974   2986     1   114.2100488 537.225600
   2970   2977   2980     1   114.2100488 537.225600
   2971   2970   2974     1   109.6600471 523.836800
   2971   2970   2977     1   109.6600471 523.836800
   2971   2983   2995     1   111.5100476 526.347200
   2974   2970   2977     1   109.6600471 523.836800
   2974   2986   2992     1   111.5100476 526.347200
   2977   2980   2989     1   111.5100476 526.347200
   2980   2989   2998     1   107.9700462 569.024000
   2983   2995   6058     1   107.9700462 569.024000
   2986   2992   6028     1   107.9700462 569.024000
   2992   6028   6019     1   112.4800480 524.673600
   2995   6058   6049     1   112.4800480 524.673600
   3000   3001   3013     1   114.2100488 537.225600
   3000   3004   3016     1   114.2100488 537.225600
   3000   3007   3010     1   114.2100488 537.225600
   3001   3000   3004     1   109.6600471 523.836800
   3001   3000   3007     1   109.6600471 523.836800
   3001   3013   3025     1   111.5100476 526.347200
   3004   3000   3007     1   109.6600471 523.836800
   3004   3016   3022     1   111.5100476 526.347200
   3007   3010   3019     1   111.5100476 526.347200
   3010   3019   3028     1   107.9700462 569.024000
   3013   3025   6118     1   107.9700462 569.024000
   3016   3022   6088     1   107.9700462 569.024000
   3022   6088   6079     1   112.4800480 524.673600
   3025   6118   6109     1   112.4800480 524.673600
   3030   3031   3043     1   114.2100488 537.225600
   3030   3034   3046     1   114.2100488 537.225600
   3030   3037   3040     1   114.2100488 537.225600
   3031   3030   3034     1   109.6600471 523.836800
   3031   3030   3037     1   109.6600471 523.836800
   3031   3043   3055     1   111.5100476 526.347200
   3034   3030   3037     1   109.6600471 523.836800
   3034   3046   3052     1   111.5100476 526.347200
   3037   3040   3049     1   111.5100476 526.347200
   3040   3049   3058     1   107.9700462 569.024000
   3043   3055   6178     1   107.9700462 569.024000
   3046   3052   6148     1   107.9700462 569.024000
   3052   6148   6139     1   112.4800480 524.673600
   3055   6178   6169     1   112.4800480 524.673600
   3060   3061   3073     1   114.2100488 537.225600
   3060   3064   3076     1   114.2100488 537.225600
   3060   3067   3070     1   114.2100488 537.225600
   3061   3060   3064     1   109.6600471 523.836800
   3061   3060   3067     1   109.6600471 523.836800
   3061   3073   3085     1   111.5100476 526.347200
   3064   3060   3067     1   109.6600471 523.836800
   3064   3076   3082     1   111.5100476 526.347200
   3067   3070   3079     1   111.5100476 526.347200
   3070   3079   3088     1   107.9700462 569.024000
   3073   3085   6238     1   107.9700462 569.024000
   3076   3082   6208     1   107.9700462 569.024000
   3082   6208   6199     1   112.4800480 524.673600
   3085   6238   6229     1   112.4800480 524.673600
   3090   3091   3103     1   114.2100488 537.225600
   3090   3094   3106     1   114.2100488 537.225600
   3090   3097   3100     1   114.2100488 537.225600
   3091   3090   3094     1   109.6600471 523.836800
   3091   3090   3097     1   109.6600471 523.836800
   3091   3103   3115     1   111.5100476 526.347200
   3094   3090   3097     1   109.6600471 523.836800
   3094   3106   3112     1   111.5100476 526.347200
   3097   3100   3109     1   111.5100476 526.347200
   3100   3109   3118     1   107.9700462 569.024000
   3103   3115   6298     1   107.9700462 569.024000
   3106   3112   6268     1   107.9700462 569.024000
   3112   6268   6259     1   112.4800480 524.673600
   3115   6298   6289     1   112.4800480 524.673600
   3120   3121   3133     1   114.2100488 537.225600
   3120   3124   3136     1   114.2100488 537.225600
   3120   3127   3130     1   114.2100488 537.225600
   3121   3120   3124     1   109.6600471 523.836800
   3121   3120   3127     1   109.6600471 523.836800
   3121   3133   3145     1   111.5100476 526.347200
   3124   3120   3127     1   109.6600471 523.836800
   3124   3136   3142     1   111.5100476 526.347200
   3127   3130   3139     1   111.5100476 526.347200
   3130   3139   3148     1   107.9700462 569.024000
   3133   3145   6358     1   107.9700462 569.024000
   3136   3142   6328     1   107.9700462 569.024000
   3142   6328   6319     1   112.4800480 524.673600
   3145   6358   6349     1   112.4800480 524.673600
   3150   3151   3163     1   114.2100488 537.225600
   3150   3154   3166     1   114.2100488 537.225600
   3150   3157   3160     1   114.2100488 537.225600
   3151   3150   3154     1   109.6600471 523.836800
   3151   3150   3157     1   109.6600471 523.836800
   3151   3163   3175     1   111.5100476 526.347200
   3154   3150   3157     1   109.6600471 523.836800
   3154   3166   3172     1   111.5100476 526.347200
   3157   3160   3169     1   111.5100476 526.347200
   3160   3169   3178     1   107.9700462 569.024000
   3163   3175   6418     1   107.9700462 569.024000
   3166   3172   6388     1   107.9700462 569.024000
   3172   6388   6379     1   112.4800480 524.673600
   3175   6418   6409     1   112.4800480 524.673600
   3180   3181   3193     1   114.2100488 537.225600
   3180   3184   3196     1   114.2100488 537.225600
   3180   3187   3190     1   114.2100488 537.225600
   3181   3180   3184     1   109.6600471 523.836800
   3181   3180   3187     1   109.6600471 523.836800
   3181   3193   3205     1   111.5100476 526.347200
   3184   3180   3187     1   109.6600471 523.836800
   3184   3196   3202     1   111.5100476 526.347200
   3187   3190   3199     1   111.5100476 526.347200
   3190   3199   3208     1   107.9700462 569.024000
   3193   3205   6478     1   107.9700462 569.024000
   3196   3202   6448     1   107.9700462 569.024000
   3202   6448   6439     1   112.4800480 524.673600
   3205   6478   6469     1   112.4800480 524.673600
   3210   3211   3223     1   114.2100488 537.225600
   3210   3214   3226     1   114.2100488 537.225600
   3210   3217   3220     1   114.2100488 537.225600
   3211   3210   3214     1   109.6600471 523.836800
   3211   3210   3217     1   109.6600471 523.836800
   3211   3223   3235     1   111.5100476 526.347200
   3214   3210   3217     1   109.6600471 523.836800
   3214   3226   3232     1   111.5100476 526.347200
   3217   3220   3229     1   111.5100476 526.347200
   3220   3229   3238     1   107.9700462 569.024000
   3223   3235   6538     1   107.9700462 569.024000
   3226   3232   6508     1   107.9700462 569.024000
   3232   6508   6499     1   112.4800480 524.673600
   3235   6538   6529     1   112.4800480 524.673600
   3240   3241   3253     1   114.2100488 537.225600
   3240   3244   3256     1   114.2100488 537.225600
   3240   3247   3250     1   114.2100488 537.225600
   3241   3240   3244     1   109.6600471 523.836800
   3241   3240   3247     1   109.6600471 523.836800
   3241   3253   3265     1   111.5100476 526.347200
   3244   3240   3247     1   109.6600471 523.836800
   3244   3256   3262     1   111.5100476 526.347200
   3247   3250   3259     1   111.5100476 526.347200
   3250   3259   3268     1   107.9700462 569.024000
   3253   3265   6598     1   107.9700462 569.024000
   3256   3262   6568     1   107.9700462 569.024000
   3262   6568   6559     1   112.4800480 524.673600
   3265   6598   6589     1   112.4800480 524.673600
   3270   3271   3283     1   114.2100488 537.225600
   3270   3274   3286     1   114.2100488 537.225600
   3270   3277   3280     1   114.2100488 537.225600
   3271   3270   3274     1   109.6600471 523.836800
   3271   3270   3277     1   109.6600471 523.836800
   3271   3283   3295     1   111.5100476 526.347200
   3274   3270   3277     1   109.6600471 523.836800
   3274   3286   3292     1   111.5100476 526.347200
   3277   3280   3289     1   111.5100476 526.347200
   3280   3289   3298     1   107.9700462 569.024000
   3283   3295   6658     1   107.9700462 569.024000
   3286   3292   6628     1   107.9700462 569.024000
   3292   6628   6619     1   112.4800480 524.673600
   3295   6658   6649     1   112.4800480 524.673600
   3300   3301   3313     1   114.2100488 537.225600
   3300   3304   3316     1   114.2100488 537.225600
   3300   3307   3310     1   114.2100488 537.225600
   3301   3300   3304     1   109.6600471 523.836800
   3301   3300   3307     1   109.6600471 523.836800
   3301   3313   3325     1   111.5100476 526.347200
   3304   3300   3307     1   109.6600471 523.836800
   3304   3316   3322     1   111.5100476 526.347200
   3307   3310   3319     1   111.5100476 526.347200
   3310   3319   3328     1   107.9700462 569.024000
   3313   3325   6718     1   107.9700462 569.024000
   3316   3322   6688     1   107.9700462 569.024000
   3322   6688   6679     1   112.4800480 524.673600
   3325   6718   6709     1   112.4800480 524.673600
   3330   3331   3343     1   114.2100488 537.225600
   3330   3334   3346     1   114.2100488 537.225600
   3330   3337   3340     1   114.2100488 537.225600
   3331   3330   3334     1   109.6600471 523.836800
   3331   3330   3337     1   109.6600471 523.836800
   3331   3343   3355     1   111.5100476 526.347200
   3334   3330   3337     1   109.6600471 523.836800
   3334   3346   3352     1   111.5100476 526.347200
   3337   3340   3349     1   111.5100476 526.347200
   3340   3349   3358     1   107.9700462 569.024000
   3343   3355   6778     1   107.9700462 569.024000
   3346   3352   6748     1   107.9700462 569.024000
   3352   6748   6739     1   112.4800480 524.673600
   3355   6778   6769     1   112.4800480 524.673600
   3360   3361   3373     1   114.2100488 537.225600
   3360   3364   3376     1   114.2100488 537.225600
   3360   3367   3370     1   114.2100488 537.225600
   3361   3360   3364     1   109.6600471 523.836800
   3361   3360   3367     1   109.6600471 523.836800
   3361   3373   3385     1   111.5100476 526.347200
   3364   3360   3367     1   109.6600471 523.836800
   3364   3376   3382     1   111.5100476 526.347200
   3367   3370   3379     1   111.5100476 526.347200
   3370   3379   3388     1   107.9700462 569.024000
   3373   3385   6838     1   107.9700462 569.024000
   3376   3382   6808     1   107.9700462 569.024000
   3382   6808   6799     1   112.4800480 524.673600
   3385   6838   6829     1   112.4800480 524.673600
   3390   3391   3403     1   114.2100488 537.225600
   3390   3394   3406     1   114.2100488 537.225600
   3390   3397   3400     1   114.2100488 537.225600
   3391   3390   3394     1   109.6600471 523.836800
   3391   3390   3397     1   109.6600471 523.836800
   3391   3403   3415     1   111.5100476 526.347200
   3394   3390   3397     1   109.6600471 523.836800
   3394   3406   3412     1   111.5100476 526.347200
   3397   3400   3409     1   111.5100476 526.347200
   3400   3409   3418     1   107.9700462 569.024000
   3403   3415   6898     1   107.9700462 569.024000
   3406   3412   6868     1   107.9700462 569.024000
   3412   6868   6859     1   112.4800480 524.673600
   3415   6898   6889     1   112.4800480 524.673600
   3420   3421   3433     1   114.2100488 537.225600
   3420   3424   3436     1   114.2100488 537.225600
   3420   3427   3430     1   114.2100488 537.225600
   3421   3420   3424     1   109.6600471 523.836800
   3421   3420   3427     1   109.6600471 523.836800
   3421   3433   3445     1   111.5100476 526.347200
   3424   3420   3427     1   109.6600471 523.836800
   3424   3436   3442     1   111.5100476 526.347200
   3427   3430   3439     1   111.5100476 526.347200
   3430   3439   3448     1   107.9700462 569.024000
   3433   3445   6958     1   107.9700462 569.024000
   3436   3442   6928     1   107.9700462 569.024000
   3442   6928   6919     1   112.4800480 524.673600
   3445   6958   6949     1   112.4800480 524.673600
   3450   3451   3463     1   114.2100488 537.225600
   3450   3454   3466     1   114.2100488 537.225600
   3450   3457   3460     1   114.2100488 537.225600
   3451   3450   3454     1   109.6600471 523.836800
   3451   3450   3457     1   109.6600471 523.836800
   3451   3463   3475     1   111.5100476 526.347200
   3454   3450   3457     1   109.6600471 523.836800
   3454   3466   3472     1   111.5100476 526.347200
   3457   3460   3469     1   111.5100476 526.347200
   3460   3469   3478     1   107.9700462 569.024000
   3463   3475   7018     1   107.9700462 569.024000
   3466   3472   6988     1   107.9700462 569.024000
   3472   6988   6979     1   112.4800480 524.673600
   3475   7018   7009     1   112.4800480 524.673600
   3480   3481   3493     1   114.2100488 537.225600
   3480   3484   3496     1   114.2100488 537.225600
   3480   3487   3490     1   114.2100488 537.225600
   3481   3480   3484     1   109.6600471 523.836800
   3481   3480   3487     1   109.6600471 523.836800
   3481   3493   3505     1   111.5100476 526.347200
   3484   3480   3487     1   109.6600471 523.836800
   3484   3496   3502     1   111.5100476 526.347200
   3487   3490   3499     1   111.5100476 526.347200
   3490   3499   3508     1   107.9700462 569.024000
   3493   3505   7078     1   107.9700462 569.024000
   3496   3502   7048     1   107.9700462 569.024000
   3502   7048   7039     1   112.4800480 524.673600
   3505   7078   7069     1   112.4800480 524.673600
   3510   3511   3523     1   114.2100488 537.225600
   3510   3514   3526     1   114.2100488 537.225600
   3510   3517   3520     1   114.2100488 537.225600
   3511   3510   3514     1   109.6600471 523.836800
   3511   3510   3517     1   109.6600471 523.836800
   3511   3523   3535     1   111.5100476 526.347200
   3514   3510   3517     1   109.6600471 523.836800
   3514   3526   3532     1   111.5100476 526.347200
   3517   3520   3529     1   111.5100476 526.347200
   3520   3529   3538     1   107.9700462 569.024000
   3523   3535   7138     1   107.9700462 569.024000
   3526   3532   7108     1   107.9700462 569.024000
   3532   7108   7099     1   112.4800480 524.673600
   3535   7138   7129     1   112.4800480 524.673600
   3540   3541   3553     1   114.2100488 537.225600
   3540   3544   3556     1   114.2100488 537.225600
   3540   3547   3550     1   114.2100488 537.225600
   3541   3540   3544     1   109.6600471 523.836800
   3541   3540   3547     1   109.6600471 523.836800
   3541   3553   3565     1   111.5100476 526.347200
   3544   3540   3547     1   109.6600471 523.836800
   3544   3556   3562     1   111.5100476 526.347200
   3547   3550   3559     1   111.5100476 526.347200
   3550   3559   3568     1   107.9700462 569.024000
   3553   3565   7198     1   107.9700462 569.024000
   3556   3562   7168     1   107.9700462 569.024000
   3562   7168   7159     1   112.4800480 524.673600
   3565   7198   7189     1   112.4800480 524.673600
   3570   3571   3583     1   114.2100488 537.225600
   3570   3574   3586     1   114.2100488 537.225600
   3570   3577   3580     1   114.2100488 537.225600
   3571   3570   3574     1   109.6600471 523.836800
   3571   3570   3577     1   109.6600471 523.836800
   3571   3583   3595     1   111.5100476 526.347200
   3574   3570   3577     1   109.6600471 523.836800
   3574   3586   3592     1   111.5100476 526.347200
   3577   3580   3589     1   111.5100476 526.347200
   3580   3589   3598     1   107.9700462 569.024000
   3583   3595   7258     1   107.9700462 569.024000
   3586   3592   7228     1   107.9700462 569.024000
   3592   7228   7219     1   112.4800480 524.673600
   3595   7258   7249     1   112.4800480 524.673600
   3600   3601   3613     1   114.2100488 537.225600
   3600   3604   3616     1   114.2100488 537.225600
   3600   3607   3610     1   114.2100488 537.225600
   3601   3600   3604     1   109.6600471 523.836800
   3601   3600   3607     1   109.6600471 523.836800
   3601   3613   3625     1   111.5100476 526.347200
   3604   3600   3607     1   109.6600471 523.836800
   3604   3616   3622     1   111.5100476 526.347200
   3607   3610   3619     1   111.5100476 526.347200
   3610   3619   3628     1   107.9700462 569.024000
   3613   3625   7318     1   107.9700462 569.024000
   3616   3622   7288     1   107.9700462 569.024000
   3622   7288   7279     1   112.4800480 524.673600
   3625   7318   7309     1   112.4800480 524.673600
   3630   3631   3643     1   114.2100488 537.225600
   3630   3634   3646     1   114.2100488 537.225600
   3630   3637   3640     1   114.2100488 537.225600
   3631   3630   3634     1   109.6600471 523.836800
   3631   3630   3637     1   109.6600471 523.836800
   3631   3643   3655     1   111.5100476 526.347200
   3634   3630   3637     1   109.6600471 523.836800
   3634   3646   3652     1   111.5100476 526.347200
   3637   3640   3649     1   111.5100476 526.347200
   3640   3649   3658     1   107.9700462 569.024000
   3643   3655   7378     1   107.9700462 569.024000
   3646   3652   7348     1   107.9700462 569.024000
   3652   7348   7339     1   112.4800480 524.673600
   3655   7378   7369     1   112.4800480 524.673600
   3660   3661   3673     1   114.2100488 537.225600
   3660   3664   3676     1   114.2100488 537.225600
   3660   3667   3670     1   114.2100488 537.225600
   3661   3660   3664     1   109.6600471 523.836800
   3661   3660   3667     1   109.6600471 523.836800
   3661   3673   3685     1   111.5100476 526.347200
   3664   3660   3667     1   109.6600471 523.836800
   3664   3676   3682     1   111.5100476 526.347200
   3667   3670   3679     1   111.5100476 526.347200
   3670   3679   3688     1   107.9700462 569.024000
   3673   3685   7438     1   107.9700462 569.024000
   3676   3682   7408     1   107.9700462 569.024000
   3682   7408   7399     1   112.4800480 524.673600
   3685   7438   7429     1   112.4800480 524.673600
   3690   3691   3703     1   114.2100488 537.225600
   3690   3694   3706     1   114.2100488 537.225600
   3690   3697   3700     1   114.2100488 537.225600
   3691   3690   3694     1   109.6600471 523.836800
   3691   3690   3697     1   109.6600471 523.836800
   3691   3703   3715     1   111.5100476 526.347200
   3694   3690   3697     1   109.6600471 523.836800
   3694   3706   3712     1   111.5100476 526.347200
   3697   3700   3709     1   111.5100476 526.347200
   3700   3709   3718     1   107.9700462 569.024000
   3703   3715   7498     1   107.9700462 569.024000
   3706   3712   7468     1   107.9700462 569.024000
   3712   7468   7459     1   112.4800480 524.673600
   3715   7498   7489     1   112.4800480 524.673600
   3720   3721   3733     1   114.2100488 537.225600
   3720   3724   3736     1   114.2100488 537.225600
   3720   3727   3730     1   114.2100488 537.225600
   3721   3720   3724     1   109.6600471 523.836800
   3721   3720   3727     1   109.6600471 523.836800
   3721   3733   3745     1   111.5100476 526.347200
   3724   3720   3727     1   109.6600471 523.836800
   3724   3736   3742     1   111.5100476 526.347200
   3727   3730   3739     1   111.5100476 526.347200
   3730   3739   3748     1   107.9700462 569.024000
   3733   3745   7558     1   107.9700462 569.024000
   3736   3742   7528     1   107.9700462 569.024000
   3742   7528   7519     1   112.4800480 524.673600
   3745   7558   7549     1   112.4800480 524.673600
   3750   3751   3763     1   114.2100488 537.225600
   3750   3754   3766     1   114.2100488 537.225600
   3750   3757   3760     1   114.2100488 537.225600
   3751   3750   3754     1   109.6600471 523.836800
   3751   3750   3757     1   109.6600471 523.836800
   3751   3763   3775     1   111.5100476 526.347200
   3754   3750   3757     1   109.6600471 523.836800
   3754   3766   3772     1   111.5100476 526.347200
   3757   3760   3769     1   111.5100476 526.347200
   3760   3769   3778     1   107.9700462 569.024000
   3763   3775   7618     1   107.9700462 569.024000
   3766   3772   7588     1   107.9700462 569.024000
   3772   7588   7579     1   112.4800480 524.673600
   3775   7618   7609     1   112.4800480 524.673600
   3780   3781   3793     1   114.2100488 537.225600
   3780   3784   3796     1   114.2100488 537.225600
   3780   3787   3790     1   114.2100488 537.225600
   3781   3780   3784     1   109.6600471 523.836800
   3781   3780   3787     1   109.6600471 523.836800
   3781   3793   3805     1   111.5100476 526.347200
   3784   3780   3787     1   109.6600471 523.836800
   3784   3796   3802     1   111.5100476 526.347200
   3787   3790   3799     1   111.5100476 526.347200
   3790   3799   3808     1   107.9700462 569.024000
   3793   3805   7678     1   107.9700462 569.024000
   3796   3802   7648     1   107.9700462 569.024000
   3802   7648   7639     1   112.4800480 524.673600
   3805   7678   7669     1   112.4800480 524.673600
   3810   3811   3823     1   114.2100488 537.225600
   3810   3814   3826     1   114.2100488 537.225600
   3810   3817   3820     1   114.2100488 537.225600
   3811   3810   3814     1   109.6600471 523.836800
   3811   3810   3817     1   109.6600471 523.836800
   3811   3823   3835     1   111.5100476 526.347200
   3814   3810   3817     1   109.6600471 523.836800
   3814   3826   3832     1   111.5100476 526.347200
   3817   3820   3829     1   111.5100476 526.347200
   3820   3829   3838     1   107.9700462 569.024000
   3823   3835   7738     1   107.9700462 569.024000
   3826   3832   7708     1   107.9700462 569.024000
   3832   7708   7699     1   112.4800480 524.673600
   3835   7738   7729     1   112.4800480 524.673600
   3840   3841   3853     1   114.2100488 537.225600
   3840   3844   3856     1   114.2100488 537.225600
   3840   3847   3850     1   114.2100488 537.225600
   3841   3840   3844     1   109.6600471 523.836800
   3841   3840   3847     1   109.6600471 523.836800
   3841   3853   3865     1   111.5100476 526.347200
   3844   3840   3847     1   109.6600471 523.836800
   3844   3856   3862     1   111.5100476 526.347200
   3847   3850   3859     1   111.5100476 526.347200
   3850   3859   3868     1   107.9700462 569.024000
   3853   3865   7798     1   107.9700462 569.024000
   3856   3862   7768     1   107.9700462 569.024000
   3862   7768   7759     1   112.4800480 524.673600
   3865   7798   7789     1   112.4800480 524.673600
   3870   3871   3883     1   114.2100488 537.225600
   3870   3874   3886     1   114.2100488 537.225600
   3870   3877   3880     1   114.2100488 537.225600
   3871   3870   3874     1   109.6600471 523.836800
   3871   3870   3877     1   109.6600471 523.836800
   3871   3883   3895     1   111.5100476 526.347200
   3874   3870   3877     1   109.6600471 523.836800
   3874   3886   3892     1   111.5100476 526.347200
   3877   3880   3889     1   111.5100476 526.347200
   3880   3889   3898     1   107.9700462 569.024000
   3883   3895   7858     1   107.9700462 569.024000
   3886   3892   7828     1   107.9700462 569.024000
   3892   7828   7819     1   112.4800480 524.673600
   3895   7858   7849     1   112.4800480 524.673600
   3900   3901   3913     1   114.2100488 537.225600
   3900   3904   3916     1   114.2100488 537.225600
   3900   3907   3910     1   114.2100488 537.225600
   3901   3900   3904     1   109.6600471 523.836800
   3901   3900   3907     1   109.6600471 523.836800
   3901   3913   3925     1   111.5100476 526.347200
   3904   3900   3907     1   109.6600471 523.836800
   3904   3916   3922     1   111.5100476 526.347200
   3907   3910   3919     1   111.5100476 526.347200
   3910   3919   3928     1   107.9700462 569.024000
   3913   3925   7918     1   107.9700462 569.024000
   3916   3922   7888     1   107.9700462 569.024000
   3922   7888   7879     1   112.4800480 524.673600
   3925   7918   7909     1   112.4800480 524.673600
   3930   3931   3943     1   114.2100488 537.225600
   3930   3934   3946     1   114.2100488 537.225600
   3930   3937   3940     1   114.2100488 537.225600
   3931   3930   3934     1   109.6600471 523.836800
   3931   3930   3937     1   109.6600471 523.836800
   3931   3943   3955     1   111.5100476 526.347200
   3934   3930   3937     1   109.6600471 523.836800
   3934   3946   3952     1   111.5100476 526.347200
   3937   3940   3949     1   111.5100476 526.347200
   3940   3949   3958     1   107.9700462 569.024000
   3943   3955   7978     1   107.9700462 569.024000
   3946   3952   7948     1   107.9700462 569.024000
   3952   7948   7939     1   112.4800480 524.673600
   3955   7978   7969     1   112.4800480 524.673600
   3960   3961   3973     1   114.2100488 537.225600
   3960   3964   3976     1   114.2100488 537.225600
   3960   3967   3970     1   114.2100488 537.225600
   3961   3960   3964     1   109.6600471 523.836800
   3961   3960   3967     1   109.6600471 523.836800
   3961   3973   3985     1   111.5100476 526.347200
   3964   3960   3967     1   109.6600471 523.836800
   3964   3976   3982     1   111.5100476 526.347200
   3967   3970   3979     1   111.5100476 526.347200
   3970   3979   3988     1   107.9700462 569.024000
   3973   3985   8038     1   107.9700462 569.024000
   3976   3982   8008     1   107.9700462 569.024000
   3982   8008   7999     1   112.4800480 524.673600
   3985   8038   8029     1   112.4800480 524.673600
   3990   3991   4003     1   114.2100488 537.225600
   3990   3994   4006     1   114.2100488 537.225600
   3990   3997   4000     1   114.2100488 537.225600
   3991   3990   3994     1   109.6600471 523.836800
   3991   3990   3997     1   109.6600471 523.836800
   3991   4003   4015     1   111.5100476 526.347200
   3994   3990   3997     1   109.6600471 523.836800
   3994   4006   4012     1   111.5100476 526.347200
   3997   4000   4009     1   111.5100476 526.347200
   4000   4009   4018     1   107.9700462 569.024000
   4003   4015   8098     1   107.9700462 569.024000
   4006   4012   8068     1   107.9700462 569.024000
   4012   8068   8059     1   112.4800480 524.673600
   4015   8098   8089     1   112.4800480 524.673600
   4020   4021   4033     1   114.2100488 537.225600
   4020   4024   4036     1   114.2100488 537.225600
   4020   4027   4030     1   114.2100488 537.225600
   4021   4020   4024     1   109.6600471 523.836800
   4021   4020   4027     1   109.6600471 523.836800
   4021   4033   4045     1   111.5100476 526.347200
   4024   4020   4027     1   109.6600471 523.836800
   4024   4036   4042     1   111.5100476 526.347200
   4027   4030   4039     1   111.5100476 526.347200
   4030   4039   4048     1   107.9700462 569.024000
   4033   4045   8158     1   107.9700462 569.024000
   4036   4042   8128     1   107.9700462 569.024000
   4042   8128   8119     1   112.4800480 524.673600
   4045   8158   8149     1   112.4800480 524.673600
   4050   4051   4063     1   114.2100488 537.225600
   4050   4054   4066     1   114.2100488 537.225600
   4050   4057   4060     1   114.2100488 537.225600
   4051   4050   4054     1   109.6600471 523.836800
   4051   4050   4057     1   109.6600471 523.836800
   4051   4063   4075     1   111.5100476 526.347200
   4054   4050   4057     1   109.6600471 523.836800
   4054   4066   4072     1   111.5100476 526.347200
   4057   4060   4069     1   111.5100476 526.347200
   4060   4069   4078     1   107.9700462 569.024000
   4063   4075   8218     1   107.9700462 569.024000
   4066   4072   8188     1   107.9700462 569.024000
   4072   8188   8179     1   112.4800480 524.673600
   4075   8218   8209     1   112.4800480 524.673600
   4080   4081   4093     1   114.2100488 537.225600
   4080   4084   4096     1   114.2100488 537.225600
   4080   4087   4090     1   114.2100488 537.225600
   4081   4080   4084     1   109.6600471 523.836800
   4081   4080   4087     1   109.6600471 523.836800
   4081   4093   4105     1   111.5100476 526.347200
   4084   4080   4087     1   109.6600471 523.836800
   4084   4096   4102     1   111.5100476 526.347200
   4087   4090   4099     1   111.5100476 526.347200
   4090   4099   4108     1   107.9700462 569.024000
   4093   4105   8278     1   107.9700462 569.024000
   4096   4102   8248     1   107.9700462 569.024000
   4102   8248   8239     1   112.4800480 524.673600
   4105   8278   8269     1   112.4800480 524.673600
   4110   4111   4123     1   114.2100488 537.225600
   4110   4114   4126     1   114.2100488 537.225600
   4110   4117   4120     1   114.2100488 537.225600
   4111   4110   4114     1   109.6600471 523.836800
   4111   4110   4117     1   109.6600471 523.836800
   4111   4123   4135     1   111.5100476 526.347200
   4114   4110   4117     1   109.6600471 523.836800
   4114   4126   4132     1   111.5100476 526.347200
   4117   4120   4129     1   111.5100476 526.347200
   4120   4129   4138     1   107.9700462 569.024000
   4123   4135   8338     1   107.9700462 569.024000
   4126   4132   8308     1   107.9700462 569.024000
   4132   8308   8299     1   112.4800480 524.673600
   4135   8338   8329     1   112.4800480 524.673600
   4140   4141   4153     1   114.2100488 537.225600
   4140   4144   4156     1   114.2100488 537.225600
   4140   4147   4150     1   114.2100488 537.225600
   4141   4140   4144     1   109.6600471 523.836800
   4141   4140   4147     1   109.6600471 523.836800
   4141   4153   4165     1   111.5100476 526.347200
   4144   4140   4147     1   109.6600471 523.836800
   4144   4156   4162     1   111.5100476 526.347200
   4147   4150   4159     1   111.5100476 526.347200
   4150   4159   4168     1   107.9700462 569.024000
   4153   4165   8398     1   107.9700462 569.024000
   4156   4162   8368     1   107.9700462 569.024000
   4162   8368   8359     1   112.4800480 524.673600
   4165   8398   8389     1   112.4800480 524.673600
   4170   4171   4183     1   114.2100488 537.225600
   4170   4174   4186     1   114.2100488 537.225600
   4170   4177   4180     1   114.2100488 537.225600
   4171   4170   4174     1   109.6600471 523.836800
   4171   4170   4177     1   109.6600471 523.836800
   4171   4183   4195     1   111.5100476 526.347200
   4174   4170   4177     1   109.6600471 523.836800
   4174   4186   4192     1   111.5100476 526.347200
   4177   4180   4189     1   111.5100476 526.347200
   4180   4189   4198     1   107.9700462 569.024000
   4183   4195   8458     1   107.9700462 569.024000
   4186   4192   8428     1   107.9700462 569.024000
   4192   8428   8419     1   112.4800480 524.673600
   4195   8458   8449     1   112.4800480 524.673600
   4200   4201   4213     1   114.2100488 537.225600
   4200   4204   4216     1   114.2100488 537.225600
   4200   4207   4210     1   114.2100488 537.225600
   4201   4200   4204     1   109.6600471 523.836800
   4201   4200   4207     1   109.6600471 523.836800
   4201   4213   4225     1   111.5100476 526.347200
   4204   4200   4207     1   109.6600471 523.836800
   4204   4216   4222     1   111.5100476 526.347200
   4207   4210   4219     1   111.5100476 526.347200
   4210   4219   4228     1   107.9700462 569.024000
   4213   4225   8518     1   107.9700462 569.024000
   4216   4222   8488     1   107.9700462 569.024000
   4222   8488   8479     1   112.4800480 524.673600
   4225   8518   8509     1   112.4800480 524.673600
   4230   4231   4243     1   114.2100488 537.225600
   4230   4234   4246     1   114.2100488 537.225600
   4230   4237   4240     1   114.2100488 537.225600
   4231   4230   4234     1   109.6600471 523.836800
   4231   4230   4237     1   109.6600471 523.836800
   4231   4243   4255     1   111.5100476 526.347200
   4234   4230   4237     1   109.6600471 523.836800
   4234   4246   4252     1   111.5100476 526.347200
   4237   4240   4249     1   111.5100476 526.347200
   4240   4249   4258     1   107.9700462 569.024000
   4243   4255   8578     1   107.9700462 569.024000
   4246   4252   8548     1   107.9700462 569.024000
   4252   8548   8539     1   112.4800480 524.673600
   4255   8578   8569     1   112.4800480 524.673600
   4260   4261   4273     1   114.2100488 537.225600
   4260   4264   4276     1   114.2100488 537.225600
   4260   4267   4270     1   114.2100488 537.225600
   4261   4260   4264     1   109.6600471 523.836800
   4261   4260   4267     1   109.6600471 523.836800
   4261   4273   4285     1   111.5100476 526.347200
   4264   4260   4267     1   109.6600471 523.836800
   4264   4276   4282     1   111.5100476 526.347200
   4267   4270   4279     1   111.5100476 526.347200
   4270   4279   4288     1   107.9700462 569.024000
   4273   4285   8638     1   107.9700462 569.024000
   4276   4282   8608     1   107.9700462 569.024000
   4282   8608   8599     1   112.4800480 524.673600
   4285   8638   8629     1   112.4800480 524.673600
   4290   4291   4303     1   114.2100488 537.225600
   4290   4294   4306     1   114.2100488 537.225600
   4290   4297   4300     1   114.2100488 537.225600
   4291   4290   4294     1   109.6600471 523.836800
   4291   4290   4297     1   109.6600471 523.836800
   4291   4303   4315     1   111.5100476 526.347200
   4294   4290   4297     1   109.6600471 523.836800
   4294   4306   4312     1   111.5100476 526.347200
   4297   4300   4309     1   111.5100476 526.347200
   4300   4309   4318     1   107.9700462 569.024000
   4303   4315   8698     1   107.9700462 569.024000
   4306   4312   8668     1   107.9700462 569.024000
   4312   8668   8659     1   112.4800480 524.673600
   4315   8698   8689     1   112.4800480 524.673600
   4320   4321   4333     1   114.2100488 537.225600
   4320   4324   4336     1   114.2100488 537.225600
   4320   4327   4330     1   114.2100488 537.225600
   4321   4320   4324     1   109.6600471 523.836800
   4321   4320   4327     1   109.6600471 523.836800
   4321   4333   4345     1   111.5100476 526.347200
   4324   4320   4327     1   109.6600471 523.836800
   4324   4336   4342     1   111.5100476 526.347200
   4327   4330   4339     1   111.5100476 526.347200
   4330   4339   4348     1   107.9700462 569.024000
   4333   4345   8758     1   107.9700462 569.024000
   4336   4342   8728     1   107.9700462 569.024000
   4342   8728   8719     1   112.4800480 524.673600
   4345   8758   8749     1   112.4800480 524.673600
   4350   4351   4363     1   114.2100488 537.225600
   4350   4354   4366     1   114.2100488 537.225600
   4350   4357   4360     1   114.2100488 537.225600
   4351   4350   4354     1   109.6600471 523.836800
   4351   4350   4357     1   109.6600471 523.836800
   4351   4363   4375     1   111.5100476 526.347200
   4354   4350   4357     1   109.6600471 523.836800
   4354   4366   4372     1   111.5100476 526.347200
   4357   4360   4369     1   111.5100476 526.347200
   4360   4369   4378     1   107.9700462 569.024000
   4363   4375   8818     1   107.9700462 569.024000
   4366   4372   8788     1   107.9700462 569.024000
   4372   8788   8779     1   112.4800480 524.673600
   4375   8818   8809     1   112.4800480 524.673600
   4380   4381   4393     1   114.2100488 537.225600
   4380   4384   4396     1   114.2100488 537.225600
   4380   4387   4390     1   114.2100488 537.225600
   4381   4380   4384     1   109.6600471 523.836800
   4381   4380   4387     1   109.6600471 523.836800
   4381   4393   4405     1   111.5100476 526.347200
   4384   4380   4387     1   109.6600471 523.836800
   4384   4396   4402     1   111.5100476 526.347200
   4387   4390   4399     1   111.5100476 526.347200
   4390   4399   4408     1   107.9700462 569.024000
   4393   4405   8878     1   107.9700462 569.024000
   4396   4402   8848     1   107.9700462 569.024000
   4402   8848   8839     1   112.4800480 524.673600
   4405   8878   8869     1   112.4800480 524.673600
   4410   4411   4423     1   114.2100488 537.225600
   4410   4414   4426     1   114.2100488 537.225600
   4410   4417   4420     1   114.2100488 537.225600
   4411   4410   4414     1   109.6600471 523.836800
   4411   4410   4417     1   109.6600471 523.836800
   4411   4423   4435     1   111.5100476 526.347200
   4414   4410   4417     1   109.6600471 523.836800
   4414   4426   4432     1   111.5100476 526.347200
   4417   4420   4429     1   111.5100476 526.347200
   4420   4429   4438     1   107.9700462 569.024000
   4423   4435   8938     1   107.9700462 569.024000
   4426   4432   8908     1   107.9700462 569.024000
   4432   8908   8899     1   112.4800480 524.673600
   4435   8938   8929     1   112.4800480 524.673600
   4440   4441   4453     1   114.2100488 537.225600
   4440   4444   4456     1   114.2100488 537.225600
   4440   4447   4450     1   114.2100488 537.225600
   4441   4440   4444     1   109.6600471 523.836800
   4441   4440   4447     1   109.6600471 523.836800
   4441   4453   4465     1   111.5100476 526.347200
   4444   4440   4447     1   109.6600471 523.836800
   4444   4456   4462     1   111.5100476 526.347200
   4447   4450   4459     1   111.5100476 526.347200
   4450   4459   4468     1   107.9700462 569.024000
   4453   4465   8998     1   107.9700462 569.024000
   4456   4462   8968     1   107.9700462 569.024000
   4462   8968   8959     1   112.4800480 524.673600
   4465   8998   8989     1   112.4800480 524.673600
   4470   4471   4483     1   114.2100488 537.225600
   4470   4474   4486     1   114.2100488 537.225600
   4470   4477   4480     1   114.2100488 537.225600
   4471   4470   4474     1   109.6600471 523.836800
   4471   4470   4477     1   109.6600471 523.836800
   4471   4483   4495     1   111.5100476 526.347200
   4474   4470   4477     1   109.6600471 523.836800
   4474   4486   4492     1   111.5100476 526.347200
   4477   4480   4489     1   111.5100476 526.347200
   4480   4489   4498     1   107.9700462 569.024000
   4483   4495   9058     1   107.9700462 569.024000
   4486   4492   9028     1   107.9700462 569.024000
   4492   9028   9019     1   112.4800480 524.673600
   4495   9058   9049     1   112.4800480 524.673600
   4500   4501   4513     1   114.2100488 537.225600
   4500   4504   4516     1   114.2100488 537.225600
   4500   4507   4510     1   114.2100488 537.225600
   4501   4500   4504     1   109.6600471 523.836800
   4501   4500   4507     1   109.6600471 523.836800
   4501   4513   4525     1   111.5100476 526.347200
   4504   4500   4507     1   109.6600471 523.836800
   4504   4516   4522     1   111.5100476 526.347200
   4507   4510   4519     1   111.5100476 526.347200
   4510   4519   4528     1   107.9700462 569.024000
   4513   4525   9118     1   107.9700462 569.024000
   4516   4522   9088     1   107.9700462 569.024000
   4522   9088   9079     1   112.4800480 524.673600
   4525   9118   9109     1   112.4800480 524.673600
   4530   4531   4543     1   114.2100488 537.225600
   4530   4534   4546     1   114.2100488 537.225600
   4530   4537   4540     1   114.2100488 537.225600
   4531   4530   4534     1   109.6600471 523.836800
   4531   4530   4537     1   109.6600471 523.836800
   4531   4543   4555     1   111.5100476 526.347200
   4534   4530   4537     1   109.6600471 523.836800
   4534   4546   4552     1   111.5100476 526.347200
   4537   4540   4549     1   111.5100476 526.347200
   4540   4549   4558     1   107.9700462 569.024000
   4543   4555   9178     1   107.9700462 569.024000
   4546   4552   9148     1   107.9700462 569.024000
   4552   9148   9139     1   112.4800480 524.673600
   4555   9178   9169     1   112.4800480 524.673600
   4560   4561   4573     1   114.2100488 537.225600
   4560   4564   4576     1   114.2100488 537.225600
   4560   4567   4570     1   114.2100488 537.225600
   4561   4560   4564     1   109.6600471 523.836800
   4561   4560   4567     1   109.6600471 523.836800
   4561   4573   4585     1   111.5100476 526.347200
   4564   4560   4567     1   109.6600471 523.836800
   4564   4576   4582     1   111.5100476 526.347200
   4567   4570   4579     1   111.5100476 526.347200
   4570   4579   4588     1   107.9700462 569.024000
   4573   4585   9238     1   107.9700462 569.024000
   4576   4582   9208     1   107.9700462 569.024000
   4582   9208   9199     1   112.4800480 524.673600
   4585   9238   9229     1   112.4800480 524.673600
   4590   4591   4603     1   114.2100488 537.225600
   4590   4594   4606     1   114.2100488 537.225600
   4590   4597   4600     1   114.2100488 537.225600
   4591   4590   4594     1   109.6600471 523.836800
   4591   4590   4597     1   109.6600471 523.836800
   4591   4603   4615     1   111.5100476 526.347200
   4594   4590   4597     1   109.6600471 523.836800
   4594   4606   4612     1   111.5100476 526.347200
   4597   4600   4609     1   111.5100476 526.347200
   4600   4609   4618     1   107.9700462 569.024000
   4603   4615   9298     1   107.9700462 569.024000
   4606   4612   9268     1   107.9700462 569.024000
   4612   9268   9259     1   112.4800480 524.673600
   4615   9298   9289     1   112.4800480 524.673600
   4620   4621   4633     1   114.2100488 537.225600
   4620   4624   4636     1   114.2100488 537.225600
   4620   4627   4630     1   114.2100488 537.225600
   4621   4620   4624     1   109.6600471 523.836800
   4621   4620   4627     1   109.6600471 523.836800
   4621   4633   4645     1   111.5100476 526.347200
   4624   4620   4627     1   109.6600471 523.836800
   4624   4636   4642     1   111.5100476 526.347200
   4627   4630   4639     1   111.5100476 526.347200
   4630   4639   4648     1   107.9700462 569.024000
   4633   4645   9358     1   107.9700462 569.024000
   4636   4642   9328     1   107.9700462 569.024000
   4642   9328   9319     1   112.4800480 524.673600
   4645   9358   9349     1   112.4800480 524.673600
   4650   4651   4663     1   114.2100488 537.225600
   4650   4654   4666     1   114.2100488 537.225600
   4650   4657   4660     1   114.2100488 537.225600
   4651   4650   4654     1   109.6600471 523.836800
   4651   4650   4657     1   109.6600471 523.836800
   4651   4663   4675     1   111.5100476 526.347200
   4654   4650   4657     1   109.6600471 523.836800
   4654   4666   4672     1   111.5100476 526.347200
   4657   4660   4669     1   111.5100476 526.347200
   4660   4669   4678     1   107.9700462 569.024000
   4663   4675   9418     1   107.9700462 569.024000
   4666   4672   9388     1   107.9700462 569.024000
   4672   9388   9379     1   112.4800480 524.673600
   4675   9418   9409     1   112.4800480 524.673600
   4680   4681   4693     1   114.2100488 537.225600
   4680   4684   4696     1   114.2100488 537.225600
   4680   4687   4690     1   114.2100488 537.225600
   4681   4680   4684     1   109.6600471 523.836800
   4681   4680   4687     1   109.6600471 523.836800
   4681   4693   4705     1   111.5100476 526.347200
   4684   4680   4687     1   109.6600471 523.836800
   4684   4696   4702     1   111.5100476 526.347200
   4687   4690   4699     1   111.5100476 526.347200
   4690   4699   4708     1   107.9700462 569.024000
   4693   4705   9478     1   107.9700462 569.024000
   4696   4702   9448     1   107.9700462 569.024000
   4702   9448   9439     1   112.4800480 524.673600
   4705   9478   9469     1   112.4800480 524.673600
   4710   4711   4723     1   114.2100488 537.225600
   4710   4714   4726     1   114.2100488 537.225600
   4710   4717   4720     1   114.2100488 537.225600
   4711   4710   4714     1   109.6600471 523.836800
   4711   4710   4717     1   109.6600471 523.836800
   4711   4723   4735     1   111.5100476 526.347200
   4714   4710   4717     1   109.6600471 523.836800
   4714   4726   4732     1   111.5100476 526.347200
   4717   4720   4729     1   111.5100476 526.347200
   4720   4729   4738     1   107.9700462 569.024000
   4723   4735   9538     1   107.9700462 569.024000
   4726   4732   9508     1   107.9700462 569.024000
   4732   9508   9499     1   112.4800480 524.673600
   4735   9538   9529     1   112.4800480 524.673600
   4740   4741   4753     1   114.2100488 537.225600
   4740   4744   4756     1   114.2100488 537.225600
   4740   4747   4750     1   114.2100488 537.225600
   4741   4740   4744     1   109.6600471 523.836800
   4741   4740   4747     1   109.6600471 523.836800
   4741   4753   4765     1   111.5100476 526.347200
   4744   4740   4747     1   109.6600471 523.836800
   4744   4756   4762     1   111.5100476 526.347200
   4747   4750   4759     1   111.5100476 526.347200
   4750   4759   4768     1   107.9700462 569.024000
   4753   4765   9598     1   107.9700462 569.024000
   4756   4762   9568     1   107.9700462 569.024000
   4762   9568   9559     1   112.4800480 524.673600
   4765   9598   9589     1   112.4800480 524.673600
   4770   4771   4783     1   114.2100488 537.225600
   4770   4774   4786     1   114.2100488 537.225600
   4770   4777   4780     1   114.2100488 537.225600
   4771   4770   4774     1   109.6600471 523.836800
   4771   4770   4777     1   109.6600471 523.836800
   4771   4783   4795     1   111.5100476 526.347200
   4774   4770   4777     1   109.6600471 523.836800
   4774   4786   4792     1   111.5100476 526.347200
   4777   4780   4789     1   111.5100476 526.347200
   4780   4789   4798     1   107.9700462 569.024000
   4783   4795   9658     1   107.9700462 569.024000
   4786   4792   9628     1   107.9700462 569.024000
   4792   9628   9619     1   112.4800480 524.673600
   4795   9658   9649     1   112.4800480 524.673600
   4800   4801   4813     1   114.2100488 537.225600
   4800   4804   4816     1   114.2100488 537.225600
   4800   4807   4810     1   114.2100488 537.225600
   4801   4800   4804     1   109.6600471 523.836800
   4801   4800   4807     1   109.6600471 523.836800
   4801   4813   4825     1   111.5100476 526.347200
   4804   4800   4807     1   109.6600471 523.836800
   4804   4816   4822     1   111.5100476 526.347200
   4807   4810   4819     1   111.5100476 526.347200
   4810   4819   4828     1   107.9700462 569.024000
   4813   4825   9718     1   107.9700462 569.024000
   4816   4822   9688     1   107.9700462 569.024000
   4822   9688   9679     1   112.4800480 524.673600
   4825   9718   9709     1   112.4800480 524.673600
   4830   4831   4843     1   114.2100488 537.225600
   4830   4834   4846     1   114.2100488 537.225600
   4830   4837   4840     1   114.2100488 537.225600
   4831   4830   4834     1   109.6600471 523.836800
   4831   4830   4837     1   109.6600471 523.836800
   4831   4843   4855     1   111.5100476 526.347200
   4834   4830   4837     1   109.6600471 523.836800
   4834   4846   4852     1   111.5100476 526.347200
   4837   4840   4849     1   111.5100476 526.347200
   4840   4849   4858     1   107.9700462 569.024000
   4843   4855   9778     1   107.9700462 569.024000
   4846   4852   9748     1   107.9700462 569.024000
   4852   9748   9739     1   112.4800480 524.673600
   4855   9778   9769     1   112.4800480 524.673600
   4860   4861   4873     1   114.2100488 537.225600
   4860   4864   4876     1   114.2100488 537.225600
   4860   4867   4870     1   114.2100488 537.225600
   4861   4860   4864     1   109.6600471 523.836800
   4861   4860   4867     1   109.6600471 523.836800
   4861   4873   4885     1   111.5100476 526.347200
   4864   4860   4867     1   109.6600471 523.836800
   4864   4876   4882     1   111.5100476 526.347200
   4867   4870   4879     1   111.5100476 526.347200
   4870   4879   4888     1   107.9700462 569.024000
   4873   4885   9838     1   107.9700462 569.024000
   4876   4882   9808     1   107.9700462 569.024000
   4882   9808   9799     1   112.4800480 524.673600
   4885   9838   9829     1   112.4800480 524.673600
   4890   4891   4903     1   114.2100488 537.225600
   4890   4894   4906     1   114.2100488 537.225600
   4890   4897   4900     1   114.2100488 537.225600
   4891   4890   4894     1   109.6600471 523.836800
   4891   4890   4897     1   109.6600471 523.836800
   4891   4903   4915     1   111.5100476 526.347200
   4894   4890   4897     1   109.6600471 523.836800
   4894   4906   4912     1   111.5100476 526.347200
   4897   4900   4909     1   111.5100476 526.347200
   4900   4909   4918     1   107.9700462 569.024000
   4903   4915   9898     1   107.9700462 569.024000
   4906   4912   9868     1   107.9700462 569.024000
   4912   9868   9859     1   112.4800480 524.673600
   4915   9898   9889     1   112.4800480 524.673600
   4920   4921   4933     1   114.2100488 537.225600
   4920   4924   4936     1   114.2100488 537.225600
   4920   4927   4930     1   114.2100488 537.225600
   4921   4920   4924     1   109.6600471 523.836800
   4921   4920   4927     1   109.6600471 523.836800
   4921   4933   4945     1   111.5100476 526.347200
   4924   4920   4927     1   109.6600471 523.836800
   4924   4936   4942     1   111.5100476 526.347200
   4927   4930   4939     1   111.5100476 526.347200
   4930   4939   4948     1   107.9700462 569.024000
   4933   4945   9958     1   107.9700462 569.024000
   4936   4942   9928     1   107.9700462 569.024000
   4942   9928   9919     1   112.4800480 524.673600
   4945   9958   9949     1   112.4800480 524.673600
   4950   4951   4963     1   114.2100488 537.225600
   4950   4954   4966     1   114.2100488 537.225600
   4950   4957   4960     1   114.2100488 537.225600
   4951   4950   4954     1   109.6600471 523.836800
   4951   4950   4957     1   109.6600471 523.836800
   4951   4963   4975     1   111.5100476 526.347200
   4954   4950   4957     1   109.6600471 523.836800
   4954   4966   4972     1   111.5100476 526.347200
   4957   4960   4969     1   111.5100476 526.347200
   4960   4969   4978     1   107.9700462 569.024000
   4963   4975  10018     1   107.9700462 569.024000
   4966   4972   9988     1   107.9700462 569.024000
   4972   9988   9979     1   112.4800480 524.673600
   4975  10018  10009     1   112.4800480 524.673600
   4980   4981   4993     1   114.2100488 537.225600
   4980   4984   4996     1   114.2100488 537.225600
   4980   4987   4990     1   114.2100488 537.225600
   4981   4980   4984     1   109.6600471 523.836800
   4981   4980   4987     1   109.6600471 523.836800
   4981   4993   5005     1   111.5100476 526.347200
   4984   4980   4987     1   109.6600471 523.836800
   4984   4996   5002     1   111.5100476 526.347200
   4987   4990   4999     1   111.5100476 526.347200
   4990   4999   5008     1   107.9700462 569.024000
   4993   5005  10078     1   107.9700462 569.024000
   4996   5002  10048     1   107.9700462 569.024000
   5002  10048  10039     1   112.4800480 524.673600
   5005  10078  10069     1   112.4800480 524.673600
   5010   5011   5023     1   114.2100488 537.225600
   5010   5014   5026     1   114.2100488 537.225600
   5010   5017   5020     1   114.2100488 537.225600
   5011   5010   5014     1   109.6600471 523.836800
   5011   5010   5017     1   109.6600471 523.836800
   5011   5023   5035     1   111.5100476 526.347200
   5014   5010   5017     1   109.6600471 523.836800
   5014   5026   5032     1   111.5100476 526.347200
   5017   5020   5029     1   111.5100476 526.347200
   5020   5029   5038     1   107.9700462 569.024000
   5023   5035  10138     1   107.9700462 569.024000
   5026   5032  10108     1   107.9700462 569.024000
   5032  10108  10099     1   112.4800480 524.673600
   5035  10138  10129     1   112.4800480 524.673600
   5040   5041   5053     1   114.2100488 537.225600
   5040   5044   5056     1   114.2100488 537.225600
   5040   5047   5050     1   114.2100488 537.225600
   5041   5040   5044     1   109.6600471 523.836800
   5041   5040   5047     1   109.6600471 523.836800
   5041   5053   5065     1   111.5100476 526.347200
   5044   5040   5047     1   109.6600471 523.836800
   5044   5056   5062     1   111.5100476 526.347200
   5047   5050   5059     1   111.5100476 526.347200
   5050   5059   5068     1   107.9700462 569.024000
   5053   5065  10198     1   107.9700462 569.024000
   5056   5062  10168     1   107.9700462 569.024000
   5062  10168  10159     1   112.4800480 524.673600
   5065  10198  10189     1   112.4800480 524.673600
   5070   5071   5083     1   114.2100488 537.225600
   5070   5074   5086     1   114.2100488 537.225600
   5070   5077   5080     1   114.2100488 537.225600
   5071   5070   5074     1   109.6600471 523.836800
   5071   5070   5077     1   109.6600471 523.836800
   5071   5083   5095     1   111.5100476 526.347200
   5074   5070   5077     1   109.6600471 523.836800
   5074   5086   5092     1   111.5100476 526.347200
   5077   5080   5089     1   111.5100476 526.347200
   5080   5089   5098     1   107.9700462 569.024000
   5083   5095  10258     1   107.9700462 569.024000
   5086   5092  10228     1   107.9700462 569.024000
   5092  10228  10219     1   112.4800480 524.673600
   5095  10258  10249     1   112.4800480 524.673600
   5100   5101   5113     1   114.2100488 537.225600
   5100   5104   5116     1   114.2100488 537.225600
   5100   5107   5110     1   114.2100488 537.225600
   5101   5100   5104     1   109.6600471 523.836800
   5101   5100   5107     1   109.6600471 523.836800
   5101   5113   5125     1   111.5100476 526.347200
   5104   5100   5107     1   109.6600471 523.836800
   5104   5116   5122     1   111.5100476 526.347200
   5107   5110   5119     1   111.5100476 526.347200
   5110   5119   5128     1   107.9700462 569.024000
   5113   5125  10318     1   107.9700462 569.024000
   5116   5122  10288     1   107.9700462 569.024000
   5122  10288  10279     1   112.4800480 524.673600
   5125  10318  10309     1   112.4800480 524.673600
   5130   5131   5143     1   114.2100488 537.225600
   5130   5134   5146     1   114.2100488 537.225600
   5130   5137   5140     1   114.2100488 537.225600
   5131   5130   5134     1   109.6600471 523.836800
   5131   5130   5137     1   109.6600471 523.836800
   5131   5143   5155     1   111.5100476 526.347200
   5134   5130   5137     1   109.6600471 523.836800
   5134   5146   5152     1   111.5100476 526.347200
   5137   5140   5149     1   111.5100476 526.347200
   5140   5149   5158     1   107.9700462 569.024000
   5143   5155  10378     1   107.9700462 569.024000
   5146   5152  10348     1   107.9700462 569.024000
   5152  10348  10339     1   112.4800480 524.673600
   5155  10378  10369     1   112.4800480 524.673600
   5160   5161   5173     1   114.2100488 537.225600
   5160   5164   5176     1   114.2100488 537.225600
   5160   5167   5170     1   114.2100488 537.225600
   5161   5160   5164     1   109.6600471 523.836800
   5161   5160   5167     1   109.6600471 523.836800
   5161   5173   5185     1   111.5100476 526.347200
   5164   5160   5167     1   109.6600471 523.836800
   5164   5176   5182     1   111.5100476 526.347200
   5167   5170   5179     1   111.5100476 526.347200
   5170   5179   5188     1   107.9700462 569.024000
   5173   5185  10438     1   107.9700462 569.024000
   5176   5182  10408     1   107.9700462 569.024000
   5182  10408  10399     1   112.4800480 524.673600
   5185  10438  10429     1   112.4800480 524.673600
   5190   5191   5203     1   114.2100488 537.225600
   5190   5194   5206     1   114.2100488 537.225600
   5190   5197   5200     1   114.2100488 537.225600
   5191   5190   5194     1   109.6600471 523.836800
   5191   5190   5197     1   109.6600471 523.836800
   5191   5203   5215     1   111.5100476 526.347200
   5194   5190   5197     1   109.6600471 523.836800
   5194   5206   5212     1   111.5100476 526.347200
   5197   5200   5209     1   111.5100476 526.347200
   5200   5209   5218     1   107.9700462 569.024000
   5203   5215  10498     1   107.9700462 569.024000
   5206   5212  10468     1   107.9700462 569.024000
   5212  10468  10459     1   112.4800480 524.673600
   5215  10498  10489     1   112.4800480 524.673600
   5220   5221   5233     1   114.2100488 537.225600
   5220   5224   5236     1   114.2100488 537.225600
   5220   5227   5230     1   114.2100488 537.225600
   5221   5220   5224     1   109.6600471 523.836800
   5221   5220   5227     1   109.6600471 523.836800
   5221   5233   5245     1   111.5100476 526.347200
   5224   5220   5227     1   109.6600471 523.836800
   5224   5236   5242     1   111.5100476 526.347200
   5227   5230   5239     1   111.5100476 526.347200
   5230   5239   5248     1   107.9700462 569.024000
   5233   5245  10558     1   107.9700462 569.024000
   5236   5242  10528     1   107.9700462 569.024000
   5242  10528  10519     1   112.4800480 524.673600
   5245  10558  10549     1   112.4800480 524.673600
   5250   5251   5263     1   114.2100488 537.225600
   5250   5254   5266     1   114.2100488 537.225600
   5250   5257   5260     1   114.2100488 537.225600
   5251   5250   5254     1   109.6600471 523.836800
   5251   5250   5257     1   109.6600471 523.836800
   5251   5263   5275     1   111.5100476 526.347200
   5254   5250   5257     1   109.6600471 523.836800
   5254   5266   5272     1   111.5100476 526.347200
   5257   5260   5269     1   111.5100476 526.347200
   5260   5269   5278     1   107.9700462 569.024000
   5263   5275  10618     1   107.9700462 569.024000
   5266   5272  10588     1   107.9700462 569.024000
   5272  10588  10579     1   112.4800480 524.673600
   5275  10618  10609     1   112.4800480 524.673600
   5280   5281   5293     1   114.2100488 537.225600
   5280   5284   5296     1   114.2100488 537.225600
   5280   5287   5290     1   114.2100488 537.225600
   5281   5280   5284     1   109.6600471 523.836800
   5281   5280   5287     1   109.6600471 523.836800
   5281   5293   5305     1   111.5100476 526.347200
   5284   5280   5287     1   109.6600471 523.836800
   5284   5296   5302     1   111.5100476 526.347200
   5287   5290   5299     1   111.5100476 526.347200
   5290   5299   5308     1   107.9700462 569.024000
   5293   5305  10678     1   107.9700462 569.024000
   5296   5302  10648     1   107.9700462 569.024000
   5302  10648  10639     1   112.4800480 524.673600
   5305  10678  10669     1   112.4800480 524.673600
   5310   5311   5323     1   114.2100488 537.225600
   5310   5314   5326     1   114.2100488 537.225600
   5310   5317   5320     1   114.2100488 537.225600
   5311   5310   5314     1   109.6600471 523.836800
   5311   5310   5317     1   109.6600471 523.836800
   5311   5323   5335     1   111.5100476 526.347200
   5314   5310   5317     1   109.6600471 523.836800
   5314   5326   5332     1   111.5100476 526.347200
   5317   5320   5329     1   111.5100476 526.347200
   5320   5329   5338     1   107.9700462 569.024000
   5323   5335  10738     1   107.9700462 569.024000
   5326   5332  10708     1   107.9700462 569.024000
   5332  10708  10699     1   112.4800480 524.673600
   5335  10738  10729     1   112.4800480 524.673600
   5340   5341   5353     1   114.2100488 537.225600
   5340   5344   5356     1   114.2100488 537.225600
   5340   5347   5350     1   114.2100488 537.225600
   5341   5340   5344     1   109.6600471 523.836800
   5341   5340   5347     1   109.6600471 523.836800
   5341   5353   5365     1   111.5100476 526.347200
   5344   5340   5347     1   109.6600471 523.836800
   5344   5356   5362     1   111.5100476 526.347200
   5347   5350   5359     1   111.5100476 526.347200
   5350   5359   5368     1   107.9700462 569.024000
   5353   5365  10798     1   107.9700462 569.024000
   5356   5362  10768     1   107.9700462 569.024000
   5362  10768  10759     1   112.4800480 524.673600
   5365  10798  10789     1   112.4800480 524.673600
   5370   5371   5383     1   114.2100488 537.225600
   5370   5374   5386     1   114.2100488 537.225600
   5370   5377   5380     1   114.2100488 537.225600
   5371   5370   5374     1   109.6600471 523.836800
   5371   5370   5377     1   109.6600471 523.836800
   5371   5383   5395     1   111.5100476 526.347200
   5374   5370   5377     1   109.6600471 523.836800
   5374   5386   5392     1   111.5100476 526.347200
   5377   5380   5389     1   111.5100476 526.347200
   5380   5389   5398     1   107.9700462 569.024000
   5383   5395  10858     1   107.9700462 569.024000
   5386   5392  10828     1   107.9700462 569.024000
   5392  10828  10819     1   112.4800480 524.673600
   5395  10858  10849     1   112.4800480 524.673600
   5400   5401   5413     1   114.2100488 537.225600
   5400   5404   5416     1   114.2100488 537.225600
   5400   5407   5410     1   114.2100488 537.225600
   5401   5400   5404     1   109.6600471 523.836800
   5401   5400   5407     1   109.6600471 523.836800
   5401   5413   5425     1   111.5100476 526.347200
   5404   5400   5407     1   109.6600471 523.836800
   5404   5416   5422     1   111.5100476 526.347200
   5407   5410   5419     1   111.5100476 526.347200
   5410   5419   5428     1   107.9700462 569.024000
   5413   5425  10918     1   107.9700462 569.024000
   5416   5422  10888     1   107.9700462 569.024000
   5422  10888  10879     1   112.4800480 524.673600
   5425  10918  10909     1   112.4800480 524.673600
   5430   5431   5443     1   114.2100488 537.225600
   5430   5434   5446     1   114.2100488 537.225600
   5430   5437   5440     1   114.2100488 537.225600
   5431   5430   5434     1   109.6600471 523.836800
   5431   5430   5437     1   109.6600471 523.836800
   5431   5443   5455     1   111.5100476 526.347200
   5434   5430   5437     1   109.6600471 523.836800
   5434   5446   5452     1   111.5100476 526.347200
   5437   5440   5449     1   111.5100476 526.347200
   5440   5449   5458     1   107.9700462 569.024000
   5443   5455  10978     1   107.9700462 569.024000
   5446   5452  10948     1   107.9700462 569.024000
   5452  10948  10939     1   112.4800480 524.673600
   5455  10978  10969     1   112.4800480 524.673600
   5460   5461   5473     1   114.2100488 537.225600
   5460   5464   5476     1   114.2100488 537.225600
   5460   5467   5470     1   114.2100488 537.225600
   5461   5460   5464     1   109.6600471 523.836800
   5461   5460   5467     1   109.6600471 523.836800
   5461   5473   5485     1   111.5100476 526.347200
   5464   5460   5467     1   109.6600471 523.836800
   5464   5476   5482     1   111.5100476 526.347200
   5467   5470   5479     1   111.5100476 526.347200
   5470   5479   5488     1   107.9700462 569.024000
   5473   5485  11038     1   107.9700462 569.024000
   5476   5482  11008     1   107.9700462 569.024000
   5482  11008  10999     1   112.4800480 524.673600
   5485  11038  11029     1   112.4800480 524.673600
   5490   5491   5503     1   114.2100488 537.225600
   5490   5494   5506     1   114.2100488 537.225600
   5490   5497   5500     1   114.2100488 537.225600
   5491   5490   5494     1   109.6600471 523.836800
   5491   5490   5497     1   109.6600471 523.836800
   5491   5503   5515     1   111.5100476 526.347200
   5494   5490   5497     1   109.6600471 523.836800
   5494   5506   5512     1   111.5100476 526.347200
   5497   5500   5509     1   111.5100476 526.347200
   5500   5509   5518     1   107.9700462 569.024000
   5503   5515  11098     1   107.9700462 569.024000
   5506   5512  11068     1   107.9700462 569.024000
   5512  11068  11059     1   112.4800480 524.673600
   5515  11098  11089     1   112.4800480 524.673600
   5520   5521   5533     1   114.2100488 537.225600
   5520   5524   5536     1   114.2100488 537.225600
   5520   5527   5530     1   114.2100488 537.225600
   5521   5520   5524     1   109.6600471 523.836800
   5521   5520   5527     1   109.6600471 523.836800
   5521   5533   5545     1   111.5100476 526.347200
   5524   5520   5527     1   109.6600471 523.836800
   5524   5536   5542     1   111.5100476 526.347200
   5527   5530   5539     1   111.5100476 526.347200
   5530   5539   5548     1   107.9700462 569.024000
   5533   5545  11158     1   107.9700462 569.024000
   5536   5542  11128     1   107.9700462 569.024000
   5542  11128  11119     1   112.4800480 524.673600
   5545  11158  11149     1   112.4800480 524.673600
   5550   5551   5563     1   114.2100488 537.225600
   5550   5554   5566     1   114.2100488 537.225600
   5550   5557   5560     1   114.2100488 537.225600
   5551   5550   5554     1   109.6600471 523.836800
   5551   5550   5557     1   109.6600471 523.836800
   5551   5563   5575     1   111.5100476 526.347200
   5554   5550   5557     1   109.6600471 523.836800
   5554   5566   5572     1   111.5100476 526.347200
   5557   5560   5569     1   111.5100476 526.347200
   5560   5569   5578     1   107.9700462 569.024000
   5563   5575  11218     1   107.9700462 569.024000
   5566   5572  11188     1   107.9700462 569.024000
   5572  11188  11179     1   112.4800480 524.673600
   5575  11218  11209     1   112.4800480 524.673600
   5580   5581   5593     1   114.2100488 537.225600
   5580   5584   5596     1   114.2100488 537.225600
   5580   5587   5590     1   114.2100488 537.225600
   5581   5580   5584     1   109.6600471 523.836800
   5581   5580   5587     1   109.6600471 523.836800
   5581   5593   5605     1   111.5100476 526.347200
   5584   5580   5587     1   109.6600471 523.836800
   5584   5596   5602     1   111.5100476 526.347200
   5587   5590   5599     1   111.5100476 526.347200
   5590   5599   5608     1   107.9700462 569.024000
   5593   5605  11278     1   107.9700462 569.024000
   5596   5602  11248     1   107.9700462 569.024000
   5602  11248  11239     1   112.4800480 524.673600
   5605  11278  11269     1   112.4800480 524.673600
   5610   5611   5623     1   114.2100488 537.225600
   5610   5614   5626     1   114.2100488 537.225600
   5610   5617   5620     1   114.2100488 537.225600
   5611   5610   5614     1   109.6600471 523.836800
   5611   5610   5617     1   109.6600471 523.836800
   5611   5623   5635     1   111.5100476 526.347200
   5614   5610   5617     1   109.6600471 523.836800
   5614   5626   5632     1   111.5100476 526.347200
   5617   5620   5629     1   111.5100476 526.347200
   5620   5629   5638     1   107.9700462 569.024000
   5623   5635  11338     1   107.9700462 569.024000
   5626   5632  11308     1   107.9700462 569.024000
   5632  11308  11299     1   112.4800480 524.673600
   5635  11338  11329     1   112.4800480 524.673600
   5640   5641   5653     1   114.2100488 537.225600
   5640   5644   5656     1   114.2100488 537.225600
   5640   5647   5650     1   114.2100488 537.225600
   5641   5640   5644     1   109.6600471 523.836800
   5641   5640   5647     1   109.6600471 523.836800
   5641   5653   5665     1   111.5100476 526.347200
   5644   5640   5647     1   109.6600471 523.836800
   5644   5656   5662     1   111.5100476 526.347200
   5647   5650   5659     1   111.5100476 526.347200
   5650   5659   5668     1   107.9700462 569.024000
   5653   5665  11398     1   107.9700462 569.024000
   5656   5662  11368     1   107.9700462 569.024000
   5662  11368  11359     1   112.4800480 524.673600
   5665  11398  11389     1   112.4800480 524.673600
   5670   5671   5683     1   114.2100488 537.225600
   5670   5674   5686     1   114.2100488 537.225600
   5670   5677   5680     1   114.2100488 537.225600
   5671   5670   5674     1   109.6600471 523.836800
   5671   5670   5677     1   109.6600471 523.836800
   5671   5683   5695     1   111.5100476 526.347200
   5674   5670   5677     1   109.6600471 523.836800
   5674   5686   5692     1   111.5100476 526.347200
   5677   5680   5689     1   111.5100476 526.347200
   5680   5689   5698     1   107.9700462 569.024000
   5683   5695  11458     1   107.9700462 569.024000
   5686   5692  11428     1   107.9700462 569.024000
   5692  11428  11419     1   112.4800480 524.673600
   5695  11458  11449     1   112.4800480 524.673600
   5700   5701   5713     1   114.2100488 537.225600
   5700   5704   5716     1   114.2100488 537.225600
   5700   5707   5710     1   114.2100488 537.225600
   5701   5700   5704     1   109.6600471 523.836800
   5701   5700   5707     1   109.6600471 523.836800
   5701   5713   5725     1   111.5100476 526.347200
   5704   5700   5707     1   109.6600471 523.836800
   5704   5716   5722     1   111.5100476 526.347200
   5707   5710   5719     1   111.5100476 526.347200
   5710   5719   5728     1   107.9700462 569.024000
   5713   5725  11493     1   107.9700462 569.024000
   5716   5722  11470     1   107.9700462 569.024000
   5722  11470  11466     1   112.4800480 524.673600
   5725  11493  11489     1   112.4800480 524.673600
   5730   5731   5743     1   114.2100488 537.225600
   5730   5734   5746     1   114.2100488 537.225600
   5730   5737   5740     1   114.2100488 537.225600
   5731   5730   5734     1   109.6600471 523.836800
   5731   5730   5737     1   109.6600471 523.836800
   5731   5743   5755     1   111.5100476 526.347200
   5734   5730   5737     1   109.6600471 523.836800
   5734   5746   5752     1   111.5100476 526.347200
   5737   5740   5749     1   111.5100476 526.347200
   5740   5749   5758     1   107.9700462 569.024000
   5743   5755  11539     1   107.9700462 569.024000
   5746   5752  11516     1   107.9700462 569.024000
   5752  11516  11512     1   112.4800480 524.673600
   5755  11539  11535     1   112.4800480 524.673600
   5760   5761   5773     1   114.2100488 537.225600
   5760   5764   5776     1   114.2100488 537.225600
   5760   5767   5770     1   114.2100488 537.225600
   5761   5760   5764     1   109.6600471 523.836800
   5761   5760   5767     1   109.6600471 523.836800
   5761   5773   5785     1   111.5100476 526.347200
   5764   5760   5767     1   109.6600471 523.836800
   5764   5776   5782     1   111.5100476 526.347200
   5767   5770   5779     1   111.5100476 526.347200
   5770   5779   5788     1   107.9700462 569.024000
   5773   5785  11585     1   107.9700462 569.024000
   5776   5782  11562     1   107.9700462 569.024000
   5782  11562  11558     1   112.4800480 524.673600
   5785  11585  11581     1   112.4800480 524.673600
   5790   5791   5803     1   114.2100488 537.225600
   5790   5794   5806     1   114.2100488 537.225600
   5790   5797   5800     1   114.2100488 537.225600
   5791   5790   5794     1   109.6600471 523.836800
   5791   5790   5797     1   109.6600471 523.836800
   5791   5803   5815     1   111.5100476 526.347200
   5794   5790   5797     1   109.6600471 523.836800
   5794   5806   5812     1   111.5100476 526.347200
   5797   5800   5809     1   111.5100476 526.347200
   5800   5809   5818     1   107.9700462 569.024000
   5803   5815  11631     1   107.9700462 569.024000
   5806   5812  11608     1   107.9700462 569.024000
   5812  11608  11604     1   112.4800480 524.673600
   5815  11631  11627     1   112.4800480 524.673600
   5820   5821   5833     1   114.2100488 537.225600
   5820   5824   5836     1   114.2100488 537.225600
   5820   5827   5830     1   114.2100488 537.225600
   5821   5820   5824     1   109.6600471 523.836800
   5821   5820   5827     1   109.6600471 523.836800
   5821   5833   5845     1   111.5100476 526.347200
   5824   5820   5827     1   109.6600471 523.836800
   5824   5836   5842     1   111.5100476 526.347200
   5827   5830   5839     1   111.5100476 526.347200
   5830   5839   5848     1   107.9700462 569.024000
   5833   5845  11677     1   107.9700462 569.024000
   5836   5842  11654     1   107.9700462 569.024000
   5842  11654  11650     1   112.4800480 524.673600
   5845  11677  11673     1   112.4800480 524.673600
   5850   5851   5863     1   114.2100488 537.225600
   5850   5854   5866     1   114.2100488 537.225600
   5850   5857   5860     1   114.2100488 537.225600
   5851   5850   5854     1   109.6600471 523.836800
   5851   5850   5857     1   109.6600471 523.836800
   5851   5863   5875     1   111.5100476 526.347200
   5854   5850   5857     1   109.6600471 523.836800
   5854   5866   5872     1   111.5100476 526.347200
   5857   5860   5869     1   111.5100476 526.347200
   5860   5869   5878     1   107.9700462 569.024000
   5863   5875  11723     1   107.9700462 569.024000
   5866   5872  11700     1   107.9700462 569.024000
   5872  11700  11696     1   112.4800480 524.673600
   5875  11723  11719     1   112.4800480 524.673600
   5880   5881   5893     1   114.2100488 537.225600
   5880   5884   5896     1   114.2100488 537.225600
   5880   5887   5890     1   114.2100488 537.225600
   5881   5880   5884     1   109.6600471 523.836800
   5881   5880   5887     1   109.6600471 523.836800
   5881   5893   5905     1   111.5100476 526.347200
   5884   5880   5887     1   109.6600471 523.836800
   5884   5896   5902     1   111.5100476 526.347200
   5887   5890   5899     1   111.5100476 526.347200
   5890   5899   5908     1   107.9700462 569.024000
   5893   5905  11769     1   107.9700462 569.024000
   5896   5902  11746     1   107.9700462 569.024000
   5902  11746  11742     1   112.4800480 524.673600
   5905  11769  11765     1   112.4800480 524.673600
   5910   5911   5923     1   114.2100488 537.225600
   5910   5914   5926     1   114.2100488 537.225600
   5910   5917   5920     1   114.2100488 537.225600
   5911   5910   5914     1   109.6600471 523.836800
   5911   5910   5917     1   109.6600471 523.836800
   5911   5923   5935     1   111.5100476 526.347200
   5914   5910   5917     1   109.6600471 523.836800
   5914   5926   5932     1   111.5100476 526.347200
   5917   5920   5929     1   111.5100476 526.347200
   5920   5929   5938     1   107.9700462 569.024000
   5923   5935  11815     1   107.9700462 569.024000
   5926   5932  11792     1   107.9700462 569.024000
   5932  11792  11788     1   112.4800480 524.673600
   5935  11815  11811     1   112.4800480 524.673600
   5940   5941   5953     1   114.2100488 537.225600
   5940   5944   5956     1   114.2100488 537.225600
   5940   5947   5950     1   114.2100488 537.225600
   5941   5940   5944     1   109.6600471 523.836800
   5941   5940   5947     1   109.6600471 523.836800
   5941   5953   5965     1   111.5100476 526.347200
   5944   5940   5947     1   109.6600471 523.836800
   5944   5956   5962     1   111.5100476 526.347200
   5947   5950   5959     1   111.5100476 526.347200
   5950   5959   5968     1   107.9700462 569.024000
   5953   5965  11861     1   107.9700462 569.024000
   5956   5962  11838     1   107.9700462 569.024000
   5962  11838  11834     1   112.4800480 524.673600
   5965  11861  11857     1   112.4800480 524.673600
   5970   5971   5983     1   114.2100488 537.225600
   5970   5974   5986     1   114.2100488 537.225600
   5970   5977   5980     1   114.2100488 537.225600
   5971   5970   5974     1   109.6600471 523.836800
   5971   5970   5977     1   109.6600471 523.836800
   5971   5983   5995     1   111.5100476 526.347200
   5974   5970   5977     1   109.6600471 523.836800
   5974   5986   5992     1   111.5100476 526.347200
   5977   5980   5989     1   111.5100476 526.347200
   5980   5989   5998     1   107.9700462 569.024000
   5983   5995  11907     1   107.9700462 569.024000
   5986   5992  11884     1   107.9700462 569.024000
   5992  11884  11880     1   112.4800480 524.673600
   5995  11907  11903     1   112.4800480 524.673600
   6000   6001   6013     1   114.2100488 537.225600
   6000   6004   6016     1   114.2100488 537.225600
   6000   6007   6010     1   114.2100488 537.225600
   6001   6000   6004     1   109.6600471 523.836800
   6001   6000   6007     1   109.6600471 523.836800
   6001   6013   6025     1   111.5100476 526.347200
   6004   6000   6007     1   109.6600471 523.836800
   6004   6016   6022     1   111.5100476 526.347200
   6007   6010   6019     1   111.5100476 526.347200
   6010   6019   6028     1   107.9700462 569.024000
   6013   6025  11953     1   107.9700462 569.024000
   6016   6022  11930     1   107.9700462 569.024000
   6022  11930  11926     1   112.4800480 524.673600
   6025  11953  11949     1   112.4800480 524.673600
   6030   6031   6043     1   114.2100488 537.225600
   6030   6034   6046     1   114.2100488 537.225600
   6030   6037   6040     1   114.2100488 537.225600
   6031   6030   6034     1   109.6600471 523.836800
   6031   6030   6037     1   109.6600471 523.836800
   6031   6043   6055     1   111.5100476 526.347200
   6034   6030   6037     1   109.6600471 523.836800
   6034   6046   6052     1   111.5100476 526.347200
   6037   6040   6049     1   111.5100476 526.347200
   6040   6049   6058     1   107.9700462 569.024000
   6043   6055  11999     1   107.9700462 569.024000
   6046   6052  11976     1   107.9700462 569.024000
   6052  11976  11972     1   112.4800480 524.673600
   6055  11999  11995     1   112.4800480 524.673600
   6060   6061   6073     1   114.2100488 537.225600
   6060   6064   6076     1   114.2100488 537.225600
   6060   6067   6070     1   114.2100488 537.225600
   6061   6060   6064     1   109.6600471 523.836800
   6061   6060   6067     1   109.6600471 523.836800
   6061   6073   6085     1   111.5100476 526.347200
   6064   6060   6067     1   109.6600471 523.836800
   6064   6076   6082     1   111.5100476 526.347200
   6067   6070   6079     1   111.5100476 526.347200
   6070   6079   6088     1   107.9700462 569.024000
   6073   6085  12045     1   107.9700462 569.024000
   6076   6082  12022     1   107.9700462 569.024000
   6082  12022  12018     1   112.4800480 524.673600
   6085  12045  12041     1   112.4800480 524.673600
   6090   6091   6103     1   114.2100488 537.225600
   6090   6094   6106     1   114.2100488 537.225600
   6090   6097   6100     1   114.2100488 537.225600
   6091   6090   6094     1   109.6600471 523.836800
   6091   6090   6097     1   109.6600471 523.836800
   6091   6103   6115     1   111.5100476 526.347200
   6094   6090   6097     1   109.6600471 523.836800
   6094   6106   6112     1   111.5100476 526.347200
   6097   6100   6109     1   111.5100476 526.347200
   6100   6109   6118     1   107.9700462 569.024000
   6103   6115  12091     1   107.9700462 569.024000
   6106   6112  12068     1   107.9700462 569.024000
   6112  12068  12064     1   112.4800480 524.673600
   6115  12091  12087     1   112.4800480 524.673600
   6120   6121   6133     1   114.2100488 537.225600
   6120   6124   6136     1   114.2100488 537.225600
   6120   6127   6130     1   114.2100488 537.225600
   6121   6120   6124     1   109.6600471 523.836800
   6121   6120   6127     1   109.6600471 523.836800
   6121   6133   6145     1   111.5100476 526.347200
   6124   6120   6127     1   109.6600471 523.836800
   6124   6136   6142     1   111.5100476 526.347200
   6127   6130   6139     1   111.5100476 526.347200
   6130   6139   6148     1   107.9700462 569.024000
   6133   6145  12137     1   107.9700462 569.024000
   6136   6142  12114     1   107.9700462 569.024000
   6142  12114  12110     1   112.4800480 524.673600
   6145  12137  12133     1   112.4800480 524.673600
   6150   6151   6163     1   114.2100488 537.225600
   6150   6154   6166     1   114.2100488 537.225600
   6150   6157   6160     1   114.2100488 537.225600
   6151   6150   6154     1   109.6600471 523.836800
   6151   6150   6157     1   109.6600471 523.836800
   6151   6163   6175     1   111.5100476 526.347200
   6154   6150   6157     1   109.6600471 523.836800
   6154   6166   6172     1   111.5100476 526.347200
   6157   6160   6169     1   111.5100476 526.347200
   6160   6169   6178     1   107.9700462 569.024000
   6163   6175  12183     1   107.9700462 569.024000
   6166   6172  12160     1   107.9700462 569.024000
   6172  12160  12156     1   112.4800480 524.673600
   6175  12183  12179     1   112.4800480 524.673600
   6180   6181   6193     1   114.2100488 537.225600
   6180   6184   6196     1   114.2100488 537.225600
   6180   6187   6190     1   114.2100488 537.225600
   6181   6180   6184     1   109.6600471 523.836800
   6181   6180   6187     1   109.6600471 523.836800
   6181   6193   6205     1   111.5100476 526.347200
   6184   6180   6187     1   109.6600471 523.836800
   6184   6196   6202     1   111.5100476 526.347200
   6187   6190   6199     1   111.5100476 526.347200
   6190   6199   6208     1   107.9700462 569.024000
   6193   6205  12229     1   107.9700462 569.024000
   6196   6202  12206     1   107.9700462 569.024000
   6202  12206  12202     1   112.4800480 524.673600
   6205  12229  12225     1   112.4800480 524.673600
   6210   6211   6223     1   114.2100488 537.225600
   6210   6214   6226     1   114.2100488 537.225600
   6210   6217   6220     1   114.2100488 537.225600
   6211   6210   6214     1   109.6600471 523.836800
   6211   6210   6217     1   109.6600471 523.836800
   6211   6223   6235     1   111.5100476 526.347200
   6214   6210   6217     1   109.6600471 523.836800
   6214   6226   6232     1   111.5100476 526.347200
   6217   6220   6229     1   111.5100476 526.347200
   6220   6229   6238     1   107.9700462 569.024000
   6223   6235  12275     1   107.9700462 569.024000
   6226   6232  12252     1   107.9700462 569.024000
   6232  12252  12248     1   112.4800480 524.673600
   6235  12275  12271     1   112.4800480 524.673600
   6240   6241   6253     1   114.2100488 537.225600
   6240   6244   6256     1   114.2100488 537.225600
   6240   6247   6250     1   114.2100488 537.225600
   6241   6240   6244     1   109.6600471 523.836800
   6241   6240   6247     1   109.6600471 523.836800
   6241   6253   6265     1   111.5100476 526.347200
   6244   6240   6247     1   109.6600471 523.836800
   6244   6256   6262     1   111.5100476 526.347200
   6247   6250   6259     1   111.5100476 526.347200
   6250   6259   6268     1   107.9700462 569.024000
   6253   6265  12321     1   107.9700462 569.024000
   6256   6262  12298     1   107.9700462 569.024000
   6262  12298  12294     1   112.4800480 524.673600
   6265  12321  12317     1   112.4800480 524.673600
   6270   6271   6283     1   114.2100488 537.225600
   6270   6274   6286     1   114.2100488 537.225600
   6270   6277   6280     1   114.2100488 537.225600
   6271   6270   6274     1   109.6600471 523.836800
   6271   6270   6277     1   109.6600471 523.836800
   6271   6283   6295     1   111.5100476 526.347200
   6274   6270   6277     1   109.6600471 523.836800
   6274   6286   6292     1   111.5100476 526.347200
   6277   6280   6289     1   111.5100476 526.347200
   6280   6289   6298     1   107.9700462 569.024000
   6283   6295  12367     1   107.9700462 569.024000
   6286   6292  12344     1   107.9700462 569.024000
   6292  12344  12340     1   112.4800480 524.673600
   6295  12367  12363     1   112.4800480 524.673600
   6300   6301   6313     1   114.2100488 537.225600
   6300   6304   6316     1   114.2100488 537.225600
   6300   6307   6310     1   114.2100488 537.225600
   6301   6300   6304     1   109.6600471 523.836800
   6301   6300   6307     1   109.6600471 523.836800
   6301   6313   6325     1   111.5100476 526.347200
   6304   6300   6307     1   109.6600471 523.836800
   6304   6316   6322     1   111.5100476 526.347200
   6307   6310   6319     1   111.5100476 526.347200
   6310   6319   6328     1   107.9700462 569.024000
   6313   6325  12413     1   107.9700462 569.024000
   6316   6322  12390     1   107.9700462 569.024000
   6322  12390  12386     1   112.4800480 524.673600
   6325  12413  12409     1   112.4800480 524.673600
   6330   6331   6343     1   114.2100488 537.225600
   6330   6334   6346     1   114.2100488 537.225600
   6330   6337   6340     1   114.2100488 537.225600
   6331   6330   6334     1   109.6600471 523.836800
   6331   6330   6337     1   109.6600471 523.836800
   6331   6343   6355     1   111.5100476 526.347200
   6334   6330   6337     1   109.6600471 523.836800
   6334   6346   6352     1   111.5100476 526.347200
   6337   6340   6349     1   111.5100476 526.347200
   6340   6349   6358     1   107.9700462 569.024000
   6343   6355  12459     1   107.9700462 569.024000
   6346   6352  12436     1   107.9700462 569.024000
   6352  12436  12432     1   112.4800480 524.673600
   6355  12459  12455     1   112.4800480 524.673600
   6360   6361   6373     1   114.2100488 537.225600
   6360   6364   6376     1   114.2100488 537.225600
   6360   6367   6370     1   114.2100488 537.225600
   6361   6360   6364     1   109.6600471 523.836800
   6361   6360   6367     1   109.6600471 523.836800
   6361   6373   6385     1   111.5100476 526.347200
   6364   6360   6367     1   109.6600471 523.836800
   6364   6376   6382     1   111.5100476 526.347200
   6367   6370   6379     1   111.5100476 526.347200
   6370   6379   6388     1   107.9700462 569.024000
   6373   6385  12505     1   107.9700462 569.024000
   6376   6382  12482     1   107.9700462 569.024000
   6382  12482  12478     1   112.4800480 524.673600
   6385  12505  12501     1   112.4800480 524.673600
   6390   6391   6403     1   114.2100488 537.225600
   6390   6394   6406     1   114.2100488 537.225600
   6390   6397   6400     1   114.2100488 537.225600
   6391   6390   6394     1   109.6600471 523.836800
   6391   6390   6397     1   109.6600471 523.836800
   6391   6403   6415     1   111.5100476 526.347200
   6394   6390   6397     1   109.6600471 523.836800
   6394   6406   6412     1   111.5100476 526.347200
   6397   6400   6409     1   111.5100476 526.347200
   6400   6409   6418     1   107.9700462 569.024000
   6403   6415  12551     1   107.9700462 569.024000
   6406   6412  12528     1   107.9700462 569.024000
   6412  12528  12524     1   112.4800480 524.673600
   6415  12551  12547     1   112.4800480 524.673600
   6420   6421   6433     1   114.2100488 537.225600
   6420   6424   6436     1   114.2100488 537.225600
   6420   6427   6430     1   114.2100488 537.225600
   6421   6420   6424     1   109.6600471 523.836800
   6421   6420   6427     1   109.6600471 523.836800
   6421   6433   6445     1   111.5100476 526.347200
   6424   6420   6427     1   109.6600471 523.836800
   6424   6436   6442     1   111.5100476 526.347200
   6427   6430   6439     1   111.5100476 526.347200
   6430   6439   6448     1   107.9700462 569.024000
   6433   6445  12597     1   107.9700462 569.024000
   6436   6442  12574     1   107.9700462 569.024000
   6442  12574  12570     1   112.4800480 524.673600
   6445  12597  12593     1   112.4800480 524.673600
   6450   6451   6463     1   114.2100488 537.225600
   6450   6454   6466     1   114.2100488 537.225600
   6450   6457   6460     1   114.2100488 537.225600
   6451   6450   6454     1   109.6600471 523.836800
   6451   6450   6457     1   109.6600471 523.836800
   6451   6463   6475     1   111.5100476 526.347200
   6454   6450   6457     1   109.6600471 523.836800
   6454   6466   6472     1   111.5100476 526.347200
   6457   6460   6469     1   111.5100476 526.347200
   6460   6469   6478     1   107.9700462 569.024000
   6463   6475  12643     1   107.9700462 569.024000
   6466   6472  12620     1   107.9700462 569.024000
   6472  12620  12616     1   112.4800480 524.673600
   6475  12643  12639     1   112.4800480 524.673600
   6480   6481   6493     1   114.2100488 537.225600
   6480   6484   6496     1   114.2100488 537.225600
   6480   6487   6490     1   114.2100488 537.225600
   6481   6480   6484     1   109.6600471 523.836800
   6481   6480   6487     1   109.6600471 523.836800
   6481   6493   6505     1   111.5100476 526.347200
   6484   6480   6487     1   109.6600471 523.836800
   6484   6496   6502     1   111.5100476 526.347200
   6487   6490   6499     1   111.5100476 526.347200
   6490   6499   6508     1   107.9700462 569.024000
   6493   6505  12689     1   107.9700462 569.024000
   6496   6502  12666     1   107.9700462 569.024000
   6502  12666  12662     1   112.4800480 524.673600
   6505  12689  12685     1   112.4800480 524.673600
   6510   6511   6523     1   114.2100488 537.225600
   6510   6514   6526     1   114.2100488 537.225600
   6510   6517   6520     1   114.2100488 537.225600
   6511   6510   6514     1   109.6600471 523.836800
   6511   6510   6517     1   109.6600471 523.836800
   6511   6523   6535     1   111.5100476 526.347200
   6514   6510   6517     1   109.6600471 523.836800
   6514   6526   6532     1   111.5100476 526.347200
   6517   6520   6529     1   111.5100476 526.347200
   6520   6529   6538     1   107.9700462 569.024000
   6523   6535  12735     1   107.9700462 569.024000
   6526   6532  12712     1   107.9700462 569.024000
   6532  12712  12708     1   112.4800480 524.673600
   6535  12735  12731     1   112.4800480 524.673600
   6540   6541   6553     1   114.2100488 537.225600
   6540   6544   6556     1   114.2100488 537.225600
   6540   6547   6550     1   114.2100488 537.225600
   6541   6540   6544     1   109.6600471 523.836800
   6541   6540   6547     1   109.6600471 523.836800
   6541   6553   6565     1   111.5100476 526.347200
   6544   6540   6547     1   109.6600471 523.836800
   6544   6556   6562     1   111.5100476 526.347200
   6547   6550   6559     1   111.5100476 526.347200
   6550   6559   6568     1   107.9700462 569.024000
   6553   6565  12781     1   107.9700462 569.024000
   6556   6562  12758     1   107.9700462 569.024000
   6562  12758  12754     1   112.4800480 524.673600
   6565  12781  12777     1   112.4800480 524.673600
   6570   6571   6583     1   114.2100488 537.225600
   6570   6574   6586     1   114.2100488 537.225600
   6570   6577   6580     1   114.2100488 537.225600
   6571   6570   6574     1   109.6600471 523.836800
   6571   6570   6577     1   109.6600471 523.836800
   6571   6583   6595     1   111.5100476 526.347200
   6574   6570   6577     1   109.6600471 523.836800
   6574   6586   6592     1   111.5100476 526.347200
   6577   6580   6589     1   111.5100476 526.347200
   6580   6589   6598     1   107.9700462 569.024000
   6583   6595  12827     1   107.9700462 569.024000
   6586   6592  12804     1   107.9700462 569.024000
   6592  12804  12800     1   112.4800480 524.673600
   6595  12827  12823     1   112.4800480 524.673600
   6600   6601   6613     1   114.2100488 537.225600
   6600   6604   6616     1   114.2100488 537.225600
   6600   6607   6610     1   114.2100488 537.225600
   6601   6600   6604     1   109.6600471 523.836800
   6601   6600   6607     1   109.6600471 523.836800
   6601   6613   6625     1   111.5100476 526.347200
   6604   6600   6607     1   109.6600471 523.836800
   6604   6616   6622     1   111.5100476 526.347200
   6607   6610   6619     1   111.5100476 526.347200
   6610   6619   6628     1   107.9700462 569.024000
   6613   6625  12873     1   107.9700462 569.024000
   6616   6622  12850     1   107.9700462 569.024000
   6622  12850  12846     1   112.4800480 524.673600
   6625  12873  12869     1   112.4800480 524.673600
   6630   6631   6643     1   114.2100488 537.225600
   6630   6634   6646     1   114.2100488 537.225600
   6630   6637   6640     1   114.2100488 537.225600
   6631   6630   6634     1   109.6600471 523.836800
   6631   6630   6637     1   109.6600471 523.836800
   6631   6643   6655     1   111.5100476 526.347200
   6634   6630   6637     1   109.6600471 523.836800
   6634   6646   6652     1   111.5100476 526.347200
   6637   6640   6649     1   111.5100476 526.347200
   6640   6649   6658     1   107.9700462 569.024000
   6643   6655  12919     1   107.9700462 569.024000
   6646   6652  12896     1   107.9700462 569.024000
   6652  12896  12892     1   112.4800480 524.673600
   6655  12919  12915     1   112.4800480 524.673600
   6660   6661   6673     1   114.2100488 537.225600
   6660   6664   6676     1   114.2100488 537.225600
   6660   6667   6670     1   114.2100488 537.225600
   6661   6660   6664     1   109.6600471 523.836800
   6661   6660   6667     1   109.6600471 523.836800
   6661   6673   6685     1   111.5100476 526.347200
   6664   6660   6667     1   109.6600471 523.836800
   6664   6676   6682     1   111.5100476 526.347200
   6667   6670   6679     1   111.5100476 526.347200
   6670   6679   6688     1   107.9700462 569.024000
   6673   6685  12965     1   107.9700462 569.024000
   6676   6682  12942     1   107.9700462 569.024000
   6682  12942  12938     1   112.4800480 524.673600
   6685  12965  12961     1   112.4800480 524.673600
   6690   6691   6703     1   114.2100488 537.225600
   6690   6694   6706     1   114.2100488 537.225600
   6690   6697   6700     1   114.2100488 537.225600
   6691   6690   6694     1   109.6600471 523.836800
   6691   6690   6697     1   109.6600471 523.836800
   6691   6703   6715     1   111.5100476 526.347200
   6694   6690   6697     1   109.6600471 523.836800
   6694   6706   6712     1   111.5100476 526.347200
   6697   6700   6709     1   111.5100476 526.347200
   6700   6709   6718     1   107.9700462 569.024000
   6703   6715  13011     1   107.9700462 569.024000
   6706   6712  12988     1   107.9700462 569.024000
   6712  12988  12984     1   112.4800480 524.673600
   6715  13011  13007     1   112.4800480 524.673600
   6720   6721   6733     1   114.2100488 537.225600
   6720   6724   6736     1   114.2100488 537.225600
   6720   6727   6730     1   114.2100488 537.225600
   6721   6720   6724     1   109.6600471 523.836800
   6721   6720   6727     1   109.6600471 523.836800
   6721   6733   6745     1   111.5100476 526.347200
   6724   6720   6727     1   109.6600471 523.836800
   6724   6736   6742     1   111.5100476 526.347200
   6727   6730   6739     1   111.5100476 526.347200
   6730   6739   6748     1   107.9700462 569.024000
   6733   6745  13057     1   107.9700462 569.024000
   6736   6742  13034     1   107.9700462 569.024000
   6742  13034  13030     1   112.4800480 524.673600
   6745  13057  13053     1   112.4800480 524.673600
   6750   6751   6763     1   114.2100488 537.225600
   6750   6754   6766     1   114.2100488 537.225600
   6750   6757   6760     1   114.2100488 537.225600
   6751   6750   6754     1   109.6600471 523.836800
   6751   6750   6757     1   109.6600471 523.836800
   6751   6763   6775     1   111.5100476 526.347200
   6754   6750   6757     1   109.6600471 523.836800
   6754   6766   6772     1   111.5100476 526.347200
   6757   6760   6769     1   111.5100476 526.347200
   6760   6769   6778     1   107.9700462 569.024000
   6763   6775  13103     1   107.9700462 569.024000
   6766   6772  13080     1   107.9700462 569.024000
   6772  13080  13076     1   112.4800480 524.673600
   6775  13103  13099     1   112.4800480 524.673600
   6780   6781   6793     1   114.2100488 537.225600
   6780   6784   6796     1   114.2100488 537.225600
   6780   6787   6790     1   114.2100488 537.225600
   6781   6780   6784     1   109.6600471 523.836800
   6781   6780   6787     1   109.6600471 523.836800
   6781   6793   6805     1   111.5100476 526.347200
   6784   6780   6787     1   109.6600471 523.836800
   6784   6796   6802     1   111.5100476 526.347200
   6787   6790   6799     1   111.5100476 526.347200
   6790   6799   6808     1   107.9700462 569.024000
   6793   6805  13149     1   107.9700462 569.024000
   6796   6802  13126     1   107.9700462 569.024000
   6802  13126  13122     1   112.4800480 524.673600
   6805  13149  13145     1   112.4800480 524.673600
   6810   6811   6823     1   114.2100488 537.225600
   6810   6814   6826     1   114.2100488 537.225600
   6810   6817   6820     1   114.2100488 537.225600
   6811   6810   6814     1   109.6600471 523.836800
   6811   6810   6817     1   109.6600471 523.836800
   6811   6823   6835     1   111.5100476 526.347200
   6814   6810   6817     1   109.6600471 523.836800
   6814   6826   6832     1   111.5100476 526.347200
   6817   6820   6829     1   111.5100476 526.347200
   6820   6829   6838     1   107.9700462 569.024000
   6823   6835  13195     1   107.9700462 569.024000
   6826   6832  13172     1   107.9700462 569.024000
   6832  13172  13168     1   112.4800480 524.673600
   6835  13195  13191     1   112.4800480 524.673600
   6840   6841   6853     1   114.2100488 537.225600
   6840   6844   6856     1   114.2100488 537.225600
   6840   6847   6850     1   114.2100488 537.225600
   6841   6840   6844     1   109.6600471 523.836800
   6841   6840   6847     1   109.6600471 523.836800
   6841   6853   6865     1   111.5100476 526.347200
   6844   6840   6847     1   109.6600471 523.836800
   6844   6856   6862     1   111.5100476 526.347200
   6847   6850   6859     1   111.5100476 526.347200
   6850   6859   6868     1   107.9700462 569.024000
   6853   6865  13241     1   107.9700462 569.024000
   6856   6862  13218     1   107.9700462 569.024000
   6862  13218  13214     1   112.4800480 524.673600
   6865  13241  13237     1   112.4800480 524.673600
   6870   6871   6883     1   114.2100488 537.225600
   6870   6874   6886     1   114.2100488 537.225600
   6870   6877   6880     1   114.2100488 537.225600
   6871   6870   6874     1   109.6600471 523.836800
   6871   6870   6877     1   109.6600471 523.836800
   6871   6883   6895     1   111.5100476 526.347200
   6874   6870   6877     1   109.6600471 523.836800
   6874   6886   6892     1   111.5100476 526.347200
   6877   6880   6889     1   111.5100476 526.347200
   6880   6889   6898     1   107.9700462 569.024000
   6883   6895  13287     1   107.9700462 569.024000
   6886   6892  13264     1   107.9700462 569.024000
   6892  13264  13260     1   112.4800480 524.673600
   6895  13287  13283     1   112.4800480 524.673600
   6900   6901   6913     1   114.2100488 537.225600
   6900   6904   6916     1   114.2100488 537.225600
   6900   6907   6910     1   114.2100488 537.225600
   6901   6900   6904     1   109.6600471 523.836800
   6901   6900   6907     1   109.6600471 523.836800
   6901   6913   6925     1   111.5100476 526.347200
   6904   6900   6907     1   109.6600471 523.836800
   6904   6916   6922     1   111.5100476 526.347200
   6907   6910   6919     1   111.5100476 526.347200
   6910   6919   6928     1   107.9700462 569.024000
   6913   6925  13333     1   107.9700462 569.024000
   6916   6922  13310     1   107.9700462 569.024000
   6922  13310  13306     1   112.4800480 524.673600
   6925  13333  13329     1   112.4800480 524.673600
   6930   6931   6943     1   114.2100488 537.225600
   6930   6934   6946     1   114.2100488 537.225600
   6930   6937   6940     1   114.2100488 537.225600
   6931   6930   6934     1   109.6600471 523.836800
   6931   6930   6937     1   109.6600471 523.836800
   6931   6943   6955     1   111.5100476 526.347200
   6934   6930   6937     1   109.6600471 523.836800
   6934   6946   6952     1   111.5100476 526.347200
   6937   6940   6949     1   111.5100476 526.347200
   6940   6949   6958     1   107.9700462 569.024000
   6943   6955  13379     1   107.9700462 569.024000
   6946   6952  13356     1   107.9700462 569.024000
   6952  13356  13352     1   112.4800480 524.673600
   6955  13379  13375     1   112.4800480 524.673600
   6960   6961   6973     1   114.2100488 537.225600
   6960   6964   6976     1   114.2100488 537.225600
   6960   6967   6970     1   114.2100488 537.225600
   6961   6960   6964     1   109.6600471 523.836800
   6961   6960   6967     1   109.6600471 523.836800
   6961   6973   6985     1   111.5100476 526.347200
   6964   6960   6967     1   109.6600471 523.836800
   6964   6976   6982     1   111.5100476 526.347200
   6967   6970   6979     1   111.5100476 526.347200
   6970   6979   6988     1   107.9700462 569.024000
   6973   6985  13425     1   107.9700462 569.024000
   6976   6982  13402     1   107.9700462 569.024000
   6982  13402  13398     1   112.4800480 524.673600
   6985  13425  13421     1   112.4800480 524.673600
   6990   6991   7003     1   114.2100488 537.225600
   6990   6994   7006     1   114.2100488 537.225600
   6990   6997   7000     1   114.2100488 537.225600
   6991   6990   6994     1   109.6600471 523.836800
   6991   6990   6997     1   109.6600471 523.836800
   6991   7003   7015     1   111.5100476 526.347200
   6994   6990   6997     1   109.6600471 523.836800
   6994   7006   7012     1   111.5100476 526.347200
   6997   7000   7009     1   111.5100476 526.347200
   7000   7009   7018     1   107.9700462 569.024000
   7003   7015  13471     1   107.9700462 569.024000
   7006   7012  13448     1   107.9700462 569.024000
   7012  13448  13444     1   112.4800480 524.673600
   7015  13471  13467     1   112.4800480 524.673600
   7020   7021   7033     1   114.2100488 537.225600
   7020   7024   7036     1   114.2100488 537.225600
   7020   7027   7030     1   114.2100488 537.225600
   7021   7020   7024     1   109.6600471 523.836800
   7021   7020   7027     1   109.6600471 523.836800
   7021   7033   7045     1   111.5100476 526.347200
   7024   7020   7027     1   109.6600471 523.836800
   7024   7036   7042     1   111.5100476 526.347200
   7027   7030   7039     1   111.5100476 526.347200
   7030   7039   7048     1   107.9700462 569.024000
   7033   7045  13517     1   107.9700462 569.024000
   7036   7042  13494     1   107.9700462 569.024000
   7042  13494  13490     1   112.4800480 524.673600
   7045  13517  13513     1   112.4800480 524.673600
   7050   7051   7063     1   114.2100488 537.225600
   7050   7054   7066     1   114.2100488 537.225600
   7050   7057   7060     1   114.2100488 537.225600
   7051   7050   7054     1   109.6600471 523.836800
   7051   7050   7057     1   109.6600471 523.836800
   7051   7063   7075     1   111.5100476 526.347200
   7054   7050   7057     1   109.6600471 523.836800
   7054   7066   7072     1   111.5100476 526.347200
   7057   7060   7069     1   111.5100476 526.347200
   7060   7069   7078     1   107.9700462 569.024000
   7063   7075  13563     1   107.9700462 569.024000
   7066   7072  13540     1   107.9700462 569.024000
   7072  13540  13536     1   112.4800480 524.673600
   7075  13563  13559     1   112.4800480 524.673600
   7080   7081   7093     1   114.2100488 537.225600
   7080   7084   7096     1   114.2100488 537.225600
   7080   7087   7090     1   114.2100488 537.225600
   7081   7080   7084     1   109.6600471 523.836800
   7081   7080   7087     1   109.6600471 523.836800
   7081   7093   7105     1   111.5100476 526.347200
   7084   7080   7087     1   109.6600471 523.836800
   7084   7096   7102     1   111.5100476 526.347200
   7087   7090   7099     1   111.5100476 526.347200
   7090   7099   7108     1   107.9700462 569.024000
   7093   7105  13609     1   107.9700462 569.024000
   7096   7102  13586     1   107.9700462 569.024000
   7102  13586  13582     1   112.4800480 524.673600
   7105  13609  13605     1   112.4800480 524.673600
   7110   7111   7123     1   114.2100488 537.225600
   7110   7114   7126     1   114.2100488 537.225600
   7110   7117   7120     1   114.2100488 537.225600
   7111   7110   7114     1   109.6600471 523.836800
   7111   7110   7117     1   109.6600471 523.836800
   7111   7123   7135     1   111.5100476 526.347200
   7114   7110   7117     1   109.6600471 523.836800
   7114   7126   7132     1   111.5100476 526.347200
   7117   7120   7129     1   111.5100476 526.347200
   7120   7129   7138     1   107.9700462 569.024000
   7123   7135  13655     1   107.9700462 569.024000
   7126   7132  13632     1   107.9700462 569.024000
   7132  13632  13628     1   112.4800480 524.673600
   7135  13655  13651     1   112.4800480 524.673600
   7140   7141   7153     1   114.2100488 537.225600
   7140   7144   7156     1   114.2100488 537.225600
   7140   7147   7150     1   114.2100488 537.225600
   7141   7140   7144     1   109.6600471 523.836800
   7141   7140   7147     1   109.6600471 523.836800
   7141   7153   7165     1   111.5100476 526.347200
   7144   7140   7147     1   109.6600471 523.836800
   7144   7156   7162     1   111.5100476 526.347200
   7147   7150   7159     1   111.5100476 526.347200
   7150   7159   7168     1   107.9700462 569.024000
   7153   7165  13701     1   107.9700462 569.024000
   7156   7162  13678     1   107.9700462 569.024000
   7162  13678  13674     1   112.4800480 524.673600
   7165  13701  13697     1   112.4800480 524.673600
   7170   7171   7183     1   114.2100488 537.225600
   7170   7174   7186     1   114.2100488 537.225600
   7170   7177   7180     1   114.2100488 537.225600
   7171   7170   7174     1   109.6600471 523.836800
   7171   7170   7177     1   109.6600471 523.836800
   7171   7183   7195     1   111.5100476 526.347200
   7174   7170   7177     1   109.6600471 523.836800
   7174   7186   7192     1   111.5100476 526.347200
   7177   7180   7189     1   111.5100476 526.347200
   7180   7189   7198     1   107.9700462 569.024000
   7183   7195  13747     1   107.9700462 569.024000
   7186   7192  13724     1   107.9700462 569.024000
   7192  13724  13720     1   112.4800480 524.673600
   7195  13747  13743     1   112.4800480 524.673600
   7200   7201   7213     1   114.2100488 537.225600
   7200   7204   7216     1   114.2100488 537.225600
   7200   7207   7210     1   114.2100488 537.225600
   7201   7200   7204     1   109.6600471 523.836800
   7201   7200   7207     1   109.6600471 523.836800
   7201   7213   7225     1   111.5100476 526.347200
   7204   7200   7207     1   109.6600471 523.836800
   7204   7216   7222     1   111.5100476 526.347200
   7207   7210   7219     1   111.5100476 526.347200
   7210   7219   7228     1   107.9700462 569.024000
   7213   7225  13793     1   107.9700462 569.024000
   7216   7222  13770     1   107.9700462 569.024000
   7222  13770  13766     1   112.4800480 524.673600
   7225  13793  13789     1   112.4800480 524.673600
   7230   7231   7243     1   114.2100488 537.225600
   7230   7234   7246     1   114.2100488 537.225600
   7230   7237   7240     1   114.2100488 537.225600
   7231   7230   7234     1   109.6600471 523.836800
   7231   7230   7237     1   109.6600471 523.836800
   7231   7243   7255     1   111.5100476 526.347200
   7234   7230   7237     1   109.6600471 523.836800
   7234   7246   7252     1   111.5100476 526.347200
   7237   7240   7249     1   111.5100476 526.347200
   7240   7249   7258     1   107.9700462 569.024000
   7243   7255  13839     1   107.9700462 569.024000
   7246   7252  13816     1   107.9700462 569.024000
   7252  13816  13812     1   112.4800480 524.673600
   7255  13839  13835     1   112.4800480 524.673600
   7260   7261   7273     1   114.2100488 537.225600
   7260   7264   7276     1   114.2100488 537.225600
   7260   7267   7270     1   114.2100488 537.225600
   7261   7260   7264     1   109.6600471 523.836800
   7261   7260   7267     1   109.6600471 523.836800
   7261   7273   7285     1   111.5100476 526.347200
   7264   7260   7267     1   109.6600471 523.836800
   7264   7276   7282     1   111.5100476 526.347200
   7267   7270   7279     1   111.5100476 526.347200
   7270   7279   7288     1   107.9700462 569.024000
   7273   7285  13885     1   107.9700462 569.024000
   7276   7282  13862     1   107.9700462 569.024000
   7282  13862  13858     1   112.4800480 524.673600
   7285  13885  13881     1   112.4800480 524.673600
   7290   7291   7303     1   114.2100488 537.225600
   7290   7294   7306     1   114.2100488 537.225600
   7290   7297   7300     1   114.2100488 537.225600
   7291   7290   7294     1   109.6600471 523.836800
   7291   7290   7297     1   109.6600471 523.836800
   7291   7303   7315     1   111.5100476 526.347200
   7294   7290   7297     1   109.6600471 523.836800
   7294   7306   7312     1   111.5100476 526.347200
   7297   7300   7309     1   111.5100476 526.347200
   7300   7309   7318     1   107.9700462 569.024000
   7303   7315  13931     1   107.9700462 569.024000
   7306   7312  13908     1   107.9700462 569.024000
   7312  13908  13904     1   112.4800480 524.673600
   7315  13931  13927     1   112.4800480 524.673600
   7320   7321   7333     1   114.2100488 537.225600
   7320   7324   7336     1   114.2100488 537.225600
   7320   7327   7330     1   114.2100488 537.225600
   7321   7320   7324     1   109.6600471 523.836800
   7321   7320   7327     1   109.6600471 523.836800
   7321   7333   7345     1   111.5100476 526.347200
   7324   7320   7327     1   109.6600471 523.836800
   7324   7336   7342     1   111.5100476 526.347200
   7327   7330   7339     1   111.5100476 526.347200
   7330   7339   7348     1   107.9700462 569.024000
   7333   7345  13977     1   107.9700462 569.024000
   7336   7342  13954     1   107.9700462 569.024000
   7342  13954  13950     1   112.4800480 524.673600
   7345  13977  13973     1   112.4800480 524.673600
   7350   7351   7363     1   114.2100488 537.225600
   7350   7354   7366     1   114.2100488 537.225600
   7350   7357   7360     1   114.2100488 537.225600
   7351   7350   7354     1   109.6600471 523.836800
   7351   7350   7357     1   109.6600471 523.836800
   7351   7363   7375     1   111.5100476 526.347200
   7354   7350   7357     1   109.6600471 523.836800
   7354   7366   7372     1   111.5100476 526.347200
   7357   7360   7369     1   111.5100476 526.347200
   7360   7369   7378     1   107.9700462 569.024000
   7363   7375  14023     1   107.9700462 569.024000
   7366   7372  14000     1   107.9700462 569.024000
   7372  14000  13996     1   112.4800480 524.673600
   7375  14023  14019     1   112.4800480 524.673600
   7380   7381   7393     1   114.2100488 537.225600
   7380   7384   7396     1   114.2100488 537.225600
   7380   7387   7390     1   114.2100488 537.225600
   7381   7380   7384     1   109.6600471 523.836800
   7381   7380   7387     1   109.6600471 523.836800
   7381   7393   7405     1   111.5100476 526.347200
   7384   7380   7387     1   109.6600471 523.836800
   7384   7396   7402     1   111.5100476 526.347200
   7387   7390   7399     1   111.5100476 526.347200
   7390   7399   7408     1   107.9700462 569.024000
   7393   7405  14069     1   107.9700462 569.024000
   7396   7402  14046     1   107.9700462 569.024000
   7402  14046  14042     1   112.4800480 524.673600
   7405  14069  14065     1   112.4800480 524.673600
   7410   7411   7423     1   114.2100488 537.225600
   7410   7414   7426     1   114.2100488 537.225600
   7410   7417   7420     1   114.2100488 537.225600
   7411   7410   7414     1   109.6600471 523.836800
   7411   7410   7417     1   109.6600471 523.836800
   7411   7423   7435     1   111.5100476 526.347200
   7414   7410   7417     1   109.6600471 523.836800
   7414   7426   7432     1   111.5100476 526.347200
   7417   7420   7429     1   111.5100476 526.347200
   7420   7429   7438     1   107.9700462 569.024000
   7423   7435  14115     1   107.9700462 569.024000
   7426   7432  14092     1   107.9700462 569.024000
   7432  14092  14088     1   112.4800480 524.673600
   7435  14115  14111     1   112.4800480 524.673600
   7440   7441   7453     1   114.2100488 537.225600
   7440   7444   7456     1   114.2100488 537.225600
   7440   7447   7450     1   114.2100488 537.225600
   7441   7440   7444     1   109.6600471 523.836800
   7441   7440   7447     1   109.6600471 523.836800
   7441   7453   7465     1   111.5100476 526.347200
   7444   7440   7447     1   109.6600471 523.836800
   7444   7456   7462     1   111.5100476 526.347200
   7447   7450   7459     1   111.5100476 526.347200
   7450   7459   7468     1   107.9700462 569.024000
   7453   7465  14161     1   107.9700462 569.024000
   7456   7462  14138     1   107.9700462 569.024000
   7462  14138  14134     1   112.4800480 524.673600
   7465  14161  14157     1   112.4800480 524.673600
   7470   7471   7483     1   114.2100488 537.225600
   7470   7474   7486     1   114.2100488 537.225600
   7470   7477   7480     1   114.2100488 537.225600
   7471   7470   7474     1   109.6600471 523.836800
   7471   7470   7477     1   109.6600471 523.836800
   7471   7483   7495     1   111.5100476 526.347200
   7474   7470   7477     1   109.6600471 523.836800
   7474   7486   7492     1   111.5100476 526.347200
   7477   7480   7489     1   111.5100476 526.347200
   7480   7489   7498     1   107.9700462 569.024000
   7483   7495  14207     1   107.9700462 569.024000
   7486   7492  14184     1   107.9700462 569.024000
   7492  14184  14180     1   112.4800480 524.673600
   7495  14207  14203     1   112.4800480 524.673600
   7500   7501   7513     1   114.2100488 537.225600
   7500   7504   7516     1   114.2100488 537.225600
   7500   7507   7510     1   114.2100488 537.225600
   7501   7500   7504     1   109.6600471 523.836800
   7501   7500   7507     1   109.6600471 523.836800
   7501   7513   7525     1   111.5100476 526.347200
   7504   7500   7507     1   109.6600471 523.836800
   7504   7516   7522     1   111.5100476 526.347200
   7507   7510   7519     1   111.5100476 526.347200
   7510   7519   7528     1   107.9700462 569.024000
   7513   7525  14253     1   107.9700462 569.024000
   7516   7522  14230     1   107.9700462 569.024000
   7522  14230  14226     1   112.4800480 524.673600
   7525  14253  14249     1   112.4800480 524.673600
   7530   7531   7543     1   114.2100488 537.225600
   7530   7534   7546     1   114.2100488 537.225600
   7530   7537   7540     1   114.2100488 537.225600
   7531   7530   7534     1   109.6600471 523.836800
   7531   7530   7537     1   109.6600471 523.836800
   7531   7543   7555     1   111.5100476 526.347200
   7534   7530   7537     1   109.6600471 523.836800
   7534   7546   7552     1   111.5100476 526.347200
   7537   7540   7549     1   111.5100476 526.347200
   7540   7549   7558     1   107.9700462 569.024000
   7543   7555  14299     1   107.9700462 569.024000
   7546   7552  14276     1   107.9700462 569.024000
   7552  14276  14272     1   112.4800480 524.673600
   7555  14299  14295     1   112.4800480 524.673600
   7560   7561   7573     1   114.2100488 537.225600
   7560   7564   7576     1   114.2100488 537.225600
   7560   7567   7570     1   114.2100488 537.225600
   7561   7560   7564     1   109.6600471 523.836800
   7561   7560   7567     1   109.6600471 523.836800
   7561   7573   7585     1   111.5100476 526.347200
   7564   7560   7567     1   109.6600471 523.836800
   7564   7576   7582     1   111.5100476 526.347200
   7567   7570   7579     1   111.5100476 526.347200
   7570   7579   7588     1   107.9700462 569.024000
   7573   7585  14345     1   107.9700462 569.024000
   7576   7582  14322     1   107.9700462 569.024000
   7582  14322  14318     1   112.4800480 524.673600
   7585  14345  14341     1   112.4800480 524.673600
   7590   7591   7603     1   114.2100488 537.225600
   7590   7594   7606     1   114.2100488 537.225600
   7590   7597   7600     1   114.2100488 537.225600
   7591   7590   7594     1   109.6600471 523.836800
   7591   7590   7597     1   109.6600471 523.836800
   7591   7603   7615     1   111.5100476 526.347200
   7594   7590   7597     1   109.6600471 523.836800
   7594   7606   7612     1   111.5100476 526.347200
   7597   7600   7609     1   111.5100476 526.347200
   7600   7609   7618     1   107.9700462 569.024000
   7603   7615  14391     1   107.9700462 569.024000
   7606   7612  14368     1   107.9700462 569.024000
   7612  14368  14364     1   112.4800480 524.673600
   7615  14391  14387     1   112.4800480 524.673600
   7620   7621   7633     1   114.2100488 537.225600
   7620   7624   7636     1   114.2100488 537.225600
   7620   7627   7630     1   114.2100488 537.225600
   7621   7620   7624     1   109.6600471 523.836800
   7621   7620   7627     1   109.6600471 523.836800
   7621   7633   7645     1   111.5100476 526.347200
   7624   7620   7627     1   109.6600471 523.836800
   7624   7636   7642     1   111.5100476 526.347200
   7627   7630   7639     1   111.5100476 526.347200
   7630   7639   7648     1   107.9700462 569.024000
   7633   7645  14437     1   107.9700462 569.024000
   7636   7642  14414     1   107.9700462 569.024000
   7642  14414  14410     1   112.4800480 524.673600
   7645  14437  14433     1   112.4800480 524.673600
   7650   7651   7663     1   114.2100488 537.225600
   7650   7654   7666     1   114.2100488 537.225600
   7650   7657   7660     1   114.2100488 537.225600
   7651   7650   7654     1   109.6600471 523.836800
   7651   7650   7657     1   109.6600471 523.836800
   7651   7663   7675     1   111.5100476 526.347200
   7654   7650   7657     1   109.6600471 523.836800
   7654   7666   7672     1   111.5100476 526.347200
   7657   7660   7669     1   111.5100476 526.347200
   7660   7669   7678     1   107.9700462 569.024000
   7663   7675  14483     1   107.9700462 569.024000
   7666   7672  14460     1   107.9700462 569.024000
   7672  14460  14456     1   112.4800480 524.673600
   7675  14483  14479     1   112.4800480 524.673600
   7680   7681   7693     1   114.2100488 537.225600
   7680   7684   7696     1   114.2100488 537.225600
   7680   7687   7690     1   114.2100488 537.225600
   7681   7680   7684     1   109.6600471 523.836800
   7681   7680   7687     1   109.6600471 523.836800
   7681   7693   7705     1   111.5100476 526.347200
   7684   7680   7687     1   109.6600471 523.836800
   7684   7696   7702     1   111.5100476 526.347200
   7687   7690   7699     1   111.5100476 526.347200
   7690   7699   7708     1   107.9700462 569.024000
   7693   7705  14529     1   107.9700462 569.024000
   7696   7702  14506     1   107.9700462 569.024000
   7702  14506  14502     1   112.4800480 524.673600
   7705  14529  14525     1   112.4800480 524.673600
   7710   7711   7723     1   114.2100488 537.225600
   7710   7714   7726     1   114.2100488 537.225600
   7710   7717   7720     1   114.2100488 537.225600
   7711   7710   7714     1   109.6600471 523.836800
   7711   7710   7717     1   109.6600471 523.836800
   7711   7723   7735     1   111.5100476 526.347200
   7714   7710   7717     1   109.6600471 523.836800
   7714   7726   7732     1   111.5100476 526.347200
   7717   7720   7729     1   111.5100476 526.347200
   7720   7729   7738     1   107.9700462 569.024000
   7723   7735  14575     1   107.9700462 569.024000
   7726   7732  14552     1   107.9700462 569.024000
   7732  14552  14548     1   112.4800480 524.673600
   7735  14575  14571     1   112.4800480 524.673600
   7740   7741   7753     1   114.2100488 537.225600
   7740   7744   7756     1   114.2100488 537.225600
   7740   7747   7750     1   114.2100488 537.225600
   7741   7740   7744     1   109.6600471 523.836800
   7741   7740   7747     1   109.6600471 523.836800
   7741   7753   7765     1   111.5100476 526.347200
   7744   7740   7747     1   109.6600471 523.836800
   7744   7756   7762     1   111.5100476 526.347200
   7747   7750   7759     1   111.5100476 526.347200
   7750   7759   7768     1   107.9700462 569.024000
   7753   7765  14621     1   107.9700462 569.024000
   7756   7762  14598     1   107.9700462 569.024000
   7762  14598  14594     1   112.4800480 524.673600
   7765  14621  14617     1   112.4800480 524.673600
   7770   7771   7783     1   114.2100488 537.225600
   7770   7774   7786     1   114.2100488 537.225600
   7770   7777   7780     1   114.2100488 537.225600
   7771   7770   7774     1   109.6600471 523.836800
   7771   7770   7777     1   109.6600471 523.836800
   7771   7783   7795     1   111.5100476 526.347200
   7774   7770   7777     1   109.6600471 523.836800
   7774   7786   7792     1   111.5100476 526.347200
   7777   7780   7789     1   111.5100476 526.347200
   7780   7789   7798     1   107.9700462 569.024000
   7783   7795  14667     1   107.9700462 569.024000
   7786   7792  14644     1   107.9700462 569.024000
   7792  14644  14640     1   112.4800480 524.673600
   7795  14667  14663     1   112.4800480 524.673600
   7800   7801   7813     1   114.2100488 537.225600
   7800   7804   7816     1   114.2100488 537.225600
   7800   7807   7810     1   114.2100488 537.225600
   7801   7800   7804     1   109.6600471 523.836800
   7801   7800   7807     1   109.6600471 523.836800
   7801   7813   7825     1   111.5100476 526.347200
   7804   7800   7807     1   109.6600471 523.836800
   7804   7816   7822     1   111.5100476 526.347200
   7807   7810   7819     1   111.5100476 526.347200
   7810   7819   7828     1   107.9700462 569.024000
   7813   7825  14713     1   107.9700462 569.024000
   7816   7822  14690     1   107.9700462 569.024000
   7822  14690  14686     1   112.4800480 524.673600
   7825  14713  14709     1   112.4800480 524.673600
   7830   7831   7843     1   114.2100488 537.225600
   7830   7834   7846     1   114.2100488 537.225600
   7830   7837   7840     1   114.2100488 537.225600
   7831   7830   7834     1   109.6600471 523.836800
   7831   7830   7837     1   109.6600471 523.836800
   7831   7843   7855     1   111.5100476 526.347200
   7834   7830   7837     1   109.6600471 523.836800
   7834   7846   7852     1   111.5100476 526.347200
   7837   7840   7849     1   111.5100476 526.347200
   7840   7849   7858     1   107.9700462 569.024000
   7843   7855  14759     1   107.9700462 569.024000
   7846   7852  14736     1   107.9700462 569.024000
   7852  14736  14732     1   112.4800480 524.673600
   7855  14759  14755     1   112.4800480 524.673600
   7860   7861   7873     1   114.2100488 537.225600
   7860   7864   7876     1   114.2100488 537.225600
   7860   7867   7870     1   114.2100488 537.225600
   7861   7860   7864     1   109.6600471 523.836800
   7861   7860   7867     1   109.6600471 523.836800
   7861   7873   7885     1   111.5100476 526.347200
   7864   7860   7867     1   109.6600471 523.836800
   7864   7876   7882     1   111.5100476 526.347200
   7867   7870   7879     1   111.5100476 526.347200
   7870   7879   7888     1   107.9700462 569.024000
   7873   7885  14805     1   107.9700462 569.024000
   7876   7882  14782     1   107.9700462 569.024000
   7882  14782  14778     1   112.4800480 524.673600
   7885  14805  14801     1   112.4800480 524.673600
   7890   7891   7903     1   114.2100488 537.225600
   7890   7894   7906     1   114.2100488 537.225600
   7890   7897   7900     1   114.2100488 537.225600
   7891   7890   7894     1   109.6600471 523.836800
   7891   7890   7897     1   109.6600471 523.836800
   7891   7903   7915     1   111.5100476 526.347200
   7894   7890   7897     1   109.6600471 523.836800
   7894   7906   7912     1   111.5100476 526.347200
   7897   7900   7909     1   111.5100476 526.347200
   7900   7909   7918     1   107.9700462 569.024000
   7903   7915  14851     1   107.9700462 569.024000
   7906   7912  14828     1   107.9700462 569.024000
   7912  14828  14824     1   112.4800480 524.673600
   7915  14851  14847     1   112.4800480 524.673600
   7920   7921   7933     1   114.2100488 537.225600
   7920   7924   7936     1   114.2100488 537.225600
   7920   7927   7930     1   114.2100488 537.225600
   7921   7920   7924     1   109.6600471 523.836800
   7921   7920   7927     1   109.6600471 523.836800
   7921   7933   7945     1   111.5100476 526.347200
   7924   7920   7927     1   109.6600471 523.836800
   7924   7936   7942     1   111.5100476 526.347200
   7927   7930   7939     1   111.5100476 526.347200
   7930   7939   7948     1   107.9700462 569.024000
   7933   7945  14897     1   107.9700462 569.024000
   7936   7942  14874     1   107.9700462 569.024000
   7942  14874  14870     1   112.4800480 524.673600
   7945  14897  14893     1   112.4800480 524.673600
   7950   7951   7963     1   114.2100488 537.225600
   7950   7954   7966     1   114.2100488 537.225600
   7950   7957   7960     1   114.2100488 537.225600
   7951   7950   7954     1   109.6600471 523.836800
   7951   7950   7957     1   109.6600471 523.836800
   7951   7963   7975     1   111.5100476 526.347200
   7954   7950   7957     1   109.6600471 523.836800
   7954   7966   7972     1   111.5100476 526.347200
   7957   7960   7969     1   111.5100476 526.347200
   7960   7969   7978     1   107.9700462 569.024000
   7963   7975  14943     1   107.9700462 569.024000
   7966   7972  14920     1   107.9700462 569.024000
   7972  14920  14916     1   112.4800480 524.673600
   7975  14943  14939     1   112.4800480 524.673600
   7980   7981   7993     1   114.2100488 537.225600
   7980   7984   7996     1   114.2100488 537.225600
   7980   7987   7990     1   114.2100488 537.225600
   7981   7980   7984     1   109.6600471 523.836800
   7981   7980   7987     1   109.6600471 523.836800
   7981   7993   8005     1   111.5100476 526.347200
   7984   7980   7987     1   109.6600471 523.836800
   7984   7996   8002     1   111.5100476 526.347200
   7987   7990   7999     1   111.5100476 526.347200
   7990   7999   8008     1   107.9700462 569.024000
   7993   8005  14989     1   107.9700462 569.024000
   7996   8002  14966     1   107.9700462 569.024000
   8002  14966  14962     1   112.4800480 524.673600
   8005  14989  14985     1   112.4800480 524.673600
   8010   8011   8023     1   114.2100488 537.225600
   8010   8014   8026     1   114.2100488 537.225600
   8010   8017   8020     1   114.2100488 537.225600
   8011   8010   8014     1   109.6600471 523.836800
   8011   8010   8017     1   109.6600471 523.836800
   8011   8023   8035     1   111.5100476 526.347200
   8014   8010   8017     1   109.6600471 523.836800
   8014   8026   8032     1   111.5100476 526.347200
   8017   8020   8029     1   111.5100476 526.347200
   8020   8029   8038     1   107.9700462 569.024000
   8023   8035  15035     1   107.9700462 569.024000
   8026   8032  15012     1   107.9700462 569.024000
   8032  15012  15008     1   112.4800480 524.673600
   8035  15035  15031     1   112.4800480 524.673600
   8040   8041   8053     1   114.2100488 537.225600
   8040   8044   8056     1   114.2100488 537.225600
   8040   8047   8050     1   114.2100488 537.225600
   8041   8040   8044     1   109.6600471 523.836800
   8041   8040   8047     1   109.6600471 523.836800
   8041   8053   8065     1   111.5100476 526.347200
   8044   8040   8047     1   109.6600471 523.836800
   8044   8056   8062     1   111.5100476 526.347200
   8047   8050   8059     1   111.5100476 526.347200
   8050   8059   8068     1   107.9700462 569.024000
   8053   8065  15081     1   107.9700462 569.024000
   8056   8062  15058     1   107.9700462 569.024000
   8062  15058  15054     1   112.4800480 524.673600
   8065  15081  15077     1   112.4800480 524.673600
   8070   8071   8083     1   114.2100488 537.225600
   8070   8074   8086     1   114.2100488 537.225600
   8070   8077   8080     1   114.2100488 537.225600
   8071   8070   8074     1   109.6600471 523.836800
   8071   8070   8077     1   109.6600471 523.836800
   8071   8083   8095     1   111.5100476 526.347200
   8074   8070   8077     1   109.6600471 523.836800
   8074   8086   8092     1   111.5100476 526.347200
   8077   8080   8089     1   111.5100476 526.347200
   8080   8089   8098     1   107.9700462 569.024000
   8083   8095  15127     1   107.9700462 569.024000
   8086   8092  15104     1   107.9700462 569.024000
   8092  15104  15100     1   112.4800480 524.673600
   8095  15127  15123     1   112.4800480 524.673600
   8100   8101   8113     1   114.2100488 537.225600
   8100   8104   8116     1   114.2100488 537.225600
   8100   8107   8110     1   114.2100488 537.225600
   8101   8100   8104     1   109.6600471 523.836800
   8101   8100   8107     1   109.6600471 523.836800
   8101   8113   8125     1   111.5100476 526.347200
   8104   8100   8107     1   109.6600471 523.836800
   8104   8116   8122     1   111.5100476 526.347200
   8107   8110   8119     1   111.5100476 526.347200
   8110   8119   8128     1   107.9700462 569.024000
   8113   8125  15173     1   107.9700462 569.024000
   8116   8122  15150     1   107.9700462 569.024000
   8122  15150  15146     1   112.4800480 524.673600
   8125  15173  15169     1   112.4800480 524.673600
   8130   8131   8143     1   114.2100488 537.225600
   8130   8134   8146     1   114.2100488 537.225600
   8130   8137   8140     1   114.2100488 537.225600
   8131   8130   8134     1   109.6600471 523.836800
   8131   8130   8137     1   109.6600471 523.836800
   8131   8143   8155     1   111.5100476 526.347200
   8134   8130   8137     1   109.6600471 523.836800
   8134   8146   8152     1   111.5100476 526.347200
   8137   8140   8149     1   111.5100476 526.347200
   8140   8149   8158     1   107.9700462 569.024000
   8143   8155  15219     1   107.9700462 569.024000
   8146   8152  15196     1   107.9700462 569.024000
   8152  15196  15192     1   112.4800480 524.673600
   8155  15219  15215     1   112.4800480 524.673600
   8160   8161   8173     1   114.2100488 537.225600
   8160   8164   8176     1   114.2100488 537.225600
   8160   8167   8170     1   114.2100488 537.225600
   8161   8160   8164     1   109.6600471 523.836800
   8161   8160   8167     1   109.6600471 523.836800
   8161   8173   8185     1   111.5100476 526.347200
   8164   8160   8167     1   109.6600471 523.836800
   8164   8176   8182     1   111.5100476 526.347200
   8167   8170   8179     1   111.5100476 526.347200
   8170   8179   8188     1   107.9700462 569.024000
   8173   8185  15265     1   107.9700462 569.024000
   8176   8182  15242     1   107.9700462 569.024000
   8182  15242  15238     1   112.4800480 524.673600
   8185  15265  15261     1   112.4800480 524.673600
   8190   8191   8203     1   114.2100488 537.225600
   8190   8194   8206     1   114.2100488 537.225600
   8190   8197   8200     1   114.2100488 537.225600
   8191   8190   8194     1   109.6600471 523.836800
   8191   8190   8197     1   109.6600471 523.836800
   8191   8203   8215     1   111.5100476 526.347200
   8194   8190   8197     1   109.6600471 523.836800
   8194   8206   8212     1   111.5100476 526.347200
   8197   8200   8209     1   111.5100476 526.347200
   8200   8209   8218     1   107.9700462 569.024000
   8203   8215  15311     1   107.9700462 569.024000
   8206   8212  15288     1   107.9700462 569.024000
   8212  15288  15284     1   112.4800480 524.673600
   8215  15311  15307     1   112.4800480 524.673600
   8220   8221   8233     1   114.2100488 537.225600
   8220   8224   8236     1   114.2100488 537.225600
   8220   8227   8230     1   114.2100488 537.225600
   8221   8220   8224     1   109.6600471 523.836800
   8221   8220   8227     1   109.6600471 523.836800
   8221   8233   8245     1   111.5100476 526.347200
   8224   8220   8227     1   109.6600471 523.836800
   8224   8236   8242     1   111.5100476 526.347200
   8227   8230   8239     1   111.5100476 526.347200
   8230   8239   8248     1   107.9700462 569.024000
   8233   8245  15357     1   107.9700462 569.024000
   8236   8242  15334     1   107.9700462 569.024000
   8242  15334  15330     1   112.4800480 524.673600
   8245  15357  15353     1   112.4800480 524.673600
   8250   8251   8263     1   114.2100488 537.225600
   8250   8254   8266     1   114.2100488 537.225600
   8250   8257   8260     1   114.2100488 537.225600
   8251   8250   8254     1   109.6600471 523.836800
   8251   8250   8257     1   109.6600471 523.836800
   8251   8263   8275     1   111.5100476 526.347200
   8254   8250   8257     1   109.6600471 523.836800
   8254   8266   8272     1   111.5100476 526.347200
   8257   8260   8269     1   111.5100476 526.347200
   8260   8269   8278     1   107.9700462 569.024000
   8263   8275  15403     1   107.9700462 569.024000
   8266   8272  15380     1   107.9700462 569.024000
   8272  15380  15376     1   112.4800480 524.673600
   8275  15403  15399     1   112.4800480 524.673600
   8280   8281   8293     1   114.2100488 537.225600
   8280   8284   8296     1   114.2100488 537.225600
   8280   8287   8290     1   114.2100488 537.225600
   8281   8280   8284     1   109.6600471 523.836800
   8281   8280   8287     1   109.6600471 523.836800
   8281   8293   8305     1   111.5100476 526.347200
   8284   8280   8287     1   109.6600471 523.836800
   8284   8296   8302     1   111.5100476 526.347200
   8287   8290   8299     1   111.5100476 526.347200
   8290   8299   8308     1   107.9700462 569.024000
   8293   8305  15449     1   107.9700462 569.024000
   8296   8302  15426     1   107.9700462 569.024000
   8302  15426  15422     1   112.4800480 524.673600
   8305  15449  15445     1   112.4800480 524.673600
   8310   8311   8323     1   114.2100488 537.225600
   8310   8314   8326     1   114.2100488 537.225600
   8310   8317   8320     1   114.2100488 537.225600
   8311   8310   8314     1   109.6600471 523.836800
   8311   8310   8317     1   109.6600471 523.836800
   8311   8323   8335     1   111.5100476 526.347200
   8314   8310   8317     1   109.6600471 523.836800
   8314   8326   8332     1   111.5100476 526.347200
   8317   8320   8329     1   111.5100476 526.347200
   8320   8329   8338     1   107.9700462 569.024000
   8323   8335  15495     1   107.9700462 569.024000
   8326   8332  15472     1   107.9700462 569.024000
   8332  15472  15468     1   112.4800480 524.673600
   8335  15495  15491     1   112.4800480 524.673600
   8340   8341   8353     1   114.2100488 537.225600
   8340   8344   8356     1   114.2100488 537.225600
   8340   8347   8350     1   114.2100488 537.225600
   8341   8340   8344     1   109.6600471 523.836800
   8341   8340   8347     1   109.6600471 523.836800
   8341   8353   8365     1   111.5100476 526.347200
   8344   8340   8347     1   109.6600471 523.836800
   8344   8356   8362     1   111.5100476 526.347200
   8347   8350   8359     1   111.5100476 526.347200
   8350   8359   8368     1   107.9700462 569.024000
   8353   8365  15541     1   107.9700462 569.024000
   8356   8362  15518     1   107.9700462 569.024000
   8362  15518  15514     1   112.4800480 524.673600
   8365  15541  15537     1   112.4800480 524.673600
   8370   8371   8383     1   114.2100488 537.225600
   8370   8374   8386     1   114.2100488 537.225600
   8370   8377   8380     1   114.2100488 537.225600
   8371   8370   8374     1   109.6600471 523.836800
   8371   8370   8377     1   109.6600471 523.836800
   8371   8383   8395     1   111.5100476 526.347200
   8374   8370   8377     1   109.6600471 523.836800
   8374   8386   8392     1   111.5100476 526.347200
   8377   8380   8389     1   111.5100476 526.347200
   8380   8389   8398     1   107.9700462 569.024000
   8383   8395  15587     1   107.9700462 569.024000
   8386   8392  15564     1   107.9700462 569.024000
   8392  15564  15560     1   112.4800480 524.673600
   8395  15587  15583     1   112.4800480 524.673600
   8400   8401   8413     1   114.2100488 537.225600
   8400   8404   8416     1   114.2100488 537.225600
   8400   8407   8410     1   114.2100488 537.225600
   8401   8400   8404     1   109.6600471 523.836800
   8401   8400   8407     1   109.6600471 523.836800
   8401   8413   8425     1   111.5100476 526.347200
   8404   8400   8407     1   109.6600471 523.836800
   8404   8416   8422     1   111.5100476 526.347200
   8407   8410   8419     1   111.5100476 526.347200
   8410   8419   8428     1   107.9700462 569.024000
   8413   8425  15633     1   107.9700462 569.024000
   8416   8422  15610     1   107.9700462 569.024000
   8422  15610  15606     1   112.4800480 524.673600
   8425  15633  15629     1   112.4800480 524.673600
   8430   8431   8443     1   114.2100488 537.225600
   8430   8434   8446     1   114.2100488 537.225600
   8430   8437   8440     1   114.2100488 537.225600
   8431   8430   8434     1   109.6600471 523.836800
   8431   8430   8437     1   109.6600471 523.836800
   8431   8443   8455     1   111.5100476 526.347200
   8434   8430   8437     1   109.6600471 523.836800
   8434   8446   8452     1   111.5100476 526.347200
   8437   8440   8449     1   111.5100476 526.347200
   8440   8449   8458     1   107.9700462 569.024000
   8443   8455  15679     1   107.9700462 569.024000
   8446   8452  15656     1   107.9700462 569.024000
   8452  15656  15652     1   112.4800480 524.673600
   8455  15679  15675     1   112.4800480 524.673600
   8460   8461   8473     1   114.2100488 537.225600
   8460   8464   8476     1   114.2100488 537.225600
   8460   8467   8470     1   114.2100488 537.225600
   8461   8460   8464     1   109.6600471 523.836800
   8461   8460   8467     1   109.6600471 523.836800
   8461   8473   8485     1   111.5100476 526.347200
   8464   8460   8467     1   109.6600471 523.836800
   8464   8476   8482     1   111.5100476 526.347200
   8467   8470   8479     1   111.5100476 526.347200
   8470   8479   8488     1   107.9700462 569.024000
   8473   8485  15725     1   107.9700462 569.024000
   8476   8482  15702     1   107.9700462 569.024000
   8482  15702  15698     1   112.4800480 524.673600
   8485  15725  15721     1   112.4800480 524.673600
   8490   8491   8503     1   114.2100488 537.225600
   8490   8494   8506     1   114.2100488 537.225600
   8490   8497   8500     1   114.2100488 537.225600
   8491   8490   8494     1   109.6600471 523.836800
   8491   8490   8497     1   109.6600471 523.836800
   8491   8503   8515     1   111.5100476 526.347200
   8494   8490   8497     1   109.6600471 523.836800
   8494   8506   8512     1   111.5100476 526.347200
   8497   8500   8509     1   111.5100476 526.347200
   8500   8509   8518     1   107.9700462 569.024000
   8503   8515  15771     1   107.9700462 569.024000
   8506   8512  15748     1   107.9700462 569.024000
   8512  15748  15744     1   112.4800480 524.673600
   8515  15771  15767     1   112.4800480 524.673600
   8520   8521   8533     1   114.2100488 537.225600
   8520   8524   8536     1   114.2100488 537.225600
   8520   8527   8530     1   114.2100488 537.225600
   8521   8520   8524     1   109.6600471 523.836800
   8521   8520   8527     1   109.6600471 523.836800
   8521   8533   8545     1   111.5100476 526.347200
   8524   8520   8527     1   109.6600471 523.836800
   8524   8536   8542     1   111.5100476 526.347200
   8527   8530   8539     1   111.5100476 526.347200
   8530   8539   8548     1   107.9700462 569.024000
   8533   8545  15817     1   107.9700462 569.024000
   8536   8542  15794     1   107.9700462 569.024000
   8542  15794  15790     1   112.4800480 524.673600
   8545  15817  15813     1   112.4800480 524.673600
   8550   8551   8563     1   114.2100488 537.225600
   8550   8554   8566     1   114.2100488 537.225600
   8550   8557   8560     1   114.2100488 537.225600
   8551   8550   8554     1   109.6600471 523.836800
   8551   8550   8557     1   109.6600471 523.836800
   8551   8563   8575     1   111.5100476 526.347200
   8554   8550   8557     1   109.6600471 523.836800
   8554   8566   8572     1   111.5100476 526.347200
   8557   8560   8569     1   111.5100476 526.347200
   8560   8569   8578     1   107.9700462 569.024000
   8563   8575  15863     1   107.9700462 569.024000
   8566   8572  15840     1   107.9700462 569.024000
   8572  15840  15836     1   112.4800480 524.673600
   8575  15863  15859     1   112.4800480 524.673600
   8580   8581   8593     1   114.2100488 537.225600
   8580   8584   8596     1   114.2100488 537.225600
   8580   8587   8590     1   114.2100488 537.225600
   8581   8580   8584     1   109.6600471 523.836800
   8581   8580   8587     1   109.6600471 523.836800
   8581   8593   8605     1   111.5100476 526.347200
   8584   8580   8587     1   109.6600471 523.836800
   8584   8596   8602     1   111.5100476 526.347200
   8587   8590   8599     1   111.5100476 526.347200
   8590   8599   8608     1   107.9700462 569.024000
   8593   8605  15909     1   107.9700462 569.024000
   8596   8602  15886     1   107.9700462 569.024000
   8602  15886  15882     1   112.4800480 524.673600
   8605  15909  15905     1   112.4800480 524.673600
   8610   8611   8623     1   114.2100488 537.225600
   8610   8614   8626     1   114.2100488 537.225600
   8610   8617   8620     1   114.2100488 537.225600
   8611   8610   8614     1   109.6600471 523.836800
   8611   8610   8617     1   109.6600471 523.836800
   8611   8623   8635     1   111.5100476 526.347200
   8614   8610   8617     1   109.6600471 523.836800
   8614   8626   8632     1   111.5100476 526.347200
   8617   8620   8629     1   111.5100476 526.347200
   8620   8629   8638     1   107.9700462 569.024000
   8623   8635  15955     1   107.9700462 569.024000
   8626   8632  15932     1   107.9700462 569.024000
   8632  15932  15928     1   112.4800480 524.673600
   8635  15955  15951     1   112.4800480 524.673600
   8640   8641   8653     1   114.2100488 537.225600
   8640   8644   8656     1   114.2100488 537.225600
   8640   8647   8650     1   114.2100488 537.225600
   8641   8640   8644     1   109.6600471 523.836800
   8641   8640   8647     1   109.6600471 523.836800
   8641   8653   8665     1   111.5100476 526.347200
   8644   8640   8647     1   109.6600471 523.836800
   8644   8656   8662     1   111.5100476 526.347200
   8647   8650   8659     1   111.5100476 526.347200
   8650   8659   8668     1   107.9700462 569.024000
   8653   8665  16001     1   107.9700462 569.024000
   8656   8662  15978     1   107.9700462 569.024000
   8662  15978  15974     1   112.4800480 524.673600
   8665  16001  15997     1   112.4800480 524.673600
   8670   8671   8683     1   114.2100488 537.225600
   8670   8674   8686     1   114.2100488 537.225600
   8670   8677   8680     1   114.2100488 537.225600
   8671   8670   8674     1   109.6600471 523.836800
   8671   8670   8677     1   109.6600471 523.836800
   8671   8683   8695     1   111.5100476 526.347200
   8674   8670   8677     1   109.6600471 523.836800
   8674   8686   8692     1   111.5100476 526.347200
   8677   8680   8689     1   111.5100476 526.347200
   8680   8689   8698     1   107.9700462 569.024000
   8683   8695  16047     1   107.9700462 569.024000
   8686   8692  16024     1   107.9700462 569.024000
   8692  16024  16020     1   112.4800480 524.673600
   8695  16047  16043     1   112.4800480 524.673600
   8700   8701   8713     1   114.2100488 537.225600
   8700   8704   8716     1   114.2100488 537.225600
   8700   8707   8710     1   114.2100488 537.225600
   8701   8700   8704     1   109.6600471 523.836800
   8701   8700   8707     1   109.6600471 523.836800
   8701   8713   8725     1   111.5100476 526.347200
   8704   8700   8707     1   109.6600471 523.836800
   8704   8716   8722     1   111.5100476 526.347200
   8707   8710   8719     1   111.5100476 526.347200
   8710   8719   8728     1   107.9700462 569.024000
   8713   8725  16093     1   107.9700462 569.024000
   8716   8722  16070     1   107.9700462 569.024000
   8722  16070  16066     1   112.4800480 524.673600
   8725  16093  16089     1   112.4800480 524.673600
   8730   8731   8743     1   114.2100488 537.225600
   8730   8734   8746     1   114.2100488 537.225600
   8730   8737   8740     1   114.2100488 537.225600
   8731   8730   8734     1   109.6600471 523.836800
   8731   8730   8737     1   109.6600471 523.836800
   8731   8743   8755     1   111.5100476 526.347200
   8734   8730   8737     1   109.6600471 523.836800
   8734   8746   8752     1   111.5100476 526.347200
   8737   8740   8749     1   111.5100476 526.347200
   8740   8749   8758     1   107.9700462 569.024000
   8743   8755  16139     1   107.9700462 569.024000
   8746   8752  16116     1   107.9700462 569.024000
   8752  16116  16112     1   112.4800480 524.673600
   8755  16139  16135     1   112.4800480 524.673600
   8760   8761   8773     1   114.2100488 537.225600
   8760   8764   8776     1   114.2100488 537.225600
   8760   8767   8770     1   114.2100488 537.225600
   8761   8760   8764     1   109.6600471 523.836800
   8761   8760   8767     1   109.6600471 523.836800
   8761   8773   8785     1   111.5100476 526.347200
   8764   8760   8767     1   109.6600471 523.836800
   8764   8776   8782     1   111.5100476 526.347200
   8767   8770   8779     1   111.5100476 526.347200
   8770   8779   8788     1   107.9700462 569.024000
   8773   8785  16185     1   107.9700462 569.024000
   8776   8782  16162     1   107.9700462 569.024000
   8782  16162  16158     1   112.4800480 524.673600
   8785  16185  16181     1   112.4800480 524.673600
   8790   8791   8803     1   114.2100488 537.225600
   8790   8794   8806     1   114.2100488 537.225600
   8790   8797   8800     1   114.2100488 537.225600
   8791   8790   8794     1   109.6600471 523.836800
   8791   8790   8797     1   109.6600471 523.836800
   8791   8803   8815     1   111.5100476 526.347200
   8794   8790   8797     1   109.6600471 523.836800
   8794   8806   8812     1   111.5100476 526.347200
   8797   8800   8809     1   111.5100476 526.347200
   8800   8809   8818     1   107.9700462 569.024000
   8803   8815  16231     1   107.9700462 569.024000
   8806   8812  16208     1   107.9700462 569.024000
   8812  16208  16204     1   112.4800480 524.673600
   8815  16231  16227     1   112.4800480 524.673600
   8820   8821   8833     1   114.2100488 537.225600
   8820   8824   8836     1   114.2100488 537.225600
   8820   8827   8830     1   114.2100488 537.225600
   8821   8820   8824     1   109.6600471 523.836800
   8821   8820   8827     1   109.6600471 523.836800
   8821   8833   8845     1   111.5100476 526.347200
   8824   8820   8827     1   109.6600471 523.836800
   8824   8836   8842     1   111.5100476 526.347200
   8827   8830   8839     1   111.5100476 526.347200
   8830   8839   8848     1   107.9700462 569.024000
   8833   8845  16277     1   107.9700462 569.024000
   8836   8842  16254     1   107.9700462 569.024000
   8842  16254  16250     1   112.4800480 524.673600
   8845  16277  16273     1   112.4800480 524.673600
   8850   8851   8863     1   114.2100488 537.225600
   8850   8854   8866     1   114.2100488 537.225600
   8850   8857   8860     1   114.2100488 537.225600
   8851   8850   8854     1   109.6600471 523.836800
   8851   8850   8857     1   109.6600471 523.836800
   8851   8863   8875     1   111.5100476 526.347200
   8854   8850   8857     1   109.6600471 523.836800
   8854   8866   8872     1   111.5100476 526.347200
   8857   8860   8869     1   111.5100476 526.347200
   8860   8869   8878     1   107.9700462 569.024000
   8863   8875  16323     1   107.9700462 569.024000
   8866   8872  16300     1   107.9700462 569.024000
   8872  16300  16296     1   112.4800480 524.673600
   8875  16323  16319     1   112.4800480 524.673600
   8880   8881   8893     1   114.2100488 537.225600
   8880   8884   8896     1   114.2100488 537.225600
   8880   8887   8890     1   114.2100488 537.225600
   8881   8880   8884     1   109.6600471 523.836800
   8881   8880   8887     1   109.6600471 523.836800
   8881   8893   8905     1   111.5100476 526.347200
   8884   8880   8887     1   109.6600471 523.836800
   8884   8896   8902     1   111.5100476 526.347200
   8887   8890   8899     1   111.5100476 526.347200
   8890   8899   8908     1   107.9700462 569.024000
   8893   8905  16369     1   107.9700462 569.024000
   8896   8902  16346     1   107.9700462 569.024000
   8902  16346  16342     1   112.4800480 524.673600
   8905  16369  16365     1   112.4800480 524.673600
   8910   8911   8923     1   114.2100488 537.225600
   8910   8914   8926     1   114.2100488 537.225600
   8910   8917   8920     1   114.2100488 537.225600
   8911   8910   8914     1   109.6600471 523.836800
   8911   8910   8917     1   109.6600471 523.836800
   8911   8923   8935     1   111.5100476 526.347200
   8914   8910   8917     1   109.6600471 523.836800
   8914   8926   8932     1   111.5100476 526.347200
   8917   8920   8929     1   111.5100476 526.347200
   8920   8929   8938     1   107.9700462 569.024000
   8923   8935  16415     1   107.9700462 569.024000
   8926   8932  16392     1   107.9700462 569.024000
   8932  16392  16388     1   112.4800480 524.673600
   8935  16415  16411     1   112.4800480 524.673600
   8940   8941   8953     1   114.2100488 537.225600
   8940   8944   8956     1   114.2100488 537.225600
   8940   8947   8950     1   114.2100488 537.225600
   8941   8940   8944     1   109.6600471 523.836800
   8941   8940   8947     1   109.6600471 523.836800
   8941   8953   8965     1   111.5100476 526.347200
   8944   8940   8947     1   109.6600471 523.836800
   8944   8956   8962     1   111.5100476 526.347200
   8947   8950   8959     1   111.5100476 526.347200
   8950   8959   8968     1   107.9700462 569.024000
   8953   8965  16461     1   107.9700462 569.024000
   8956   8962  16438     1   107.9700462 569.024000
   8962  16438  16434     1   112.4800480 524.673600
   8965  16461  16457     1   112.4800480 524.673600
   8970   8971   8983     1   114.2100488 537.225600
   8970   8974   8986     1   114.2100488 537.225600
   8970   8977   8980     1   114.2100488 537.225600
   8971   8970   8974     1   109.6600471 523.836800
   8971   8970   8977     1   109.6600471 523.836800
   8971   8983   8995     1   111.5100476 526.347200
   8974   8970   8977     1   109.6600471 523.836800
   8974   8986   8992     1   111.5100476 526.347200
   8977   8980   8989     1   111.5100476 526.347200
   8980   8989   8998     1   107.9700462 569.024000
   8983   8995  16507     1   107.9700462 569.024000
   8986   8992  16484     1   107.9700462 569.024000
   8992  16484  16480     1   112.4800480 524.673600
   8995  16507  16503     1   112.4800480 524.673600
   9000   9001   9013     1   114.2100488 537.225600
   9000   9004   9016     1   114.2100488 537.225600
   9000   9007   9010     1   114.2100488 537.225600
   9001   9000   9004     1   109.6600471 523.836800
   9001   9000   9007     1   109.6600471 523.836800
   9001   9013   9025     1   111.5100476 526.347200
   9004   9000   9007     1   109.6600471 523.836800
   9004   9016   9022     1   111.5100476 526.347200
   9007   9010   9019     1   111.5100476 526.347200
   9010   9019   9028     1   107.9700462 569.024000
   9013   9025  16553     1   107.9700462 569.024000
   9016   9022  16530     1   107.9700462 569.024000
   9022  16530  16526     1   112.4800480 524.673600
   9025  16553  16549     1   112.4800480 524.673600
   9030   9031   9043     1   114.2100488 537.225600
   9030   9034   9046     1   114.2100488 537.225600
   9030   9037   9040     1   114.2100488 537.225600
   9031   9030   9034     1   109.6600471 523.836800
   9031   9030   9037     1   109.6600471 523.836800
   9031   9043   9055     1   111.5100476 526.347200
   9034   9030   9037     1   109.6600471 523.836800
   9034   9046   9052     1   111.5100476 526.347200
   9037   9040   9049     1   111.5100476 526.347200
   9040   9049   9058     1   107.9700462 569.024000
   9043   9055  16599     1   107.9700462 569.024000
   9046   9052  16576     1   107.9700462 569.024000
   9052  16576  16572     1   112.4800480 524.673600
   9055  16599  16595     1   112.4800480 524.673600
   9060   9061   9073     1   114.2100488 537.225600
   9060   9064   9076     1   114.2100488 537.225600
   9060   9067   9070     1   114.2100488 537.225600
   9061   9060   9064     1   109.6600471 523.836800
   9061   9060   9067     1   109.6600471 523.836800
   9061   9073   9085     1   111.5100476 526.347200
   9064   9060   9067     1   109.6600471 523.836800
   9064   9076   9082     1   111.5100476 526.347200
   9067   9070   9079     1   111.5100476 526.347200
   9070   9079   9088     1   107.9700462 569.024000
   9073   9085  16645     1   107.9700462 569.024000
   9076   9082  16622     1   107.9700462 569.024000
   9082  16622  16618     1   112.4800480 524.673600
   9085  16645  16641     1   112.4800480 524.673600
   9090   9091   9103     1   114.2100488 537.225600
   9090   9094   9106     1   114.2100488 537.225600
   9090   9097   9100     1   114.2100488 537.225600
   9091   9090   9094     1   109.6600471 523.836800
   9091   9090   9097     1   109.6600471 523.836800
   9091   9103   9115     1   111.5100476 526.347200
   9094   9090   9097     1   109.6600471 523.836800
   9094   9106   9112     1   111.5100476 526.347200
   9097   9100   9109     1   111.5100476 526.347200
   9100   9109   9118     1   107.9700462 569.024000
   9103   9115  16691     1   107.9700462 569.024000
   9106   9112  16668     1   107.9700462 569.024000
   9112  16668  16664     1   112.4800480 524.673600
   9115  16691  16687     1   112.4800480 524.673600
   9120   9121   9133     1   114.2100488 537.225600
   9120   9124   9136     1   114.2100488 537.225600
   9120   9127   9130     1   114.2100488 537.225600
   9121   9120   9124     1   109.6600471 523.836800
   9121   9120   9127     1   109.6600471 523.836800
   9121   9133   9145     1   111.5100476 526.347200
   9124   9120   9127     1   109.6600471 523.836800
   9124   9136   9142     1   111.5100476 526.347200
   9127   9130   9139     1   111.5100476 526.347200
   9130   9139   9148     1   107.9700462 569.024000
   9133   9145  16737     1   107.9700462 569.024000
   9136   9142  16714     1   107.9700462 569.024000
   9142  16714  16710     1   112.4800480 524.673600
   9145  16737  16733     1   112.4800480 524.673600
   9150   9151   9163     1   114.2100488 537.225600
   9150   9154   9166     1   114.2100488 537.225600
   9150   9157   9160     1   114.2100488 537.225600
   9151   9150   9154     1   109.6600471 523.836800
   9151   9150   9157     1   109.6600471 523.836800
   9151   9163   9175     1   111.5100476 526.347200
   9154   9150   9157     1   109.6600471 523.836800
   9154   9166   9172     1   111.5100476 526.347200
   9157   9160   9169     1   111.5100476 526.347200
   9160   9169   9178     1   107.9700462 569.024000
   9163   9175  16783     1   107.9700462 569.024000
   9166   9172  16760     1   107.9700462 569.024000
   9172  16760  16756     1   112.4800480 524.673600
   9175  16783  16779     1   112.4800480 524.673600
   9180   9181   9193     1   114.2100488 537.225600
   9180   9184   9196     1   114.2100488 537.225600
   9180   9187   9190     1   114.2100488 537.225600
   9181   9180   9184     1   109.6600471 523.836800
   9181   9180   9187     1   109.6600471 523.836800
   9181   9193   9205     1   111.5100476 526.347200
   9184   9180   9187     1   109.6600471 523.836800
   9184   9196   9202     1   111.5100476 526.347200
   9187   9190   9199     1   111.5100476 526.347200
   9190   9199   9208     1   107.9700462 569.024000
   9193   9205  16829     1   107.9700462 569.024000
   9196   9202  16806     1   107.9700462 569.024000
   9202  16806  16802     1   112.4800480 524.673600
   9205  16829  16825     1   112.4800480 524.673600
   9210   9211   9223     1   114.2100488 537.225600
   9210   9214   9226     1   114.2100488 537.225600
   9210   9217   9220     1   114.2100488 537.225600
   9211   9210   9214     1   109.6600471 523.836800
   9211   9210   9217     1   109.6600471 523.836800
   9211   9223   9235     1   111.5100476 526.347200
   9214   9210   9217     1   109.6600471 523.836800
   9214   9226   9232     1   111.5100476 526.347200
   9217   9220   9229     1   111.5100476 526.347200
   9220   9229   9238     1   107.9700462 569.024000
   9223   9235  16875     1   107.9700462 569.024000
   9226   9232  16852     1   107.9700462 569.024000
   9232  16852  16848     1   112.4800480 524.673600
   9235  16875  16871     1   112.4800480 524.673600
   9240   9241   9253     1   114.2100488 537.225600
   9240   9244   9256     1   114.2100488 537.225600
   9240   9247   9250     1   114.2100488 537.225600
   9241   9240   9244     1   109.6600471 523.836800
   9241   9240   9247     1   109.6600471 523.836800
   9241   9253   9265     1   111.5100476 526.347200
   9244   9240   9247     1   109.6600471 523.836800
   9244   9256   9262     1   111.5100476 526.347200
   9247   9250   9259     1   111.5100476 526.347200
   9250   9259   9268     1   107.9700462 569.024000
   9253   9265  16921     1   107.9700462 569.024000
   9256   9262  16898     1   107.9700462 569.024000
   9262  16898  16894     1   112.4800480 524.673600
   9265  16921  16917     1   112.4800480 524.673600
   9270   9271   9283     1   114.2100488 537.225600
   9270   9274   9286     1   114.2100488 537.225600
   9270   9277   9280     1   114.2100488 537.225600
   9271   9270   9274     1   109.6600471 523.836800
   9271   9270   9277     1   109.6600471 523.836800
   9271   9283   9295     1   111.5100476 526.347200
   9274   9270   9277     1   109.6600471 523.836800
   9274   9286   9292     1   111.5100476 526.347200
   9277   9280   9289     1   111.5100476 526.347200
   9280   9289   9298     1   107.9700462 569.024000
   9283   9295  16967     1   107.9700462 569.024000
   9286   9292  16944     1   107.9700462 569.024000
   9292  16944  16940     1   112.4800480 524.673600
   9295  16967  16963     1   112.4800480 524.673600
   9300   9301   9313     1   114.2100488 537.225600
   9300   9304   9316     1   114.2100488 537.225600
   9300   9307   9310     1   114.2100488 537.225600
   9301   9300   9304     1   109.6600471 523.836800
   9301   9300   9307     1   109.6600471 523.836800
   9301   9313   9325     1   111.5100476 526.347200
   9304   9300   9307     1   109.6600471 523.836800
   9304   9316   9322     1   111.5100476 526.347200
   9307   9310   9319     1   111.5100476 526.347200
   9310   9319   9328     1   107.9700462 569.024000
   9313   9325  17013     1   107.9700462 569.024000
   9316   9322  16990     1   107.9700462 569.024000
   9322  16990  16986     1   112.4800480 524.673600
   9325  17013  17009     1   112.4800480 524.673600
   9330   9331   9343     1   114.2100488 537.225600
   9330   9334   9346     1   114.2100488 537.225600
   9330   9337   9340     1   114.2100488 537.225600
   9331   9330   9334     1   109.6600471 523.836800
   9331   9330   9337     1   109.6600471 523.836800
   9331   9343   9355     1   111.5100476 526.347200
   9334   9330   9337     1   109.6600471 523.836800
   9334   9346   9352     1   111.5100476 526.347200
   9337   9340   9349     1   111.5100476 526.347200
   9340   9349   9358     1   107.9700462 569.024000
   9343   9355  17059     1   107.9700462 569.024000
   9346   9352  17036     1   107.9700462 569.024000
   9352  17036  17032     1   112.4800480 524.673600
   9355  17059  17055     1   112.4800480 524.673600
   9360   9361   9373     1   114.2100488 537.225600
   9360   9364   9376     1   114.2100488 537.225600
   9360   9367   9370     1   114.2100488 537.225600
   9361   9360   9364     1   109.6600471 523.836800
   9361   9360   9367     1   109.6600471 523.836800
   9361   9373   9385     1   111.5100476 526.347200
   9364   9360   9367     1   109.6600471 523.836800
   9364   9376   9382     1   111.5100476 526.347200
   9367   9370   9379     1   111.5100476 526.347200
   9370   9379   9388     1   107.9700462 569.024000
   9373   9385  17105     1   107.9700462 569.024000
   9376   9382  17082     1   107.9700462 569.024000
   9382  17082  17078     1   112.4800480 524.673600
   9385  17105  17101     1   112.4800480 524.673600
   9390   9391   9403     1   114.2100488 537.225600
   9390   9394   9406     1   114.2100488 537.225600
   9390   9397   9400     1   114.2100488 537.225600
   9391   9390   9394     1   109.6600471 523.836800
   9391   9390   9397     1   109.6600471 523.836800
   9391   9403   9415     1   111.5100476 526.347200
   9394   9390   9397     1   109.6600471 523.836800
   9394   9406   9412     1   111.5100476 526.347200
   9397   9400   9409     1   111.5100476 526.347200
   9400   9409   9418     1   107.9700462 569.024000
   9403   9415  17151     1   107.9700462 569.024000
   9406   9412  17128     1   107.9700462 569.024000
   9412  17128  17124     1   112.4800480 524.673600
   9415  17151  17147     1   112.4800480 524.673600
   9420   9421   9433     1   114.2100488 537.225600
   9420   9424   9436     1   114.2100488 537.225600
   9420   9427   9430     1   114.2100488 537.225600
   9421   9420   9424     1   109.6600471 523.836800
   9421   9420   9427     1   109.6600471 523.836800
   9421   9433   9445     1   111.5100476 526.347200
   9424   9420   9427     1   109.6600471 523.836800
   9424   9436   9442     1   111.5100476 526.347200
   9427   9430   9439     1   111.5100476 526.347200
   9430   9439   9448     1   107.9700462 569.024000
   9433   9445  17197     1   107.9700462 569.024000
   9436   9442  17174     1   107.9700462 569.024000
   9442  17174  17170     1   112.4800480 524.673600
   9445  17197  17193     1   112.4800480 524.673600
   9450   9451   9463     1   114.2100488 537.225600
   9450   9454   9466     1   114.2100488 537.225600
   9450   9457   9460     1   114.2100488 537.225600
   9451   9450   9454     1   109.6600471 523.836800
   9451   9450   9457     1   109.6600471 523.836800
   9451   9463   9475     1   111.5100476 526.347200
   9454   9450   9457     1   109.6600471 523.836800
   9454   9466   9472     1   111.5100476 526.347200
   9457   9460   9469     1   111.5100476 526.347200
   9460   9469   9478     1   107.9700462 569.024000
   9463   9475  17243     1   107.9700462 569.024000
   9466   9472  17220     1   107.9700462 569.024000
   9472  17220  17216     1   112.4800480 524.673600
   9475  17243  17239     1   112.4800480 524.673600
   9480   9481   9493     1   114.2100488 537.225600
   9480   9484   9496     1   114.2100488 537.225600
   9480   9487   9490     1   114.2100488 537.225600
   9481   9480   9484     1   109.6600471 523.836800
   9481   9480   9487     1   109.6600471 523.836800
   9481   9493   9505     1   111.5100476 526.347200
   9484   9480   9487     1   109.6600471 523.836800
   9484   9496   9502     1   111.5100476 526.347200
   9487   9490   9499     1   111.5100476 526.347200
   9490   9499   9508     1   107.9700462 569.024000
   9493   9505  17289     1   107.9700462 569.024000
   9496   9502  17266     1   107.9700462 569.024000
   9502  17266  17262     1   112.4800480 524.673600
   9505  17289  17285     1   112.4800480 524.673600
   9510   9511   9523     1   114.2100488 537.225600
   9510   9514   9526     1   114.2100488 537.225600
   9510   9517   9520     1   114.2100488 537.225600
   9511   9510   9514     1   109.6600471 523.836800
   9511   9510   9517     1   109.6600471 523.836800
   9511   9523   9535     1   111.5100476 526.347200
   9514   9510   9517     1   109.6600471 523.836800
   9514   9526   9532     1   111.5100476 526.347200
   9517   9520   9529     1   111.5100476 526.347200
   9520   9529   9538     1   107.9700462 569.024000
   9523   9535  17335     1   107.9700462 569.024000
   9526   9532  17312     1   107.9700462 569.024000
   9532  17312  17308     1   112.4800480 524.673600
   9535  17335  17331     1   112.4800480 524.673600
   9540   9541   9553     1   114.2100488 537.225600
   9540   9544   9556     1   114.2100488 537.225600
   9540   9547   9550     1   114.2100488 537.225600
   9541   9540   9544     1   109.6600471 523.836800
   9541   9540   9547     1   109.6600471 523.836800
   9541   9553   9565     1   111.5100476 526.347200
   9544   9540   9547     1   109.6600471 523.836800
   9544   9556   9562     1   111.5100476 526.347200
   9547   9550   9559     1   111.5100476 526.347200
   9550   9559   9568     1   107.9700462 569.024000
   9553   9565  17381     1   107.9700462 569.024000
   9556   9562  17358     1   107.9700462 569.024000
   9562  17358  17354     1   112.4800480 524.673600
   9565  17381  17377     1   112.4800480 524.673600
   9570   9571   9583     1   114.2100488 537.225600
   9570   9574   9586     1   114.2100488 537.225600
   9570   9577   9580     1   114.2100488 537.225600
   9571   9570   9574     1   109.6600471 523.836800
   9571   9570   9577     1   109.6600471 523.836800
   9571   9583   9595     1   111.5100476 526.347200
   9574   9570   9577     1   109.6600471 523.836800
   9574   9586   9592     1   111.5100476 526.347200
   9577   9580   9589     1   111.5100476 526.347200
   9580   9589   9598     1   107.9700462 569.024000
   9583   9595  17427     1   107.9700462 569.024000
   9586   9592  17404     1   107.9700462 569.024000
   9592  17404  17400     1   112.4800480 524.673600
   9595  17427  17423     1   112.4800480 524.673600
   9600   9601   9613     1   114.2100488 537.225600
   9600   9604   9616     1   114.2100488 537.225600
   9600   9607   9610     1   114.2100488 537.225600
   9601   9600   9604     1   109.6600471 523.836800
   9601   9600   9607     1   109.6600471 523.836800
   9601   9613   9625     1   111.5100476 526.347200
   9604   9600   9607     1   109.6600471 523.836800
   9604   9616   9622     1   111.5100476 526.347200
   9607   9610   9619     1   111.5100476 526.347200
   9610   9619   9628     1   107.9700462 569.024000
   9613   9625  17473     1   107.9700462 569.024000
   9616   9622  17450     1   107.9700462 569.024000
   9622  17450  17446     1   112.4800480 524.673600
   9625  17473  17469     1   112.4800480 524.673600
   9630   9631   9643     1   114.2100488 537.225600
   9630   9634   9646     1   114.2100488 537.225600
   9630   9637   9640     1   114.2100488 537.225600
   9631   9630   9634     1   109.6600471 523.836800
   9631   9630   9637     1   109.6600471 523.836800
   9631   9643   9655     1   111.5100476 526.347200
   9634   9630   9637     1   109.6600471 523.836800
   9634   9646   9652     1   111.5100476 526.347200
   9637   9640   9649     1   111.5100476 526.347200
   9640   9649   9658     1   107.9700462 569.024000
   9643   9655  17519     1   107.9700462 569.024000
   9646   9652  17496     1   107.9700462 569.024000
   9652  17496  17492     1   112.4800480 524.673600
   9655  17519  17515     1   112.4800480 524.673600
   9660   9661   9673     1   114.2100488 537.225600
   9660   9664   9676     1   114.2100488 537.225600
   9660   9667   9670     1   114.2100488 537.225600
   9661   9660   9664     1   109.6600471 523.836800
   9661   9660   9667     1   109.6600471 523.836800
   9661   9673   9685     1   111.5100476 526.347200
   9664   9660   9667     1   109.6600471 523.836800
   9664   9676   9682     1   111.5100476 526.347200
   9667   9670   9679     1   111.5100476 526.347200
   9670   9679   9688     1   107.9700462 569.024000
   9673   9685  17565     1   107.9700462 569.024000
   9676   9682  17542     1   107.9700462 569.024000
   9682  17542  17538     1   112.4800480 524.673600
   9685  17565  17561     1   112.4800480 524.673600
   9690   9691   9703     1   114.2100488 537.225600
   9690   9694   9706     1   114.2100488 537.225600
   9690   9697   9700     1   114.2100488 537.225600
   9691   9690   9694     1   109.6600471 523.836800
   9691   9690   9697     1   109.6600471 523.836800
   9691   9703   9715     1   111.5100476 526.347200
   9694   9690   9697     1   109.6600471 523.836800
   9694   9706   9712     1   111.5100476 526.347200
   9697   9700   9709     1   111.5100476 526.347200
   9700   9709   9718     1   107.9700462 569.024000
   9703   9715  17611     1   107.9700462 569.024000
   9706   9712  17588     1   107.9700462 569.024000
   9712  17588  17584     1   112.4800480 524.673600
   9715  17611  17607     1   112.4800480 524.673600
   9720   9721   9733     1   114.2100488 537.225600
   9720   9724   9736     1   114.2100488 537.225600
   9720   9727   9730     1   114.2100488 537.225600
   9721   9720   9724     1   109.6600471 523.836800
   9721   9720   9727     1   109.6600471 523.836800
   9721   9733   9745     1   111.5100476 526.347200
   9724   9720   9727     1   109.6600471 523.836800
   9724   9736   9742     1   111.5100476 526.347200
   9727   9730   9739     1   111.5100476 526.347200
   9730   9739   9748     1   107.9700462 569.024000
   9733   9745  17657     1   107.9700462 569.024000
   9736   9742  17634     1   107.9700462 569.024000
   9742  17634  17630     1   112.4800480 524.673600
   9745  17657  17653     1   112.4800480 524.673600
   9750   9751   9763     1   114.2100488 537.225600
   9750   9754   9766     1   114.2100488 537.225600
   9750   9757   9760     1   114.2100488 537.225600
   9751   9750   9754     1   109.6600471 523.836800
   9751   9750   9757     1   109.6600471 523.836800
   9751   9763   9775     1   111.5100476 526.347200
   9754   9750   9757     1   109.6600471 523.836800
   9754   9766   9772     1   111.5100476 526.347200
   9757   9760   9769     1   111.5100476 526.347200
   9760   9769   9778     1   107.9700462 569.024000
   9763   9775  17703     1   107.9700462 569.024000
   9766   9772  17680     1   107.9700462 569.024000
   9772  17680  17676     1   112.4800480 524.673600
   9775  17703  17699     1   112.4800480 524.673600
   9780   9781   9793     1   114.2100488 537.225600
   9780   9784   9796     1   114.2100488 537.225600
   9780   9787   9790     1   114.2100488 537.225600
   9781   9780   9784     1   109.6600471 523.836800
   9781   9780   9787     1   109.6600471 523.836800
   9781   9793   9805     1   111.5100476 526.347200
   9784   9780   9787     1   109.6600471 523.836800
   9784   9796   9802     1   111.5100476 526.347200
   9787   9790   9799     1   111.5100476 526.347200
   9790   9799   9808     1   107.9700462 569.024000
   9793   9805  17749     1   107.9700462 569.024000
   9796   9802  17726     1   107.9700462 569.024000
   9802  17726  17722     1   112.4800480 524.673600
   9805  17749  17745     1   112.4800480 524.673600
   9810   9811   9823     1   114.2100488 537.225600
   9810   9814   9826     1   114.2100488 537.225600
   9810   9817   9820     1   114.2100488 537.225600
   9811   9810   9814     1   109.6600471 523.836800
   9811   9810   9817     1   109.6600471 523.836800
   9811   9823   9835     1   111.5100476 526.347200
   9814   9810   9817     1   109.6600471 523.836800
   9814   9826   9832     1   111.5100476 526.347200
   9817   9820   9829     1   111.5100476 526.347200
   9820   9829   9838     1   107.9700462 569.024000
   9823   9835  17795     1   107.9700462 569.024000
   9826   9832  17772     1   107.9700462 569.024000
   9832  17772  17768     1   112.4800480 524.673600
   9835  17795  17791     1   112.4800480 524.673600
   9840   9841   9853     1   114.2100488 537.225600
   9840   9844   9856     1   114.2100488 537.225600
   9840   9847   9850     1   114.2100488 537.225600
   9841   9840   9844     1   109.6600471 523.836800
   9841   9840   9847     1   109.6600471 523.836800
   9841   9853   9865     1   111.5100476 526.347200
   9844   9840   9847     1   109.6600471 523.836800
   9844   9856   9862     1   111.5100476 526.347200
   9847   9850   9859     1   111.5100476 526.347200
   9850   9859   9868     1   107.9700462 569.024000
   9853   9865  17841     1   107.9700462 569.024000
   9856   9862  17818     1   107.9700462 569.024000
   9862  17818  17814     1   112.4800480 524.673600
   9865  17841  17837     1   112.4800480 524.673600
   9870   9871   9883     1   114.2100488 537.225600
   9870   9874   9886     1   114.2100488 537.225600
   9870   9877   9880     1   114.2100488 537.225600
   9871   9870   9874     1   109.6600471 523.836800
   9871   9870   9877     1   109.6600471 523.836800
   9871   9883   9895     1   111.5100476 526.347200
   9874   9870   9877     1   109.6600471 523.836800
   9874   9886   9892     1   111.5100476 526.347200
   9877   9880   9889     1   111.5100476 526.347200
   9880   9889   9898     1   107.9700462 569.024000
   9883   9895  17887     1   107.9700462 569.024000
   9886   9892  17864     1   107.9700462 569.024000
   9892  17864  17860     1   112.4800480 524.673600
   9895  17887  17883     1   112.4800480 524.673600
   9900   9901   9913     1   114.2100488 537.225600
   9900   9904   9916     1   114.2100488 537.225600
   9900   9907   9910     1   114.2100488 537.225600
   9901   9900   9904     1   109.6600471 523.836800
   9901   9900   9907     1   109.6600471 523.836800
   9901   9913   9925     1   111.5100476 526.347200
   9904   9900   9907     1   109.6600471 523.836800
   9904   9916   9922     1   111.5100476 526.347200
   9907   9910   9919     1   111.5100476 526.347200
   9910   9919   9928     1   107.9700462 569.024000
   9913   9925  17933     1   107.9700462 569.024000
   9916   9922  17910     1   107.9700462 569.024000
   9922  17910  17906     1   112.4800480 524.673600
   9925  17933  17929     1   112.4800480 524.673600
   9930   9931   9943     1   114.2100488 537.225600
   9930   9934   9946     1   114.2100488 537.225600
   9930   9937   9940     1   114.2100488 537.225600
   9931   9930   9934     1   109.6600471 523.836800
   9931   9930   9937     1   109.6600471 523.836800
   9931   9943   9955     1   111.5100476 526.347200
   9934   9930   9937     1   109.6600471 523.836800
   9934   9946   9952     1   111.5100476 526.347200
   9937   9940   9949     1   111.5100476 526.347200
   9940   9949   9958     1   107.9700462 569.024000
   9943   9955  17979     1   107.9700462 569.024000
   9946   9952  17956     1   107.9700462 569.024000
   9952  17956  17952     1   112.4800480 524.673600
   9955  17979  17975     1   112.4800480 524.673600
   9960   9961   9973     1   114.2100488 537.225600
   9960   9964   9976     1   114.2100488 537.225600
   9960   9967   9970     1   114.2100488 537.225600
   9961   9960   9964     1   109.6600471 523.836800
   9961   9960   9967     1   109.6600471 523.836800
   9961   9973   9985     1   111.5100476 526.347200
   9964   9960   9967     1   109.6600471 523.836800
   9964   9976   9982     1   111.5100476 526.347200
   9967   9970   9979     1   111.5100476 526.347200
   9970   9979   9988     1   107.9700462 569.024000
   9973   9985  18025     1   107.9700462 569.024000
   9976   9982  18002     1   107.9700462 569.024000
   9982  18002  17998     1   112.4800480 524.673600
   9985  18025  18021     1   112.4800480 524.673600
   9990   9991  10003     1   114.2100488 537.225600
   9990   9994  10006     1   114.2100488 537.225600
   9990   9997  10000     1   114.2100488 537.225600
   9991   9990   9994     1   109.6600471 523.836800
   9991   9990   9997     1   109.6600471 523.836800
   9991  10003  10015     1   111.5100476 526.347200
   9994   9990   9997     1   109.6600471 523.836800
   9994  10006  10012     1   111.5100476 526.347200
   9997  10000  10009     1   111.5100476 526.347200
  10000  10009  10018     1   107.9700462 569.024000
  10003  10015  18071     1   107.9700462 569.024000
  10006  10012  18048     1   107.9700462 569.024000
  10012  18048  18044     1   112.4800480 524.673600
  10015  18071  18067     1   112.4800480 524.673600
  10020  10021  10033     1   114.2100488 537.225600
  10020  10024  10036     1   114.2100488 537.225600
  10020  10027  10030     1   114.2100488 537.225600
  10021  10020  10024     1   109.6600471 523.836800
  10021  10020  10027     1   109.6600471 523.836800
  10021  10033  10045     1   111.5100476 526.347200
  10024  10020  10027     1   109.6600471 523.836800
  10024  10036  10042     1   111.5100476 526.347200
  10027  10030  10039     1   111.5100476 526.347200
  10030  10039  10048     1   107.9700462 569.024000
  10033  10045  18117     1   107.9700462 569.024000
  10036  10042  18094     1   107.9700462 569.024000
  10042  18094  18090     1   112.4800480 524.673600
  10045  18117  18113     1   112.4800480 524.673600
  10050  10051  10063     1   114.2100488 537.225600
  10050  10054  10066     1   114.2100488 537.225600
  10050  10057  10060     1   114.2100488 537.225600
  10051  10050  10054     1   109.6600471 523.836800
  10051  10050  10057     1   109.6600471 523.836800
  10051  10063  10075     1   111.5100476 526.347200
  10054  10050  10057     1   109.6600471 523.836800
  10054  10066  10072     1   111.5100476 526.347200
  10057  10060  10069     1   111.5100476 526.347200
  10060  10069  10078     1   107.9700462 569.024000
  10063  10075  18163     1   107.9700462 569.024000
  10066  10072  18140     1   107.9700462 569.024000
  10072  18140  18136     1   112.4800480 524.673600
  10075  18163  18159     1   112.4800480 524.673600
  10080  10081  10093     1   114.2100488 537.225600
  10080  10084  10096     1   114.2100488 537.225600
  10080  10087  10090     1   114.2100488 537.225600
  10081  10080  10084     1   109.6600471 523.836800
  10081  10080  10087     1   109.6600471 523.836800
  10081  10093  10105     1   111.5100476 526.347200
  10084  10080  10087     1   109.6600471 523.836800
  10084  10096  10102     1   111.5100476 526.347200
  10087  10090  10099     1   111.5100476 526.347200
  10090  10099  10108     1   107.9700462 569.024000
  10093  10105  18209     1   107.9700462 569.024000
  10096  10102  18186     1   107.9700462 569.024000
  10102  18186  18182     1   112.4800480 524.673600
  10105  18209  18205     1   112.4800480 524.673600
  10110  10111  10123     1   114.2100488 537.225600
  10110  10114  10126     1   114.2100488 537.225600
  10110  10117  10120     1   114.2100488 537.225600
  10111  10110  10114     1   109.6600471 523.836800
  10111  10110  10117     1   109.6600471 523.836800
  10111  10123  10135     1   111.5100476 526.347200
  10114  10110  10117     1   109.6600471 523.836800
  10114  10126  10132     1   111.5100476 526.347200
  10117  10120  10129     1   111.5100476 526.347200
  10120  10129  10138     1   107.9700462 569.024000
  10123  10135  18255     1   107.9700462 569.024000
  10126  10132  18232     1   107.9700462 569.024000
  10132  18232  18228     1   112.4800480 524.673600
  10135  18255  18251     1   112.4800480 524.673600
  10140  10141  10153     1   114.2100488 537.225600
  10140  10144  10156     1   114.2100488 537.225600
  10140  10147  10150     1   114.2100488 537.225600
  10141  10140  10144     1   109.6600471 523.836800
  10141  10140  10147     1   109.6600471 523.836800
  10141  10153  10165     1   111.5100476 526.347200
  10144  10140  10147     1   109.6600471 523.836800
  10144  10156  10162     1   111.5100476 526.347200
  10147  10150  10159     1   111.5100476 526.347200
  10150  10159  10168     1   107.9700462 569.024000
  10153  10165  18301     1   107.9700462 569.024000
  10156  10162  18278     1   107.9700462 569.024000
  10162  18278  18274     1   112.4800480 524.673600
  10165  18301  18297     1   112.4800480 524.673600
  10170  10171  10183     1   114.2100488 537.225600
  10170  10174  10186     1   114.2100488 537.225600
  10170  10177  10180     1   114.2100488 537.225600
  10171  10170  10174     1   109.6600471 523.836800
  10171  10170  10177     1   109.6600471 523.836800
  10171  10183  10195     1   111.5100476 526.347200
  10174  10170  10177     1   109.6600471 523.836800
  10174  10186  10192     1   111.5100476 526.347200
  10177  10180  10189     1   111.5100476 526.347200
  10180  10189  10198     1   107.9700462 569.024000
  10183  10195  18347     1   107.9700462 569.024000
  10186  10192  18324     1   107.9700462 569.024000
  10192  18324  18320     1   112.4800480 524.673600
  10195  18347  18343     1   112.4800480 524.673600
  10200  10201  10213     1   114.2100488 537.225600
  10200  10204  10216     1   114.2100488 537.225600
  10200  10207  10210     1   114.2100488 537.225600
  10201  10200  10204     1   109.6600471 523.836800
  10201  10200  10207     1   109.6600471 523.836800
  10201  10213  10225     1   111.5100476 526.347200
  10204  10200  10207     1   109.6600471 523.836800
  10204  10216  10222     1   111.5100476 526.347200
  10207  10210  10219     1   111.5100476 526.347200
  10210  10219  10228     1   107.9700462 569.024000
  10213  10225  18393     1   107.9700462 569.024000
  10216  10222  18370     1   107.9700462 569.024000
  10222  18370  18366     1   112.4800480 524.673600
  10225  18393  18389     1   112.4800480 524.673600
  10230  10231  10243     1   114.2100488 537.225600
  10230  10234  10246     1   114.2100488 537.225600
  10230  10237  10240     1   114.2100488 537.225600
  10231  10230  10234     1   109.6600471 523.836800
  10231  10230  10237     1   109.6600471 523.836800
  10231  10243  10255     1   111.5100476 526.347200
  10234  10230  10237     1   109.6600471 523.836800
  10234  10246  10252     1   111.5100476 526.347200
  10237  10240  10249     1   111.5100476 526.347200
  10240  10249  10258     1   107.9700462 569.024000
  10243  10255  18439     1   107.9700462 569.024000
  10246  10252  18416     1   107.9700462 569.024000
  10252  18416  18412     1   112.4800480 524.673600
  10255  18439  18435     1   112.4800480 524.673600
  10260  10261  10273     1   114.2100488 537.225600
  10260  10264  10276     1   114.2100488 537.225600
  10260  10267  10270     1   114.2100488 537.225600
  10261  10260  10264     1   109.6600471 523.836800
  10261  10260  10267     1   109.6600471 523.836800
  10261  10273  10285     1   111.5100476 526.347200
  10264  10260  10267     1   109.6600471 523.836800
  10264  10276  10282     1   111.5100476 526.347200
  10267  10270  10279     1   111.5100476 526.347200
  10270  10279  10288     1   107.9700462 569.024000
  10273  10285  18485     1   107.9700462 569.024000
  10276  10282  18462     1   107.9700462 569.024000
  10282  18462  18458     1   112.4800480 524.673600
  10285  18485  18481     1   112.4800480 524.673600
  10290  10291  10303     1   114.2100488 537.225600
  10290  10294  10306     1   114.2100488 537.225600
  10290  10297  10300     1   114.2100488 537.225600
  10291  10290  10294     1   109.6600471 523.836800
  10291  10290  10297     1   109.6600471 523.836800
  10291  10303  10315     1   111.5100476 526.347200
  10294  10290  10297     1   109.6600471 523.836800
  10294  10306  10312     1   111.5100476 526.347200
  10297  10300  10309     1   111.5100476 526.347200
  10300  10309  10318     1   107.9700462 569.024000
  10303  10315  18531     1   107.9700462 569.024000
  10306  10312  18508     1   107.9700462 569.024000
  10312  18508  18504     1   112.4800480 524.673600
  10315  18531  18527     1   112.4800480 524.673600
  10320  10321  10333     1   114.2100488 537.225600
  10320  10324  10336     1   114.2100488 537.225600
  10320  10327  10330     1   114.2100488 537.225600
  10321  10320  10324     1   109.6600471 523.836800
  10321  10320  10327     1   109.6600471 523.836800
  10321  10333  10345     1   111.5100476 526.347200
  10324  10320  10327     1   109.6600471 523.836800
  10324  10336  10342     1   111.5100476 526.347200
  10327  10330  10339     1   111.5100476 526.347200
  10330  10339  10348     1   107.9700462 569.024000
  10333  10345  18577     1   107.9700462 569.024000
  10336  10342  18554     1   107.9700462 569.024000
  10342  18554  18550     1   112.4800480 524.673600
  10345  18577  18573     1   112.4800480 524.673600
  10350  10351  10363     1   114.2100488 537.225600
  10350  10354  10366     1   114.2100488 537.225600
  10350  10357  10360     1   114.2100488 537.225600
  10351  10350  10354     1   109.6600471 523.836800
  10351  10350  10357     1   109.6600471 523.836800
  10351  10363  10375     1   111.5100476 526.347200
  10354  10350  10357     1   109.6600471 523.836800
  10354  10366  10372     1   111.5100476 526.347200
  10357  10360  10369     1   111.5100476 526.347200
  10360  10369  10378     1   107.9700462 569.024000
  10363  10375  18623     1   107.9700462 569.024000
  10366  10372  18600     1   107.9700462 569.024000
  10372  18600  18596     1   112.4800480 524.673600
  10375  18623  18619     1   112.4800480 524.673600
  10380  10381  10393     1   114.2100488 537.225600
  10380  10384  10396     1   114.2100488 537.225600
  10380  10387  10390     1   114.2100488 537.225600
  10381  10380  10384     1   109.6600471 523.836800
  10381  10380  10387     1   109.6600471 523.836800
  10381  10393  10405     1   111.5100476 526.347200
  10384  10380  10387     1   109.6600471 523.836800
  10384  10396  10402     1   111.5100476 526.347200
  10387  10390  10399     1   111.5100476 526.347200
  10390  10399  10408     1   107.9700462 569.024000
  10393  10405  18669     1   107.9700462 569.024000
  10396  10402  18646     1   107.9700462 569.024000
  10402  18646  18642     1   112.4800480 524.673600
  10405  18669  18665     1   112.4800480 524.673600
  10410  10411  10423     1   114.2100488 537.225600
  10410  10414  10426     1   114.2100488 537.225600
  10410  10417  10420     1   114.2100488 537.225600
  10411  10410  10414     1   109.6600471 523.836800
  10411  10410  10417     1   109.6600471 523.836800
  10411  10423  10435     1   111.5100476 526.347200
  10414  10410  10417     1   109.6600471 523.836800
  10414  10426  10432     1   111.5100476 526.347200
  10417  10420  10429     1   111.5100476 526.347200
  10420  10429  10438     1   107.9700462 569.024000
  10423  10435  18715     1   107.9700462 569.024000
  10426  10432  18692     1   107.9700462 569.024000
  10432  18692  18688     1   112.4800480 524.673600
  10435  18715  18711     1   112.4800480 524.673600
  10440  10441  10453     1   114.2100488 537.225600
  10440  10444  10456     1   114.2100488 537.225600
  10440  10447  10450     1   114.2100488 537.225600
  10441  10440  10444     1   109.6600471 523.836800
  10441  10440  10447     1   109.6600471 523.836800
  10441  10453  10465     1   111.5100476 526.347200
  10444  10440  10447     1   109.6600471 523.836800
  10444  10456  10462     1   111.5100476 526.347200
  10447  10450  10459     1   111.5100476 526.347200
  10450  10459  10468     1   107.9700462 569.024000
  10453  10465  18761     1   107.9700462 569.024000
  10456  10462  18738     1   107.9700462 569.024000
  10462  18738  18734     1   112.4800480 524.673600
  10465  18761  18757     1   112.4800480 524.673600
  10470  10471  10483     1   114.2100488 537.225600
  10470  10474  10486     1   114.2100488 537.225600
  10470  10477  10480     1   114.2100488 537.225600
  10471  10470  10474     1   109.6600471 523.836800
  10471  10470  10477     1   109.6600471 523.836800
  10471  10483  10495     1   111.5100476 526.347200
  10474  10470  10477     1   109.6600471 523.836800
  10474  10486  10492     1   111.5100476 526.347200
  10477  10480  10489     1   111.5100476 526.347200
  10480  10489  10498     1   107.9700462 569.024000
  10483  10495  18807     1   107.9700462 569.024000
  10486  10492  18784     1   107.9700462 569.024000
  10492  18784  18780     1   112.4800480 524.673600
  10495  18807  18803     1   112.4800480 524.673600
  10500  10501  10513     1   114.2100488 537.225600
  10500  10504  10516     1   114.2100488 537.225600
  10500  10507  10510     1   114.2100488 537.225600
  10501  10500  10504     1   109.6600471 523.836800
  10501  10500  10507     1   109.6600471 523.836800
  10501  10513  10525     1   111.5100476 526.347200
  10504  10500  10507     1   109.6600471 523.836800
  10504  10516  10522     1   111.5100476 526.347200
  10507  10510  10519     1   111.5100476 526.347200
  10510  10519  10528     1   107.9700462 569.024000
  10513  10525  18853     1   107.9700462 569.024000
  10516  10522  18830     1   107.9700462 569.024000
  10522  18830  18826     1   112.4800480 524.673600
  10525  18853  18849     1   112.4800480 524.673600
  10530  10531  10543     1   114.2100488 537.225600
  10530  10534  10546     1   114.2100488 537.225600
  10530  10537  10540     1   114.2100488 537.225600
  10531  10530  10534     1   109.6600471 523.836800
  10531  10530  10537     1   109.6600471 523.836800
  10531  10543  10555     1   111.5100476 526.347200
  10534  10530  10537     1   109.6600471 523.836800
  10534  10546  10552     1   111.5100476 526.347200
  10537  10540  10549     1   111.5100476 526.347200
  10540  10549  10558     1   107.9700462 569.024000
  10543  10555  18899     1   107.9700462 569.024000
  10546  10552  18876     1   107.9700462 569.024000
  10552  18876  18872     1   112.4800480 524.673600
  10555  18899  18895     1   112.4800480 524.673600
  10560  10561  10573     1   114.2100488 537.225600
  10560  10564  10576     1   114.2100488 537.225600
  10560  10567  10570     1   114.2100488 537.225600
  10561  10560  10564     1   109.6600471 523.836800
  10561  10560  10567     1   109.6600471 523.836800
  10561  10573  10585     1   111.5100476 526.347200
  10564  10560  10567     1   109.6600471 523.836800
  10564  10576  10582     1   111.5100476 526.347200
  10567  10570  10579     1   111.5100476 526.347200
  10570  10579  10588     1   107.9700462 569.024000
  10573  10585  18945     1   107.9700462 569.024000
  10576  10582  18922     1   107.9700462 569.024000
  10582  18922  18918     1   112.4800480 524.673600
  10585  18945  18941     1   112.4800480 524.673600
  10590  10591  10603     1   114.2100488 537.225600
  10590  10594  10606     1   114.2100488 537.225600
  10590  10597  10600     1   114.2100488 537.225600
  10591  10590  10594     1   109.6600471 523.836800
  10591  10590  10597     1   109.6600471 523.836800
  10591  10603  10615     1   111.5100476 526.347200
  10594  10590  10597     1   109.6600471 523.836800
  10594  10606  10612     1   111.5100476 526.347200
  10597  10600  10609     1   111.5100476 526.347200
  10600  10609  10618     1   107.9700462 569.024000
  10603  10615  18991     1   107.9700462 569.024000
  10606  10612  18968     1   107.9700462 569.024000
  10612  18968  18964     1   112.4800480 524.673600
  10615  18991  18987     1   112.4800480 524.673600
  10620  10621  10633     1   114.2100488 537.225600
  10620  10624  10636     1   114.2100488 537.225600
  10620  10627  10630     1   114.2100488 537.225600
  10621  10620  10624     1   109.6600471 523.836800
  10621  10620  10627     1   109.6600471 523.836800
  10621  10633  10645     1   111.5100476 526.347200
  10624  10620  10627     1   109.6600471 523.836800
  10624  10636  10642     1   111.5100476 526.347200
  10627  10630  10639     1   111.5100476 526.347200
  10630  10639  10648     1   107.9700462 569.024000
  10633  10645  19037     1   107.9700462 569.024000
  10636  10642  19014     1   107.9700462 569.024000
  10642  19014  19010     1   112.4800480 524.673600
  10645  19037  19033     1   112.4800480 524.673600
  10650  10651  10663     1   114.2100488 537.225600
  10650  10654  10666     1   114.2100488 537.225600
  10650  10657  10660     1   114.2100488 537.225600
  10651  10650  10654     1   109.6600471 523.836800
  10651  10650  10657     1   109.6600471 523.836800
  10651  10663  10675     1   111.5100476 526.347200
  10654  10650  10657     1   109.6600471 523.836800
  10654  10666  10672     1   111.5100476 526.347200
  10657  10660  10669     1   111.5100476 526.347200
  10660  10669  10678     1   107.9700462 569.024000
  10663  10675  19083     1   107.9700462 569.024000
  10666  10672  19060     1   107.9700462 569.024000
  10672  19060  19056     1   112.4800480 524.673600
  10675  19083  19079     1   112.4800480 524.673600
  10680  10681  10693     1   114.2100488 537.225600
  10680  10684  10696     1   114.2100488 537.225600
  10680  10687  10690     1   114.2100488 537.225600
  10681  10680  10684     1   109.6600471 523.836800
  10681  10680  10687     1   109.6600471 523.836800
  10681  10693  10705     1   111.5100476 526.347200
  10684  10680  10687     1   109.6600471 523.836800
  10684  10696  10702     1   111.5100476 526.347200
  10687  10690  10699     1   111.5100476 526.347200
  10690  10699  10708     1   107.9700462 569.024000
  10693  10705  19129     1   107.9700462 569.024000
  10696  10702  19106     1   107.9700462 569.024000
  10702  19106  19102     1   112.4800480 524.673600
  10705  19129  19125     1   112.4800480 524.673600
  10710  10711  10723     1   114.2100488 537.225600
  10710  10714  10726     1   114.2100488 537.225600
  10710  10717  10720     1   114.2100488 537.225600
  10711  10710  10714     1   109.6600471 523.836800
  10711  10710  10717     1   109.6600471 523.836800
  10711  10723  10735     1   111.5100476 526.347200
  10714  10710  10717     1   109.6600471 523.836800
  10714  10726  10732     1   111.5100476 526.347200
  10717  10720  10729     1   111.5100476 526.347200
  10720  10729  10738     1   107.9700462 569.024000
  10723  10735  19175     1   107.9700462 569.024000
  10726  10732  19152     1   107.9700462 569.024000
  10732  19152  19148     1   112.4800480 524.673600
  10735  19175  19171     1   112.4800480 524.673600
  10740  10741  10753     1   114.2100488 537.225600
  10740  10744  10756     1   114.2100488 537.225600
  10740  10747  10750     1   114.2100488 537.225600
  10741  10740  10744     1   109.6600471 523.836800
  10741  10740  10747     1   109.6600471 523.836800
  10741  10753  10765     1   111.5100476 526.347200
  10744  10740  10747     1   109.6600471 523.836800
  10744  10756  10762     1   111.5100476 526.347200
  10747  10750  10759     1   111.5100476 526.347200
  10750  10759  10768     1   107.9700462 569.024000
  10753  10765  19221     1   107.9700462 569.024000
  10756  10762  19198     1   107.9700462 569.024000
  10762  19198  19194     1   112.4800480 524.673600
  10765  19221  19217     1   112.4800480 524.673600
  10770  10771  10783     1   114.2100488 537.225600
  10770  10774  10786     1   114.2100488 537.225600
  10770  10777  10780     1   114.2100488 537.225600
  10771  10770  10774     1   109.6600471 523.836800
  10771  10770  10777     1   109.6600471 523.836800
  10771  10783  10795     1   111.5100476 526.347200
  10774  10770  10777     1   109.6600471 523.836800
  10774  10786  10792     1   111.5100476 526.347200
  10777  10780  10789     1   111.5100476 526.347200
  10780  10789  10798     1   107.9700462 569.024000
  10783  10795  19267     1   107.9700462 569.024000
  10786  10792  19244     1   107.9700462 569.024000
  10792  19244  19240     1   112.4800480 524.673600
  10795  19267  19263     1   112.4800480 524.673600
  10800  10801  10813     1   114.2100488 537.225600
  10800  10804  10816     1   114.2100488 537.225600
  10800  10807  10810     1   114.2100488 537.225600
  10801  10800  10804     1   109.6600471 523.836800
  10801  10800  10807     1   109.6600471 523.836800
  10801  10813  10825     1   111.5100476 526.347200
  10804  10800  10807     1   109.6600471 523.836800
  10804  10816  10822     1   111.5100476 526.347200
  10807  10810  10819     1   111.5100476 526.347200
  10810  10819  10828     1   107.9700462 569.024000
  10813  10825  19313     1   107.9700462 569.024000
  10816  10822  19290     1   107.9700462 569.024000
  10822  19290  19286     1   112.4800480 524.673600
  10825  19313  19309     1   112.4800480 524.673600
  10830  10831  10843     1   114.2100488 537.225600
  10830  10834  10846     1   114.2100488 537.225600
  10830  10837  10840     1   114.2100488 537.225600
  10831  10830  10834     1   109.6600471 523.836800
  10831  10830  10837     1   109.6600471 523.836800
  10831  10843  10855     1   111.5100476 526.347200
  10834  10830  10837     1   109.6600471 523.836800
  10834  10846  10852     1   111.5100476 526.347200
  10837  10840  10849     1   111.5100476 526.347200
  10840  10849  10858     1   107.9700462 569.024000
  10843  10855  19359     1   107.9700462 569.024000
  10846  10852  19336     1   107.9700462 569.024000
  10852  19336  19332     1   112.4800480 524.673600
  10855  19359  19355     1   112.4800480 524.673600
  10860  10861  10873     1   114.2100488 537.225600
  10860  10864  10876     1   114.2100488 537.225600
  10860  10867  10870     1   114.2100488 537.225600
  10861  10860  10864     1   109.6600471 523.836800
  10861  10860  10867     1   109.6600471 523.836800
  10861  10873  10885     1   111.5100476 526.347200
  10864  10860  10867     1   109.6600471 523.836800
  10864  10876  10882     1   111.5100476 526.347200
  10867  10870  10879     1   111.5100476 526.347200
  10870  10879  10888     1   107.9700462 569.024000
  10873  10885  19405     1   107.9700462 569.024000
  10876  10882  19382     1   107.9700462 569.024000
  10882  19382  19378     1   112.4800480 524.673600
  10885  19405  19401     1   112.4800480 524.673600
  10890  10891  10903     1   114.2100488 537.225600
  10890  10894  10906     1   114.2100488 537.225600
  10890  10897  10900     1   114.2100488 537.225600
  10891  10890  10894     1   109.6600471 523.836800
  10891  10890  10897     1   109.6600471 523.836800
  10891  10903  10915     1   111.5100476 526.347200
  10894  10890  10897     1   109.6600471 523.836800
  10894  10906  10912     1   111.5100476 526.347200
  10897  10900  10909     1   111.5100476 526.347200
  10900  10909  10918     1   107.9700462 569.024000
  10903  10915  19451     1   107.9700462 569.024000
  10906  10912  19428     1   107.9700462 569.024000
  10912  19428  19424     1   112.4800480 524.673600
  10915  19451  19447     1   112.4800480 524.673600
  10920  10921  10933     1   114.2100488 537.225600
  10920  10924  10936     1   114.2100488 537.225600
  10920  10927  10930     1   114.2100488 537.225600
  10921  10920  10924     1   109.6600471 523.836800
  10921  10920  10927     1   109.6600471 523.836800
  10921  10933  10945     1   111.5100476 526.347200
  10924  10920  10927     1   109.6600471 523.836800
  10924  10936  10942     1   111.5100476 526.347200
  10927  10930  10939     1   111.5100476 526.347200
  10930  10939  10948     1   107.9700462 569.024000
  10933  10945  19497     1   107.9700462 569.024000
  10936  10942  19474     1   107.9700462 569.024000
  10942  19474  19470     1   112.4800480 524.673600
  10945  19497  19493     1   112.4800480 524.673600
  10950  10951  10963     1   114.2100488 537.225600
  10950  10954  10966     1   114.2100488 537.225600
  10950  10957  10960     1   114.2100488 537.225600
  10951  10950  10954     1   109.6600471 523.836800
  10951  10950  10957     1   109.6600471 523.836800
  10951  10963  10975     1   111.5100476 526.347200
  10954  10950  10957     1   109.6600471 523.836800
  10954  10966  10972     1   111.5100476 526.347200
  10957  10960  10969     1   111.5100476 526.347200
  10960  10969  10978     1   107.9700462 569.024000
  10963  10975  19543     1   107.9700462 569.024000
  10966  10972  19520     1   107.9700462 569.024000
  10972  19520  19516     1   112.4800480 524.673600
  10975  19543  19539     1   112.4800480 524.673600
  10980  10981  10993     1   114.2100488 537.225600
  10980  10984  10996     1   114.2100488 537.225600
  10980  10987  10990     1   114.2100488 537.225600
  10981  10980  10984     1   109.6600471 523.836800
  10981  10980  10987     1   109.6600471 523.836800
  10981  10993  11005     1   111.5100476 526.347200
  10984  10980  10987     1   109.6600471 523.836800
  10984  10996  11002     1   111.5100476 526.347200
  10987  10990  10999     1   111.5100476 526.347200
  10990  10999  11008     1   107.9700462 569.024000
  10993  11005  19589     1   107.9700462 569.024000
  10996  11002  19566     1   107.9700462 569.024000
  11002  19566  19562     1   112.4800480 524.673600
  11005  19589  19585     1   112.4800480 524.673600
  11010  11011  11023     1   114.2100488 537.225600
  11010  11014  11026     1   114.2100488 537.225600
  11010  11017  11020     1   114.2100488 537.225600
  11011  11010  11014     1   109.6600471 523.836800
  11011  11010  11017     1   109.6600471 523.836800
  11011  11023  11035     1   111.5100476 526.347200
  11014  11010  11017     1   109.6600471 523.836800
  11014  11026  11032     1   111.5100476 526.347200
  11017  11020  11029     1   111.5100476 526.347200
  11020  11029  11038     1   107.9700462 569.024000
  11023  11035  19635     1   107.9700462 569.024000
  11026  11032  19612     1   107.9700462 569.024000
  11032  19612  19608     1   112.4800480 524.673600
  11035  19635  19631     1   112.4800480 524.673600
  11040  11041  11053     1   114.2100488 537.225600
  11040  11044  11056     1   114.2100488 537.225600
  11040  11047  11050     1   114.2100488 537.225600
  11041  11040  11044     1   109.6600471 523.836800
  11041  11040  11047     1   109.6600471 523.836800
  11041  11053  11065     1   111.5100476 526.347200
  11044  11040  11047     1   109.6600471 523.836800
  11044  11056  11062     1   111.5100476 526.347200
  11047  11050  11059     1   111.5100476 526.347200
  11050  11059  11068     1   107.9700462 569.024000
  11053  11065  19681     1   107.9700462 569.024000
  11056  11062  19658     1   107.9700462 569.024000
  11062  19658  19654     1   112.4800480 524.673600
  11065  19681  19677     1   112.4800480 524.673600
  11070  11071  11083     1   114.2100488 537.225600
  11070  11074  11086     1   114.2100488 537.225600
  11070  11077  11080     1   114.2100488 537.225600
  11071  11070  11074     1   109.6600471 523.836800
  11071  11070  11077     1   109.6600471 523.836800
  11071  11083  11095     1   111.5100476 526.347200
  11074  11070  11077     1   109.6600471 523.836800
  11074  11086  11092     1   111.5100476 526.347200
  11077  11080  11089     1   111.5100476 526.347200
  11080  11089  11098     1   107.9700462 569.024000
  11083  11095  19727     1   107.9700462 569.024000
  11086  11092  19704     1   107.9700462 569.024000
  11092  19704  19700     1   112.4800480 524.673600
  11095  19727  19723     1   112.4800480 524.673600
  11100  11101  11113     1   114.2100488 537.225600
  11100  11104  11116     1   114.2100488 537.225600
  11100  11107  11110     1   114.2100488 537.225600
  11101  11100  11104     1   109.6600471 523.836800
  11101  11100  11107     1   109.6600471 523.836800
  11101  11113  11125     1   111.5100476 526.347200
  11104  11100  11107     1   109.6600471 523.836800
  11104  11116  11122     1   111.5100476 526.347200
  11107  11110  11119     1   111.5100476 526.347200
  11110  11119  11128     1   107.9700462 569.024000
  11113  11125  19773     1   107.9700462 569.024000
  11116  11122  19750     1   107.9700462 569.024000
  11122  19750  19746     1   112.4800480 524.673600
  11125  19773  19769     1   112.4800480 524.673600
  11130  11131  11143     1   114.2100488 537.225600
  11130  11134  11146     1   114.2100488 537.225600
  11130  11137  11140     1   114.2100488 537.225600
  11131  11130  11134     1   109.6600471 523.836800
  11131  11130  11137     1   109.6600471 523.836800
  11131  11143  11155     1   111.5100476 526.347200
  11134  11130  11137     1   109.6600471 523.836800
  11134  11146  11152     1   111.5100476 526.347200
  11137  11140  11149     1   111.5100476 526.347200
  11140  11149  11158     1   107.9700462 569.024000
  11143  11155  19819     1   107.9700462 569.024000
  11146  11152  19796     1   107.9700462 569.024000
  11152  19796  19792     1   112.4800480 524.673600
  11155  19819  19815     1   112.4800480 524.673600
  11160  11161  11173     1   114.2100488 537.225600
  11160  11164  11176     1   114.2100488 537.225600
  11160  11167  11170     1   114.2100488 537.225600
  11161  11160  11164     1   109.6600471 523.836800
  11161  11160  11167     1   109.6600471 523.836800
  11161  11173  11185     1   111.5100476 526.347200
  11164  11160  11167     1   109.6600471 523.836800
  11164  11176  11182     1   111.5100476 526.347200
  11167  11170  11179     1   111.5100476 526.347200
  11170  11179  11188     1   107.9700462 569.024000
  11173  11185  19865     1   107.9700462 569.024000
  11176  11182  19842     1   107.9700462 569.024000
  11182  19842  19838     1   112.4800480 524.673600
  11185  19865  19861     1   112.4800480 524.673600
  11190  11191  11203     1   114.2100488 537.225600
  11190  11194  11206     1   114.2100488 537.225600
  11190  11197  11200     1   114.2100488 537.225600
  11191  11190  11194     1   109.6600471 523.836800
  11191  11190  11197     1   109.6600471 523.836800
  11191  11203  11215     1   111.5100476 526.347200
  11194  11190  11197     1   109.6600471 523.836800
  11194  11206  11212     1   111.5100476 526.347200
  11197  11200  11209     1   111.5100476 526.347200
  11200  11209  11218     1   107.9700462 569.024000
  11203  11215  19911     1   107.9700462 569.024000
  11206  11212  19888     1   107.9700462 569.024000
  11212  19888  19884     1   112.4800480 524.673600
  11215  19911  19907     1   112.4800480 524.673600
  11220  11221  11233     1   114.2100488 537.225600
  11220  11224  11236     1   114.2100488 537.225600
  11220  11227  11230     1   114.2100488 537.225600
  11221  11220  11224     1   109.6600471 523.836800
  11221  11220  11227     1   109.6600471 523.836800
  11221  11233  11245     1   111.5100476 526.347200
  11224  11220  11227     1   109.6600471 523.836800
  11224  11236  11242     1   111.5100476 526.347200
  11227  11230  11239     1   111.5100476 526.347200
  11230  11239  11248     1   107.9700462 569.024000
  11233  11245  19957     1   107.9700462 569.024000
  11236  11242  19934     1   107.9700462 569.024000
  11242  19934  19930     1   112.4800480 524.673600
  11245  19957  19953     1   112.4800480 524.673600
  11250  11251  11263     1   114.2100488 537.225600
  11250  11254  11266     1   114.2100488 537.225600
  11250  11257  11260     1   114.2100488 537.225600
  11251  11250  11254     1   109.6600471 523.836800
  11251  11250  11257     1   109.6600471 523.836800
  11251  11263  11275     1   111.5100476 526.347200
  11254  11250  11257     1   109.6600471 523.836800
  11254  11266  11272     1   111.5100476 526.347200
  11257  11260  11269     1   111.5100476 526.347200
  11260  11269  11278     1   107.9700462 569.024000
  11263  11275  20003     1   107.9700462 569.024000
  11266  11272  19980     1   107.9700462 569.024000
  11272  19980  19976     1   112.4800480 524.673600
  11275  20003  19999     1   112.4800480 524.673600
  11280  11281  11293     1   114.2100488 537.225600
  11280  11284  11296     1   114.2100488 537.225600
  11280  11287  11290     1   114.2100488 537.225600
  11281  11280  11284     1   109.6600471 523.836800
  11281  11280  11287     1   109.6600471 523.836800
  11281  11293  11305     1   111.5100476 526.347200
  11284  11280  11287     1   109.6600471 523.836800
  11284  11296  11302     1   111.5100476 526.347200
  11287  11290  11299     1   111.5100476 526.347200
  11290  11299  11308     1   107.9700462 569.024000
  11293  11305  20049     1   107.9700462 569.024000
  11296  11302  20026     1   107.9700462 569.024000
  11302  20026  20022     1   112.4800480 524.673600
  11305  20049  20045     1   112.4800480 524.673600
  11310  11311  11323     1   114.2100488 537.225600
  11310  11314  11326     1   114.2100488 537.225600
  11310  11317  11320     1   114.2100488 537.225600
  11311  11310  11314     1   109.6600471 523.836800
  11311  11310  11317     1   109.6600471 523.836800
  11311  11323  11335     1   111.5100476 526.347200
  11314  11310  11317     1   109.6600471 523.836800
  11314  11326  11332     1   111.5100476 526.347200
  11317  11320  11329     1   111.5100476 526.347200
  11320  11329  11338     1   107.9700462 569.024000
  11323  11335  20095     1   107.9700462 569.024000
  11326  11332  20072     1   107.9700462 569.024000
  11332  20072  20068     1   112.4800480 524.673600
  11335  20095  20091     1   112.4800480 524.673600
  11340  11341  11353     1   114.2100488 537.225600
  11340  11344  11356     1   114.2100488 537.225600
  11340  11347  11350     1   114.2100488 537.225600
  11341  11340  11344     1   109.6600471 523.836800
  11341  11340  11347     1   109.6600471 523.836800
  11341  11353  11365     1   111.5100476 526.347200
  11344  11340  11347     1   109.6600471 523.836800
  11344  11356  11362     1   111.5100476 526.347200
  11347  11350  11359     1   111.5100476 526.347200
  11350  11359  11368     1   107.9700462 569.024000
  11353  11365  20141     1   107.9700462 569.024000
  11356  11362  20118     1   107.9700462 569.024000
  11362  20118  20114     1   112.4800480 524.673600
  11365  20141  20137     1   112.4800480 524.673600
  11370  11371  11383     1   114.2100488 537.225600
  11370  11374  11386     1   114.2100488 537.225600
  11370  11377  11380     1   114.2100488 537.225600
  11371  11370  11374     1   109.6600471 523.836800
  11371  11370  11377     1   109.6600471 523.836800
  11371  11383  11395     1   111.5100476 526.347200
  11374  11370  11377     1   109.6600471 523.836800
  11374  11386  11392     1   111.5100476 526.347200
  11377  11380  11389     1   111.5100476 526.347200
  11380  11389  11398     1   107.9700462 569.024000
  11383  11395  20187     1   107.9700462 569.024000
  11386  11392  20164     1   107.9700462 569.024000
  11392  20164  20160     1   112.4800480 524.673600
  11395  20187  20183     1   112.4800480 524.673600
  11400  11401  11413     1   114.2100488 537.225600
  11400  11404  11416     1   114.2100488 537.225600
  11400  11407  11410     1   114.2100488 537.225600
  11401  11400  11404     1   109.6600471 523.836800
  11401  11400  11407     1   109.6600471 523.836800
  11401  11413  11425     1   111.5100476 526.347200
  11404  11400  11407     1   109.6600471 523.836800
  11404  11416  11422     1   111.5100476 526.347200
  11407  11410  11419     1   111.5100476 526.347200
  11410  11419  11428     1   107.9700462 569.024000
  11413  11425  20233     1   107.9700462 569.024000
  11416  11422  20210     1   107.9700462 569.024000
  11422  20210  20206     1   112.4800480 524.673600
  11425  20233  20229     1   112.4800480 524.673600
  11430  11431  11443     1   114.2100488 537.225600
  11430  11434  11446     1   114.2100488 537.225600
  11430  11437  11440     1   114.2100488 537.225600
  11431  11430  11434     1   109.6600471 523.836800
  11431  11430  11437     1   109.6600471 523.836800
  11431  11443  11455     1   111.5100476 526.347200
  11434  11430  11437     1   109.6600471 523.836800
  11434  11446  11452     1   111.5100476 526.347200
  11437  11440  11449     1   111.5100476 526.347200
  11440  11449  11458     1   107.9700462 569.024000
  11443  11455  20279     1   107.9700462 569.024000
  11446  11452  20256     1   107.9700462 569.024000
  11452  20256  20252     1   112.4800480 524.673600
  11455  20279  20275     1   112.4800480 524.673600
  11460  11461  11464     1   111.5100476 526.347200
  11460  11461  11473     1   110.1900474 564.840000
  11460  11474  11480     1   110.1900474 564.840000
  11460  11482  11466     1   112.4800480 524.673600
  11461  11460  11474     1   111.5100476 526.347200
  11461  11460  11482     1   107.9700462 569.024000
  11461  11464  11465     1   111.5100476 526.347200
  11461  11464  11472     1   110.1900474 564.840000
  11464  11461  11473     1   110.1900474 564.840000
  11464  11465  11466     1   111.5100476 526.347200
  11464  11465  11471     1   110.1900474 564.840000
  11465  11464  11472     1   110.1900474 564.840000
  11465  11466  11470     1   107.9700462 569.024000
  11465  11466  11482     1   107.9700462 569.024000
  11466  11465  11471     1   110.1900474 564.840000
  11470  11466  11482     1   108.2900466 608.353600
  11474  11460  11482     1   107.9700462 569.024000
  11483  11484  11487     1   111.5100476 526.347200
  11483  11484  11496     1   110.1900474 564.840000
  11483  11497  11503     1   110.1900474 564.840000
  11483  11505  11489     1   112.4800480 524.673600
  11484  11487  11488     1   111.5100476 526.347200
  11484  11487  11495     1   110.1900474 564.840000
  11484  11483  11497     1   111.5100476 526.347200
  11484  11483  11505     1   107.9700462 569.024000
  11487  11488  11489     1   111.5100476 526.347200
  11487  11488  11494     1   110.1900474 564.840000
  11487  11484  11496     1   110.1900474 564.840000
  11488  11489  11493     1   107.9700462 569.024000
  11488  11489  11505     1   107.9700462 569.024000
  11488  11487  11495     1   110.1900474 564.840000
  11489  11488  11494     1   110.1900474 564.840000
  11493  11489  11505     1   108.2900466 608.353600
  11497  11483  11505     1   107.9700462 569.024000
  11506  11507  11510     1   111.5100476 526.347200
  11506  11507  11519     1   110.1900474 564.840000
  11506  11520  11526     1   110.1900474 564.840000
  11506  11528  11512     1   112.4800480 524.673600
  11507  11506  11520     1   111.5100476 526.347200
  11507  11506  11528     1   107.9700462 569.024000
  11507  11510  11511     1   111.5100476 526.347200
  11507  11510  11518     1   110.1900474 564.840000
  11510  11507  11519     1   110.1900474 564.840000
  11510  11511  11512     1   111.5100476 526.347200
  11510  11511  11517     1   110.1900474 564.840000
  11511  11510  11518     1   110.1900474 564.840000
  11511  11512  11516     1   107.9700462 569.024000
  11511  11512  11528     1   107.9700462 569.024000
  11512  11511  11517     1   110.1900474 564.840000
  11516  11512  11528     1   108.2900466 608.353600
  11520  11506  11528     1   107.9700462 569.024000
  11529  11530  11533     1   111.5100476 526.347200
  11529  11530  11542     1   110.1900474 564.840000
  11529  11543  11549     1   110.1900474 564.840000
  11529  11551  11535     1   112.4800480 524.673600
  11530  11533  11534     1   111.5100476 526.347200
  11530  11533  11541     1   110.1900474 564.840000
  11530  11529  11543     1   111.5100476 526.347200
  11530  11529  11551     1   107.9700462 569.024000
  11533  11534  11535     1   111.5100476 526.347200
  11533  11534  11540     1   110.1900474 564.840000
  11533  11530  11542     1   110.1900474 564.840000
  11534  11535  11539     1   107.9700462 569.024000
  11534  11535  11551     1   107.9700462 569.024000
  11534  11533  11541     1   110.1900474 564.840000
  11535  11534  11540     1   110.1900474 564.840000
  11539  11535  11551     1   108.2900466 608.353600
  11543  11529  11551     1   107.9700462 569.024000
  11552  11553  11556     1   111.5100476 526.347200
  11552  11553  11565     1   110.1900474 564.840000
  11552  11566  11572     1   110.1900474 564.840000
  11552  11574  11558     1   112.4800480 524.673600
  11553  11552  11566     1   111.5100476 526.347200
  11553  11552  11574     1   107.9700462 569.024000
  11553  11556  11557     1   111.5100476 526.347200
  11553  11556  11564     1   110.1900474 564.840000
  11556  11553  11565     1   110.1900474 564.840000
  11556  11557  11558     1   111.5100476 526.347200
  11556  11557  11563     1   110.1900474 564.840000
  11557  11556  11564     1   110.1900474 564.840000
  11557  11558  11562     1   107.9700462 569.024000
  11557  11558  11574     1   107.9700462 569.024000
  11558  11557  11563     1   110.1900474 564.840000
  11562  11558  11574     1   108.2900466 608.353600
  11566  11552  11574     1   107.9700462 569.024000
  11575  11576  11579     1   111.5100476 526.347200
  11575  11576  11588     1   110.1900474 564.840000
  11575  11589  11595     1   110.1900474 564.840000
  11575  11597  11581     1   112.4800480 524.673600
  11576  11579  11580     1   111.5100476 526.347200
  11576  11579  11587     1   110.1900474 564.840000
  11576  11575  11589     1   111.5100476 526.347200
  11576  11575  11597     1   107.9700462 569.024000
  11579  11580  11581     1   111.5100476 526.347200
  11579  11580  11586     1   110.1900474 564.840000
  11579  11576  11588     1   110.1900474 564.840000
  11580  11581  11585     1   107.9700462 569.024000
  11580  11581  11597     1   107.9700462 569.024000
  11580  11579  11587     1   110.1900474 564.840000
  11581  11580  11586     1   110.1900474 564.840000
  11585  11581  11597     1   108.2900466 608.353600
  11589  11575  11597     1   107.9700462 569.024000
  11598  11599  11602     1   111.5100476 526.347200
  11598  11599  11611     1   110.1900474 564.840000
  11598  11612  11618     1   110.1900474 564.840000
  11598  11620  11604     1   112.4800480 524.673600
  11599  11598  11612     1   111.5100476 526.347200
  11599  11598  11620     1   107.9700462 569.024000
  11599  11602  11603     1   111.5100476 526.347200
  11599  11602  11610     1   110.1900474 564.840000
  11602  11599  11611     1   110.1900474 564.840000
  11602  11603  11604     1   111.5100476 526.347200
  11602  11603  11609     1   110.1900474 564.840000
  11603  11602  11610     1   110.1900474 564.840000
  11603  11604  11608     1   107.9700462 569.024000
  11603  11604  11620     1   107.9700462 569.024000
  11604  11603  11609     1   110.1900474 564.840000
  11608  11604  11620     1   108.2900466 608.353600
  11612  11598  11620     1   107.9700462 569.024000
  11621  11622  11625     1   111.5100476 526.347200
  11621  11622  11634     1   110.1900474 564.840000
  11621  11635  11641     1   110.1900474 564.840000
  11621  11643  11627     1   112.4800480 524.673600
  11622  11625  11626     1   111.5100476 526.347200
  11622  11625  11633     1   110.1900474 564.840000
  11622  11621  11635     1   111.5100476 526.347200
  11622  11621  11643     1   107.9700462 569.024000
  11625  11626  11627     1   111.5100476 526.347200
  11625  11626  11632     1   110.1900474 564.840000
  11625  11622  11634     1   110.1900474 564.840000
  11626  11627  11631     1   107.9700462 569.024000
  11626  11627  11643     1   107.9700462 569.024000
  11626  11625  11633     1   110.1900474 564.840000
  11627  11626  11632     1   110.1900474 564.840000
  11631  11627  11643     1   108.2900466 608.353600
  11635  11621  11643     1   107.9700462 569.024000
  11644  11645  11648     1   111.5100476 526.347200
  11644  11645  11657     1   110.1900474 564.840000
  11644  11658  11664     1   110.1900474 564.840000
  11644  11666  11650     1   112.4800480 524.673600
  11645  11644  11658     1   111.5100476 526.347200
  11645  11644  11666     1   107.9700462 569.024000
  11645  11648  11649     1   111.5100476 526.347200
  11645  11648  11656     1   110.1900474 564.840000
  11648  11645  11657     1   110.1900474 564.840000
  11648  11649  11650     1   111.5100476 526.347200
  11648  11649  11655     1   110.1900474 564.840000
  11649  11648  11656     1   110.1900474 564.840000
  11649  11650  11654     1   107.9700462 569.024000
  11649  11650  11666     1   107.9700462 569.024000
  11650  11649  11655     1   110.1900474 564.840000
  11654  11650  11666     1   108.2900466 608.353600
  11658  11644  11666     1   107.9700462 569.024000
  11667  11668  11671     1   111.5100476 526.347200
  11667  11668  11680     1   110.1900474 564.840000
  11667  11681  11687     1   110.1900474 564.840000
  11667  11689  11673     1   112.4800480 524.673600
  11668  11671  11672     1   111.5100476 526.347200
  11668  11671  11679     1   110.1900474 564.840000
  11668  11667  11681     1   111.5100476 526.347200
  11668  11667  11689     1   107.9700462 569.024000
  11671  11672  11673     1   111.5100476 526.347200
  11671  11672  11678     1   110.1900474 564.840000
  11671  11668  11680     1   110.1900474 564.840000
  11672  11673  11677     1   107.9700462 569.024000
  11672  11673  11689     1   107.9700462 569.024000
  11672  11671  11679     1   110.1900474 564.840000
  11673  11672  11678     1   110.1900474 564.840000
  11677  11673  11689     1   108.2900466 608.353600
  11681  11667  11689     1   107.9700462 569.024000
  11690  11691  11694     1   111.5100476 526.347200
  11690  11691  11703     1   110.1900474 564.840000
  11690  11704  11710     1   110.1900474 564.840000
  11690  11712  11696     1   112.4800480 524.673600
  11691  11690  11704     1   111.5100476 526.347200
  11691  11690  11712     1   107.9700462 569.024000
  11691  11694  11695     1   111.5100476 526.347200
  11691  11694  11702     1   110.1900474 564.840000
  11694  11691  11703     1   110.1900474 564.840000
  11694  11695  11696     1   111.5100476 526.347200
  11694  11695  11701     1   110.1900474 564.840000
  11695  11694  11702     1   110.1900474 564.840000
  11695  11696  11700     1   107.9700462 569.024000
  11695  11696  11712     1   107.9700462 569.024000
  11696  11695  11701     1   110.1900474 564.840000
  11700  11696  11712     1   108.2900466 608.353600
  11704  11690  11712     1   107.9700462 569.024000
  11713  11714  11717     1   111.5100476 526.347200
  11713  11714  11726     1   110.1900474 564.840000
  11713  11727  11733     1   110.1900474 564.840000
  11713  11735  11719     1   112.4800480 524.673600
  11714  11717  11718     1   111.5100476 526.347200
  11714  11717  11725     1   110.1900474 564.840000
  11714  11713  11727     1   111.5100476 526.347200
  11714  11713  11735     1   107.9700462 569.024000
  11717  11718  11719     1   111.5100476 526.347200
  11717  11718  11724     1   110.1900474 564.840000
  11717  11714  11726     1   110.1900474 564.840000
  11718  11719  11723     1   107.9700462 569.024000
  11718  11719  11735     1   107.9700462 569.024000
  11718  11717  11725     1   110.1900474 564.840000
  11719  11718  11724     1   110.1900474 564.840000
  11723  11719  11735     1   108.2900466 608.353600
  11727  11713  11735     1   107.9700462 569.024000
  11736  11737  11740     1   111.5100476 526.347200
  11736  11737  11749     1   110.1900474 564.840000
  11736  11750  11756     1   110.1900474 564.840000
  11736  11758  11742     1   112.4800480 524.673600
  11737  11736  11750     1   111.5100476 526.347200
  11737  11736  11758     1   107.9700462 569.024000
  11737  11740  11741     1   111.5100476 526.347200
  11737  11740  11748     1   110.1900474 564.840000
  11740  11737  11749     1   110.1900474 564.840000
  11740  11741  11742     1   111.5100476 526.347200
  11740  11741  11747     1   110.1900474 564.840000
  11741  11740  11748     1   110.1900474 564.840000
  11741  11742  11746     1   107.9700462 569.024000
  11741  11742  11758     1   107.9700462 569.024000
  11742  11741  11747     1   110.1900474 564.840000
  11746  11742  11758     1   108.2900466 608.353600
  11750  11736  11758     1   107.9700462 569.024000
  11759  11760  11763     1   111.5100476 526.347200
  11759  11760  11772     1   110.1900474 564.840000
  11759  11773  11779     1   110.1900474 564.840000
  11759  11781  11765     1   112.4800480 524.673600
  11760  11763  11764     1   111.5100476 526.347200
  11760  11763  11771     1   110.1900474 564.840000
  11760  11759  11773     1   111.5100476 526.347200
  11760  11759  11781     1   107.9700462 569.024000
  11763  11764  11765     1   111.5100476 526.347200
  11763  11764  11770     1   110.1900474 564.840000
  11763  11760  11772     1   110.1900474 564.840000
  11764  11765  11769     1   107.9700462 569.024000
  11764  11765  11781     1   107.9700462 569.024000
  11764  11763  11771     1   110.1900474 564.840000
  11765  11764  11770     1   110.1900474 564.840000
  11769  11765  11781     1   108.2900466 608.353600
  11773  11759  11781     1   107.9700462 569.024000
  11782  11783  11786     1   111.5100476 526.347200
  11782  11783  11795     1   110.1900474 564.840000
  11782  11796  11802     1   110.1900474 564.840000
  11782  11804  11788     1   112.4800480 524.673600
  11783  11782  11796     1   111.5100476 526.347200
  11783  11782  11804     1   107.9700462 569.024000
  11783  11786  11787     1   111.5100476 526.347200
  11783  11786  11794     1   110.1900474 564.840000
  11786  11783  11795     1   110.1900474 564.840000
  11786  11787  11788     1   111.5100476 526.347200
  11786  11787  11793     1   110.1900474 564.840000
  11787  11786  11794     1   110.1900474 564.840000
  11787  11788  11792     1   107.9700462 569.024000
  11787  11788  11804     1   107.9700462 569.024000
  11788  11787  11793     1   110.1900474 564.840000
  11792  11788  11804     1   108.2900466 608.353600
  11796  11782  11804     1   107.9700462 569.024000
  11805  11806  11809     1   111.5100476 526.347200
  11805  11806  11818     1   110.1900474 564.840000
  11805  11819  11825     1   110.1900474 564.840000
  11805  11827  11811     1   112.4800480 524.673600
  11806  11809  11810     1   111.5100476 526.347200
  11806  11809  11817     1   110.1900474 564.840000
  11806  11805  11819     1   111.5100476 526.347200
  11806  11805  11827     1   107.9700462 569.024000
  11809  11810  11811     1   111.5100476 526.347200
  11809  11810  11816     1   110.1900474 564.840000
  11809  11806  11818     1   110.1900474 564.840000
  11810  11811  11815     1   107.9700462 569.024000
  11810  11811  11827     1   107.9700462 569.024000
  11810  11809  11817     1   110.1900474 564.840000
  11811  11810  11816     1   110.1900474 564.840000
  11815  11811  11827     1   108.2900466 608.353600
  11819  11805  11827     1   107.9700462 569.024000
  11828  11829  11832     1   111.5100476 526.347200
  11828  11829  11841     1   110.1900474 564.840000
  11828  11842  11848     1   110.1900474 564.840000
  11828  11850  11834     1   112.4800480 524.673600
  11829  11828  11842     1   111.5100476 526.347200
  11829  11828  11850     1   107.9700462 569.024000
  11829  11832  11833     1   111.5100476 526.347200
  11829  11832  11840     1   110.1900474 564.840000
  11832  11829  11841     1   110.1900474 564.840000
  11832  11833  11834     1   111.5100476 526.347200
  11832  11833  11839     1   110.1900474 564.840000
  11833  11832  11840     1   110.1900474 564.840000
  11833  11834  11838     1   107.9700462 569.024000
  11833  11834  11850     1   107.9700462 569.024000
  11834  11833  11839     1   110.1900474 564.840000
  11838  11834  11850     1   108.2900466 608.353600
  11842  11828  11850     1   107.9700462 569.024000
  11851  11852  11855     1   111.5100476 526.347200
  11851  11852  11864     1   110.1900474 564.840000
  11851  11865  11871     1   110.1900474 564.840000
  11851  11873  11857     1   112.4800480 524.673600
  11852  11855  11856     1   111.5100476 526.347200
  11852  11855  11863     1   110.1900474 564.840000
  11852  11851  11865     1   111.5100476 526.347200
  11852  11851  11873     1   107.9700462 569.024000
  11855  11856  11857     1   111.5100476 526.347200
  11855  11856  11862     1   110.1900474 564.840000
  11855  11852  11864     1   110.1900474 564.840000
  11856  11857  11861     1   107.9700462 569.024000
  11856  11857  11873     1   107.9700462 569.024000
  11856  11855  11863     1   110.1900474 564.840000
  11857  11856  11862     1   110.1900474 564.840000
  11861  11857  11873     1   108.2900466 608.353600
  11865  11851  11873     1   107.9700462 569.024000
  11874  11875  11878     1   111.5100476 526.347200
  11874  11875  11887     1   110.1900474 564.840000
  11874  11888  11894     1   110.1900474 564.840000
  11874  11896  11880     1   112.4800480 524.673600
  11875  11874  11888     1   111.5100476 526.347200
  11875  11874  11896     1   107.9700462 569.024000
  11875  11878  11879     1   111.5100476 526.347200
  11875  11878  11886     1   110.1900474 564.840000
  11878  11875  11887     1   110.1900474 564.840000
  11878  11879  11880     1   111.5100476 526.347200
  11878  11879  11885     1   110.1900474 564.840000
  11879  11878  11886     1   110.1900474 564.840000
  11879  11880  11884     1   107.9700462 569.024000
  11879  11880  11896     1   107.9700462 569.024000
  11880  11879  11885     1   110.1900474 564.840000
  11884  11880  11896     1   108.2900466 608.353600
  11888  11874  11896     1   107.9700462 569.024000
  11897  11898  11901     1   111.5100476 526.347200
  11897  11898  11910     1   110.1900474 564.840000
  11897  11911  11917     1   110.1900474 564.840000
  11897  11919  11903     1   112.4800480 524.673600
  11898  11901  11902     1   111.5100476 526.347200
  11898  11901  11909     1   110.1900474 564.840000
  11898  11897  11911     1   111.5100476 526.347200
  11898  11897  11919     1   107.9700462 569.024000
  11901  11902  11903     1   111.5100476 526.347200
  11901  11902  11908     1   110.1900474 564.840000
  11901  11898  11910     1   110.1900474 564.840000
  11902  11903  11907     1   107.9700462 569.024000
  11902  11903  11919     1   107.9700462 569.024000
  11902  11901  11909     1   110.1900474 564.840000
  11903  11902  11908     1   110.1900474 564.840000
  11907  11903  11919     1   108.2900466 608.353600
  11911  11897  11919     1   107.9700462 569.024000
  11920  11921  11924     1   111.5100476 526.347200
  11920  11921  11933     1   110.1900474 564.840000
  11920  11934  11940     1   110.1900474 564.840000
  11920  11942  11926     1   112.4800480 524.673600
  11921  11920  11934     1   111.5100476 526.347200
  11921  11920  11942     1   107.9700462 569.024000
  11921  11924  11925     1   111.5100476 526.347200
  11921  11924  11932     1   110.1900474 564.840000
  11924  11921  11933     1   110.1900474 564.840000
  11924  11925  11926     1   111.5100476 526.347200
  11924  11925  11931     1   110.1900474 564.840000
  11925  11924  11932     1   110.1900474 564.840000
  11925  11926  11930     1   107.9700462 569.024000
  11925  11926  11942     1   107.9700462 569.024000
  11926  11925  11931     1   110.1900474 564.840000
  11930  11926  11942     1   108.2900466 608.353600
  11934  11920  11942     1   107.9700462 569.024000
  11943  11944  11947     1   111.5100476 526.347200
  11943  11944  11956     1   110.1900474 564.840000
  11943  11957  11963     1   110.1900474 564.840000
  11943  11965  11949     1   112.4800480 524.673600
  11944  11947  11948     1   111.5100476 526.347200
  11944  11947  11955     1   110.1900474 564.840000
  11944  11943  11957     1   111.5100476 526.347200
  11944  11943  11965     1   107.9700462 569.024000
  11947  11948  11949     1   111.5100476 526.347200
  11947  11948  11954     1   110.1900474 564.840000
  11947  11944  11956     1   110.1900474 564.840000
  11948  11949  11953     1   107.9700462 569.024000
  11948  11949  11965     1   107.9700462 569.024000
  11948  11947  11955     1   110.1900474 564.840000
  11949  11948  11954     1   110.1900474 564.840000
  11953  11949  11965     1   108.2900466 608.353600
  11957  11943  11965     1   107.9700462 569.024000
  11966  11967  11970     1   111.5100476 526.347200
  11966  11967  11979     1   110.1900474 564.840000
  11966  11980  11986     1   110.1900474 564.840000
  11966  11988  11972     1   112.4800480 524.673600
  11967  11966  11980     1   111.5100476 526.347200
  11967  11966  11988     1   107.9700462 569.024000
  11967  11970  11971     1   111.5100476 526.347200
  11967  11970  11978     1   110.1900474 564.840000
  11970  11967  11979     1   110.1900474 564.840000
  11970  11971  11972     1   111.5100476 526.347200
  11970  11971  11977     1   110.1900474 564.840000
  11971  11970  11978     1   110.1900474 564.840000
  11971  11972  11976     1   107.9700462 569.024000
  11971  11972  11988     1   107.9700462 569.024000
  11972  11971  11977     1   110.1900474 564.840000
  11976  11972  11988     1   108.2900466 608.353600
  11980  11966  11988     1   107.9700462 569.024000
  11989  11990  11993     1   111.5100476 526.347200
  11989  11990  12002     1   110.1900474 564.840000
  11989  12003  12009     1   110.1900474 564.840000
  11989  12011  11995     1   112.4800480 524.673600
  11990  11993  11994     1   111.5100476 526.347200
  11990  11993  12001     1   110.1900474 564.840000
  11990  11989  12003     1   111.5100476 526.347200
  11990  11989  12011     1   107.9700462 569.024000
  11993  11994  11995     1   111.5100476 526.347200
  11993  11994  12000     1   110.1900474 564.840000
  11993  11990  12002     1   110.1900474 564.840000
  11994  11995  11999     1   107.9700462 569.024000
  11994  11995  12011     1   107.9700462 569.024000
  11994  11993  12001     1   110.1900474 564.840000
  11995  11994  12000     1   110.1900474 564.840000
  11999  11995  12011     1   108.2900466 608.353600
  12003  11989  12011     1   107.9700462 569.024000
  12012  12013  12016     1   111.5100476 526.347200
  12012  12013  12025     1   110.1900474 564.840000
  12012  12026  12032     1   110.1900474 564.840000
  12012  12034  12018     1   112.4800480 524.673600
  12013  12012  12026     1   111.5100476 526.347200
  12013  12012  12034     1   107.9700462 569.024000
  12013  12016  12017     1   111.5100476 526.347200
  12013  12016  12024     1   110.1900474 564.840000
  12016  12013  12025     1   110.1900474 564.840000
  12016  12017  12018     1   111.5100476 526.347200
  12016  12017  12023     1   110.1900474 564.840000
  12017  12016  12024     1   110.1900474 564.840000
  12017  12018  12022     1   107.9700462 569.024000
  12017  12018  12034     1   107.9700462 569.024000
  12018  12017  12023     1   110.1900474 564.840000
  12022  12018  12034     1   108.2900466 608.353600
  12026  12012  12034     1   107.9700462 569.024000
  12035  12036  12039     1   111.5100476 526.347200
  12035  12036  12048     1   110.1900474 564.840000
  12035  12049  12055     1   110.1900474 564.840000
  12035  12057  12041     1   112.4800480 524.673600
  12036  12039  12040     1   111.5100476 526.347200
  12036  12039  12047     1   110.1900474 564.840000
  12036  12035  12049     1   111.5100476 526.347200
  12036  12035  12057     1   107.9700462 569.024000
  12039  12040  12041     1   111.5100476 526.347200
  12039  12040  12046     1   110.1900474 564.840000
  12039  12036  12048     1   110.1900474 564.840000
  12040  12041  12045     1   107.9700462 569.024000
  12040  12041  12057     1   107.9700462 569.024000
  12040  12039  12047     1   110.1900474 564.840000
  12041  12040  12046     1   110.1900474 564.840000
  12045  12041  12057     1   108.2900466 608.353600
  12049  12035  12057     1   107.9700462 569.024000
  12058  12059  12062     1   111.5100476 526.347200
  12058  12059  12071     1   110.1900474 564.840000
  12058  12072  12078     1   110.1900474 564.840000
  12058  12080  12064     1   112.4800480 524.673600
  12059  12058  12072     1   111.5100476 526.347200
  12059  12058  12080     1   107.9700462 569.024000
  12059  12062  12063     1   111.5100476 526.347200
  12059  12062  12070     1   110.1900474 564.840000
  12062  12059  12071     1   110.1900474 564.840000
  12062  12063  12064     1   111.5100476 526.347200
  12062  12063  12069     1   110.1900474 564.840000
  12063  12062  12070     1   110.1900474 564.840000
  12063  12064  12068     1   107.9700462 569.024000
  12063  12064  12080     1   107.9700462 569.024000
  12064  12063  12069     1   110.1900474 564.840000
  12068  12064  12080     1   108.2900466 608.353600
  12072  12058  12080     1   107.9700462 569.024000
  12081  12082  12085     1   111.5100476 526.347200
  12081  12082  12094     1   110.1900474 564.840000
  12081  12095  12101     1   110.1900474 564.840000
  12081  12103  12087     1   112.4800480 524.673600
  12082  12085  12086     1   111.5100476 526.347200
  12082  12085  12093     1   110.1900474 564.840000
  12082  12081  12095     1   111.5100476 526.347200
  12082  12081  12103     1   107.9700462 569.024000
  12085  12086  12087     1   111.5100476 526.347200
  12085  12086  12092     1   110.1900474 564.840000
  12085  12082  12094     1   110.1900474 564.840000
  12086  12087  12091     1   107.9700462 569.024000
  12086  12087  12103     1   107.9700462 569.024000
  12086  12085  12093     1   110.1900474 564.840000
  12087  12086  12092     1   110.1900474 564.840000
  12091  12087  12103     1   108.2900466 608.353600
  12095  12081  12103     1   107.9700462 569.024000
  12104  12105  12108     1   111.5100476 526.347200
  12104  12105  12117     1   110.1900474 564.840000
  12104  12118  12124     1   110.1900474 564.840000
  12104  12126  12110     1   112.4800480 524.673600
  12105  12104  12118     1   111.5100476 526.347200
  12105  12104  12126     1   107.9700462 569.024000
  12105  12108  12109     1   111.5100476 526.347200
  12105  12108  12116     1   110.1900474 564.840000
  12108  12105  12117     1   110.1900474 564.840000
  12108  12109  12110     1   111.5100476 526.347200
  12108  12109  12115     1   110.1900474 564.840000
  12109  12108  12116     1   110.1900474 564.840000
  12109  12110  12114     1   107.9700462 569.024000
  12109  12110  12126     1   107.9700462 569.024000
  12110  12109  12115     1   110.1900474 564.840000
  12114  12110  12126     1   108.2900466 608.353600
  12118  12104  12126     1   107.9700462 569.024000
  12127  12128  12131     1   111.5100476 526.347200
  12127  12128  12140     1   110.1900474 564.840000
  12127  12141  12147     1   110.1900474 564.840000
  12127  12149  12133     1   112.4800480 524.673600
  12128  12131  12132     1   111.5100476 526.347200
  12128  12131  12139     1   110.1900474 564.840000
  12128  12127  12141     1   111.5100476 526.347200
  12128  12127  12149     1   107.9700462 569.024000
  12131  12132  12133     1   111.5100476 526.347200
  12131  12132  12138     1   110.1900474 564.840000
  12131  12128  12140     1   110.1900474 564.840000
  12132  12133  12137     1   107.9700462 569.024000
  12132  12133  12149     1   107.9700462 569.024000
  12132  12131  12139     1   110.1900474 564.840000
  12133  12132  12138     1   110.1900474 564.840000
  12137  12133  12149     1   108.2900466 608.353600
  12141  12127  12149     1   107.9700462 569.024000
  12150  12151  12154     1   111.5100476 526.347200
  12150  12151  12163     1   110.1900474 564.840000
  12150  12164  12170     1   110.1900474 564.840000
  12150  12172  12156     1   112.4800480 524.673600
  12151  12150  12164     1   111.5100476 526.347200
  12151  12150  12172     1   107.9700462 569.024000
  12151  12154  12155     1   111.5100476 526.347200
  12151  12154  12162     1   110.1900474 564.840000
  12154  12151  12163     1   110.1900474 564.840000
  12154  12155  12156     1   111.5100476 526.347200
  12154  12155  12161     1   110.1900474 564.840000
  12155  12154  12162     1   110.1900474 564.840000
  12155  12156  12160     1   107.9700462 569.024000
  12155  12156  12172     1   107.9700462 569.024000
  12156  12155  12161     1   110.1900474 564.840000
  12160  12156  12172     1   108.2900466 608.353600
  12164  12150  12172     1   107.9700462 569.024000
  12173  12174  12177     1   111.5100476 526.347200
  12173  12174  12186     1   110.1900474 564.840000
  12173  12187  12193     1   110.1900474 564.840000
  12173  12195  12179     1   112.4800480 524.673600
  12174  12177  12178     1   111.5100476 526.347200
  12174  12177  12185     1   110.1900474 564.840000
  12174  12173  12187     1   111.5100476 526.347200
  12174  12173  12195     1   107.9700462 569.024000
  12177  12178  12179     1   111.5100476 526.347200
  12177  12178  12184     1   110.1900474 564.840000
  12177  12174  12186     1   110.1900474 564.840000
  12178  12179  12183     1   107.9700462 569.024000
  12178  12179  12195     1   107.9700462 569.024000
  12178  12177  12185     1   110.1900474 564.840000
  12179  12178  12184     1   110.1900474 564.840000
  12183  12179  12195     1   108.2900466 608.353600
  12187  12173  12195     1   107.9700462 569.024000
  12196  12197  12200     1   111.5100476 526.347200
  12196  12197  12209     1   110.1900474 564.840000
  12196  12210  12216     1   110.1900474 564.840000
  12196  12218  12202     1   112.4800480 524.673600
  12197  12196  12210     1   111.5100476 526.347200
  12197  12196  12218     1   107.9700462 569.024000
  12197  12200  12201     1   111.5100476 526.347200
  12197  12200  12208     1   110.1900474 564.840000
  12200  12197  12209     1   110.1900474 564.840000
  12200  12201  12202     1   111.5100476 526.347200
  12200  12201  12207     1   110.1900474 564.840000
  12201  12200  12208     1   110.1900474 564.840000
  12201  12202  12206     1   107.9700462 569.024000
  12201  12202  12218     1   107.9700462 569.024000
  12202  12201  12207     1   110.1900474 564.840000
  12206  12202  12218     1   108.2900466 608.353600
  12210  12196  12218     1   107.9700462 569.024000
  12219  12220  12223     1   111.5100476 526.347200
  12219  12220  12232     1   110.1900474 564.840000
  12219  12233  12239     1   110.1900474 564.840000
  12219  12241  12225     1   112.4800480 524.673600
  12220  12223  12224     1   111.5100476 526.347200
  12220  12223  12231     1   110.1900474 564.840000
  12220  12219  12233     1   111.5100476 526.347200
  12220  12219  12241     1   107.9700462 569.024000
  12223  12224  12225     1   111.5100476 526.347200
  12223  12224  12230     1   110.1900474 564.840000
  12223  12220  12232     1   110.1900474 564.840000
  12224  12225  12229     1   107.9700462 569.024000
  12224  12225  12241     1   107.9700462 569.024000
  12224  12223  12231     1   110.1900474 564.840000
  12225  12224  12230     1   110.1900474 564.840000
  12229  12225  12241     1   108.2900466 608.353600
  12233  12219  12241     1   107.9700462 569.024000
  12242  12243  12246     1   111.5100476 526.347200
  12242  12243  12255     1   110.1900474 564.840000
  12242  12256  12262     1   110.1900474 564.840000
  12242  12264  12248     1   112.4800480 524.673600
  12243  12242  12256     1   111.5100476 526.347200
  12243  12242  12264     1   107.9700462 569.024000
  12243  12246  12247     1   111.5100476 526.347200
  12243  12246  12254     1   110.1900474 564.840000
  12246  12243  12255     1   110.1900474 564.840000
  12246  12247  12248     1   111.5100476 526.347200
  12246  12247  12253     1   110.1900474 564.840000
  12247  12246  12254     1   110.1900474 564.840000
  12247  12248  12252     1   107.9700462 569.024000
  12247  12248  12264     1   107.9700462 569.024000
  12248  12247  12253     1   110.1900474 564.840000
  12252  12248  12264     1   108.2900466 608.353600
  12256  12242  12264     1   107.9700462 569.024000
  12265  12266  12269     1   111.5100476 526.347200
  12265  12266  12278     1   110.1900474 564.840000
  12265  12279  12285     1   110.1900474 564.840000
  12265  12287  12271     1   112.4800480 524.673600
  12266  12269  12270     1   111.5100476 526.347200
  12266  12269  12277     1   110.1900474 564.840000
  12266  12265  12279     1   111.5100476 526.347200
  12266  12265  12287     1   107.9700462 569.024000
  12269  12270  12271     1   111.5100476 526.347200
  12269  12270  12276     1   110.1900474 564.840000
  12269  12266  12278     1   110.1900474 564.840000
  12270  12271  12275     1   107.9700462 569.024000
  12270  12271  12287     1   107.9700462 569.024000
  12270  12269  12277     1   110.1900474 564.840000
  12271  12270  12276     1   110.1900474 564.840000
  12275  12271  12287     1   108.2900466 608.353600
  12279  12265  12287     1   107.9700462 569.024000
  12288  12289  12292     1   111.5100476 526.347200
  12288  12289  12301     1   110.1900474 564.840000
  12288  12302  12308     1   110.1900474 564.840000
  12288  12310  12294     1   112.4800480 524.673600
  12289  12288  12302     1   111.5100476 526.347200
  12289  12288  12310     1   107.9700462 569.024000
  12289  12292  12293     1   111.5100476 526.347200
  12289  12292  12300     1   110.1900474 564.840000
  12292  12289  12301     1   110.1900474 564.840000
  12292  12293  12294     1   111.5100476 526.347200
  12292  12293  12299     1   110.1900474 564.840000
  12293  12292  12300     1   110.1900474 564.840000
  12293  12294  12298     1   107.9700462 569.024000
  12293  12294  12310     1   107.9700462 569.024000
  12294  12293  12299     1   110.1900474 564.840000
  12298  12294  12310     1   108.2900466 608.353600
  12302  12288  12310     1   107.9700462 569.024000
  12311  12312  12315     1   111.5100476 526.347200
  12311  12312  12324     1   110.1900474 564.840000
  12311  12325  12331     1   110.1900474 564.840000
  12311  12333  12317     1   112.4800480 524.673600
  12312  12315  12316     1   111.5100476 526.347200
  12312  12315  12323     1   110.1900474 564.840000
  12312  12311  12325     1   111.5100476 526.347200
  12312  12311  12333     1   107.9700462 569.024000
  12315  12316  12317     1   111.5100476 526.347200
  12315  12316  12322     1   110.1900474 564.840000
  12315  12312  12324     1   110.1900474 564.840000
  12316  12317  12321     1   107.9700462 569.024000
  12316  12317  12333     1   107.9700462 569.024000
  12316  12315  12323     1   110.1900474 564.840000
  12317  12316  12322     1   110.1900474 564.840000
  12321  12317  12333     1   108.2900466 608.353600
  12325  12311  12333     1   107.9700462 569.024000
  12334  12335  12338     1   111.5100476 526.347200
  12334  12335  12347     1   110.1900474 564.840000
  12334  12348  12354     1   110.1900474 564.840000
  12334  12356  12340     1   112.4800480 524.673600
  12335  12334  12348     1   111.5100476 526.347200
  12335  12334  12356     1   107.9700462 569.024000
  12335  12338  12339     1   111.5100476 526.347200
  12335  12338  12346     1   110.1900474 564.840000
  12338  12335  12347     1   110.1900474 564.840000
  12338  12339  12340     1   111.5100476 526.347200
  12338  12339  12345     1   110.1900474 564.840000
  12339  12338  12346     1   110.1900474 564.840000
  12339  12340  12344     1   107.9700462 569.024000
  12339  12340  12356     1   107.9700462 569.024000
  12340  12339  12345     1   110.1900474 564.840000
  12344  12340  12356     1   108.2900466 608.353600
  12348  12334  12356     1   107.9700462 569.024000
  12357  12358  12361     1   111.5100476 526.347200
  12357  12358  12370     1   110.1900474 564.840000
  12357  12371  12377     1   110.1900474 564.840000
  12357  12379  12363     1   112.4800480 524.673600
  12358  12361  12362     1   111.5100476 526.347200
  12358  12361  12369     1   110.1900474 564.840000
  12358  12357  12371     1   111.5100476 526.347200
  12358  12357  12379     1   107.9700462 569.024000
  12361  12362  12363     1   111.5100476 526.347200
  12361  12362  12368     1   110.1900474 564.840000
  12361  12358  12370     1   110.1900474 564.840000
  12362  12363  12367     1   107.9700462 569.024000
  12362  12363  12379     1   107.9700462 569.024000
  12362  12361  12369     1   110.1900474 564.840000
  12363  12362  12368     1   110.1900474 564.840000
  12367  12363  12379     1   108.2900466 608.353600
  12371  12357  12379     1   107.9700462 569.024000
  12380  12381  12384     1   111.5100476 526.347200
  12380  12381  12393     1   110.1900474 564.840000
  12380  12394  12400     1   110.1900474 564.840000
  12380  12402  12386     1   112.4800480 524.673600
  12381  12380  12394     1   111.5100476 526.347200
  12381  12380  12402     1   107.9700462 569.024000
  12381  12384  12385     1   111.5100476 526.347200
  12381  12384  12392     1   110.1900474 564.840000
  12384  12381  12393     1   110.1900474 564.840000
  12384  12385  12386     1   111.5100476 526.347200
  12384  12385  12391     1   110.1900474 564.840000
  12385  12384  12392     1   110.1900474 564.840000
  12385  12386  12390     1   107.9700462 569.024000
  12385  12386  12402     1   107.9700462 569.024000
  12386  12385  12391     1   110.1900474 564.840000
  12390  12386  12402     1   108.2900466 608.353600
  12394  12380  12402     1   107.9700462 569.024000
  12403  12404  12407     1   111.5100476 526.347200
  12403  12404  12416     1   110.1900474 564.840000
  12403  12417  12423     1   110.1900474 564.840000
  12403  12425  12409     1   112.4800480 524.673600
  12404  12407  12408     1   111.5100476 526.347200
  12404  12407  12415     1   110.1900474 564.840000
  12404  12403  12417     1   111.5100476 526.347200
  12404  12403  12425     1   107.9700462 569.024000
  12407  12408  12409     1   111.5100476 526.347200
  12407  12408  12414     1   110.1900474 564.840000
  12407  12404  12416     1   110.1900474 564.840000
  12408  12409  12413     1   107.9700462 569.024000
  12408  12409  12425     1   107.9700462 569.024000
  12408  12407  12415     1   110.1900474 564.840000
  12409  12408  12414     1   110.1900474 564.840000
  12413  12409  12425     1   108.2900466 608.353600
  12417  12403  12425     1   107.9700462 569.024000
  12426  12427  12430     1   111.5100476 526.347200
  12426  12427  12439     1   110.1900474 564.840000
  12426  12440  12446     1   110.1900474 564.840000
  12426  12448  12432     1   112.4800480 524.673600
  12427  12426  12440     1   111.5100476 526.347200
  12427  12426  12448     1   107.9700462 569.024000
  12427  12430  12431     1   111.5100476 526.347200
  12427  12430  12438     1   110.1900474 564.840000
  12430  12427  12439     1   110.1900474 564.840000
  12430  12431  12432     1   111.5100476 526.347200
  12430  12431  12437     1   110.1900474 564.840000
  12431  12430  12438     1   110.1900474 564.840000
  12431  12432  12436     1   107.9700462 569.024000
  12431  12432  12448     1   107.9700462 569.024000
  12432  12431  12437     1   110.1900474 564.840000
  12436  12432  12448     1   108.2900466 608.353600
  12440  12426  12448     1   107.9700462 569.024000
  12449  12450  12453     1   111.5100476 526.347200
  12449  12450  12462     1   110.1900474 564.840000
  12449  12463  12469     1   110.1900474 564.840000
  12449  12471  12455     1   112.4800480 524.673600
  12450  12453  12454     1   111.5100476 526.347200
  12450  12453  12461     1   110.1900474 564.840000
  12450  12449  12463     1   111.5100476 526.347200
  12450  12449  12471     1   107.9700462 569.024000
  12453  12454  12455     1   111.5100476 526.347200
  12453  12454  12460     1   110.1900474 564.840000
  12453  12450  12462     1   110.1900474 564.840000
  12454  12455  12459     1   107.9700462 569.024000
  12454  12455  12471     1   107.9700462 569.024000
  12454  12453  12461     1   110.1900474 564.840000
  12455  12454  12460     1   110.1900474 564.840000
  12459  12455  12471     1   108.2900466 608.353600
  12463  12449  12471     1   107.9700462 569.024000
  12472  12473  12476     1   111.5100476 526.347200
  12472  12473  12485     1   110.1900474 564.840000
  12472  12486  12492     1   110.1900474 564.840000
  12472  12494  12478     1   112.4800480 524.673600
  12473  12472  12486     1   111.5100476 526.347200
  12473  12472  12494     1   107.9700462 569.024000
  12473  12476  12477     1   111.5100476 526.347200
  12473  12476  12484     1   110.1900474 564.840000
  12476  12473  12485     1   110.1900474 564.840000
  12476  12477  12478     1   111.5100476 526.347200
  12476  12477  12483     1   110.1900474 564.840000
  12477  12476  12484     1   110.1900474 564.840000
  12477  12478  12482     1   107.9700462 569.024000
  12477  12478  12494     1   107.9700462 569.024000
  12478  12477  12483     1   110.1900474 564.840000
  12482  12478  12494     1   108.2900466 608.353600
  12486  12472  12494     1   107.9700462 569.024000
  12495  12496  12499     1   111.5100476 526.347200
  12495  12496  12508     1   110.1900474 564.840000
  12495  12509  12515     1   110.1900474 564.840000
  12495  12517  12501     1   112.4800480 524.673600
  12496  12499  12500     1   111.5100476 526.347200
  12496  12499  12507     1   110.1900474 564.840000
  12496  12495  12509     1   111.5100476 526.347200
  12496  12495  12517     1   107.9700462 569.024000
  12499  12500  12501     1   111.5100476 526.347200
  12499  12500  12506     1   110.1900474 564.840000
  12499  12496  12508     1   110.1900474 564.840000
  12500  12501  12505     1   107.9700462 569.024000
  12500  12501  12517     1   107.9700462 569.024000
  12500  12499  12507     1   110.1900474 564.840000
  12501  12500  12506     1   110.1900474 564.840000
  12505  12501  12517     1   108.2900466 608.353600
  12509  12495  12517     1   107.9700462 569.024000
  12518  12519  12522     1   111.5100476 526.347200
  12518  12519  12531     1   110.1900474 564.840000
  12518  12532  12538     1   110.1900474 564.840000
  12518  12540  12524     1   112.4800480 524.673600
  12519  12518  12532     1   111.5100476 526.347200
  12519  12518  12540     1   107.9700462 569.024000
  12519  12522  12523     1   111.5100476 526.347200
  12519  12522  12530     1   110.1900474 564.840000
  12522  12519  12531     1   110.1900474 564.840000
  12522  12523  12524     1   111.5100476 526.347200
  12522  12523  12529     1   110.1900474 564.840000
  12523  12522  12530     1   110.1900474 564.840000
  12523  12524  12528     1   107.9700462 569.024000
  12523  12524  12540     1   107.9700462 569.024000
  12524  12523  12529     1   110.1900474 564.840000
  12528  12524  12540     1   108.2900466 608.353600
  12532  12518  12540     1   107.9700462 569.024000
  12541  12542  12545     1   111.5100476 526.347200
  12541  12542  12554     1   110.1900474 564.840000
  12541  12555  12561     1   110.1900474 564.840000
  12541  12563  12547     1   112.4800480 524.673600
  12542  12545  12546     1   111.5100476 526.347200
  12542  12545  12553     1   110.1900474 564.840000
  12542  12541  12555     1   111.5100476 526.347200
  12542  12541  12563     1   107.9700462 569.024000
  12545  12546  12547     1   111.5100476 526.347200
  12545  12546  12552     1   110.1900474 564.840000
  12545  12542  12554     1   110.1900474 564.840000
  12546  12547  12551     1   107.9700462 569.024000
  12546  12547  12563     1   107.9700462 569.024000
  12546  12545  12553     1   110.1900474 564.840000
  12547  12546  12552     1   110.1900474 564.840000
  12551  12547  12563     1   108.2900466 608.353600
  12555  12541  12563     1   107.9700462 569.024000
  12564  12565  12568     1   111.5100476 526.347200
  12564  12565  12577     1   110.1900474 564.840000
  12564  12578  12584     1   110.1900474 564.840000
  12564  12586  12570     1   112.4800480 524.673600
  12565  12564  12578     1   111.5100476 526.347200
  12565  12564  12586     1   107.9700462 569.024000
  12565  12568  12569     1   111.5100476 526.347200
  12565  12568  12576     1   110.1900474 564.840000
  12568  12565  12577     1   110.1900474 564.840000
  12568  12569  12570     1   111.5100476 526.347200
  12568  12569  12575     1   110.1900474 564.840000
  12569  12568  12576     1   110.1900474 564.840000
  12569  12570  12574     1   107.9700462 569.024000
  12569  12570  12586     1   107.9700462 569.024000
  12570  12569  12575     1   110.1900474 564.840000
  12574  12570  12586     1   108.2900466 608.353600
  12578  12564  12586     1   107.9700462 569.024000
  12587  12588  12591     1   111.5100476 526.347200
  12587  12588  12600     1   110.1900474 564.840000
  12587  12601  12607     1   110.1900474 564.840000
  12587  12609  12593     1   112.4800480 524.673600
  12588  12591  12592     1   111.5100476 526.347200
  12588  12591  12599     1   110.1900474 564.840000
  12588  12587  12601     1   111.5100476 526.347200
  12588  12587  12609     1   107.9700462 569.024000
  12591  12592  12593     1   111.5100476 526.347200
  12591  12592  12598     1   110.1900474 564.840000
  12591  12588  12600     1   110.1900474 564.840000
  12592  12593  12597     1   107.9700462 569.024000
  12592  12593  12609     1   107.9700462 569.024000
  12592  12591  12599     1   110.1900474 564.840000
  12593  12592  12598     1   110.1900474 564.840000
  12597  12593  12609     1   108.2900466 608.353600
  12601  12587  12609     1   107.9700462 569.024000
  12610  12611  12614     1   111.5100476 526.347200
  12610  12611  12623     1   110.1900474 564.840000
  12610  12624  12630     1   110.1900474 564.840000
  12610  12632  12616     1   112.4800480 524.673600
  12611  12610  12624     1   111.5100476 526.347200
  12611  12610  12632     1   107.9700462 569.024000
  12611  12614  12615     1   111.5100476 526.347200
  12611  12614  12622     1   110.1900474 564.840000
  12614  12611  12623     1   110.1900474 564.840000
  12614  12615  12616     1   111.5100476 526.347200
  12614  12615  12621     1   110.1900474 564.840000
  12615  12614  12622     1   110.1900474 564.840000
  12615  12616  12620     1   107.9700462 569.024000
  12615  12616  12632     1   107.9700462 569.024000
  12616  12615  12621     1   110.1900474 564.840000
  12620  12616  12632     1   108.2900466 608.353600
  12624  12610  12632     1   107.9700462 569.024000
  12633  12634  12637     1   111.5100476 526.347200
  12633  12634  12646     1   110.1900474 564.840000
  12633  12647  12653     1   110.1900474 564.840000
  12633  12655  12639     1   112.4800480 524.673600
  12634  12637  12638     1   111.5100476 526.347200
  12634  12637  12645     1   110.1900474 564.840000
  12634  12633  12647     1   111.5100476 526.347200
  12634  12633  12655     1   107.9700462 569.024000
  12637  12638  12639     1   111.5100476 526.347200
  12637  12638  12644     1   110.1900474 564.840000
  12637  12634  12646     1   110.1900474 564.840000
  12638  12639  12643     1   107.9700462 569.024000
  12638  12639  12655     1   107.9700462 569.024000
  12638  12637  12645     1   110.1900474 564.840000
  12639  12638  12644     1   110.1900474 564.840000
  12643  12639  12655     1   108.2900466 608.353600
  12647  12633  12655     1   107.9700462 569.024000
  12656  12657  12660     1   111.5100476 526.347200
  12656  12657  12669     1   110.1900474 564.840000
  12656  12670  12676     1   110.1900474 564.840000
  12656  12678  12662     1   112.4800480 524.673600
  12657  12656  12670     1   111.5100476 526.347200
  12657  12656  12678     1   107.9700462 569.024000
  12657  12660  12661     1   111.5100476 526.347200
  12657  12660  12668     1   110.1900474 564.840000
  12660  12657  12669     1   110.1900474 564.840000
  12660  12661  12662     1   111.5100476 526.347200
  12660  12661  12667     1   110.1900474 564.840000
  12661  12660  12668     1   110.1900474 564.840000
  12661  12662  12666     1   107.9700462 569.024000
  12661  12662  12678     1   107.9700462 569.024000
  12662  12661  12667     1   110.1900474 564.840000
  12666  12662  12678     1   108.2900466 608.353600
  12670  12656  12678     1   107.9700462 569.024000
  12679  12680  12683     1   111.5100476 526.347200
  12679  12680  12692     1   110.1900474 564.840000
  12679  12693  12699     1   110.1900474 564.840000
  12679  12701  12685     1   112.4800480 524.673600
  12680  12683  12684     1   111.5100476 526.347200
  12680  12683  12691     1   110.1900474 564.840000
  12680  12679  12693     1   111.5100476 526.347200
  12680  12679  12701     1   107.9700462 569.024000
  12683  12684  12685     1   111.5100476 526.347200
  12683  12684  12690     1   110.1900474 564.840000
  12683  12680  12692     1   110.1900474 564.840000
  12684  12685  12689     1   107.9700462 569.024000
  12684  12685  12701     1   107.9700462 569.024000
  12684  12683  12691     1   110.1900474 564.840000
  12685  12684  12690     1   110.1900474 564.840000
  12689  12685  12701     1   108.2900466 608.353600
  12693  12679  12701     1   107.9700462 569.024000
  12702  12703  12706     1   111.5100476 526.347200
  12702  12703  12715     1   110.1900474 564.840000
  12702  12716  12722     1   110.1900474 564.840000
  12702  12724  12708     1   112.4800480 524.673600
  12703  12702  12716     1   111.5100476 526.347200
  12703  12702  12724     1   107.9700462 569.024000
  12703  12706  12707     1   111.5100476 526.347200
  12703  12706  12714     1   110.1900474 564.840000
  12706  12703  12715     1   110.1900474 564.840000
  12706  12707  12708     1   111.5100476 526.347200
  12706  12707  12713     1   110.1900474 564.840000
  12707  12706  12714     1   110.1900474 564.840000
  12707  12708  12712     1   107.9700462 569.024000
  12707  12708  12724     1   107.9700462 569.024000
  12708  12707  12713     1   110.1900474 564.840000
  12712  12708  12724     1   108.2900466 608.353600
  12716  12702  12724     1   107.9700462 569.024000
  12725  12726  12729     1   111.5100476 526.347200
  12725  12726  12738     1   110.1900474 564.840000
  12725  12739  12745     1   110.1900474 564.840000
  12725  12747  12731     1   112.4800480 524.673600
  12726  12729  12730     1   111.5100476 526.347200
  12726  12729  12737     1   110.1900474 564.840000
  12726  12725  12739     1   111.5100476 526.347200
  12726  12725  12747     1   107.9700462 569.024000
  12729  12730  12731     1   111.5100476 526.347200
  12729  12730  12736     1   110.1900474 564.840000
  12729  12726  12738     1   110.1900474 564.840000
  12730  12731  12735     1   107.9700462 569.024000
  12730  12731  12747     1   107.9700462 569.024000
  12730  12729  12737     1   110.1900474 564.840000
  12731  12730  12736     1   110.1900474 564.840000
  12735  12731  12747     1   108.2900466 608.353600
  12739  12725  12747     1   107.9700462 569.024000
  12748  12749  12752     1   111.5100476 526.347200
  12748  12749  12761     1   110.1900474 564.840000
  12748  12762  12768     1   110.1900474 564.840000
  12748  12770  12754     1   112.4800480 524.673600
  12749  12748  12762     1   111.5100476 526.347200
  12749  12748  12770     1   107.9700462 569.024000
  12749  12752  12753     1   111.5100476 526.347200
  12749  12752  12760     1   110.1900474 564.840000
  12752  12749  12761     1   110.1900474 564.840000
  12752  12753  12754     1   111.5100476 526.347200
  12752  12753  12759     1   110.1900474 564.840000
  12753  12752  12760     1   110.1900474 564.840000
  12753  12754  12758     1   107.9700462 569.024000
  12753  12754  12770     1   107.9700462 569.024000
  12754  12753  12759     1   110.1900474 564.840000
  12758  12754  12770     1   108.2900466 608.353600
  12762  12748  12770     1   107.9700462 569.024000
  12771  12772  12775     1   111.5100476 526.347200
  12771  12772  12784     1   110.1900474 564.840000
  12771  12785  12791     1   110.1900474 564.840000
  12771  12793  12777     1   112.4800480 524.673600
  12772  12775  12776     1   111.5100476 526.347200
  12772  12775  12783     1   110.1900474 564.840000
  12772  12771  12785     1   111.5100476 526.347200
  12772  12771  12793     1   107.9700462 569.024000
  12775  12776  12777     1   111.5100476 526.347200
  12775  12776  12782     1   110.1900474 564.840000
  12775  12772  12784     1   110.1900474 564.840000
  12776  12777  12781     1   107.9700462 569.024000
  12776  12777  12793     1   107.9700462 569.024000
  12776  12775  12783     1   110.1900474 564.840000
  12777  12776  12782     1   110.1900474 564.840000
  12781  12777  12793     1   108.2900466 608.353600
  12785  12771  12793     1   107.9700462 569.024000
  12794  12795  12798     1   111.5100476 526.347200
  12794  12795  12807     1   110.1900474 564.840000
  12794  12808  12814     1   110.1900474 564.840000
  12794  12816  12800     1   112.4800480 524.673600
  12795  12794  12808     1   111.5100476 526.347200
  12795  12794  12816     1   107.9700462 569.024000
  12795  12798  12799     1   111.5100476 526.347200
  12795  12798  12806     1   110.1900474 564.840000
  12798  12795  12807     1   110.1900474 564.840000
  12798  12799  12800     1   111.5100476 526.347200
  12798  12799  12805     1   110.1900474 564.840000
  12799  12798  12806     1   110.1900474 564.840000
  12799  12800  12804     1   107.9700462 569.024000
  12799  12800  12816     1   107.9700462 569.024000
  12800  12799  12805     1   110.1900474 564.840000
  12804  12800  12816     1   108.2900466 608.353600
  12808  12794  12816     1   107.9700462 569.024000
  12817  12818  12821     1   111.5100476 526.347200
  12817  12818  12830     1   110.1900474 564.840000
  12817  12831  12837     1   110.1900474 564.840000
  12817  12839  12823     1   112.4800480 524.673600
  12818  12821  12822     1   111.5100476 526.347200
  12818  12821  12829     1   110.1900474 564.840000
  12818  12817  12831     1   111.5100476 526.347200
  12818  12817  12839     1   107.9700462 569.024000
  12821  12822  12823     1   111.5100476 526.347200
  12821  12822  12828     1   110.1900474 564.840000
  12821  12818  12830     1   110.1900474 564.840000
  12822  12823  12827     1   107.9700462 569.024000
  12822  12823  12839     1   107.9700462 569.024000
  12822  12821  12829     1   110.1900474 564.840000
  12823  12822  12828     1   110.1900474 564.840000
  12827  12823  12839     1   108.2900466 608.353600
  12831  12817  12839     1   107.9700462 569.024000
  12840  12841  12844     1   111.5100476 526.347200
  12840  12841  12853     1   110.1900474 564.840000
  12840  12854  12860     1   110.1900474 564.840000
  12840  12862  12846     1   112.4800480 524.673600
  12841  12840  12854     1   111.5100476 526.347200
  12841  12840  12862     1   107.9700462 569.024000
  12841  12844  12845     1   111.5100476 526.347200
  12841  12844  12852     1   110.1900474 564.840000
  12844  12841  12853     1   110.1900474 564.840000
  12844  12845  12846     1   111.5100476 526.347200
  12844  12845  12851     1   110.1900474 564.840000
  12845  12844  12852     1   110.1900474 564.840000
  12845  12846  12850     1   107.9700462 569.024000
  12845  12846  12862     1   107.9700462 569.024000
  12846  12845  12851     1   110.1900474 564.840000
  12850  12846  12862     1   108.2900466 608.353600
  12854  12840  12862     1   107.9700462 569.024000
  12863  12864  12867     1   111.5100476 526.347200
  12863  12864  12876     1   110.1900474 564.840000
  12863  12877  12883     1   110.1900474 564.840000
  12863  12885  12869     1   112.4800480 524.673600
  12864  12867  12868     1   111.5100476 526.347200
  12864  12867  12875     1   110.1900474 564.840000
  12864  12863  12877     1   111.5100476 526.347200
  12864  12863  12885     1   107.9700462 569.024000
  12867  12868  12869     1   111.5100476 526.347200
  12867  12868  12874     1   110.1900474 564.840000
  12867  12864  12876     1   110.1900474 564.840000
  12868  12869  12873     1   107.9700462 569.024000
  12868  12869  12885     1   107.9700462 569.024000
  12868  12867  12875     1   110.1900474 564.840000
  12869  12868  12874     1   110.1900474 564.840000
  12873  12869  12885     1   108.2900466 608.353600
  12877  12863  12885     1   107.9700462 569.024000
  12886  12887  12890     1   111.5100476 526.347200
  12886  12887  12899     1   110.1900474 564.840000
  12886  12900  12906     1   110.1900474 564.840000
  12886  12908  12892     1   112.4800480 524.673600
  12887  12886  12900     1   111.5100476 526.347200
  12887  12886  12908     1   107.9700462 569.024000
  12887  12890  12891     1   111.5100476 526.347200
  12887  12890  12898     1   110.1900474 564.840000
  12890  12887  12899     1   110.1900474 564.840000
  12890  12891  12892     1   111.5100476 526.347200
  12890  12891  12897     1   110.1900474 564.840000
  12891  12890  12898     1   110.1900474 564.840000
  12891  12892  12896     1   107.9700462 569.024000
  12891  12892  12908     1   107.9700462 569.024000
  12892  12891  12897     1   110.1900474 564.840000
  12896  12892  12908     1   108.2900466 608.353600
  12900  12886  12908     1   107.9700462 569.024000
  12909  12910  12913     1   111.5100476 526.347200
  12909  12910  12922     1   110.1900474 564.840000
  12909  12923  12929     1   110.1900474 564.840000
  12909  12931  12915     1   112.4800480 524.673600
  12910  12913  12914     1   111.5100476 526.347200
  12910  12913  12921     1   110.1900474 564.840000
  12910  12909  12923     1   111.5100476 526.347200
  12910  12909  12931     1   107.9700462 569.024000
  12913  12914  12915     1   111.5100476 526.347200
  12913  12914  12920     1   110.1900474 564.840000
  12913  12910  12922     1   110.1900474 564.840000
  12914  12915  12919     1   107.9700462 569.024000
  12914  12915  12931     1   107.9700462 569.024000
  12914  12913  12921     1   110.1900474 564.840000
  12915  12914  12920     1   110.1900474 564.840000
  12919  12915  12931     1   108.2900466 608.353600
  12923  12909  12931     1   107.9700462 569.024000
  12932  12933  12936     1   111.5100476 526.347200
  12932  12933  12945     1   110.1900474 564.840000
  12932  12946  12952     1   110.1900474 564.840000
  12932  12954  12938     1   112.4800480 524.673600
  12933  12932  12946     1   111.5100476 526.347200
  12933  12932  12954     1   107.9700462 569.024000
  12933  12936  12937     1   111.5100476 526.347200
  12933  12936  12944     1   110.1900474 564.840000
  12936  12933  12945     1   110.1900474 564.840000
  12936  12937  12938     1   111.5100476 526.347200
  12936  12937  12943     1   110.1900474 564.840000
  12937  12936  12944     1   110.1900474 564.840000
  12937  12938  12942     1   107.9700462 569.024000
  12937  12938  12954     1   107.9700462 569.024000
  12938  12937  12943     1   110.1900474 564.840000
  12942  12938  12954     1   108.2900466 608.353600
  12946  12932  12954     1   107.9700462 569.024000
  12955  12956  12959     1   111.5100476 526.347200
  12955  12956  12968     1   110.1900474 564.840000
  12955  12969  12975     1   110.1900474 564.840000
  12955  12977  12961     1   112.4800480 524.673600
  12956  12959  12960     1   111.5100476 526.347200
  12956  12959  12967     1   110.1900474 564.840000
  12956  12955  12969     1   111.5100476 526.347200
  12956  12955  12977     1   107.9700462 569.024000
  12959  12960  12961     1   111.5100476 526.347200
  12959  12960  12966     1   110.1900474 564.840000
  12959  12956  12968     1   110.1900474 564.840000
  12960  12961  12965     1   107.9700462 569.024000
  12960  12961  12977     1   107.9700462 569.024000
  12960  12959  12967     1   110.1900474 564.840000
  12961  12960  12966     1   110.1900474 564.840000
  12965  12961  12977     1   108.2900466 608.353600
  12969  12955  12977     1   107.9700462 569.024000
  12978  12979  12982     1   111.5100476 526.347200
  12978  12979  12991     1   110.1900474 564.840000
  12978  12992  12998     1   110.1900474 564.840000
  12978  13000  12984     1   112.4800480 524.673600
  12979  12978  12992     1   111.5100476 526.347200
  12979  12978  13000     1   107.9700462 569.024000
  12979  12982  12983     1   111.5100476 526.347200
  12979  12982  12990     1   110.1900474 564.840000
  12982  12979  12991     1   110.1900474 564.840000
  12982  12983  12984     1   111.5100476 526.347200
  12982  12983  12989     1   110.1900474 564.840000
  12983  12982  12990     1   110.1900474 564.840000
  12983  12984  12988     1   107.9700462 569.024000
  12983  12984  13000     1   107.9700462 569.024000
  12984  12983  12989     1   110.1900474 564.840000
  12988  12984  13000     1   108.2900466 608.353600
  12992  12978  13000     1   107.9700462 569.024000
  13001  13002  13005     1   111.5100476 526.347200
  13001  13002  13014     1   110.1900474 564.840000
  13001  13015  13021     1   110.1900474 564.840000
  13001  13023  13007     1   112.4800480 524.673600
  13002  13005  13006     1   111.5100476 526.347200
  13002  13005  13013     1   110.1900474 564.840000
  13002  13001  13015     1   111.5100476 526.347200
  13002  13001  13023     1   107.9700462 569.024000
  13005  13006  13007     1   111.5100476 526.347200
  13005  13006  13012     1   110.1900474 564.840000
  13005  13002  13014     1   110.1900474 564.840000
  13006  13007  13011     1   107.9700462 569.024000
  13006  13007  13023     1   107.9700462 569.024000
  13006  13005  13013     1   110.1900474 564.840000
  13007  13006  13012     1   110.1900474 564.840000
  13011  13007  13023     1   108.2900466 608.353600
  13015  13001  13023     1   107.9700462 569.024000
  13024  13025  13028     1   111.5100476 526.347200
  13024  13025  13037     1   110.1900474 564.840000
  13024  13038  13044     1   110.1900474 564.840000
  13024  13046  13030     1   112.4800480 524.673600
  13025  13024  13038     1   111.5100476 526.347200
  13025  13024  13046     1   107.9700462 569.024000
  13025  13028  13029     1   111.5100476 526.347200
  13025  13028  13036     1   110.1900474 564.840000
  13028  13025  13037     1   110.1900474 564.840000
  13028  13029  13030     1   111.5100476 526.347200
  13028  13029  13035     1   110.1900474 564.840000
  13029  13028  13036     1   110.1900474 564.840000
  13029  13030  13034     1   107.9700462 569.024000
  13029  13030  13046     1   107.9700462 569.024000
  13030  13029  13035     1   110.1900474 564.840000
  13034  13030  13046     1   108.2900466 608.353600
  13038  13024  13046     1   107.9700462 569.024000
  13047  13048  13051     1   111.5100476 526.347200
  13047  13048  13060     1   110.1900474 564.840000
  13047  13061  13067     1   110.1900474 564.840000
  13047  13069  13053     1   112.4800480 524.673600
  13048  13051  13052     1   111.5100476 526.347200
  13048  13051  13059     1   110.1900474 564.840000
  13048  13047  13061     1   111.5100476 526.347200
  13048  13047  13069     1   107.9700462 569.024000
  13051  13052  13053     1   111.5100476 526.347200
  13051  13052  13058     1   110.1900474 564.840000
  13051  13048  13060     1   110.1900474 564.840000
  13052  13053  13057     1   107.9700462 569.024000
  13052  13053  13069     1   107.9700462 569.024000
  13052  13051  13059     1   110.1900474 564.840000
  13053  13052  13058     1   110.1900474 564.840000
  13057  13053  13069     1   108.2900466 608.353600
  13061  13047  13069     1   107.9700462 569.024000
  13070  13071  13074     1   111.5100476 526.347200
  13070  13071  13083     1   110.1900474 564.840000
  13070  13084  13090     1   110.1900474 564.840000
  13070  13092  13076     1   112.4800480 524.673600
  13071  13070  13084     1   111.5100476 526.347200
  13071  13070  13092     1   107.9700462 569.024000
  13071  13074  13075     1   111.5100476 526.347200
  13071  13074  13082     1   110.1900474 564.840000
  13074  13071  13083     1   110.1900474 564.840000
  13074  13075  13076     1   111.5100476 526.347200
  13074  13075  13081     1   110.1900474 564.840000
  13075  13074  13082     1   110.1900474 564.840000
  13075  13076  13080     1   107.9700462 569.024000
  13075  13076  13092     1   107.9700462 569.024000
  13076  13075  13081     1   110.1900474 564.840000
  13080  13076  13092     1   108.2900466 608.353600
  13084  13070  13092     1   107.9700462 569.024000
  13093  13094  13097     1   111.5100476 526.347200
  13093  13094  13106     1   110.1900474 564.840000
  13093  13107  13113     1   110.1900474 564.840000
  13093  13115  13099     1   112.4800480 524.673600
  13094  13097  13098     1   111.5100476 526.347200
  13094  13097  13105     1   110.1900474 564.840000
  13094  13093  13107     1   111.5100476 526.347200
  13094  13093  13115     1   107.9700462 569.024000
  13097  13098  13099     1   111.5100476 526.347200
  13097  13098  13104     1   110.1900474 564.840000
  13097  13094  13106     1   110.1900474 564.840000
  13098  13099  13103     1   107.9700462 569.024000
  13098  13099  13115     1   107.9700462 569.024000
  13098  13097  13105     1   110.1900474 564.840000
  13099  13098  13104     1   110.1900474 564.840000
  13103  13099  13115     1   108.2900466 608.353600
  13107  13093  13115     1   107.9700462 569.024000
  13116  13117  13120     1   111.5100476 526.347200
  13116  13117  13129     1   110.1900474 564.840000
  13116  13130  13136     1   110.1900474 564.840000
  13116  13138  13122     1   112.4800480 524.673600
  13117  13116  13130     1   111.5100476 526.347200
  13117  13116  13138     1   107.9700462 569.024000
  13117  13120  13121     1   111.5100476 526.347200
  13117  13120  13128     1   110.1900474 564.840000
  13120  13117  13129     1   110.1900474 564.840000
  13120  13121  13122     1   111.5100476 526.347200
  13120  13121  13127     1   110.1900474 564.840000
  13121  13120  13128     1   110.1900474 564.840000
  13121  13122  13126     1   107.9700462 569.024000
  13121  13122  13138     1   107.9700462 569.024000
  13122  13121  13127     1   110.1900474 564.840000
  13126  13122  13138     1   108.2900466 608.353600
  13130  13116  13138     1   107.9700462 569.024000
  13139  13140  13143     1   111.5100476 526.347200
  13139  13140  13152     1   110.1900474 564.840000
  13139  13153  13159     1   110.1900474 564.840000
  13139  13161  13145     1   112.4800480 524.673600
  13140  13143  13144     1   111.5100476 526.347200
  13140  13143  13151     1   110.1900474 564.840000
  13140  13139  13153     1   111.5100476 526.347200
  13140  13139  13161     1   107.9700462 569.024000
  13143  13144  13145     1   111.5100476 526.347200
  13143  13144  13150     1   110.1900474 564.840000
  13143  13140  13152     1   110.1900474 564.840000
  13144  13145  13149     1   107.9700462 569.024000
  13144  13145  13161     1   107.9700462 569.024000
  13144  13143  13151     1   110.1900474 564.840000
  13145  13144  13150     1   110.1900474 564.840000
  13149  13145  13161     1   108.2900466 608.353600
  13153  13139  13161     1   107.9700462 569.024000
  13162  13163  13166     1   111.5100476 526.347200
  13162  13163  13175     1   110.1900474 564.840000
  13162  13176  13182     1   110.1900474 564.840000
  13162  13184  13168     1   112.4800480 524.673600
  13163  13162  13176     1   111.5100476 526.347200
  13163  13162  13184     1   107.9700462 569.024000
  13163  13166  13167     1   111.5100476 526.347200
  13163  13166  13174     1   110.1900474 564.840000
  13166  13163  13175     1   110.1900474 564.840000
  13166  13167  13168     1   111.5100476 526.347200
  13166  13167  13173     1   110.1900474 564.840000
  13167  13166  13174     1   110.1900474 564.840000
  13167  13168  13172     1   107.9700462 569.024000
  13167  13168  13184     1   107.9700462 569.024000
  13168  13167  13173     1   110.1900474 564.840000
  13172  13168  13184     1   108.2900466 608.353600
  13176  13162  13184     1   107.9700462 569.024000
  13185  13186  13189     1   111.5100476 526.347200
  13185  13186  13198     1   110.1900474 564.840000
  13185  13199  13205     1   110.1900474 564.840000
  13185  13207  13191     1   112.4800480 524.673600
  13186  13189  13190     1   111.5100476 526.347200
  13186  13189  13197     1   110.1900474 564.840000
  13186  13185  13199     1   111.5100476 526.347200
  13186  13185  13207     1   107.9700462 569.024000
  13189  13190  13191     1   111.5100476 526.347200
  13189  13190  13196     1   110.1900474 564.840000
  13189  13186  13198     1   110.1900474 564.840000
  13190  13191  13195     1   107.9700462 569.024000
  13190  13191  13207     1   107.9700462 569.024000
  13190  13189  13197     1   110.1900474 564.840000
  13191  13190  13196     1   110.1900474 564.840000
  13195  13191  13207     1   108.2900466 608.353600
  13199  13185  13207     1   107.9700462 569.024000
  13208  13209  13212     1   111.5100476 526.347200
  13208  13209  13221     1   110.1900474 564.840000
  13208  13222  13228     1   110.1900474 564.840000
  13208  13230  13214     1   112.4800480 524.673600
  13209  13208  13222     1   111.5100476 526.347200
  13209  13208  13230     1   107.9700462 569.024000
  13209  13212  13213     1   111.5100476 526.347200
  13209  13212  13220     1   110.1900474 564.840000
  13212  13209  13221     1   110.1900474 564.840000
  13212  13213  13214     1   111.5100476 526.347200
  13212  13213  13219     1   110.1900474 564.840000
  13213  13212  13220     1   110.1900474 564.840000
  13213  13214  13218     1   107.9700462 569.024000
  13213  13214  13230     1   107.9700462 569.024000
  13214  13213  13219     1   110.1900474 564.840000
  13218  13214  13230     1   108.2900466 608.353600
  13222  13208  13230     1   107.9700462 569.024000
  13231  13232  13235     1   111.5100476 526.347200
  13231  13232  13244     1   110.1900474 564.840000
  13231  13245  13251     1   110.1900474 564.840000
  13231  13253  13237     1   112.4800480 524.673600
  13232  13235  13236     1   111.5100476 526.347200
  13232  13235  13243     1   110.1900474 564.840000
  13232  13231  13245     1   111.5100476 526.347200
  13232  13231  13253     1   107.9700462 569.024000
  13235  13236  13237     1   111.5100476 526.347200
  13235  13236  13242     1   110.1900474 564.840000
  13235  13232  13244     1   110.1900474 564.840000
  13236  13237  13241     1   107.9700462 569.024000
  13236  13237  13253     1   107.9700462 569.024000
  13236  13235  13243     1   110.1900474 564.840000
  13237  13236  13242     1   110.1900474 564.840000
  13241  13237  13253     1   108.2900466 608.353600
  13245  13231  13253     1   107.9700462 569.024000
  13254  13255  13258     1   111.5100476 526.347200
  13254  13255  13267     1   110.1900474 564.840000
  13254  13268  13274     1   110.1900474 564.840000
  13254  13276  13260     1   112.4800480 524.673600
  13255  13254  13268     1   111.5100476 526.347200
  13255  13254  13276     1   107.9700462 569.024000
  13255  13258  13259     1   111.5100476 526.347200
  13255  13258  13266     1   110.1900474 564.840000
  13258  13255  13267     1   110.1900474 564.840000
  13258  13259  13260     1   111.5100476 526.347200
  13258  13259  13265     1   110.1900474 564.840000
  13259  13258  13266     1   110.1900474 564.840000
  13259  13260  13264     1   107.9700462 569.024000
  13259  13260  13276     1   107.9700462 569.024000
  13260  13259  13265     1   110.1900474 564.840000
  13264  13260  13276     1   108.2900466 608.353600
  13268  13254  13276     1   107.9700462 569.024000
  13277  13278  13281     1   111.5100476 526.347200
  13277  13278  13290     1   110.1900474 564.840000
  13277  13291  13297     1   110.1900474 564.840000
  13277  13299  13283     1   112.4800480 524.673600
  13278  13281  13282     1   111.5100476 526.347200
  13278  13281  13289     1   110.1900474 564.840000
  13278  13277  13291     1   111.5100476 526.347200
  13278  13277  13299     1   107.9700462 569.024000
  13281  13282  13283     1   111.5100476 526.347200
  13281  13282  13288     1   110.1900474 564.840000
  13281  13278  13290     1   110.1900474 564.840000
  13282  13283  13287     1   107.9700462 569.024000
  13282  13283  13299     1   107.9700462 569.024000
  13282  13281  13289     1   110.1900474 564.840000
  13283  13282  13288     1   110.1900474 564.840000
  13287  13283  13299     1   108.2900466 608.353600
  13291  13277  13299     1   107.9700462 569.024000
  13300  13301  13304     1   111.5100476 526.347200
  13300  13301  13313     1   110.1900474 564.840000
  13300  13314  13320     1   110.1900474 564.840000
  13300  13322  13306     1   112.4800480 524.673600
  13301  13300  13314     1   111.5100476 526.347200
  13301  13300  13322     1   107.9700462 569.024000
  13301  13304  13305     1   111.5100476 526.347200
  13301  13304  13312     1   110.1900474 564.840000
  13304  13301  13313     1   110.1900474 564.840000
  13304  13305  13306     1   111.5100476 526.347200
  13304  13305  13311     1   110.1900474 564.840000
  13305  13304  13312     1   110.1900474 564.840000
  13305  13306  13310     1   107.9700462 569.024000
  13305  13306  13322     1   107.9700462 569.024000
  13306  13305  13311     1   110.1900474 564.840000
  13310  13306  13322     1   108.2900466 608.353600
  13314  13300  13322     1   107.9700462 569.024000
  13323  13324  13327     1   111.5100476 526.347200
  13323  13324  13336     1   110.1900474 564.840000
  13323  13337  13343     1   110.1900474 564.840000
  13323  13345  13329     1   112.4800480 524.673600
  13324  13327  13328     1   111.5100476 526.347200
  13324  13327  13335     1   110.1900474 564.840000
  13324  13323  13337     1   111.5100476 526.347200
  13324  13323  13345     1   107.9700462 569.024000
  13327  13328  13329     1   111.5100476 526.347200
  13327  13328  13334     1   110.1900474 564.840000
  13327  13324  13336     1   110.1900474 564.840000
  13328  13329  13333     1   107.9700462 569.024000
  13328  13329  13345     1   107.9700462 569.024000
  13328  13327  13335     1   110.1900474 564.840000
  13329  13328  13334     1   110.1900474 564.840000
  13333  13329  13345     1   108.2900466 608.353600
  13337  13323  13345     1   107.9700462 569.024000
  13346  13347  13350     1   111.5100476 526.347200
  13346  13347  13359     1   110.1900474 564.840000
  13346  13360  13366     1   110.1900474 564.840000
  13346  13368  13352     1   112.4800480 524.673600
  13347  13346  13360     1   111.5100476 526.347200
  13347  13346  13368     1   107.9700462 569.024000
  13347  13350  13351     1   111.5100476 526.347200
  13347  13350  13358     1   110.1900474 564.840000
  13350  13347  13359     1   110.1900474 564.840000
  13350  13351  13352     1   111.5100476 526.347200
  13350  13351  13357     1   110.1900474 564.840000
  13351  13350  13358     1   110.1900474 564.840000
  13351  13352  13356     1   107.9700462 569.024000
  13351  13352  13368     1   107.9700462 569.024000
  13352  13351  13357     1   110.1900474 564.840000
  13356  13352  13368     1   108.2900466 608.353600
  13360  13346  13368     1   107.9700462 569.024000
  13369  13370  13373     1   111.5100476 526.347200
  13369  13370  13382     1   110.1900474 564.840000
  13369  13383  13389     1   110.1900474 564.840000
  13369  13391  13375     1   112.4800480 524.673600
  13370  13373  13374     1   111.5100476 526.347200
  13370  13373  13381     1   110.1900474 564.840000
  13370  13369  13383     1   111.5100476 526.347200
  13370  13369  13391     1   107.9700462 569.024000
  13373  13374  13375     1   111.5100476 526.347200
  13373  13374  13380     1   110.1900474 564.840000
  13373  13370  13382     1   110.1900474 564.840000
  13374  13375  13379     1   107.9700462 569.024000
  13374  13375  13391     1   107.9700462 569.024000
  13374  13373  13381     1   110.1900474 564.840000
  13375  13374  13380     1   110.1900474 564.840000
  13379  13375  13391     1   108.2900466 608.353600
  13383  13369  13391     1   107.9700462 569.024000
  13392  13393  13396     1   111.5100476 526.347200
  13392  13393  13405     1   110.1900474 564.840000
  13392  13406  13412     1   110.1900474 564.840000
  13392  13414  13398     1   112.4800480 524.673600
  13393  13392  13406     1   111.5100476 526.347200
  13393  13392  13414     1   107.9700462 569.024000
  13393  13396  13397     1   111.5100476 526.347200
  13393  13396  13404     1   110.1900474 564.840000
  13396  13393  13405     1   110.1900474 564.840000
  13396  13397  13398     1   111.5100476 526.347200
  13396  13397  13403     1   110.1900474 564.840000
  13397  13396  13404     1   110.1900474 564.840000
  13397  13398  13402     1   107.9700462 569.024000
  13397  13398  13414     1   107.9700462 569.024000
  13398  13397  13403     1   110.1900474 564.840000
  13402  13398  13414     1   108.2900466 608.353600
  13406  13392  13414     1   107.9700462 569.024000
  13415  13416  13419     1   111.5100476 526.347200
  13415  13416  13428     1   110.1900474 564.840000
  13415  13429  13435     1   110.1900474 564.840000
  13415  13437  13421     1   112.4800480 524.673600
  13416  13419  13420     1   111.5100476 526.347200
  13416  13419  13427     1   110.1900474 564.840000
  13416  13415  13429     1   111.5100476 526.347200
  13416  13415  13437     1   107.9700462 569.024000
  13419  13420  13421     1   111.5100476 526.347200
  13419  13420  13426     1   110.1900474 564.840000
  13419  13416  13428     1   110.1900474 564.840000
  13420  13421  13425     1   107.9700462 569.024000
  13420  13421  13437     1   107.9700462 569.024000
  13420  13419  13427     1   110.1900474 564.840000
  13421  13420  13426     1   110.1900474 564.840000
  13425  13421  13437     1   108.2900466 608.353600
  13429  13415  13437     1   107.9700462 569.024000
  13438  13439  13442     1   111.5100476 526.347200
  13438  13439  13451     1   110.1900474 564.840000
  13438  13452  13458     1   110.1900474 564.840000
  13438  13460  13444     1   112.4800480 524.673600
  13439  13438  13452     1   111.5100476 526.347200
  13439  13438  13460     1   107.9700462 569.024000
  13439  13442  13443     1   111.5100476 526.347200
  13439  13442  13450     1   110.1900474 564.840000
  13442  13439  13451     1   110.1900474 564.840000
  13442  13443  13444     1   111.5100476 526.347200
  13442  13443  13449     1   110.1900474 564.840000
  13443  13442  13450     1   110.1900474 564.840000
  13443  13444  13448     1   107.9700462 569.024000
  13443  13444  13460     1   107.9700462 569.024000
  13444  13443  13449     1   110.1900474 564.840000
  13448  13444  13460     1   108.2900466 608.353600
  13452  13438  13460     1   107.9700462 569.024000
  13461  13462  13465     1   111.5100476 526.347200
  13461  13462  13474     1   110.1900474 564.840000
  13461  13475  13481     1   110.1900474 564.840000
  13461  13483  13467     1   112.4800480 524.673600
  13462  13465  13466     1   111.5100476 526.347200
  13462  13465  13473     1   110.1900474 564.840000
  13462  13461  13475     1   111.5100476 526.347200
  13462  13461  13483     1   107.9700462 569.024000
  13465  13466  13467     1   111.5100476 526.347200
  13465  13466  13472     1   110.1900474 564.840000
  13465  13462  13474     1   110.1900474 564.840000
  13466  13467  13471     1   107.9700462 569.024000
  13466  13467  13483     1   107.9700462 569.024000
  13466  13465  13473     1   110.1900474 564.840000
  13467  13466  13472     1   110.1900474 564.840000
  13471  13467  13483     1   108.2900466 608.353600
  13475  13461  13483     1   107.9700462 569.024000
  13484  13485  13488     1   111.5100476 526.347200
  13484  13485  13497     1   110.1900474 564.840000
  13484  13498  13504     1   110.1900474 564.840000
  13484  13506  13490     1   112.4800480 524.673600
  13485  13484  13498     1   111.5100476 526.347200
  13485  13484  13506     1   107.9700462 569.024000
  13485  13488  13489     1   111.5100476 526.347200
  13485  13488  13496     1   110.1900474 564.840000
  13488  13485  13497     1   110.1900474 564.840000
  13488  13489  13490     1   111.5100476 526.347200
  13488  13489  13495     1   110.1900474 564.840000
  13489  13488  13496     1   110.1900474 564.840000
  13489  13490  13494     1   107.9700462 569.024000
  13489  13490  13506     1   107.9700462 569.024000
  13490  13489  13495     1   110.1900474 564.840000
  13494  13490  13506     1   108.2900466 608.353600
  13498  13484  13506     1   107.9700462 569.024000
  13507  13508  13511     1   111.5100476 526.347200
  13507  13508  13520     1   110.1900474 564.840000
  13507  13521  13527     1   110.1900474 564.840000
  13507  13529  13513     1   112.4800480 524.673600
  13508  13511  13512     1   111.5100476 526.347200
  13508  13511  13519     1   110.1900474 564.840000
  13508  13507  13521     1   111.5100476 526.347200
  13508  13507  13529     1   107.9700462 569.024000
  13511  13512  13513     1   111.5100476 526.347200
  13511  13512  13518     1   110.1900474 564.840000
  13511  13508  13520     1   110.1900474 564.840000
  13512  13513  13517     1   107.9700462 569.024000
  13512  13513  13529     1   107.9700462 569.024000
  13512  13511  13519     1   110.1900474 564.840000
  13513  13512  13518     1   110.1900474 564.840000
  13517  13513  13529     1   108.2900466 608.353600
  13521  13507  13529     1   107.9700462 569.024000
  13530  13531  13534     1   111.5100476 526.347200
  13530  13531  13543     1   110.1900474 564.840000
  13530  13544  13550     1   110.1900474 564.840000
  13530  13552  13536     1   112.4800480 524.673600
  13531  13530  13544     1   111.5100476 526.347200
  13531  13530  13552     1   107.9700462 569.024000
  13531  13534  13535     1   111.5100476 526.347200
  13531  13534  13542     1   110.1900474 564.840000
  13534  13531  13543     1   110.1900474 564.840000
  13534  13535  13536     1   111.5100476 526.347200
  13534  13535  13541     1   110.1900474 564.840000
  13535  13534  13542     1   110.1900474 564.840000
  13535  13536  13540     1   107.9700462 569.024000
  13535  13536  13552     1   107.9700462 569.024000
  13536  13535  13541     1   110.1900474 564.840000
  13540  13536  13552     1   108.2900466 608.353600
  13544  13530  13552     1   107.9700462 569.024000
  13553  13554  13557     1   111.5100476 526.347200
  13553  13554  13566     1   110.1900474 564.840000
  13553  13567  13573     1   110.1900474 564.840000
  13553  13575  13559     1   112.4800480 524.673600
  13554  13557  13558     1   111.5100476 526.347200
  13554  13557  13565     1   110.1900474 564.840000
  13554  13553  13567     1   111.5100476 526.347200
  13554  13553  13575     1   107.9700462 569.024000
  13557  13558  13559     1   111.5100476 526.347200
  13557  13558  13564     1   110.1900474 564.840000
  13557  13554  13566     1   110.1900474 564.840000
  13558  13559  13563     1   107.9700462 569.024000
  13558  13559  13575     1   107.9700462 569.024000
  13558  13557  13565     1   110.1900474 564.840000
  13559  13558  13564     1   110.1900474 564.840000
  13563  13559  13575     1   108.2900466 608.353600
  13567  13553  13575     1   107.9700462 569.024000
  13576  13577  13580     1   111.5100476 526.347200
  13576  13577  13589     1   110.1900474 564.840000
  13576  13590  13596     1   110.1900474 564.840000
  13576  13598  13582     1   112.4800480 524.673600
  13577  13576  13590     1   111.5100476 526.347200
  13577  13576  13598     1   107.9700462 569.024000
  13577  13580  13581     1   111.5100476 526.347200
  13577  13580  13588     1   110.1900474 564.840000
  13580  13577  13589     1   110.1900474 564.840000
  13580  13581  13582     1   111.5100476 526.347200
  13580  13581  13587     1   110.1900474 564.840000
  13581  13580  13588     1   110.1900474 564.840000
  13581  13582  13586     1   107.9700462 569.024000
  13581  13582  13598     1   107.9700462 569.024000
  13582  13581  13587     1   110.1900474 564.840000
  13586  13582  13598     1   108.2900466 608.353600
  13590  13576  13598     1   107.9700462 569.024000
  13599  13600  13603     1   111.5100476 526.347200
  13599  13600  13612     1   110.1900474 564.840000
  13599  13613  13619     1   110.1900474 564.840000
  13599  13621  13605     1   112.4800480 524.673600
  13600  13603  13604     1   111.5100476 526.347200
  13600  13603  13611     1   110.1900474 564.840000
  13600  13599  13613     1   111.5100476 526.347200
  13600  13599  13621     1   107.9700462 569.024000
  13603  13604  13605     1   111.5100476 526.347200
  13603  13604  13610     1   110.1900474 564.840000
  13603  13600  13612     1   110.1900474 564.840000
  13604  13605  13609     1   107.9700462 569.024000
  13604  13605  13621     1   107.9700462 569.024000
  13604  13603  13611     1   110.1900474 564.840000
  13605  13604  13610     1   110.1900474 564.840000
  13609  13605  13621     1   108.2900466 608.353600
  13613  13599  13621     1   107.9700462 569.024000
  13622  13623  13626     1   111.5100476 526.347200
  13622  13623  13635     1   110.1900474 564.840000
  13622  13636  13642     1   110.1900474 564.840000
  13622  13644  13628     1   112.4800480 524.673600
  13623  13622  13636     1   111.5100476 526.347200
  13623  13622  13644     1   107.9700462 569.024000
  13623  13626  13627     1   111.5100476 526.347200
  13623  13626  13634     1   110.1900474 564.840000
  13626  13623  13635     1   110.1900474 564.840000
  13626  13627  13628     1   111.5100476 526.347200
  13626  13627  13633     1   110.1900474 564.840000
  13627  13626  13634     1   110.1900474 564.840000
  13627  13628  13632     1   107.9700462 569.024000
  13627  13628  13644     1   107.9700462 569.024000
  13628  13627  13633     1   110.1900474 564.840000
  13632  13628  13644     1   108.2900466 608.353600
  13636  13622  13644     1   107.9700462 569.024000
  13645  13646  13649     1   111.5100476 526.347200
  13645  13646  13658     1   110.1900474 564.840000
  13645  13659  13665     1   110.1900474 564.840000
  13645  13667  13651     1   112.4800480 524.673600
  13646  13649  13650     1   111.5100476 526.347200
  13646  13649  13657     1   110.1900474 564.840000
  13646  13645  13659     1   111.5100476 526.347200
  13646  13645  13667     1   107.9700462 569.024000
  13649  13650  13651     1   111.5100476 526.347200
  13649  13650  13656     1   110.1900474 564.840000
  13649  13646  13658     1   110.1900474 564.840000
  13650  13651  13655     1   107.9700462 569.024000
  13650  13651  13667     1   107.9700462 569.024000
  13650  13649  13657     1   110.1900474 564.840000
  13651  13650  13656     1   110.1900474 564.840000
  13655  13651  13667     1   108.2900466 608.353600
  13659  13645  13667     1   107.9700462 569.024000
  13668  13669  13672     1   111.5100476 526.347200
  13668  13669  13681     1   110.1900474 564.840000
  13668  13682  13688     1   110.1900474 564.840000
  13668  13690  13674     1   112.4800480 524.673600
  13669  13668  13682     1   111.5100476 526.347200
  13669  13668  13690     1   107.9700462 569.024000
  13669  13672  13673     1   111.5100476 526.347200
  13669  13672  13680     1   110.1900474 564.840000
  13672  13669  13681     1   110.1900474 564.840000
  13672  13673  13674     1   111.5100476 526.347200
  13672  13673  13679     1   110.1900474 564.840000
  13673  13672  13680     1   110.1900474 564.840000
  13673  13674  13678     1   107.9700462 569.024000
  13673  13674  13690     1   107.9700462 569.024000
  13674  13673  13679     1   110.1900474 564.840000
  13678  13674  13690     1   108.2900466 608.353600
  13682  13668  13690     1   107.9700462 569.024000
  13691  13692  13695     1   111.5100476 526.347200
  13691  13692  13704     1   110.1900474 564.840000
  13691  13705  13711     1   110.1900474 564.840000
  13691  13713  13697     1   112.4800480 524.673600
  13692  13695  13696     1   111.5100476 526.347200
  13692  13695  13703     1   110.1900474 564.840000
  13692  13691  13705     1   111.5100476 526.347200
  13692  13691  13713     1   107.9700462 569.024000
  13695  13696  13697     1   111.5100476 526.347200
  13695  13696  13702     1   110.1900474 564.840000
  13695  13692  13704     1   110.1900474 564.840000
  13696  13697  13701     1   107.9700462 569.024000
  13696  13697  13713     1   107.9700462 569.024000
  13696  13695  13703     1   110.1900474 564.840000
  13697  13696  13702     1   110.1900474 564.840000
  13701  13697  13713     1   108.2900466 608.353600
  13705  13691  13713     1   107.9700462 569.024000
  13714  13715  13718     1   111.5100476 526.347200
  13714  13715  13727     1   110.1900474 564.840000
  13714  13728  13734     1   110.1900474 564.840000
  13714  13736  13720     1   112.4800480 524.673600
  13715  13714  13728     1   111.5100476 526.347200
  13715  13714  13736     1   107.9700462 569.024000
  13715  13718  13719     1   111.5100476 526.347200
  13715  13718  13726     1   110.1900474 564.840000
  13718  13715  13727     1   110.1900474 564.840000
  13718  13719  13720     1   111.5100476 526.347200
  13718  13719  13725     1   110.1900474 564.840000
  13719  13718  13726     1   110.1900474 564.840000
  13719  13720  13724     1   107.9700462 569.024000
  13719  13720  13736     1   107.9700462 569.024000
  13720  13719  13725     1   110.1900474 564.840000
  13724  13720  13736     1   108.2900466 608.353600
  13728  13714  13736     1   107.9700462 569.024000
  13737  13738  13741     1   111.5100476 526.347200
  13737  13738  13750     1   110.1900474 564.840000
  13737  13751  13757     1   110.1900474 564.840000
  13737  13759  13743     1   112.4800480 524.673600
  13738  13741  13742     1   111.5100476 526.347200
  13738  13741  13749     1   110.1900474 564.840000
  13738  13737  13751     1   111.5100476 526.347200
  13738  13737  13759     1   107.9700462 569.024000
  13741  13742  13743     1   111.5100476 526.347200
  13741  13742  13748     1   110.1900474 564.840000
  13741  13738  13750     1   110.1900474 564.840000
  13742  13743  13747     1   107.9700462 569.024000
  13742  13743  13759     1   107.9700462 569.024000
  13742  13741  13749     1   110.1900474 564.840000
  13743  13742  13748     1   110.1900474 564.840000
  13747  13743  13759     1   108.2900466 608.353600
  13751  13737  13759     1   107.9700462 569.024000
  13760  13761  13764     1   111.5100476 526.347200
  13760  13761  13773     1   110.1900474 564.840000
  13760  13774  13780     1   110.1900474 564.840000
  13760  13782  13766     1   112.4800480 524.673600
  13761  13760  13774     1   111.5100476 526.347200
  13761  13760  13782     1   107.9700462 569.024000
  13761  13764  13765     1   111.5100476 526.347200
  13761  13764  13772     1   110.1900474 564.840000
  13764  13761  13773     1   110.1900474 564.840000
  13764  13765  13766     1   111.5100476 526.347200
  13764  13765  13771     1   110.1900474 564.840000
  13765  13764  13772     1   110.1900474 564.840000
  13765  13766  13770     1   107.9700462 569.024000
  13765  13766  13782     1   107.9700462 569.024000
  13766  13765  13771     1   110.1900474 564.840000
  13770  13766  13782     1   108.2900466 608.353600
  13774  13760  13782     1   107.9700462 569.024000
  13783  13784  13787     1   111.5100476 526.347200
  13783  13784  13796     1   110.1900474 564.840000
  13783  13797  13803     1   110.1900474 564.840000
  13783  13805  13789     1   112.4800480 524.673600
  13784  13787  13788     1   111.5100476 526.347200
  13784  13787  13795     1   110.1900474 564.840000
  13784  13783  13797     1   111.5100476 526.347200
  13784  13783  13805     1   107.9700462 569.024000
  13787  13788  13789     1   111.5100476 526.347200
  13787  13788  13794     1   110.1900474 564.840000
  13787  13784  13796     1   110.1900474 564.840000
  13788  13789  13793     1   107.9700462 569.024000
  13788  13789  13805     1   107.9700462 569.024000
  13788  13787  13795     1   110.1900474 564.840000
  13789  13788  13794     1   110.1900474 564.840000
  13793  13789  13805     1   108.2900466 608.353600
  13797  13783  13805     1   107.9700462 569.024000
  13806  13807  13810     1   111.5100476 526.347200
  13806  13807  13819     1   110.1900474 564.840000
  13806  13820  13826     1   110.1900474 564.840000
  13806  13828  13812     1   112.4800480 524.673600
  13807  13806  13820     1   111.5100476 526.347200
  13807  13806  13828     1   107.9700462 569.024000
  13807  13810  13811     1   111.5100476 526.347200
  13807  13810  13818     1   110.1900474 564.840000
  13810  13807  13819     1   110.1900474 564.840000
  13810  13811  13812     1   111.5100476 526.347200
  13810  13811  13817     1   110.1900474 564.840000
  13811  13810  13818     1   110.1900474 564.840000
  13811  13812  13816     1   107.9700462 569.024000
  13811  13812  13828     1   107.9700462 569.024000
  13812  13811  13817     1   110.1900474 564.840000
  13816  13812  13828     1   108.2900466 608.353600
  13820  13806  13828     1   107.9700462 569.024000
  13829  13830  13833     1   111.5100476 526.347200
  13829  13830  13842     1   110.1900474 564.840000
  13829  13843  13849     1   110.1900474 564.840000
  13829  13851  13835     1   112.4800480 524.673600
  13830  13833  13834     1   111.5100476 526.347200
  13830  13833  13841     1   110.1900474 564.840000
  13830  13829  13843     1   111.5100476 526.347200
  13830  13829  13851     1   107.9700462 569.024000
  13833  13834  13835     1   111.5100476 526.347200
  13833  13834  13840     1   110.1900474 564.840000
  13833  13830  13842     1   110.1900474 564.840000
  13834  13835  13839     1   107.9700462 569.024000
  13834  13835  13851     1   107.9700462 569.024000
  13834  13833  13841     1   110.1900474 564.840000
  13835  13834  13840     1   110.1900474 564.840000
  13839  13835  13851     1   108.2900466 608.353600
  13843  13829  13851     1   107.9700462 569.024000
  13852  13853  13856     1   111.5100476 526.347200
  13852  13853  13865     1   110.1900474 564.840000
  13852  13866  13872     1   110.1900474 564.840000
  13852  13874  13858     1   112.4800480 524.673600
  13853  13852  13866     1   111.5100476 526.347200
  13853  13852  13874     1   107.9700462 569.024000
  13853  13856  13857     1   111.5100476 526.347200
  13853  13856  13864     1   110.1900474 564.840000
  13856  13853  13865     1   110.1900474 564.840000
  13856  13857  13858     1   111.5100476 526.347200
  13856  13857  13863     1   110.1900474 564.840000
  13857  13856  13864     1   110.1900474 564.840000
  13857  13858  13862     1   107.9700462 569.024000
  13857  13858  13874     1   107.9700462 569.024000
  13858  13857  13863     1   110.1900474 564.840000
  13862  13858  13874     1   108.2900466 608.353600
  13866  13852  13874     1   107.9700462 569.024000
  13875  13876  13879     1   111.5100476 526.347200
  13875  13876  13888     1   110.1900474 564.840000
  13875  13889  13895     1   110.1900474 564.840000
  13875  13897  13881     1   112.4800480 524.673600
  13876  13879  13880     1   111.5100476 526.347200
  13876  13879  13887     1   110.1900474 564.840000
  13876  13875  13889     1   111.5100476 526.347200
  13876  13875  13897     1   107.9700462 569.024000
  13879  13880  13881     1   111.5100476 526.347200
  13879  13880  13886     1   110.1900474 564.840000
  13879  13876  13888     1   110.1900474 564.840000
  13880  13881  13885     1   107.9700462 569.024000
  13880  13881  13897     1   107.9700462 569.024000
  13880  13879  13887     1   110.1900474 564.840000
  13881  13880  13886     1   110.1900474 564.840000
  13885  13881  13897     1   108.2900466 608.353600
  13889  13875  13897     1   107.9700462 569.024000
  13898  13899  13902     1   111.5100476 526.347200
  13898  13899  13911     1   110.1900474 564.840000
  13898  13912  13918     1   110.1900474 564.840000
  13898  13920  13904     1   112.4800480 524.673600
  13899  13898  13912     1   111.5100476 526.347200
  13899  13898  13920     1   107.9700462 569.024000
  13899  13902  13903     1   111.5100476 526.347200
  13899  13902  13910     1   110.1900474 564.840000
  13902  13899  13911     1   110.1900474 564.840000
  13902  13903  13904     1   111.5100476 526.347200
  13902  13903  13909     1   110.1900474 564.840000
  13903  13902  13910     1   110.1900474 564.840000
  13903  13904  13908     1   107.9700462 569.024000
  13903  13904  13920     1   107.9700462 569.024000
  13904  13903  13909     1   110.1900474 564.840000
  13908  13904  13920     1   108.2900466 608.353600
  13912  13898  13920     1   107.9700462 569.024000
  13921  13922  13925     1   111.5100476 526.347200
  13921  13922  13934     1   110.1900474 564.840000
  13921  13935  13941     1   110.1900474 564.840000
  13921  13943  13927     1   112.4800480 524.673600
  13922  13925  13926     1   111.5100476 526.347200
  13922  13925  13933     1   110.1900474 564.840000
  13922  13921  13935     1   111.5100476 526.347200
  13922  13921  13943     1   107.9700462 569.024000
  13925  13926  13927     1   111.5100476 526.347200
  13925  13926  13932     1   110.1900474 564.840000
  13925  13922  13934     1   110.1900474 564.840000
  13926  13927  13931     1   107.9700462 569.024000
  13926  13927  13943     1   107.9700462 569.024000
  13926  13925  13933     1   110.1900474 564.840000
  13927  13926  13932     1   110.1900474 564.840000
  13931  13927  13943     1   108.2900466 608.353600
  13935  13921  13943     1   107.9700462 569.024000
  13944  13945  13948     1   111.5100476 526.347200
  13944  13945  13957     1   110.1900474 564.840000
  13944  13958  13964     1   110.1900474 564.840000
  13944  13966  13950     1   112.4800480 524.673600
  13945  13944  13958     1   111.5100476 526.347200
  13945  13944  13966     1   107.9700462 569.024000
  13945  13948  13949     1   111.5100476 526.347200
  13945  13948  13956     1   110.1900474 564.840000
  13948  13945  13957     1   110.1900474 564.840000
  13948  13949  13950     1   111.5100476 526.347200
  13948  13949  13955     1   110.1900474 564.840000
  13949  13948  13956     1   110.1900474 564.840000
  13949  13950  13954     1   107.9700462 569.024000
  13949  13950  13966     1   107.9700462 569.024000
  13950  13949  13955     1   110.1900474 564.840000
  13954  13950  13966     1   108.2900466 608.353600
  13958  13944  13966     1   107.9700462 569.024000
  13967  13968  13971     1   111.5100476 526.347200
  13967  13968  13980     1   110.1900474 564.840000
  13967  13981  13987     1   110.1900474 564.840000
  13967  13989  13973     1   112.4800480 524.673600
  13968  13971  13972     1   111.5100476 526.347200
  13968  13971  13979     1   110.1900474 564.840000
  13968  13967  13981     1   111.5100476 526.347200
  13968  13967  13989     1   107.9700462 569.024000
  13971  13972  13973     1   111.5100476 526.347200
  13971  13972  13978     1   110.1900474 564.840000
  13971  13968  13980     1   110.1900474 564.840000
  13972  13973  13977     1   107.9700462 569.024000
  13972  13973  13989     1   107.9700462 569.024000
  13972  13971  13979     1   110.1900474 564.840000
  13973  13972  13978     1   110.1900474 564.840000
  13977  13973  13989     1   108.2900466 608.353600
  13981  13967  13989     1   107.9700462 569.024000
  13990  13991  13994     1   111.5100476 526.347200
  13990  13991  14003     1   110.1900474 564.840000
  13990  14004  14010     1   110.1900474 564.840000
  13990  14012  13996     1   112.4800480 524.673600
  13991  13990  14004     1   111.5100476 526.347200
  13991  13990  14012     1   107.9700462 569.024000
  13991  13994  13995     1   111.5100476 526.347200
  13991  13994  14002     1   110.1900474 564.840000
  13994  13991  14003     1   110.1900474 564.840000
  13994  13995  13996     1   111.5100476 526.347200
  13994  13995  14001     1   110.1900474 564.840000
  13995  13994  14002     1   110.1900474 564.840000
  13995  13996  14000     1   107.9700462 569.024000
  13995  13996  14012     1   107.9700462 569.024000
  13996  13995  14001     1   110.1900474 564.840000
  14000  13996  14012     1   108.2900466 608.353600
  14004  13990  14012     1   107.9700462 569.024000
  14013  14014  14017     1   111.5100476 526.347200
  14013  14014  14026     1   110.1900474 564.840000
  14013  14027  14033     1   110.1900474 564.840000
  14013  14035  14019     1   112.4800480 524.673600
  14014  14017  14018     1   111.5100476 526.347200
  14014  14017  14025     1   110.1900474 564.840000
  14014  14013  14027     1   111.5100476 526.347200
  14014  14013  14035     1   107.9700462 569.024000
  14017  14018  14019     1   111.5100476 526.347200
  14017  14018  14024     1   110.1900474 564.840000
  14017  14014  14026     1   110.1900474 564.840000
  14018  14019  14023     1   107.9700462 569.024000
  14018  14019  14035     1   107.9700462 569.024000
  14018  14017  14025     1   110.1900474 564.840000
  14019  14018  14024     1   110.1900474 564.840000
  14023  14019  14035     1   108.2900466 608.353600
  14027  14013  14035     1   107.9700462 569.024000
  14036  14037  14040     1   111.5100476 526.347200
  14036  14037  14049     1   110.1900474 564.840000
  14036  14050  14056     1   110.1900474 564.840000
  14036  14058  14042     1   112.4800480 524.673600
  14037  14036  14050     1   111.5100476 526.347200
  14037  14036  14058     1   107.9700462 569.024000
  14037  14040  14041     1   111.5100476 526.347200
  14037  14040  14048     1   110.1900474 564.840000
  14040  14037  14049     1   110.1900474 564.840000
  14040  14041  14042     1   111.5100476 526.347200
  14040  14041  14047     1   110.1900474 564.840000
  14041  14040  14048     1   110.1900474 564.840000
  14041  14042  14046     1   107.9700462 569.024000
  14041  14042  14058     1   107.9700462 569.024000
  14042  14041  14047     1   110.1900474 564.840000
  14046  14042  14058     1   108.2900466 608.353600
  14050  14036  14058     1   107.9700462 569.024000
  14059  14060  14063     1   111.5100476 526.347200
  14059  14060  14072     1   110.1900474 564.840000
  14059  14073  14079     1   110.1900474 564.840000
  14059  14081  14065     1   112.4800480 524.673600
  14060  14063  14064     1   111.5100476 526.347200
  14060  14063  14071     1   110.1900474 564.840000
  14060  14059  14073     1   111.5100476 526.347200
  14060  14059  14081     1   107.9700462 569.024000
  14063  14064  14065     1   111.5100476 526.347200
  14063  14064  14070     1   110.1900474 564.840000
  14063  14060  14072     1   110.1900474 564.840000
  14064  14065  14069     1   107.9700462 569.024000
  14064  14065  14081     1   107.9700462 569.024000
  14064  14063  14071     1   110.1900474 564.840000
  14065  14064  14070     1   110.1900474 564.840000
  14069  14065  14081     1   108.2900466 608.353600
  14073  14059  14081     1   107.9700462 569.024000
  14082  14083  14086     1   111.5100476 526.347200
  14082  14083  14095     1   110.1900474 564.840000
  14082  14096  14102     1   110.1900474 564.840000
  14082  14104  14088     1   112.4800480 524.673600
  14083  14082  14096     1   111.5100476 526.347200
  14083  14082  14104     1   107.9700462 569.024000
  14083  14086  14087     1   111.5100476 526.347200
  14083  14086  14094     1   110.1900474 564.840000
  14086  14083  14095     1   110.1900474 564.840000
  14086  14087  14088     1   111.5100476 526.347200
  14086  14087  14093     1   110.1900474 564.840000
  14087  14086  14094     1   110.1900474 564.840000
  14087  14088  14092     1   107.9700462 569.024000
  14087  14088  14104     1   107.9700462 569.024000
  14088  14087  14093     1   110.1900474 564.840000
  14092  14088  14104     1   108.2900466 608.353600
  14096  14082  14104     1   107.9700462 569.024000
  14105  14106  14109     1   111.5100476 526.347200
  14105  14106  14118     1   110.1900474 564.840000
  14105  14119  14125     1   110.1900474 564.840000
  14105  14127  14111     1   112.4800480 524.673600
  14106  14109  14110     1   111.5100476 526.347200
  14106  14109  14117     1   110.1900474 564.840000
  14106  14105  14119     1   111.5100476 526.347200
  14106  14105  14127     1   107.9700462 569.024000
  14109  14110  14111     1   111.5100476 526.347200
  14109  14110  14116     1   110.1900474 564.840000
  14109  14106  14118     1   110.1900474 564.840000
  14110  14111  14115     1   107.9700462 569.024000
  14110  14111  14127     1   107.9700462 569.024000
  14110  14109  14117     1   110.1900474 564.840000
  14111  14110  14116     1   110.1900474 564.840000
  14115  14111  14127     1   108.2900466 608.353600
  14119  14105  14127     1   107.9700462 569.024000
  14128  14129  14132     1   111.5100476 526.347200
  14128  14129  14141     1   110.1900474 564.840000
  14128  14142  14148     1   110.1900474 564.840000
  14128  14150  14134     1   112.4800480 524.673600
  14129  14128  14142     1   111.5100476 526.347200
  14129  14128  14150     1   107.9700462 569.024000
  14129  14132  14133     1   111.5100476 526.347200
  14129  14132  14140     1   110.1900474 564.840000
  14132  14129  14141     1   110.1900474 564.840000
  14132  14133  14134     1   111.5100476 526.347200
  14132  14133  14139     1   110.1900474 564.840000
  14133  14132  14140     1   110.1900474 564.840000
  14133  14134  14138     1   107.9700462 569.024000
  14133  14134  14150     1   107.9700462 569.024000
  14134  14133  14139     1   110.1900474 564.840000
  14138  14134  14150     1   108.2900466 608.353600
  14142  14128  14150     1   107.9700462 569.024000
  14151  14152  14155     1   111.5100476 526.347200
  14151  14152  14164     1   110.1900474 564.840000
  14151  14165  14171     1   110.1900474 564.840000
  14151  14173  14157     1   112.4800480 524.673600
  14152  14155  14156     1   111.5100476 526.347200
  14152  14155  14163     1   110.1900474 564.840000
  14152  14151  14165     1   111.5100476 526.347200
  14152  14151  14173     1   107.9700462 569.024000
  14155  14156  14157     1   111.5100476 526.347200
  14155  14156  14162     1   110.1900474 564.840000
  14155  14152  14164     1   110.1900474 564.840000
  14156  14157  14161     1   107.9700462 569.024000
  14156  14157  14173     1   107.9700462 569.024000
  14156  14155  14163     1   110.1900474 564.840000
  14157  14156  14162     1   110.1900474 564.840000
  14161  14157  14173     1   108.2900466 608.353600
  14165  14151  14173     1   107.9700462 569.024000
  14174  14175  14178     1   111.5100476 526.347200
  14174  14175  14187     1   110.1900474 564.840000
  14174  14188  14194     1   110.1900474 564.840000
  14174  14196  14180     1   112.4800480 524.673600
  14175  14174  14188     1   111.5100476 526.347200
  14175  14174  14196     1   107.9700462 569.024000
  14175  14178  14179     1   111.5100476 526.347200
  14175  14178  14186     1   110.1900474 564.840000
  14178  14175  14187     1   110.1900474 564.840000
  14178  14179  14180     1   111.5100476 526.347200
  14178  14179  14185     1   110.1900474 564.840000
  14179  14178  14186     1   110.1900474 564.840000
  14179  14180  14184     1   107.9700462 569.024000
  14179  14180  14196     1   107.9700462 569.024000
  14180  14179  14185     1   110.1900474 564.840000
  14184  14180  14196     1   108.2900466 608.353600
  14188  14174  14196     1   107.9700462 569.024000
  14197  14198  14201     1   111.5100476 526.347200
  14197  14198  14210     1   110.1900474 564.840000
  14197  14211  14217     1   110.1900474 564.840000
  14197  14219  14203     1   112.4800480 524.673600
  14198  14201  14202     1   111.5100476 526.347200
  14198  14201  14209     1   110.1900474 564.840000
  14198  14197  14211     1   111.5100476 526.347200
  14198  14197  14219     1   107.9700462 569.024000
  14201  14202  14203     1   111.5100476 526.347200
  14201  14202  14208     1   110.1900474 564.840000
  14201  14198  14210     1   110.1900474 564.840000
  14202  14203  14207     1   107.9700462 569.024000
  14202  14203  14219     1   107.9700462 569.024000
  14202  14201  14209     1   110.1900474 564.840000
  14203  14202  14208     1   110.1900474 564.840000
  14207  14203  14219     1   108.2900466 608.353600
  14211  14197  14219     1   107.9700462 569.024000
  14220  14221  14224     1   111.5100476 526.347200
  14220  14221  14233     1   110.1900474 564.840000
  14220  14234  14240     1   110.1900474 564.840000
  14220  14242  14226     1   112.4800480 524.673600
  14221  14220  14234     1   111.5100476 526.347200
  14221  14220  14242     1   107.9700462 569.024000
  14221  14224  14225     1   111.5100476 526.347200
  14221  14224  14232     1   110.1900474 564.840000
  14224  14221  14233     1   110.1900474 564.840000
  14224  14225  14226     1   111.5100476 526.347200
  14224  14225  14231     1   110.1900474 564.840000
  14225  14224  14232     1   110.1900474 564.840000
  14225  14226  14230     1   107.9700462 569.024000
  14225  14226  14242     1   107.9700462 569.024000
  14226  14225  14231     1   110.1900474 564.840000
  14230  14226  14242     1   108.2900466 608.353600
  14234  14220  14242     1   107.9700462 569.024000
  14243  14244  14247     1   111.5100476 526.347200
  14243  14244  14256     1   110.1900474 564.840000
  14243  14257  14263     1   110.1900474 564.840000
  14243  14265  14249     1   112.4800480 524.673600
  14244  14247  14248     1   111.5100476 526.347200
  14244  14247  14255     1   110.1900474 564.840000
  14244  14243  14257     1   111.5100476 526.347200
  14244  14243  14265     1   107.9700462 569.024000
  14247  14248  14249     1   111.5100476 526.347200
  14247  14248  14254     1   110.1900474 564.840000
  14247  14244  14256     1   110.1900474 564.840000
  14248  14249  14253     1   107.9700462 569.024000
  14248  14249  14265     1   107.9700462 569.024000
  14248  14247  14255     1   110.1900474 564.840000
  14249  14248  14254     1   110.1900474 564.840000
  14253  14249  14265     1   108.2900466 608.353600
  14257  14243  14265     1   107.9700462 569.024000
  14266  14267  14270     1   111.5100476 526.347200
  14266  14267  14279     1   110.1900474 564.840000
  14266  14280  14286     1   110.1900474 564.840000
  14266  14288  14272     1   112.4800480 524.673600
  14267  14266  14280     1   111.5100476 526.347200
  14267  14266  14288     1   107.9700462 569.024000
  14267  14270  14271     1   111.5100476 526.347200
  14267  14270  14278     1   110.1900474 564.840000
  14270  14267  14279     1   110.1900474 564.840000
  14270  14271  14272     1   111.5100476 526.347200
  14270  14271  14277     1   110.1900474 564.840000
  14271  14270  14278     1   110.1900474 564.840000
  14271  14272  14276     1   107.9700462 569.024000
  14271  14272  14288     1   107.9700462 569.024000
  14272  14271  14277     1   110.1900474 564.840000
  14276  14272  14288     1   108.2900466 608.353600
  14280  14266  14288     1   107.9700462 569.024000
  14289  14290  14293     1   111.5100476 526.347200
  14289  14290  14302     1   110.1900474 564.840000
  14289  14303  14309     1   110.1900474 564.840000
  14289  14311  14295     1   112.4800480 524.673600
  14290  14293  14294     1   111.5100476 526.347200
  14290  14293  14301     1   110.1900474 564.840000
  14290  14289  14303     1   111.5100476 526.347200
  14290  14289  14311     1   107.9700462 569.024000
  14293  14294  14295     1   111.5100476 526.347200
  14293  14294  14300     1   110.1900474 564.840000
  14293  14290  14302     1   110.1900474 564.840000
  14294  14295  14299     1   107.9700462 569.024000
  14294  14295  14311     1   107.9700462 569.024000
  14294  14293  14301     1   110.1900474 564.840000
  14295  14294  14300     1   110.1900474 564.840000
  14299  14295  14311     1   108.2900466 608.353600
  14303  14289  14311     1   107.9700462 569.024000
  14312  14313  14316     1   111.5100476 526.347200
  14312  14313  14325     1   110.1900474 564.840000
  14312  14326  14332     1   110.1900474 564.840000
  14312  14334  14318     1   112.4800480 524.673600
  14313  14312  14326     1   111.5100476 526.347200
  14313  14312  14334     1   107.9700462 569.024000
  14313  14316  14317     1   111.5100476 526.347200
  14313  14316  14324     1   110.1900474 564.840000
  14316  14313  14325     1   110.1900474 564.840000
  14316  14317  14318     1   111.5100476 526.347200
  14316  14317  14323     1   110.1900474 564.840000
  14317  14316  14324     1   110.1900474 564.840000
  14317  14318  14322     1   107.9700462 569.024000
  14317  14318  14334     1   107.9700462 569.024000
  14318  14317  14323     1   110.1900474 564.840000
  14322  14318  14334     1   108.2900466 608.353600
  14326  14312  14334     1   107.9700462 569.024000
  14335  14336  14339     1   111.5100476 526.347200
  14335  14336  14348     1   110.1900474 564.840000
  14335  14349  14355     1   110.1900474 564.840000
  14335  14357  14341     1   112.4800480 524.673600
  14336  14339  14340     1   111.5100476 526.347200
  14336  14339  14347     1   110.1900474 564.840000
  14336  14335  14349     1   111.5100476 526.347200
  14336  14335  14357     1   107.9700462 569.024000
  14339  14340  14341     1   111.5100476 526.347200
  14339  14340  14346     1   110.1900474 564.840000
  14339  14336  14348     1   110.1900474 564.840000
  14340  14341  14345     1   107.9700462 569.024000
  14340  14341  14357     1   107.9700462 569.024000
  14340  14339  14347     1   110.1900474 564.840000
  14341  14340  14346     1   110.1900474 564.840000
  14345  14341  14357     1   108.2900466 608.353600
  14349  14335  14357     1   107.9700462 569.024000
  14358  14359  14362     1   111.5100476 526.347200
  14358  14359  14371     1   110.1900474 564.840000
  14358  14372  14378     1   110.1900474 564.840000
  14358  14380  14364     1   112.4800480 524.673600
  14359  14358  14372     1   111.5100476 526.347200
  14359  14358  14380     1   107.9700462 569.024000
  14359  14362  14363     1   111.5100476 526.347200
  14359  14362  14370     1   110.1900474 564.840000
  14362  14359  14371     1   110.1900474 564.840000
  14362  14363  14364     1   111.5100476 526.347200
  14362  14363  14369     1   110.1900474 564.840000
  14363  14362  14370     1   110.1900474 564.840000
  14363  14364  14368     1   107.9700462 569.024000
  14363  14364  14380     1   107.9700462 569.024000
  14364  14363  14369     1   110.1900474 564.840000
  14368  14364  14380     1   108.2900466 608.353600
  14372  14358  14380     1   107.9700462 569.024000
  14381  14382  14385     1   111.5100476 526.347200
  14381  14382  14394     1   110.1900474 564.840000
  14381  14395  14401     1   110.1900474 564.840000
  14381  14403  14387     1   112.4800480 524.673600
  14382  14385  14386     1   111.5100476 526.347200
  14382  14385  14393     1   110.1900474 564.840000
  14382  14381  14395     1   111.5100476 526.347200
  14382  14381  14403     1   107.9700462 569.024000
  14385  14386  14387     1   111.5100476 526.347200
  14385  14386  14392     1   110.1900474 564.840000
  14385  14382  14394     1   110.1900474 564.840000
  14386  14387  14391     1   107.9700462 569.024000
  14386  14387  14403     1   107.9700462 569.024000
  14386  14385  14393     1   110.1900474 564.840000
  14387  14386  14392     1   110.1900474 564.840000
  14391  14387  14403     1   108.2900466 608.353600
  14395  14381  14403     1   107.9700462 569.024000
  14404  14405  14408     1   111.5100476 526.347200
  14404  14405  14417     1   110.1900474 564.840000
  14404  14418  14424     1   110.1900474 564.840000
  14404  14426  14410     1   112.4800480 524.673600
  14405  14404  14418     1   111.5100476 526.347200
  14405  14404  14426     1   107.9700462 569.024000
  14405  14408  14409     1   111.5100476 526.347200
  14405  14408  14416     1   110.1900474 564.840000
  14408  14405  14417     1   110.1900474 564.840000
  14408  14409  14410     1   111.5100476 526.347200
  14408  14409  14415     1   110.1900474 564.840000
  14409  14408  14416     1   110.1900474 564.840000
  14409  14410  14414     1   107.9700462 569.024000
  14409  14410  14426     1   107.9700462 569.024000
  14410  14409  14415     1   110.1900474 564.840000
  14414  14410  14426     1   108.2900466 608.353600
  14418  14404  14426     1   107.9700462 569.024000
  14427  14428  14431     1   111.5100476 526.347200
  14427  14428  14440     1   110.1900474 564.840000
  14427  14441  14447     1   110.1900474 564.840000
  14427  14449  14433     1   112.4800480 524.673600
  14428  14431  14432     1   111.5100476 526.347200
  14428  14431  14439     1   110.1900474 564.840000
  14428  14427  14441     1   111.5100476 526.347200
  14428  14427  14449     1   107.9700462 569.024000
  14431  14432  14433     1   111.5100476 526.347200
  14431  14432  14438     1   110.1900474 564.840000
  14431  14428  14440     1   110.1900474 564.840000
  14432  14433  14437     1   107.9700462 569.024000
  14432  14433  14449     1   107.9700462 569.024000
  14432  14431  14439     1   110.1900474 564.840000
  14433  14432  14438     1   110.1900474 564.840000
  14437  14433  14449     1   108.2900466 608.353600
  14441  14427  14449     1   107.9700462 569.024000
  14450  14451  14454     1   111.5100476 526.347200
  14450  14451  14463     1   110.1900474 564.840000
  14450  14464  14470     1   110.1900474 564.840000
  14450  14472  14456     1   112.4800480 524.673600
  14451  14450  14464     1   111.5100476 526.347200
  14451  14450  14472     1   107.9700462 569.024000
  14451  14454  14455     1   111.5100476 526.347200
  14451  14454  14462     1   110.1900474 564.840000
  14454  14451  14463     1   110.1900474 564.840000
  14454  14455  14456     1   111.5100476 526.347200
  14454  14455  14461     1   110.1900474 564.840000
  14455  14454  14462     1   110.1900474 564.840000
  14455  14456  14460     1   107.9700462 569.024000
  14455  14456  14472     1   107.9700462 569.024000
  14456  14455  14461     1   110.1900474 564.840000
  14460  14456  14472     1   108.2900466 608.353600
  14464  14450  14472     1   107.9700462 569.024000
  14473  14474  14477     1   111.5100476 526.347200
  14473  14474  14486     1   110.1900474 564.840000
  14473  14487  14493     1   110.1900474 564.840000
  14473  14495  14479     1   112.4800480 524.673600
  14474  14477  14478     1   111.5100476 526.347200
  14474  14477  14485     1   110.1900474 564.840000
  14474  14473  14487     1   111.5100476 526.347200
  14474  14473  14495     1   107.9700462 569.024000
  14477  14478  14479     1   111.5100476 526.347200
  14477  14478  14484     1   110.1900474 564.840000
  14477  14474  14486     1   110.1900474 564.840000
  14478  14479  14483     1   107.9700462 569.024000
  14478  14479  14495     1   107.9700462 569.024000
  14478  14477  14485     1   110.1900474 564.840000
  14479  14478  14484     1   110.1900474 564.840000
  14483  14479  14495     1   108.2900466 608.353600
  14487  14473  14495     1   107.9700462 569.024000
  14496  14497  14500     1   111.5100476 526.347200
  14496  14497  14509     1   110.1900474 564.840000
  14496  14510  14516     1   110.1900474 564.840000
  14496  14518  14502     1   112.4800480 524.673600
  14497  14496  14510     1   111.5100476 526.347200
  14497  14496  14518     1   107.9700462 569.024000
  14497  14500  14501     1   111.5100476 526.347200
  14497  14500  14508     1   110.1900474 564.840000
  14500  14497  14509     1   110.1900474 564.840000
  14500  14501  14502     1   111.5100476 526.347200
  14500  14501  14507     1   110.1900474 564.840000
  14501  14500  14508     1   110.1900474 564.840000
  14501  14502  14506     1   107.9700462 569.024000
  14501  14502  14518     1   107.9700462 569.024000
  14502  14501  14507     1   110.1900474 564.840000
  14506  14502  14518     1   108.2900466 608.353600
  14510  14496  14518     1   107.9700462 569.024000
  14519  14520  14523     1   111.5100476 526.347200
  14519  14520  14532     1   110.1900474 564.840000
  14519  14533  14539     1   110.1900474 564.840000
  14519  14541  14525     1   112.4800480 524.673600
  14520  14523  14524     1   111.5100476 526.347200
  14520  14523  14531     1   110.1900474 564.840000
  14520  14519  14533     1   111.5100476 526.347200
  14520  14519  14541     1   107.9700462 569.024000
  14523  14524  14525     1   111.5100476 526.347200
  14523  14524  14530     1   110.1900474 564.840000
  14523  14520  14532     1   110.1900474 564.840000
  14524  14525  14529     1   107.9700462 569.024000
  14524  14525  14541     1   107.9700462 569.024000
  14524  14523  14531     1   110.1900474 564.840000
  14525  14524  14530     1   110.1900474 564.840000
  14529  14525  14541     1   108.2900466 608.353600
  14533  14519  14541     1   107.9700462 569.024000
  14542  14543  14546     1   111.5100476 526.347200
  14542  14543  14555     1   110.1900474 564.840000
  14542  14556  14562     1   110.1900474 564.840000
  14542  14564  14548     1   112.4800480 524.673600
  14543  14542  14556     1   111.5100476 526.347200
  14543  14542  14564     1   107.9700462 569.024000
  14543  14546  14547     1   111.5100476 526.347200
  14543  14546  14554     1   110.1900474 564.840000
  14546  14543  14555     1   110.1900474 564.840000
  14546  14547  14548     1   111.5100476 526.347200
  14546  14547  14553     1   110.1900474 564.840000
  14547  14546  14554     1   110.1900474 564.840000
  14547  14548  14552     1   107.9700462 569.024000
  14547  14548  14564     1   107.9700462 569.024000
  14548  14547  14553     1   110.1900474 564.840000
  14552  14548  14564     1   108.2900466 608.353600
  14556  14542  14564     1   107.9700462 569.024000
  14565  14566  14569     1   111.5100476 526.347200
  14565  14566  14578     1   110.1900474 564.840000
  14565  14579  14585     1   110.1900474 564.840000
  14565  14587  14571     1   112.4800480 524.673600
  14566  14569  14570     1   111.5100476 526.347200
  14566  14569  14577     1   110.1900474 564.840000
  14566  14565  14579     1   111.5100476 526.347200
  14566  14565  14587     1   107.9700462 569.024000
  14569  14570  14571     1   111.5100476 526.347200
  14569  14570  14576     1   110.1900474 564.840000
  14569  14566  14578     1   110.1900474 564.840000
  14570  14571  14575     1   107.9700462 569.024000
  14570  14571  14587     1   107.9700462 569.024000
  14570  14569  14577     1   110.1900474 564.840000
  14571  14570  14576     1   110.1900474 564.840000
  14575  14571  14587     1   108.2900466 608.353600
  14579  14565  14587     1   107.9700462 569.024000
  14588  14589  14592     1   111.5100476 526.347200
  14588  14589  14601     1   110.1900474 564.840000
  14588  14602  14608     1   110.1900474 564.840000
  14588  14610  14594     1   112.4800480 524.673600
  14589  14588  14602     1   111.5100476 526.347200
  14589  14588  14610     1   107.9700462 569.024000
  14589  14592  14593     1   111.5100476 526.347200
  14589  14592  14600     1   110.1900474 564.840000
  14592  14589  14601     1   110.1900474 564.840000
  14592  14593  14594     1   111.5100476 526.347200
  14592  14593  14599     1   110.1900474 564.840000
  14593  14592  14600     1   110.1900474 564.840000
  14593  14594  14598     1   107.9700462 569.024000
  14593  14594  14610     1   107.9700462 569.024000
  14594  14593  14599     1   110.1900474 564.840000
  14598  14594  14610     1   108.2900466 608.353600
  14602  14588  14610     1   107.9700462 569.024000
  14611  14612  14615     1   111.5100476 526.347200
  14611  14612  14624     1   110.1900474 564.840000
  14611  14625  14631     1   110.1900474 564.840000
  14611  14633  14617     1   112.4800480 524.673600
  14612  14615  14616     1   111.5100476 526.347200
  14612  14615  14623     1   110.1900474 564.840000
  14612  14611  14625     1   111.5100476 526.347200
  14612  14611  14633     1   107.9700462 569.024000
  14615  14616  14617     1   111.5100476 526.347200
  14615  14616  14622     1   110.1900474 564.840000
  14615  14612  14624     1   110.1900474 564.840000
  14616  14617  14621     1   107.9700462 569.024000
  14616  14617  14633     1   107.9700462 569.024000
  14616  14615  14623     1   110.1900474 564.840000
  14617  14616  14622     1   110.1900474 564.840000
  14621  14617  14633     1   108.2900466 608.353600
  14625  14611  14633     1   107.9700462 569.024000
  14634  14635  14638     1   111.5100476 526.347200
  14634  14635  14647     1   110.1900474 564.840000
  14634  14648  14654     1   110.1900474 564.840000
  14634  14656  14640     1   112.4800480 524.673600
  14635  14634  14648     1   111.5100476 526.347200
  14635  14634  14656     1   107.9700462 569.024000
  14635  14638  14639     1   111.5100476 526.347200
  14635  14638  14646     1   110.1900474 564.840000
  14638  14635  14647     1   110.1900474 564.840000
  14638  14639  14640     1   111.5100476 526.347200
  14638  14639  14645     1   110.1900474 564.840000
  14639  14638  14646     1   110.1900474 564.840000
  14639  14640  14644     1   107.9700462 569.024000
  14639  14640  14656     1   107.9700462 569.024000
  14640  14639  14645     1   110.1900474 564.840000
  14644  14640  14656     1   108.2900466 608.353600
  14648  14634  14656     1   107.9700462 569.024000
  14657  14658  14661     1   111.5100476 526.347200
  14657  14658  14670     1   110.1900474 564.840000
  14657  14671  14677     1   110.1900474 564.840000
  14657  14679  14663     1   112.4800480 524.673600
  14658  14661  14662     1   111.5100476 526.347200
  14658  14661  14669     1   110.1900474 564.840000
  14658  14657  14671     1   111.5100476 526.347200
  14658  14657  14679     1   107.9700462 569.024000
  14661  14662  14663     1   111.5100476 526.347200
  14661  14662  14668     1   110.1900474 564.840000
  14661  14658  14670     1   110.1900474 564.840000
  14662  14663  14667     1   107.9700462 569.024000
  14662  14663  14679     1   107.9700462 569.024000
  14662  14661  14669     1   110.1900474 564.840000
  14663  14662  14668     1   110.1900474 564.840000
  14667  14663  14679     1   108.2900466 608.353600
  14671  14657  14679     1   107.9700462 569.024000
  14680  14681  14684     1   111.5100476 526.347200
  14680  14681  14693     1   110.1900474 564.840000
  14680  14694  14700     1   110.1900474 564.840000
  14680  14702  14686     1   112.4800480 524.673600
  14681  14680  14694     1   111.5100476 526.347200
  14681  14680  14702     1   107.9700462 569.024000
  14681  14684  14685     1   111.5100476 526.347200
  14681  14684  14692     1   110.1900474 564.840000
  14684  14681  14693     1   110.1900474 564.840000
  14684  14685  14686     1   111.5100476 526.347200
  14684  14685  14691     1   110.1900474 564.840000
  14685  14684  14692     1   110.1900474 564.840000
  14685  14686  14690     1   107.9700462 569.024000
  14685  14686  14702     1   107.9700462 569.024000
  14686  14685  14691     1   110.1900474 564.840000
  14690  14686  14702     1   108.2900466 608.353600
  14694  14680  14702     1   107.9700462 569.024000
  14703  14704  14707     1   111.5100476 526.347200
  14703  14704  14716     1   110.1900474 564.840000
  14703  14717  14723     1   110.1900474 564.840000
  14703  14725  14709     1   112.4800480 524.673600
  14704  14707  14708     1   111.5100476 526.347200
  14704  14707  14715     1   110.1900474 564.840000
  14704  14703  14717     1   111.5100476 526.347200
  14704  14703  14725     1   107.9700462 569.024000
  14707  14708  14709     1   111.5100476 526.347200
  14707  14708  14714     1   110.1900474 564.840000
  14707  14704  14716     1   110.1900474 564.840000
  14708  14709  14713     1   107.9700462 569.024000
  14708  14709  14725     1   107.9700462 569.024000
  14708  14707  14715     1   110.1900474 564.840000
  14709  14708  14714     1   110.1900474 564.840000
  14713  14709  14725     1   108.2900466 608.353600
  14717  14703  14725     1   107.9700462 569.024000
  14726  14727  14730     1   111.5100476 526.347200
  14726  14727  14739     1   110.1900474 564.840000
  14726  14740  14746     1   110.1900474 564.840000
  14726  14748  14732     1   112.4800480 524.673600
  14727  14726  14740     1   111.5100476 526.347200
  14727  14726  14748     1   107.9700462 569.024000
  14727  14730  14731     1   111.5100476 526.347200
  14727  14730  14738     1   110.1900474 564.840000
  14730  14727  14739     1   110.1900474 564.840000
  14730  14731  14732     1   111.5100476 526.347200
  14730  14731  14737     1   110.1900474 564.840000
  14731  14730  14738     1   110.1900474 564.840000
  14731  14732  14736     1   107.9700462 569.024000
  14731  14732  14748     1   107.9700462 569.024000
  14732  14731  14737     1   110.1900474 564.840000
  14736  14732  14748     1   108.2900466 608.353600
  14740  14726  14748     1   107.9700462 569.024000
  14749  14750  14753     1   111.5100476 526.347200
  14749  14750  14762     1   110.1900474 564.840000
  14749  14763  14769     1   110.1900474 564.840000
  14749  14771  14755     1   112.4800480 524.673600
  14750  14753  14754     1   111.5100476 526.347200
  14750  14753  14761     1   110.1900474 564.840000
  14750  14749  14763     1   111.5100476 526.347200
  14750  14749  14771     1   107.9700462 569.024000
  14753  14754  14755     1   111.5100476 526.347200
  14753  14754  14760     1   110.1900474 564.840000
  14753  14750  14762     1   110.1900474 564.840000
  14754  14755  14759     1   107.9700462 569.024000
  14754  14755  14771     1   107.9700462 569.024000
  14754  14753  14761     1   110.1900474 564.840000
  14755  14754  14760     1   110.1900474 564.840000
  14759  14755  14771     1   108.2900466 608.353600
  14763  14749  14771     1   107.9700462 569.024000
  14772  14773  14776     1   111.5100476 526.347200
  14772  14773  14785     1   110.1900474 564.840000
  14772  14786  14792     1   110.1900474 564.840000
  14772  14794  14778     1   112.4800480 524.673600
  14773  14772  14786     1   111.5100476 526.347200
  14773  14772  14794     1   107.9700462 569.024000
  14773  14776  14777     1   111.5100476 526.347200
  14773  14776  14784     1   110.1900474 564.840000
  14776  14773  14785     1   110.1900474 564.840000
  14776  14777  14778     1   111.5100476 526.347200
  14776  14777  14783     1   110.1900474 564.840000
  14777  14776  14784     1   110.1900474 564.840000
  14777  14778  14782     1   107.9700462 569.024000
  14777  14778  14794     1   107.9700462 569.024000
  14778  14777  14783     1   110.1900474 564.840000
  14782  14778  14794     1   108.2900466 608.353600
  14786  14772  14794     1   107.9700462 569.024000
  14795  14796  14799     1   111.5100476 526.347200
  14795  14796  14808     1   110.1900474 564.840000
  14795  14809  14815     1   110.1900474 564.840000
  14795  14817  14801     1   112.4800480 524.673600
  14796  14799  14800     1   111.5100476 526.347200
  14796  14799  14807     1   110.1900474 564.840000
  14796  14795  14809     1   111.5100476 526.347200
  14796  14795  14817     1   107.9700462 569.024000
  14799  14800  14801     1   111.5100476 526.347200
  14799  14800  14806     1   110.1900474 564.840000
  14799  14796  14808     1   110.1900474 564.840000
  14800  14801  14805     1   107.9700462 569.024000
  14800  14801  14817     1   107.9700462 569.024000
  14800  14799  14807     1   110.1900474 564.840000
  14801  14800  14806     1   110.1900474 564.840000
  14805  14801  14817     1   108.2900466 608.353600
  14809  14795  14817     1   107.9700462 569.024000
  14818  14819  14822     1   111.5100476 526.347200
  14818  14819  14831     1   110.1900474 564.840000
  14818  14832  14838     1   110.1900474 564.840000
  14818  14840  14824     1   112.4800480 524.673600
  14819  14818  14832     1   111.5100476 526.347200
  14819  14818  14840     1   107.9700462 569.024000
  14819  14822  14823     1   111.5100476 526.347200
  14819  14822  14830     1   110.1900474 564.840000
  14822  14819  14831     1   110.1900474 564.840000
  14822  14823  14824     1   111.5100476 526.347200
  14822  14823  14829     1   110.1900474 564.840000
  14823  14822  14830     1   110.1900474 564.840000
  14823  14824  14828     1   107.9700462 569.024000
  14823  14824  14840     1   107.9700462 569.024000
  14824  14823  14829     1   110.1900474 564.840000
  14828  14824  14840     1   108.2900466 608.353600
  14832  14818  14840     1   107.9700462 569.024000
  14841  14842  14845     1   111.5100476 526.347200
  14841  14842  14854     1   110.1900474 564.840000
  14841  14855  14861     1   110.1900474 564.840000
  14841  14863  14847     1   112.4800480 524.673600
  14842  14845  14846     1   111.5100476 526.347200
  14842  14845  14853     1   110.1900474 564.840000
  14842  14841  14855     1   111.5100476 526.347200
  14842  14841  14863     1   107.9700462 569.024000
  14845  14846  14847     1   111.5100476 526.347200
  14845  14846  14852     1   110.1900474 564.840000
  14845  14842  14854     1   110.1900474 564.840000
  14846  14847  14851     1   107.9700462 569.024000
  14846  14847  14863     1   107.9700462 569.024000
  14846  14845  14853     1   110.1900474 564.840000
  14847  14846  14852     1   110.1900474 564.840000
  14851  14847  14863     1   108.2900466 608.353600
  14855  14841  14863     1   107.9700462 569.024000
  14864  14865  14868     1   111.5100476 526.347200
  14864  14865  14877     1   110.1900474 564.840000
  14864  14878  14884     1   110.1900474 564.840000
  14864  14886  14870     1   112.4800480 524.673600
  14865  14864  14878     1   111.5100476 526.347200
  14865  14864  14886     1   107.9700462 569.024000
  14865  14868  14869     1   111.5100476 526.347200
  14865  14868  14876     1   110.1900474 564.840000
  14868  14865  14877     1   110.1900474 564.840000
  14868  14869  14870     1   111.5100476 526.347200
  14868  14869  14875     1   110.1900474 564.840000
  14869  14868  14876     1   110.1900474 564.840000
  14869  14870  14874     1   107.9700462 569.024000
  14869  14870  14886     1   107.9700462 569.024000
  14870  14869  14875     1   110.1900474 564.840000
  14874  14870  14886     1   108.2900466 608.353600
  14878  14864  14886     1   107.9700462 569.024000
  14887  14888  14891     1   111.5100476 526.347200
  14887  14888  14900     1   110.1900474 564.840000
  14887  14901  14907     1   110.1900474 564.840000
  14887  14909  14893     1   112.4800480 524.673600
  14888  14891  14892     1   111.5100476 526.347200
  14888  14891  14899     1   110.1900474 564.840000
  14888  14887  14901     1   111.5100476 526.347200
  14888  14887  14909     1   107.9700462 569.024000
  14891  14892  14893     1   111.5100476 526.347200
  14891  14892  14898     1   110.1900474 564.840000
  14891  14888  14900     1   110.1900474 564.840000
  14892  14893  14897     1   107.9700462 569.024000
  14892  14893  14909     1   107.9700462 569.024000
  14892  14891  14899     1   110.1900474 564.840000
  14893  14892  14898     1   110.1900474 564.840000
  14897  14893  14909     1   108.2900466 608.353600
  14901  14887  14909     1   107.9700462 569.024000
  14910  14911  14914     1   111.5100476 526.347200
  14910  14911  14923     1   110.1900474 564.840000
  14910  14924  14930     1   110.1900474 564.840000
  14910  14932  14916     1   112.4800480 524.673600
  14911  14910  14924     1   111.5100476 526.347200
  14911  14910  14932     1   107.9700462 569.024000
  14911  14914  14915     1   111.5100476 526.347200
  14911  14914  14922     1   110.1900474 564.840000
  14914  14911  14923     1   110.1900474 564.840000
  14914  14915  14916     1   111.5100476 526.347200
  14914  14915  14921     1   110.1900474 564.840000
  14915  14914  14922     1   110.1900474 564.840000
  14915  14916  14920     1   107.9700462 569.024000
  14915  14916  14932     1   107.9700462 569.024000
  14916  14915  14921     1   110.1900474 564.840000
  14920  14916  14932     1   108.2900466 608.353600
  14924  14910  14932     1   107.9700462 569.024000
  14933  14934  14937     1   111.5100476 526.347200
  14933  14934  14946     1   110.1900474 564.840000
  14933  14947  14953     1   110.1900474 564.840000
  14933  14955  14939     1   112.4800480 524.673600
  14934  14937  14938     1   111.5100476 526.347200
  14934  14937  14945     1   110.1900474 564.840000
  14934  14933  14947     1   111.5100476 526.347200
  14934  14933  14955     1   107.9700462 569.024000
  14937  14938  14939     1   111.5100476 526.347200
  14937  14938  14944     1   110.1900474 564.840000
  14937  14934  14946     1   110.1900474 564.840000
  14938  14939  14943     1   107.9700462 569.024000
  14938  14939  14955     1   107.9700462 569.024000
  14938  14937  14945     1   110.1900474 564.840000
  14939  14938  14944     1   110.1900474 564.840000
  14943  14939  14955     1   108.2900466 608.353600
  14947  14933  14955     1   107.9700462 569.024000
  14956  14957  14960     1   111.5100476 526.347200
  14956  14957  14969     1   110.1900474 564.840000
  14956  14970  14976     1   110.1900474 564.840000
  14956  14978  14962     1   112.4800480 524.673600
  14957  14956  14970     1   111.5100476 526.347200
  14957  14956  14978     1   107.9700462 569.024000
  14957  14960  14961     1   111.5100476 526.347200
  14957  14960  14968     1   110.1900474 564.840000
  14960  14957  14969     1   110.1900474 564.840000
  14960  14961  14962     1   111.5100476 526.347200
  14960  14961  14967     1   110.1900474 564.840000
  14961  14960  14968     1   110.1900474 564.840000
  14961  14962  14966     1   107.9700462 569.024000
  14961  14962  14978     1   107.9700462 569.024000
  14962  14961  14967     1   110.1900474 564.840000
  14966  14962  14978     1   108.2900466 608.353600
  14970  14956  14978     1   107.9700462 569.024000
  14979  14980  14983     1   111.5100476 526.347200
  14979  14980  14992     1   110.1900474 564.840000
  14979  14993  14999     1   110.1900474 564.840000
  14979  15001  14985     1   112.4800480 524.673600
  14980  14983  14984     1   111.5100476 526.347200
  14980  14983  14991     1   110.1900474 564.840000
  14980  14979  14993     1   111.5100476 526.347200
  14980  14979  15001     1   107.9700462 569.024000
  14983  14984  14985     1   111.5100476 526.347200
  14983  14984  14990     1   110.1900474 564.840000
  14983  14980  14992     1   110.1900474 564.840000
  14984  14985  14989     1   107.9700462 569.024000
  14984  14985  15001     1   107.9700462 569.024000
  14984  14983  14991     1   110.1900474 564.840000
  14985  14984  14990     1   110.1900474 564.840000
  14989  14985  15001     1   108.2900466 608.353600
  14993  14979  15001     1   107.9700462 569.024000
  15002  15003  15006     1   111.5100476 526.347200
  15002  15003  15015     1   110.1900474 564.840000
  15002  15016  15022     1   110.1900474 564.840000
  15002  15024  15008     1   112.4800480 524.673600
  15003  15002  15016     1   111.5100476 526.347200
  15003  15002  15024     1   107.9700462 569.024000
  15003  15006  15007     1   111.5100476 526.347200
  15003  15006  15014     1   110.1900474 564.840000
  15006  15003  15015     1   110.1900474 564.840000
  15006  15007  15008     1   111.5100476 526.347200
  15006  15007  15013     1   110.1900474 564.840000
  15007  15006  15014     1   110.1900474 564.840000
  15007  15008  15012     1   107.9700462 569.024000
  15007  15008  15024     1   107.9700462 569.024000
  15008  15007  15013     1   110.1900474 564.840000
  15012  15008  15024     1   108.2900466 608.353600
  15016  15002  15024     1   107.9700462 569.024000
  15025  15026  15029     1   111.5100476 526.347200
  15025  15026  15038     1   110.1900474 564.840000
  15025  15039  15045     1   110.1900474 564.840000
  15025  15047  15031     1   112.4800480 524.673600
  15026  15029  15030     1   111.5100476 526.347200
  15026  15029  15037     1   110.1900474 564.840000
  15026  15025  15039     1   111.5100476 526.347200
  15026  15025  15047     1   107.9700462 569.024000
  15029  15030  15031     1   111.5100476 526.347200
  15029  15030  15036     1   110.1900474 564.840000
  15029  15026  15038     1   110.1900474 564.840000
  15030  15031  15035     1   107.9700462 569.024000
  15030  15031  15047     1   107.9700462 569.024000
  15030  15029  15037     1   110.1900474 564.840000
  15031  15030  15036     1   110.1900474 564.840000
  15035  15031  15047     1   108.2900466 608.353600
  15039  15025  15047     1   107.9700462 569.024000
  15048  15049  15052     1   111.5100476 526.347200
  15048  15049  15061     1   110.1900474 564.840000
  15048  15062  15068     1   110.1900474 564.840000
  15048  15070  15054     1   112.4800480 524.673600
  15049  15048  15062     1   111.5100476 526.347200
  15049  15048  15070     1   107.9700462 569.024000
  15049  15052  15053     1   111.5100476 526.347200
  15049  15052  15060     1   110.1900474 564.840000
  15052  15049  15061     1   110.1900474 564.840000
  15052  15053  15054     1   111.5100476 526.347200
  15052  15053  15059     1   110.1900474 564.840000
  15053  15052  15060     1   110.1900474 564.840000
  15053  15054  15058     1   107.9700462 569.024000
  15053  15054  15070     1   107.9700462 569.024000
  15054  15053  15059     1   110.1900474 564.840000
  15058  15054  15070     1   108.2900466 608.353600
  15062  15048  15070     1   107.9700462 569.024000
  15071  15072  15075     1   111.5100476 526.347200
  15071  15072  15084     1   110.1900474 564.840000
  15071  15085  15091     1   110.1900474 564.840000
  15071  15093  15077     1   112.4800480 524.673600
  15072  15075  15076     1   111.5100476 526.347200
  15072  15075  15083     1   110.1900474 564.840000
  15072  15071  15085     1   111.5100476 526.347200
  15072  15071  15093     1   107.9700462 569.024000
  15075  15076  15077     1   111.5100476 526.347200
  15075  15076  15082     1   110.1900474 564.840000
  15075  15072  15084     1   110.1900474 564.840000
  15076  15077  15081     1   107.9700462 569.024000
  15076  15077  15093     1   107.9700462 569.024000
  15076  15075  15083     1   110.1900474 564.840000
  15077  15076  15082     1   110.1900474 564.840000
  15081  15077  15093     1   108.2900466 608.353600
  15085  15071  15093     1   107.9700462 569.024000
  15094  15095  15098     1   111.5100476 526.347200
  15094  15095  15107     1   110.1900474 564.840000
  15094  15108  15114     1   110.1900474 564.840000
  15094  15116  15100     1   112.4800480 524.673600
  15095  15094  15108     1   111.5100476 526.347200
  15095  15094  15116     1   107.9700462 569.024000
  15095  15098  15099     1   111.5100476 526.347200
  15095  15098  15106     1   110.1900474 564.840000
  15098  15095  15107     1   110.1900474 564.840000
  15098  15099  15100     1   111.5100476 526.347200
  15098  15099  15105     1   110.1900474 564.840000
  15099  15098  15106     1   110.1900474 564.840000
  15099  15100  15104     1   107.9700462 569.024000
  15099  15100  15116     1   107.9700462 569.024000
  15100  15099  15105     1   110.1900474 564.840000
  15104  15100  15116     1   108.2900466 608.353600
  15108  15094  15116     1   107.9700462 569.024000
  15117  15118  15121     1   111.5100476 526.347200
  15117  15118  15130     1   110.1900474 564.840000
  15117  15131  15137     1   110.1900474 564.840000
  15117  15139  15123     1   112.4800480 524.673600
  15118  15121  15122     1   111.5100476 526.347200
  15118  15121  15129     1   110.1900474 564.840000
  15118  15117  15131     1   111.5100476 526.347200
  15118  15117  15139     1   107.9700462 569.024000
  15121  15122  15123     1   111.5100476 526.347200
  15121  15122  15128     1   110.1900474 564.840000
  15121  15118  15130     1   110.1900474 564.840000
  15122  15123  15127     1   107.9700462 569.024000
  15122  15123  15139     1   107.9700462 569.024000
  15122  15121  15129     1   110.1900474 564.840000
  15123  15122  15128     1   110.1900474 564.840000
  15127  15123  15139     1   108.2900466 608.353600
  15131  15117  15139     1   107.9700462 569.024000
  15140  15141  15144     1   111.5100476 526.347200
  15140  15141  15153     1   110.1900474 564.840000
  15140  15154  15160     1   110.1900474 564.840000
  15140  15162  15146     1   112.4800480 524.673600
  15141  15140  15154     1   111.5100476 526.347200
  15141  15140  15162     1   107.9700462 569.024000
  15141  15144  15145     1   111.5100476 526.347200
  15141  15144  15152     1   110.1900474 564.840000
  15144  15141  15153     1   110.1900474 564.840000
  15144  15145  15146     1   111.5100476 526.347200
  15144  15145  15151     1   110.1900474 564.840000
  15145  15144  15152     1   110.1900474 564.840000
  15145  15146  15150     1   107.9700462 569.024000
  15145  15146  15162     1   107.9700462 569.024000
  15146  15145  15151     1   110.1900474 564.840000
  15150  15146  15162     1   108.2900466 608.353600
  15154  15140  15162     1   107.9700462 569.024000
  15163  15164  15167     1   111.5100476 526.347200
  15163  15164  15176     1   110.1900474 564.840000
  15163  15177  15183     1   110.1900474 564.840000
  15163  15185  15169     1   112.4800480 524.673600
  15164  15167  15168     1   111.5100476 526.347200
  15164  15167  15175     1   110.1900474 564.840000
  15164  15163  15177     1   111.5100476 526.347200
  15164  15163  15185     1   107.9700462 569.024000
  15167  15168  15169     1   111.5100476 526.347200
  15167  15168  15174     1   110.1900474 564.840000
  15167  15164  15176     1   110.1900474 564.840000
  15168  15169  15173     1   107.9700462 569.024000
  15168  15169  15185     1   107.9700462 569.024000
  15168  15167  15175     1   110.1900474 564.840000
  15169  15168  15174     1   110.1900474 564.840000
  15173  15169  15185     1   108.2900466 608.353600
  15177  15163  15185     1   107.9700462 569.024000
  15186  15187  15190     1   111.5100476 526.347200
  15186  15187  15199     1   110.1900474 564.840000
  15186  15200  15206     1   110.1900474 564.840000
  15186  15208  15192     1   112.4800480 524.673600
  15187  15186  15200     1   111.5100476 526.347200
  15187  15186  15208     1   107.9700462 569.024000
  15187  15190  15191     1   111.5100476 526.347200
  15187  15190  15198     1   110.1900474 564.840000
  15190  15187  15199     1   110.1900474 564.840000
  15190  15191  15192     1   111.5100476 526.347200
  15190  15191  15197     1   110.1900474 564.840000
  15191  15190  15198     1   110.1900474 564.840000
  15191  15192  15196     1   107.9700462 569.024000
  15191  15192  15208     1   107.9700462 569.024000
  15192  15191  15197     1   110.1900474 564.840000
  15196  15192  15208     1   108.2900466 608.353600
  15200  15186  15208     1   107.9700462 569.024000
  15209  15210  15213     1   111.5100476 526.347200
  15209  15210  15222     1   110.1900474 564.840000
  15209  15223  15229     1   110.1900474 564.840000
  15209  15231  15215     1   112.4800480 524.673600
  15210  15213  15214     1   111.5100476 526.347200
  15210  15213  15221     1   110.1900474 564.840000
  15210  15209  15223     1   111.5100476 526.347200
  15210  15209  15231     1   107.9700462 569.024000
  15213  15214  15215     1   111.5100476 526.347200
  15213  15214  15220     1   110.1900474 564.840000
  15213  15210  15222     1   110.1900474 564.840000
  15214  15215  15219     1   107.9700462 569.024000
  15214  15215  15231     1   107.9700462 569.024000
  15214  15213  15221     1   110.1900474 564.840000
  15215  15214  15220     1   110.1900474 564.840000
  15219  15215  15231     1   108.2900466 608.353600
  15223  15209  15231     1   107.9700462 569.024000
  15232  15233  15236     1   111.5100476 526.347200
  15232  15233  15245     1   110.1900474 564.840000
  15232  15246  15252     1   110.1900474 564.840000
  15232  15254  15238     1   112.4800480 524.673600
  15233  15232  15246     1   111.5100476 526.347200
  15233  15232  15254     1   107.9700462 569.024000
  15233  15236  15237     1   111.5100476 526.347200
  15233  15236  15244     1   110.1900474 564.840000
  15236  15233  15245     1   110.1900474 564.840000
  15236  15237  15238     1   111.5100476 526.347200
  15236  15237  15243     1   110.1900474 564.840000
  15237  15236  15244     1   110.1900474 564.840000
  15237  15238  15242     1   107.9700462 569.024000
  15237  15238  15254     1   107.9700462 569.024000
  15238  15237  15243     1   110.1900474 564.840000
  15242  15238  15254     1   108.2900466 608.353600
  15246  15232  15254     1   107.9700462 569.024000
  15255  15256  15259     1   111.5100476 526.347200
  15255  15256  15268     1   110.1900474 564.840000
  15255  15269  15275     1   110.1900474 564.840000
  15255  15277  15261     1   112.4800480 524.673600
  15256  15259  15260     1   111.5100476 526.347200
  15256  15259  15267     1   110.1900474 564.840000
  15256  15255  15269     1   111.5100476 526.347200
  15256  15255  15277     1   107.9700462 569.024000
  15259  15260  15261     1   111.5100476 526.347200
  15259  15260  15266     1   110.1900474 564.840000
  15259  15256  15268     1   110.1900474 564.840000
  15260  15261  15265     1   107.9700462 569.024000
  15260  15261  15277     1   107.9700462 569.024000
  15260  15259  15267     1   110.1900474 564.840000
  15261  15260  15266     1   110.1900474 564.840000
  15265  15261  15277     1   108.2900466 608.353600
  15269  15255  15277     1   107.9700462 569.024000
  15278  15279  15282     1   111.5100476 526.347200
  15278  15279  15291     1   110.1900474 564.840000
  15278  15292  15298     1   110.1900474 564.840000
  15278  15300  15284     1   112.4800480 524.673600
  15279  15278  15292     1   111.5100476 526.347200
  15279  15278  15300     1   107.9700462 569.024000
  15279  15282  15283     1   111.5100476 526.347200
  15279  15282  15290     1   110.1900474 564.840000
  15282  15279  15291     1   110.1900474 564.840000
  15282  15283  15284     1   111.5100476 526.347200
  15282  15283  15289     1   110.1900474 564.840000
  15283  15282  15290     1   110.1900474 564.840000
  15283  15284  15288     1   107.9700462 569.024000
  15283  15284  15300     1   107.9700462 569.024000
  15284  15283  15289     1   110.1900474 564.840000
  15288  15284  15300     1   108.2900466 608.353600
  15292  15278  15300     1   107.9700462 569.024000
  15301  15302  15305     1   111.5100476 526.347200
  15301  15302  15314     1   110.1900474 564.840000
  15301  15315  15321     1   110.1900474 564.840000
  15301  15323  15307     1   112.4800480 524.673600
  15302  15305  15306     1   111.5100476 526.347200
  15302  15305  15313     1   110.1900474 564.840000
  15302  15301  15315     1   111.5100476 526.347200
  15302  15301  15323     1   107.9700462 569.024000
  15305  15306  15307     1   111.5100476 526.347200
  15305  15306  15312     1   110.1900474 564.840000
  15305  15302  15314     1   110.1900474 564.840000
  15306  15307  15311     1   107.9700462 569.024000
  15306  15307  15323     1   107.9700462 569.024000
  15306  15305  15313     1   110.1900474 564.840000
  15307  15306  15312     1   110.1900474 564.840000
  15311  15307  15323     1   108.2900466 608.353600
  15315  15301  15323     1   107.9700462 569.024000
  15324  15325  15328     1   111.5100476 526.347200
  15324  15325  15337     1   110.1900474 564.840000
  15324  15338  15344     1   110.1900474 564.840000
  15324  15346  15330     1   112.4800480 524.673600
  15325  15324  15338     1   111.5100476 526.347200
  15325  15324  15346     1   107.9700462 569.024000
  15325  15328  15329     1   111.5100476 526.347200
  15325  15328  15336     1   110.1900474 564.840000
  15328  15325  15337     1   110.1900474 564.840000
  15328  15329  15330     1   111.5100476 526.347200
  15328  15329  15335     1   110.1900474 564.840000
  15329  15328  15336     1   110.1900474 564.840000
  15329  15330  15334     1   107.9700462 569.024000
  15329  15330  15346     1   107.9700462 569.024000
  15330  15329  15335     1   110.1900474 564.840000
  15334  15330  15346     1   108.2900466 608.353600
  15338  15324  15346     1   107.9700462 569.024000
  15347  15348  15351     1   111.5100476 526.347200
  15347  15348  15360     1   110.1900474 564.840000
  15347  15361  15367     1   110.1900474 564.840000
  15347  15369  15353     1   112.4800480 524.673600
  15348  15351  15352     1   111.5100476 526.347200
  15348  15351  15359     1   110.1900474 564.840000
  15348  15347  15361     1   111.5100476 526.347200
  15348  15347  15369     1   107.9700462 569.024000
  15351  15352  15353     1   111.5100476 526.347200
  15351  15352  15358     1   110.1900474 564.840000
  15351  15348  15360     1   110.1900474 564.840000
  15352  15353  15357     1   107.9700462 569.024000
  15352  15353  15369     1   107.9700462 569.024000
  15352  15351  15359     1   110.1900474 564.840000
  15353  15352  15358     1   110.1900474 564.840000
  15357  15353  15369     1   108.2900466 608.353600
  15361  15347  15369     1   107.9700462 569.024000
  15370  15371  15374     1   111.5100476 526.347200
  15370  15371  15383     1   110.1900474 564.840000
  15370  15384  15390     1   110.1900474 564.840000
  15370  15392  15376     1   112.4800480 524.673600
  15371  15370  15384     1   111.5100476 526.347200
  15371  15370  15392     1   107.9700462 569.024000
  15371  15374  15375     1   111.5100476 526.347200
  15371  15374  15382     1   110.1900474 564.840000
  15374  15371  15383     1   110.1900474 564.840000
  15374  15375  15376     1   111.5100476 526.347200
  15374  15375  15381     1   110.1900474 564.840000
  15375  15374  15382     1   110.1900474 564.840000
  15375  15376  15380     1   107.9700462 569.024000
  15375  15376  15392     1   107.9700462 569.024000
  15376  15375  15381     1   110.1900474 564.840000
  15380  15376  15392     1   108.2900466 608.353600
  15384  15370  15392     1   107.9700462 569.024000
  15393  15394  15397     1   111.5100476 526.347200
  15393  15394  15406     1   110.1900474 564.840000
  15393  15407  15413     1   110.1900474 564.840000
  15393  15415  15399     1   112.4800480 524.673600
  15394  15397  15398     1   111.5100476 526.347200
  15394  15397  15405     1   110.1900474 564.840000
  15394  15393  15407     1   111.5100476 526.347200
  15394  15393  15415     1   107.9700462 569.024000
  15397  15398  15399     1   111.5100476 526.347200
  15397  15398  15404     1   110.1900474 564.840000
  15397  15394  15406     1   110.1900474 564.840000
  15398  15399  15403     1   107.9700462 569.024000
  15398  15399  15415     1   107.9700462 569.024000
  15398  15397  15405     1   110.1900474 564.840000
  15399  15398  15404     1   110.1900474 564.840000
  15403  15399  15415     1   108.2900466 608.353600
  15407  15393  15415     1   107.9700462 569.024000
  15416  15417  15420     1   111.5100476 526.347200
  15416  15417  15429     1   110.1900474 564.840000
  15416  15430  15436     1   110.1900474 564.840000
  15416  15438  15422     1   112.4800480 524.673600
  15417  15416  15430     1   111.5100476 526.347200
  15417  15416  15438     1   107.9700462 569.024000
  15417  15420  15421     1   111.5100476 526.347200
  15417  15420  15428     1   110.1900474 564.840000
  15420  15417  15429     1   110.1900474 564.840000
  15420  15421  15422     1   111.5100476 526.347200
  15420  15421  15427     1   110.1900474 564.840000
  15421  15420  15428     1   110.1900474 564.840000
  15421  15422  15426     1   107.9700462 569.024000
  15421  15422  15438     1   107.9700462 569.024000
  15422  15421  15427     1   110.1900474 564.840000
  15426  15422  15438     1   108.2900466 608.353600
  15430  15416  15438     1   107.9700462 569.024000
  15439  15440  15443     1   111.5100476 526.347200
  15439  15440  15452     1   110.1900474 564.840000
  15439  15453  15459     1   110.1900474 564.840000
  15439  15461  15445     1   112.4800480 524.673600
  15440  15443  15444     1   111.5100476 526.347200
  15440  15443  15451     1   110.1900474 564.840000
  15440  15439  15453     1   111.5100476 526.347200
  15440  15439  15461     1   107.9700462 569.024000
  15443  15444  15445     1   111.5100476 526.347200
  15443  15444  15450     1   110.1900474 564.840000
  15443  15440  15452     1   110.1900474 564.840000
  15444  15445  15449     1   107.9700462 569.024000
  15444  15445  15461     1   107.9700462 569.024000
  15444  15443  15451     1   110.1900474 564.840000
  15445  15444  15450     1   110.1900474 564.840000
  15449  15445  15461     1   108.2900466 608.353600
  15453  15439  15461     1   107.9700462 569.024000
  15462  15463  15466     1   111.5100476 526.347200
  15462  15463  15475     1   110.1900474 564.840000
  15462  15476  15482     1   110.1900474 564.840000
  15462  15484  15468     1   112.4800480 524.673600
  15463  15462  15476     1   111.5100476 526.347200
  15463  15462  15484     1   107.9700462 569.024000
  15463  15466  15467     1   111.5100476 526.347200
  15463  15466  15474     1   110.1900474 564.840000
  15466  15463  15475     1   110.1900474 564.840000
  15466  15467  15468     1   111.5100476 526.347200
  15466  15467  15473     1   110.1900474 564.840000
  15467  15466  15474     1   110.1900474 564.840000
  15467  15468  15472     1   107.9700462 569.024000
  15467  15468  15484     1   107.9700462 569.024000
  15468  15467  15473     1   110.1900474 564.840000
  15472  15468  15484     1   108.2900466 608.353600
  15476  15462  15484     1   107.9700462 569.024000
  15485  15486  15489     1   111.5100476 526.347200
  15485  15486  15498     1   110.1900474 564.840000
  15485  15499  15505     1   110.1900474 564.840000
  15485  15507  15491     1   112.4800480 524.673600
  15486  15489  15490     1   111.5100476 526.347200
  15486  15489  15497     1   110.1900474 564.840000
  15486  15485  15499     1   111.5100476 526.347200
  15486  15485  15507     1   107.9700462 569.024000
  15489  15490  15491     1   111.5100476 526.347200
  15489  15490  15496     1   110.1900474 564.840000
  15489  15486  15498     1   110.1900474 564.840000
  15490  15491  15495     1   107.9700462 569.024000
  15490  15491  15507     1   107.9700462 569.024000
  15490  15489  15497     1   110.1900474 564.840000
  15491  15490  15496     1   110.1900474 564.840000
  15495  15491  15507     1   108.2900466 608.353600
  15499  15485  15507     1   107.9700462 569.024000
  15508  15509  15512     1   111.5100476 526.347200
  15508  15509  15521     1   110.1900474 564.840000
  15508  15522  15528     1   110.1900474 564.840000
  15508  15530  15514     1   112.4800480 524.673600
  15509  15508  15522     1   111.5100476 526.347200
  15509  15508  15530     1   107.9700462 569.024000
  15509  15512  15513     1   111.5100476 526.347200
  15509  15512  15520     1   110.1900474 564.840000
  15512  15509  15521     1   110.1900474 564.840000
  15512  15513  15514     1   111.5100476 526.347200
  15512  15513  15519     1   110.1900474 564.840000
  15513  15512  15520     1   110.1900474 564.840000
  15513  15514  15518     1   107.9700462 569.024000
  15513  15514  15530     1   107.9700462 569.024000
  15514  15513  15519     1   110.1900474 564.840000
  15518  15514  15530     1   108.2900466 608.353600
  15522  15508  15530     1   107.9700462 569.024000
  15531  15532  15535     1   111.5100476 526.347200
  15531  15532  15544     1   110.1900474 564.840000
  15531  15545  15551     1   110.1900474 564.840000
  15531  15553  15537     1   112.4800480 524.673600
  15532  15535  15536     1   111.5100476 526.347200
  15532  15535  15543     1   110.1900474 564.840000
  15532  15531  15545     1   111.5100476 526.347200
  15532  15531  15553     1   107.9700462 569.024000
  15535  15536  15537     1   111.5100476 526.347200
  15535  15536  15542     1   110.1900474 564.840000
  15535  15532  15544     1   110.1900474 564.840000
  15536  15537  15541     1   107.9700462 569.024000
  15536  15537  15553     1   107.9700462 569.024000
  15536  15535  15543     1   110.1900474 564.840000
  15537  15536  15542     1   110.1900474 564.840000
  15541  15537  15553     1   108.2900466 608.353600
  15545  15531  15553     1   107.9700462 569.024000
  15554  15555  15558     1   111.5100476 526.347200
  15554  15555  15567     1   110.1900474 564.840000
  15554  15568  15574     1   110.1900474 564.840000
  15554  15576  15560     1   112.4800480 524.673600
  15555  15554  15568     1   111.5100476 526.347200
  15555  15554  15576     1   107.9700462 569.024000
  15555  15558  15559     1   111.5100476 526.347200
  15555  15558  15566     1   110.1900474 564.840000
  15558  15555  15567     1   110.1900474 564.840000
  15558  15559  15560     1   111.5100476 526.347200
  15558  15559  15565     1   110.1900474 564.840000
  15559  15558  15566     1   110.1900474 564.840000
  15559  15560  15564     1   107.9700462 569.024000
  15559  15560  15576     1   107.9700462 569.024000
  15560  15559  15565     1   110.1900474 564.840000
  15564  15560  15576     1   108.2900466 608.353600
  15568  15554  15576     1   107.9700462 569.024000
  15577  15578  15581     1   111.5100476 526.347200
  15577  15578  15590     1   110.1900474 564.840000
  15577  15591  15597     1   110.1900474 564.840000
  15577  15599  15583     1   112.4800480 524.673600
  15578  15581  15582     1   111.5100476 526.347200
  15578  15581  15589     1   110.1900474 564.840000
  15578  15577  15591     1   111.5100476 526.347200
  15578  15577  15599     1   107.9700462 569.024000
  15581  15582  15583     1   111.5100476 526.347200
  15581  15582  15588     1   110.1900474 564.840000
  15581  15578  15590     1   110.1900474 564.840000
  15582  15583  15587     1   107.9700462 569.024000
  15582  15583  15599     1   107.9700462 569.024000
  15582  15581  15589     1   110.1900474 564.840000
  15583  15582  15588     1   110.1900474 564.840000
  15587  15583  15599     1   108.2900466 608.353600
  15591  15577  15599     1   107.9700462 569.024000
  15600  15601  15604     1   111.5100476 526.347200
  15600  15601  15613     1   110.1900474 564.840000
  15600  15614  15620     1   110.1900474 564.840000
  15600  15622  15606     1   112.4800480 524.673600
  15601  15600  15614     1   111.5100476 526.347200
  15601  15600  15622     1   107.9700462 569.024000
  15601  15604  15605     1   111.5100476 526.347200
  15601  15604  15612     1   110.1900474 564.840000
  15604  15601  15613     1   110.1900474 564.840000
  15604  15605  15606     1   111.5100476 526.347200
  15604  15605  15611     1   110.1900474 564.840000
  15605  15604  15612     1   110.1900474 564.840000
  15605  15606  15610     1   107.9700462 569.024000
  15605  15606  15622     1   107.9700462 569.024000
  15606  15605  15611     1   110.1900474 564.840000
  15610  15606  15622     1   108.2900466 608.353600
  15614  15600  15622     1   107.9700462 569.024000
  15623  15624  15627     1   111.5100476 526.347200
  15623  15624  15636     1   110.1900474 564.840000
  15623  15637  15643     1   110.1900474 564.840000
  15623  15645  15629     1   112.4800480 524.673600
  15624  15627  15628     1   111.5100476 526.347200
  15624  15627  15635     1   110.1900474 564.840000
  15624  15623  15637     1   111.5100476 526.347200
  15624  15623  15645     1   107.9700462 569.024000
  15627  15628  15629     1   111.5100476 526.347200
  15627  15628  15634     1   110.1900474 564.840000
  15627  15624  15636     1   110.1900474 564.840000
  15628  15629  15633     1   107.9700462 569.024000
  15628  15629  15645     1   107.9700462 569.024000
  15628  15627  15635     1   110.1900474 564.840000
  15629  15628  15634     1   110.1900474 564.840000
  15633  15629  15645     1   108.2900466 608.353600
  15637  15623  15645     1   107.9700462 569.024000
  15646  15647  15650     1   111.5100476 526.347200
  15646  15647  15659     1   110.1900474 564.840000
  15646  15660  15666     1   110.1900474 564.840000
  15646  15668  15652     1   112.4800480 524.673600
  15647  15646  15660     1   111.5100476 526.347200
  15647  15646  15668     1   107.9700462 569.024000
  15647  15650  15651     1   111.5100476 526.347200
  15647  15650  15658     1   110.1900474 564.840000
  15650  15647  15659     1   110.1900474 564.840000
  15650  15651  15652     1   111.5100476 526.347200
  15650  15651  15657     1   110.1900474 564.840000
  15651  15650  15658     1   110.1900474 564.840000
  15651  15652  15656     1   107.9700462 569.024000
  15651  15652  15668     1   107.9700462 569.024000
  15652  15651  15657     1   110.1900474 564.840000
  15656  15652  15668     1   108.2900466 608.353600
  15660  15646  15668     1   107.9700462 569.024000
  15669  15670  15673     1   111.5100476 526.347200
  15669  15670  15682     1   110.1900474 564.840000
  15669  15683  15689     1   110.1900474 564.840000
  15669  15691  15675     1   112.4800480 524.673600
  15670  15673  15674     1   111.5100476 526.347200
  15670  15673  15681     1   110.1900474 564.840000
  15670  15669  15683     1   111.5100476 526.347200
  15670  15669  15691     1   107.9700462 569.024000
  15673  15674  15675     1   111.5100476 526.347200
  15673  15674  15680     1   110.1900474 564.840000
  15673  15670  15682     1   110.1900474 564.840000
  15674  15675  15679     1   107.9700462 569.024000
  15674  15675  15691     1   107.9700462 569.024000
  15674  15673  15681     1   110.1900474 564.840000
  15675  15674  15680     1   110.1900474 564.840000
  15679  15675  15691     1   108.2900466 608.353600
  15683  15669  15691     1   107.9700462 569.024000
  15692  15693  15696     1   111.5100476 526.347200
  15692  15693  15705     1   110.1900474 564.840000
  15692  15706  15712     1   110.1900474 564.840000
  15692  15714  15698     1   112.4800480 524.673600
  15693  15692  15706     1   111.5100476 526.347200
  15693  15692  15714     1   107.9700462 569.024000
  15693  15696  15697     1   111.5100476 526.347200
  15693  15696  15704     1   110.1900474 564.840000
  15696  15693  15705     1   110.1900474 564.840000
  15696  15697  15698     1   111.5100476 526.347200
  15696  15697  15703     1   110.1900474 564.840000
  15697  15696  15704     1   110.1900474 564.840000
  15697  15698  15702     1   107.9700462 569.024000
  15697  15698  15714     1   107.9700462 569.024000
  15698  15697  15703     1   110.1900474 564.840000
  15702  15698  15714     1   108.2900466 608.353600
  15706  15692  15714     1   107.9700462 569.024000
  15715  15716  15719     1   111.5100476 526.347200
  15715  15716  15728     1   110.1900474 564.840000
  15715  15729  15735     1   110.1900474 564.840000
  15715  15737  15721     1   112.4800480 524.673600
  15716  15719  15720     1   111.5100476 526.347200
  15716  15719  15727     1   110.1900474 564.840000
  15716  15715  15729     1   111.5100476 526.347200
  15716  15715  15737     1   107.9700462 569.024000
  15719  15720  15721     1   111.5100476 526.347200
  15719  15720  15726     1   110.1900474 564.840000
  15719  15716  15728     1   110.1900474 564.840000
  15720  15721  15725     1   107.9700462 569.024000
  15720  15721  15737     1   107.9700462 569.024000
  15720  15719  15727     1   110.1900474 564.840000
  15721  15720  15726     1   110.1900474 564.840000
  15725  15721  15737     1   108.2900466 608.353600
  15729  15715  15737     1   107.9700462 569.024000
  15738  15739  15742     1   111.5100476 526.347200
  15738  15739  15751     1   110.1900474 564.840000
  15738  15752  15758     1   110.1900474 564.840000
  15738  15760  15744     1   112.4800480 524.673600
  15739  15738  15752     1   111.5100476 526.347200
  15739  15738  15760     1   107.9700462 569.024000
  15739  15742  15743     1   111.5100476 526.347200
  15739  15742  15750     1   110.1900474 564.840000
  15742  15739  15751     1   110.1900474 564.840000
  15742  15743  15744     1   111.5100476 526.347200
  15742  15743  15749     1   110.1900474 564.840000
  15743  15742  15750     1   110.1900474 564.840000
  15743  15744  15748     1   107.9700462 569.024000
  15743  15744  15760     1   107.9700462 569.024000
  15744  15743  15749     1   110.1900474 564.840000
  15748  15744  15760     1   108.2900466 608.353600
  15752  15738  15760     1   107.9700462 569.024000
  15761  15762  15765     1   111.5100476 526.347200
  15761  15762  15774     1   110.1900474 564.840000
  15761  15775  15781     1   110.1900474 564.840000
  15761  15783  15767     1   112.4800480 524.673600
  15762  15765  15766     1   111.5100476 526.347200
  15762  15765  15773     1   110.1900474 564.840000
  15762  15761  15775     1   111.5100476 526.347200
  15762  15761  15783     1   107.9700462 569.024000
  15765  15766  15767     1   111.5100476 526.347200
  15765  15766  15772     1   110.1900474 564.840000
  15765  15762  15774     1   110.1900474 564.840000
  15766  15767  15771     1   107.9700462 569.024000
  15766  15767  15783     1   107.9700462 569.024000
  15766  15765  15773     1   110.1900474 564.840000
  15767  15766  15772     1   110.1900474 564.840000
  15771  15767  15783     1   108.2900466 608.353600
  15775  15761  15783     1   107.9700462 569.024000
  15784  15785  15788     1   111.5100476 526.347200
  15784  15785  15797     1   110.1900474 564.840000
  15784  15798  15804     1   110.1900474 564.840000
  15784  15806  15790     1   112.4800480 524.673600
  15785  15784  15798     1   111.5100476 526.347200
  15785  15784  15806     1   107.9700462 569.024000
  15785  15788  15789     1   111.5100476 526.347200
  15785  15788  15796     1   110.1900474 564.840000
  15788  15785  15797     1   110.1900474 564.840000
  15788  15789  15790     1   111.5100476 526.347200
  15788  15789  15795     1   110.1900474 564.840000
  15789  15788  15796     1   110.1900474 564.840000
  15789  15790  15794     1   107.9700462 569.024000
  15789  15790  15806     1   107.9700462 569.024000
  15790  15789  15795     1   110.1900474 564.840000
  15794  15790  15806     1   108.2900466 608.353600
  15798  15784  15806     1   107.9700462 569.024000
  15807  15808  15811     1   111.5100476 526.347200
  15807  15808  15820     1   110.1900474 564.840000
  15807  15821  15827     1   110.1900474 564.840000
  15807  15829  15813     1   112.4800480 524.673600
  15808  15811  15812     1   111.5100476 526.347200
  15808  15811  15819     1   110.1900474 564.840000
  15808  15807  15821     1   111.5100476 526.347200
  15808  15807  15829     1   107.9700462 569.024000
  15811  15812  15813     1   111.5100476 526.347200
  15811  15812  15818     1   110.1900474 564.840000
  15811  15808  15820     1   110.1900474 564.840000
  15812  15813  15817     1   107.9700462 569.024000
  15812  15813  15829     1   107.9700462 569.024000
  15812  15811  15819     1   110.1900474 564.840000
  15813  15812  15818     1   110.1900474 564.840000
  15817  15813  15829     1   108.2900466 608.353600
  15821  15807  15829     1   107.9700462 569.024000
  15830  15831  15834     1   111.5100476 526.347200
  15830  15831  15843     1   110.1900474 564.840000
  15830  15844  15850     1   110.1900474 564.840000
  15830  15852  15836     1   112.4800480 524.673600
  15831  15830  15844     1   111.5100476 526.347200
  15831  15830  15852     1   107.9700462 569.024000
  15831  15834  15835     1   111.5100476 526.347200
  15831  15834  15842     1   110.1900474 564.840000
  15834  15831  15843     1   110.1900474 564.840000
  15834  15835  15836     1   111.5100476 526.347200
  15834  15835  15841     1   110.1900474 564.840000
  15835  15834  15842     1   110.1900474 564.840000
  15835  15836  15840     1   107.9700462 569.024000
  15835  15836  15852     1   107.9700462 569.024000
  15836  15835  15841     1   110.1900474 564.840000
  15840  15836  15852     1   108.2900466 608.353600
  15844  15830  15852     1   107.9700462 569.024000
  15853  15854  15857     1   111.5100476 526.347200
  15853  15854  15866     1   110.1900474 564.840000
  15853  15867  15873     1   110.1900474 564.840000
  15853  15875  15859     1   112.4800480 524.673600
  15854  15857  15858     1   111.5100476 526.347200
  15854  15857  15865     1   110.1900474 564.840000
  15854  15853  15867     1   111.5100476 526.347200
  15854  15853  15875     1   107.9700462 569.024000
  15857  15858  15859     1   111.5100476 526.347200
  15857  15858  15864     1   110.1900474 564.840000
  15857  15854  15866     1   110.1900474 564.840000
  15858  15859  15863     1   107.9700462 569.024000
  15858  15859  15875     1   107.9700462 569.024000
  15858  15857  15865     1   110.1900474 564.840000
  15859  15858  15864     1   110.1900474 564.840000
  15863  15859  15875     1   108.2900466 608.353600
  15867  15853  15875     1   107.9700462 569.024000
  15876  15877  15880     1   111.5100476 526.347200
  15876  15877  15889     1   110.1900474 564.840000
  15876  15890  15896     1   110.1900474 564.840000
  15876  15898  15882     1   112.4800480 524.673600
  15877  15876  15890     1   111.5100476 526.347200
  15877  15876  15898     1   107.9700462 569.024000
  15877  15880  15881     1   111.5100476 526.347200
  15877  15880  15888     1   110.1900474 564.840000
  15880  15877  15889     1   110.1900474 564.840000
  15880  15881  15882     1   111.5100476 526.347200
  15880  15881  15887     1   110.1900474 564.840000
  15881  15880  15888     1   110.1900474 564.840000
  15881  15882  15886     1   107.9700462 569.024000
  15881  15882  15898     1   107.9700462 569.024000
  15882  15881  15887     1   110.1900474 564.840000
  15886  15882  15898     1   108.2900466 608.353600
  15890  15876  15898     1   107.9700462 569.024000
  15899  15900  15903     1   111.5100476 526.347200
  15899  15900  15912     1   110.1900474 564.840000
  15899  15913  15919     1   110.1900474 564.840000
  15899  15921  15905     1   112.4800480 524.673600
  15900  15903  15904     1   111.5100476 526.347200
  15900  15903  15911     1   110.1900474 564.840000
  15900  15899  15913     1   111.5100476 526.347200
  15900  15899  15921     1   107.9700462 569.024000
  15903  15904  15905     1   111.5100476 526.347200
  15903  15904  15910     1   110.1900474 564.840000
  15903  15900  15912     1   110.1900474 564.840000
  15904  15905  15909     1   107.9700462 569.024000
  15904  15905  15921     1   107.9700462 569.024000
  15904  15903  15911     1   110.1900474 564.840000
  15905  15904  15910     1   110.1900474 564.840000
  15909  15905  15921     1   108.2900466 608.353600
  15913  15899  15921     1   107.9700462 569.024000
  15922  15923  15926     1   111.5100476 526.347200
  15922  15923  15935     1   110.1900474 564.840000
  15922  15936  15942     1   110.1900474 564.840000
  15922  15944  15928     1   112.4800480 524.673600
  15923  15922  15936     1   111.5100476 526.347200
  15923  15922  15944     1   107.9700462 569.024000
  15923  15926  15927     1   111.5100476 526.347200
  15923  15926  15934     1   110.1900474 564.840000
  15926  15923  15935     1   110.1900474 564.840000
  15926  15927  15928     1   111.5100476 526.347200
  15926  15927  15933     1   110.1900474 564.840000
  15927  15926  15934     1   110.1900474 564.840000
  15927  15928  15932     1   107.9700462 569.024000
  15927  15928  15944     1   107.9700462 569.024000
  15928  15927  15933     1   110.1900474 564.840000
  15932  15928  15944     1   108.2900466 608.353600
  15936  15922  15944     1   107.9700462 569.024000
  15945  15946  15949     1   111.5100476 526.347200
  15945  15946  15958     1   110.1900474 564.840000
  15945  15959  15965     1   110.1900474 564.840000
  15945  15967  15951     1   112.4800480 524.673600
  15946  15949  15950     1   111.5100476 526.347200
  15946  15949  15957     1   110.1900474 564.840000
  15946  15945  15959     1   111.5100476 526.347200
  15946  15945  15967     1   107.9700462 569.024000
  15949  15950  15951     1   111.5100476 526.347200
  15949  15950  15956     1   110.1900474 564.840000
  15949  15946  15958     1   110.1900474 564.840000
  15950  15951  15955     1   107.9700462 569.024000
  15950  15951  15967     1   107.9700462 569.024000
  15950  15949  15957     1   110.1900474 564.840000
  15951  15950  15956     1   110.1900474 564.840000
  15955  15951  15967     1   108.2900466 608.353600
  15959  15945  15967     1   107.9700462 569.024000
  15968  15969  15972     1   111.5100476 526.347200
  15968  15969  15981     1   110.1900474 564.840000
  15968  15982  15988     1   110.1900474 564.840000
  15968  15990  15974     1   112.4800480 524.673600
  15969  15968  15982     1   111.5100476 526.347200
  15969  15968  15990     1   107.9700462 569.024000
  15969  15972  15973     1   111.5100476 526.347200
  15969  15972  15980     1   110.1900474 564.840000
  15972  15969  15981     1   110.1900474 564.840000
  15972  15973  15974     1   111.5100476 526.347200
  15972  15973  15979     1   110.1900474 564.840000
  15973  15972  15980     1   110.1900474 564.840000
  15973  15974  15978     1   107.9700462 569.024000
  15973  15974  15990     1   107.9700462 569.024000
  15974  15973  15979     1   110.1900474 564.840000
  15978  15974  15990     1   108.2900466 608.353600
  15982  15968  15990     1   107.9700462 569.024000
  15991  15992  15995     1   111.5100476 526.347200
  15991  15992  16004     1   110.1900474 564.840000
  15991  16005  16011     1   110.1900474 564.840000
  15991  16013  15997     1   112.4800480 524.673600
  15992  15995  15996     1   111.5100476 526.347200
  15992  15995  16003     1   110.1900474 564.840000
  15992  15991  16005     1   111.5100476 526.347200
  15992  15991  16013     1   107.9700462 569.024000
  15995  15996  15997     1   111.5100476 526.347200
  15995  15996  16002     1   110.1900474 564.840000
  15995  15992  16004     1   110.1900474 564.840000
  15996  15997  16001     1   107.9700462 569.024000
  15996  15997  16013     1   107.9700462 569.024000
  15996  15995  16003     1   110.1900474 564.840000
  15997  15996  16002     1   110.1900474 564.840000
  16001  15997  16013     1   108.2900466 608.353600
  16005  15991  16013     1   107.9700462 569.024000
  16014  16015  16018     1   111.5100476 526.347200
  16014  16015  16027     1   110.1900474 564.840000
  16014  16028  16034     1   110.1900474 564.840000
  16014  16036  16020     1   112.4800480 524.673600
  16015  16014  16028     1   111.5100476 526.347200
  16015  16014  16036     1   107.9700462 569.024000
  16015  16018  16019     1   111.5100476 526.347200
  16015  16018  16026     1   110.1900474 564.840000
  16018  16015  16027     1   110.1900474 564.840000
  16018  16019  16020     1   111.5100476 526.347200
  16018  16019  16025     1   110.1900474 564.840000
  16019  16018  16026     1   110.1900474 564.840000
  16019  16020  16024     1   107.9700462 569.024000
  16019  16020  16036     1   107.9700462 569.024000
  16020  16019  16025     1   110.1900474 564.840000
  16024  16020  16036     1   108.2900466 608.353600
  16028  16014  16036     1   107.9700462 569.024000
  16037  16038  16041     1   111.5100476 526.347200
  16037  16038  16050     1   110.1900474 564.840000
  16037  16051  16057     1   110.1900474 564.840000
  16037  16059  16043     1   112.4800480 524.673600
  16038  16041  16042     1   111.5100476 526.347200
  16038  16041  16049     1   110.1900474 564.840000
  16038  16037  16051     1   111.5100476 526.347200
  16038  16037  16059     1   107.9700462 569.024000
  16041  16042  16043     1   111.5100476 526.347200
  16041  16042  16048     1   110.1900474 564.840000
  16041  16038  16050     1   110.1900474 564.840000
  16042  16043  16047     1   107.9700462 569.024000
  16042  16043  16059     1   107.9700462 569.024000
  16042  16041  16049     1   110.1900474 564.840000
  16043  16042  16048     1   110.1900474 564.840000
  16047  16043  16059     1   108.2900466 608.353600
  16051  16037  16059     1   107.9700462 569.024000
  16060  16061  16064     1   111.5100476 526.347200
  16060  16061  16073     1   110.1900474 564.840000
  16060  16074  16080     1   110.1900474 564.840000
  16060  16082  16066     1   112.4800480 524.673600
  16061  16060  16074     1   111.5100476 526.347200
  16061  16060  16082     1   107.9700462 569.024000
  16061  16064  16065     1   111.5100476 526.347200
  16061  16064  16072     1   110.1900474 564.840000
  16064  16061  16073     1   110.1900474 564.840000
  16064  16065  16066     1   111.5100476 526.347200
  16064  16065  16071     1   110.1900474 564.840000
  16065  16064  16072     1   110.1900474 564.840000
  16065  16066  16070     1   107.9700462 569.024000
  16065  16066  16082     1   107.9700462 569.024000
  16066  16065  16071     1   110.1900474 564.840000
  16070  16066  16082     1   108.2900466 608.353600
  16074  16060  16082     1   107.9700462 569.024000
  16083  16084  16087     1   111.5100476 526.347200
  16083  16084  16096     1   110.1900474 564.840000
  16083  16097  16103     1   110.1900474 564.840000
  16083  16105  16089     1   112.4800480 524.673600
  16084  16087  16088     1   111.5100476 526.347200
  16084  16087  16095     1   110.1900474 564.840000
  16084  16083  16097     1   111.5100476 526.347200
  16084  16083  16105     1   107.9700462 569.024000
  16087  16088  16089     1   111.5100476 526.347200
  16087  16088  16094     1   110.1900474 564.840000
  16087  16084  16096     1   110.1900474 564.840000
  16088  16089  16093     1   107.9700462 569.024000
  16088  16089  16105     1   107.9700462 569.024000
  16088  16087  16095     1   110.1900474 564.840000
  16089  16088  16094     1   110.1900474 564.840000
  16093  16089  16105     1   108.2900466 608.353600
  16097  16083  16105     1   107.9700462 569.024000
  16106  16107  16110     1   111.5100476 526.347200
  16106  16107  16119     1   110.1900474 564.840000
  16106  16120  16126     1   110.1900474 564.840000
  16106  16128  16112     1   112.4800480 524.673600
  16107  16106  16120     1   111.5100476 526.347200
  16107  16106  16128     1   107.9700462 569.024000
  16107  16110  16111     1   111.5100476 526.347200
  16107  16110  16118     1   110.1900474 564.840000
  16110  16107  16119     1   110.1900474 564.840000
  16110  16111  16112     1   111.5100476 526.347200
  16110  16111  16117     1   110.1900474 564.840000
  16111  16110  16118     1   110.1900474 564.840000
  16111  16112  16116     1   107.9700462 569.024000
  16111  16112  16128     1   107.9700462 569.024000
  16112  16111  16117     1   110.1900474 564.840000
  16116  16112  16128     1   108.2900466 608.353600
  16120  16106  16128     1   107.9700462 569.024000
  16129  16130  16133     1   111.5100476 526.347200
  16129  16130  16142     1   110.1900474 564.840000
  16129  16143  16149     1   110.1900474 564.840000
  16129  16151  16135     1   112.4800480 524.673600
  16130  16133  16134     1   111.5100476 526.347200
  16130  16133  16141     1   110.1900474 564.840000
  16130  16129  16143     1   111.5100476 526.347200
  16130  16129  16151     1   107.9700462 569.024000
  16133  16134  16135     1   111.5100476 526.347200
  16133  16134  16140     1   110.1900474 564.840000
  16133  16130  16142     1   110.1900474 564.840000
  16134  16135  16139     1   107.9700462 569.024000
  16134  16135  16151     1   107.9700462 569.024000
  16134  16133  16141     1   110.1900474 564.840000
  16135  16134  16140     1   110.1900474 564.840000
  16139  16135  16151     1   108.2900466 608.353600
  16143  16129  16151     1   107.9700462 569.024000
  16152  16153  16156     1   111.5100476 526.347200
  16152  16153  16165     1   110.1900474 564.840000
  16152  16166  16172     1   110.1900474 564.840000
  16152  16174  16158     1   112.4800480 524.673600
  16153  16152  16166     1   111.5100476 526.347200
  16153  16152  16174     1   107.9700462 569.024000
  16153  16156  16157     1   111.5100476 526.347200
  16153  16156  16164     1   110.1900474 564.840000
  16156  16153  16165     1   110.1900474 564.840000
  16156  16157  16158     1   111.5100476 526.347200
  16156  16157  16163     1   110.1900474 564.840000
  16157  16156  16164     1   110.1900474 564.840000
  16157  16158  16162     1   107.9700462 569.024000
  16157  16158  16174     1   107.9700462 569.024000
  16158  16157  16163     1   110.1900474 564.840000
  16162  16158  16174     1   108.2900466 608.353600
  16166  16152  16174     1   107.9700462 569.024000
  16175  16176  16179     1   111.5100476 526.347200
  16175  16176  16188     1   110.1900474 564.840000
  16175  16189  16195     1   110.1900474 564.840000
  16175  16197  16181     1   112.4800480 524.673600
  16176  16179  16180     1   111.5100476 526.347200
  16176  16179  16187     1   110.1900474 564.840000
  16176  16175  16189     1   111.5100476 526.347200
  16176  16175  16197     1   107.9700462 569.024000
  16179  16180  16181     1   111.5100476 526.347200
  16179  16180  16186     1   110.1900474 564.840000
  16179  16176  16188     1   110.1900474 564.840000
  16180  16181  16185     1   107.9700462 569.024000
  16180  16181  16197     1   107.9700462 569.024000
  16180  16179  16187     1   110.1900474 564.840000
  16181  16180  16186     1   110.1900474 564.840000
  16185  16181  16197     1   108.2900466 608.353600
  16189  16175  16197     1   107.9700462 569.024000
  16198  16199  16202     1   111.5100476 526.347200
  16198  16199  16211     1   110.1900474 564.840000
  16198  16212  16218     1   110.1900474 564.840000
  16198  16220  16204     1   112.4800480 524.673600
  16199  16198  16212     1   111.5100476 526.347200
  16199  16198  16220     1   107.9700462 569.024000
  16199  16202  16203     1   111.5100476 526.347200
  16199  16202  16210     1   110.1900474 564.840000
  16202  16199  16211     1   110.1900474 564.840000
  16202  16203  16204     1   111.5100476 526.347200
  16202  16203  16209     1   110.1900474 564.840000
  16203  16202  16210     1   110.1900474 564.840000
  16203  16204  16208     1   107.9700462 569.024000
  16203  16204  16220     1   107.9700462 569.024000
  16204  16203  16209     1   110.1900474 564.840000
  16208  16204  16220     1   108.2900466 608.353600
  16212  16198  16220     1   107.9700462 569.024000
  16221  16222  16225     1   111.5100476 526.347200
  16221  16222  16234     1   110.1900474 564.840000
  16221  16235  16241     1   110.1900474 564.840000
  16221  16243  16227     1   112.4800480 524.673600
  16222  16225  16226     1   111.5100476 526.347200
  16222  16225  16233     1   110.1900474 564.840000
  16222  16221  16235     1   111.5100476 526.347200
  16222  16221  16243     1   107.9700462 569.024000
  16225  16226  16227     1   111.5100476 526.347200
  16225  16226  16232     1   110.1900474 564.840000
  16225  16222  16234     1   110.1900474 564.840000
  16226  16227  16231     1   107.9700462 569.024000
  16226  16227  16243     1   107.9700462 569.024000
  16226  16225  16233     1   110.1900474 564.840000
  16227  16226  16232     1   110.1900474 564.840000
  16231  16227  16243     1   108.2900466 608.353600
  16235  16221  16243     1   107.9700462 569.024000
  16244  16245  16248     1   111.5100476 526.347200
  16244  16245  16257     1   110.1900474 564.840000
  16244  16258  16264     1   110.1900474 564.840000
  16244  16266  16250     1   112.4800480 524.673600
  16245  16244  16258     1   111.5100476 526.347200
  16245  16244  16266     1   107.9700462 569.024000
  16245  16248  16249     1   111.5100476 526.347200
  16245  16248  16256     1   110.1900474 564.840000
  16248  16245  16257     1   110.1900474 564.840000
  16248  16249  16250     1   111.5100476 526.347200
  16248  16249  16255     1   110.1900474 564.840000
  16249  16248  16256     1   110.1900474 564.840000
  16249  16250  16254     1   107.9700462 569.024000
  16249  16250  16266     1   107.9700462 569.024000
  16250  16249  16255     1   110.1900474 564.840000
  16254  16250  16266     1   108.2900466 608.353600
  16258  16244  16266     1   107.9700462 569.024000
  16267  16268  16271     1   111.5100476 526.347200
  16267  16268  16280     1   110.1900474 564.840000
  16267  16281  16287     1   110.1900474 564.840000
  16267  16289  16273     1   112.4800480 524.673600
  16268  16271  16272     1   111.5100476 526.347200
  16268  16271  16279     1   110.1900474 564.840000
  16268  16267  16281     1   111.5100476 526.347200
  16268  16267  16289     1   107.9700462 569.024000
  16271  16272  16273     1   111.5100476 526.347200
  16271  16272  16278     1   110.1900474 564.840000
  16271  16268  16280     1   110.1900474 564.840000
  16272  16273  16277     1   107.9700462 569.024000
  16272  16273  16289     1   107.9700462 569.024000
  16272  16271  16279     1   110.1900474 564.840000
  16273  16272  16278     1   110.1900474 564.840000
  16277  16273  16289     1   108.2900466 608.353600
  16281  16267  16289     1   107.9700462 569.024000
  16290  16291  16294     1   111.5100476 526.347200
  16290  16291  16303     1   110.1900474 564.840000
  16290  16304  16310     1   110.1900474 564.840000
  16290  16312  16296     1   112.4800480 524.673600
  16291  16290  16304     1   111.5100476 526.347200
  16291  16290  16312     1   107.9700462 569.024000
  16291  16294  16295     1   111.5100476 526.347200
  16291  16294  16302     1   110.1900474 564.840000
  16294  16291  16303     1   110.1900474 564.840000
  16294  16295  16296     1   111.5100476 526.347200
  16294  16295  16301     1   110.1900474 564.840000
  16295  16294  16302     1   110.1900474 564.840000
  16295  16296  16300     1   107.9700462 569.024000
  16295  16296  16312     1   107.9700462 569.024000
  16296  16295  16301     1   110.1900474 564.840000
  16300  16296  16312     1   108.2900466 608.353600
  16304  16290  16312     1   107.9700462 569.024000
  16313  16314  16317     1   111.5100476 526.347200
  16313  16314  16326     1   110.1900474 564.840000
  16313  16327  16333     1   110.1900474 564.840000
  16313  16335  16319     1   112.4800480 524.673600
  16314  16317  16318     1   111.5100476 526.347200
  16314  16317  16325     1   110.1900474 564.840000
  16314  16313  16327     1   111.5100476 526.347200
  16314  16313  16335     1   107.9700462 569.024000
  16317  16318  16319     1   111.5100476 526.347200
  16317  16318  16324     1   110.1900474 564.840000
  16317  16314  16326     1   110.1900474 564.840000
  16318  16319  16323     1   107.9700462 569.024000
  16318  16319  16335     1   107.9700462 569.024000
  16318  16317  16325     1   110.1900474 564.840000
  16319  16318  16324     1   110.1900474 564.840000
  16323  16319  16335     1   108.2900466 608.353600
  16327  16313  16335     1   107.9700462 569.024000
  16336  16337  16340     1   111.5100476 526.347200
  16336  16337  16349     1   110.1900474 564.840000
  16336  16350  16356     1   110.1900474 564.840000
  16336  16358  16342     1   112.4800480 524.673600
  16337  16336  16350     1   111.5100476 526.347200
  16337  16336  16358     1   107.9700462 569.024000
  16337  16340  16341     1   111.5100476 526.347200
  16337  16340  16348     1   110.1900474 564.840000
  16340  16337  16349     1   110.1900474 564.840000
  16340  16341  16342     1   111.5100476 526.347200
  16340  16341  16347     1   110.1900474 564.840000
  16341  16340  16348     1   110.1900474 564.840000
  16341  16342  16346     1   107.9700462 569.024000
  16341  16342  16358     1   107.9700462 569.024000
  16342  16341  16347     1   110.1900474 564.840000
  16346  16342  16358     1   108.2900466 608.353600
  16350  16336  16358     1   107.9700462 569.024000
  16359  16360  16363     1   111.5100476 526.347200
  16359  16360  16372     1   110.1900474 564.840000
  16359  16373  16379     1   110.1900474 564.840000
  16359  16381  16365     1   112.4800480 524.673600
  16360  16363  16364     1   111.5100476 526.347200
  16360  16363  16371     1   110.1900474 564.840000
  16360  16359  16373     1   111.5100476 526.347200
  16360  16359  16381     1   107.9700462 569.024000
  16363  16364  16365     1   111.5100476 526.347200
  16363  16364  16370     1   110.1900474 564.840000
  16363  16360  16372     1   110.1900474 564.840000
  16364  16365  16369     1   107.9700462 569.024000
  16364  16365  16381     1   107.9700462 569.024000
  16364  16363  16371     1   110.1900474 564.840000
  16365  16364  16370     1   110.1900474 564.840000
  16369  16365  16381     1   108.2900466 608.353600
  16373  16359  16381     1   107.9700462 569.024000
  16382  16383  16386     1   111.5100476 526.347200
  16382  16383  16395     1   110.1900474 564.840000
  16382  16396  16402     1   110.1900474 564.840000
  16382  16404  16388     1   112.4800480 524.673600
  16383  16382  16396     1   111.5100476 526.347200
  16383  16382  16404     1   107.9700462 569.024000
  16383  16386  16387     1   111.5100476 526.347200
  16383  16386  16394     1   110.1900474 564.840000
  16386  16383  16395     1   110.1900474 564.840000
  16386  16387  16388     1   111.5100476 526.347200
  16386  16387  16393     1   110.1900474 564.840000
  16387  16386  16394     1   110.1900474 564.840000
  16387  16388  16392     1   107.9700462 569.024000
  16387  16388  16404     1   107.9700462 569.024000
  16388  16387  16393     1   110.1900474 564.840000
  16392  16388  16404     1   108.2900466 608.353600
  16396  16382  16404     1   107.9700462 569.024000
  16405  16406  16409     1   111.5100476 526.347200
  16405  16406  16418     1   110.1900474 564.840000
  16405  16419  16425     1   110.1900474 564.840000
  16405  16427  16411     1   112.4800480 524.673600
  16406  16409  16410     1   111.5100476 526.347200
  16406  16409  16417     1   110.1900474 564.840000
  16406  16405  16419     1   111.5100476 526.347200
  16406  16405  16427     1   107.9700462 569.024000
  16409  16410  16411     1   111.5100476 526.347200
  16409  16410  16416     1   110.1900474 564.840000
  16409  16406  16418     1   110.1900474 564.840000
  16410  16411  16415     1   107.9700462 569.024000
  16410  16411  16427     1   107.9700462 569.024000
  16410  16409  16417     1   110.1900474 564.840000
  16411  16410  16416     1   110.1900474 564.840000
  16415  16411  16427     1   108.2900466 608.353600
  16419  16405  16427     1   107.9700462 569.024000
  16428  16429  16432     1   111.5100476 526.347200
  16428  16429  16441     1   110.1900474 564.840000
  16428  16442  16448     1   110.1900474 564.840000
  16428  16450  16434     1   112.4800480 524.673600
  16429  16428  16442     1   111.5100476 526.347200
  16429  16428  16450     1   107.9700462 569.024000
  16429  16432  16433     1   111.5100476 526.347200
  16429  16432  16440     1   110.1900474 564.840000
  16432  16429  16441     1   110.1900474 564.840000
  16432  16433  16434     1   111.5100476 526.347200
  16432  16433  16439     1   110.1900474 564.840000
  16433  16432  16440     1   110.1900474 564.840000
  16433  16434  16438     1   107.9700462 569.024000
  16433  16434  16450     1   107.9700462 569.024000
  16434  16433  16439     1   110.1900474 564.840000
  16438  16434  16450     1   108.2900466 608.353600
  16442  16428  16450     1   107.9700462 569.024000
  16451  16452  16455     1   111.5100476 526.347200
  16451  16452  16464     1   110.1900474 564.840000
  16451  16465  16471     1   110.1900474 564.840000
  16451  16473  16457     1   112.4800480 524.673600
  16452  16455  16456     1   111.5100476 526.347200
  16452  16455  16463     1   110.1900474 564.840000
  16452  16451  16465     1   111.5100476 526.347200
  16452  16451  16473     1   107.9700462 569.024000
  16455  16456  16457     1   111.5100476 526.347200
  16455  16456  16462     1   110.1900474 564.840000
  16455  16452  16464     1   110.1900474 564.840000
  16456  16457  16461     1   107.9700462 569.024000
  16456  16457  16473     1   107.9700462 569.024000
  16456  16455  16463     1   110.1900474 564.840000
  16457  16456  16462     1   110.1900474 564.840000
  16461  16457  16473     1   108.2900466 608.353600
  16465  16451  16473     1   107.9700462 569.024000
  16474  16475  16478     1   111.5100476 526.347200
  16474  16475  16487     1   110.1900474 564.840000
  16474  16488  16494     1   110.1900474 564.840000
  16474  16496  16480     1   112.4800480 524.673600
  16475  16474  16488     1   111.5100476 526.347200
  16475  16474  16496     1   107.9700462 569.024000
  16475  16478  16479     1   111.5100476 526.347200
  16475  16478  16486     1   110.1900474 564.840000
  16478  16475  16487     1   110.1900474 564.840000
  16478  16479  16480     1   111.5100476 526.347200
  16478  16479  16485     1   110.1900474 564.840000
  16479  16478  16486     1   110.1900474 564.840000
  16479  16480  16484     1   107.9700462 569.024000
  16479  16480  16496     1   107.9700462 569.024000
  16480  16479  16485     1   110.1900474 564.840000
  16484  16480  16496     1   108.2900466 608.353600
  16488  16474  16496     1   107.9700462 569.024000
  16497  16498  16501     1   111.5100476 526.347200
  16497  16498  16510     1   110.1900474 564.840000
  16497  16511  16517     1   110.1900474 564.840000
  16497  16519  16503     1   112.4800480 524.673600
  16498  16501  16502     1   111.5100476 526.347200
  16498  16501  16509     1   110.1900474 564.840000
  16498  16497  16511     1   111.5100476 526.347200
  16498  16497  16519     1   107.9700462 569.024000
  16501  16502  16503     1   111.5100476 526.347200
  16501  16502  16508     1   110.1900474 564.840000
  16501  16498  16510     1   110.1900474 564.840000
  16502  16503  16507     1   107.9700462 569.024000
  16502  16503  16519     1   107.9700462 569.024000
  16502  16501  16509     1   110.1900474 564.840000
  16503  16502  16508     1   110.1900474 564.840000
  16507  16503  16519     1   108.2900466 608.353600
  16511  16497  16519     1   107.9700462 569.024000
  16520  16521  16524     1   111.5100476 526.347200
  16520  16521  16533     1   110.1900474 564.840000
  16520  16534  16540     1   110.1900474 564.840000
  16520  16542  16526     1   112.4800480 524.673600
  16521  16520  16534     1   111.5100476 526.347200
  16521  16520  16542     1   107.9700462 569.024000
  16521  16524  16525     1   111.5100476 526.347200
  16521  16524  16532     1   110.1900474 564.840000
  16524  16521  16533     1   110.1900474 564.840000
  16524  16525  16526     1   111.5100476 526.347200
  16524  16525  16531     1   110.1900474 564.840000
  16525  16524  16532     1   110.1900474 564.840000
  16525  16526  16530     1   107.9700462 569.024000
  16525  16526  16542     1   107.9700462 569.024000
  16526  16525  16531     1   110.1900474 564.840000
  16530  16526  16542     1   108.2900466 608.353600
  16534  16520  16542     1   107.9700462 569.024000
  16543  16544  16547     1   111.5100476 526.347200
  16543  16544  16556     1   110.1900474 564.840000
  16543  16557  16563     1   110.1900474 564.840000
  16543  16565  16549     1   112.4800480 524.673600
  16544  16547  16548     1   111.5100476 526.347200
  16544  16547  16555     1   110.1900474 564.840000
  16544  16543  16557     1   111.5100476 526.347200
  16544  16543  16565     1   107.9700462 569.024000
  16547  16548  16549     1   111.5100476 526.347200
  16547  16548  16554     1   110.1900474 564.840000
  16547  16544  16556     1   110.1900474 564.840000
  16548  16549  16553     1   107.9700462 569.024000
  16548  16549  16565     1   107.9700462 569.024000
  16548  16547  16555     1   110.1900474 564.840000
  16549  16548  16554     1   110.1900474 564.840000
  16553  16549  16565     1   108.2900466 608.353600
  16557  16543  16565     1   107.9700462 569.024000
  16566  16567  16570     1   111.5100476 526.347200
  16566  16567  16579     1   110.1900474 564.840000
  16566  16580  16586     1   110.1900474 564.840000
  16566  16588  16572     1   112.4800480 524.673600
  16567  16566  16580     1   111.5100476 526.347200
  16567  16566  16588     1   107.9700462 569.024000
  16567  16570  16571     1   111.5100476 526.347200
  16567  16570  16578     1   110.1900474 564.840000
  16570  16567  16579     1   110.1900474 564.840000
  16570  16571  16572     1   111.5100476 526.347200
  16570  16571  16577     1   110.1900474 564.840000
  16571  16570  16578     1   110.1900474 564.840000
  16571  16572  16576     1   107.9700462 569.024000
  16571  16572  16588     1   107.9700462 569.024000
  16572  16571  16577     1   110.1900474 564.840000
  16576  16572  16588     1   108.2900466 608.353600
  16580  16566  16588     1   107.9700462 569.024000
  16589  16590  16593     1   111.5100476 526.347200
  16589  16590  16602     1   110.1900474 564.840000
  16589  16603  16609     1   110.1900474 564.840000
  16589  16611  16595     1   112.4800480 524.673600
  16590  16593  16594     1   111.5100476 526.347200
  16590  16593  16601     1   110.1900474 564.840000
  16590  16589  16603     1   111.5100476 526.347200
  16590  16589  16611     1   107.9700462 569.024000
  16593  16594  16595     1   111.5100476 526.347200
  16593  16594  16600     1   110.1900474 564.840000
  16593  16590  16602     1   110.1900474 564.840000
  16594  16595  16599     1   107.9700462 569.024000
  16594  16595  16611     1   107.9700462 569.024000
  16594  16593  16601     1   110.1900474 564.840000
  16595  16594  16600     1   110.1900474 564.840000
  16599  16595  16611     1   108.2900466 608.353600
  16603  16589  16611     1   107.9700462 569.024000
  16612  16613  16616     1   111.5100476 526.347200
  16612  16613  16625     1   110.1900474 564.840000
  16612  16626  16632     1   110.1900474 564.840000
  16612  16634  16618     1   112.4800480 524.673600
  16613  16612  16626     1   111.5100476 526.347200
  16613  16612  16634     1   107.9700462 569.024000
  16613  16616  16617     1   111.5100476 526.347200
  16613  16616  16624     1   110.1900474 564.840000
  16616  16613  16625     1   110.1900474 564.840000
  16616  16617  16618     1   111.5100476 526.347200
  16616  16617  16623     1   110.1900474 564.840000
  16617  16616  16624     1   110.1900474 564.840000
  16617  16618  16622     1   107.9700462 569.024000
  16617  16618  16634     1   107.9700462 569.024000
  16618  16617  16623     1   110.1900474 564.840000
  16622  16618  16634     1   108.2900466 608.353600
  16626  16612  16634     1   107.9700462 569.024000
  16635  16636  16639     1   111.5100476 526.347200
  16635  16636  16648     1   110.1900474 564.840000
  16635  16649  16655     1   110.1900474 564.840000
  16635  16657  16641     1   112.4800480 524.673600
  16636  16639  16640     1   111.5100476 526.347200
  16636  16639  16647     1   110.1900474 564.840000
  16636  16635  16649     1   111.5100476 526.347200
  16636  16635  16657     1   107.9700462 569.024000
  16639  16640  16641     1   111.5100476 526.347200
  16639  16640  16646     1   110.1900474 564.840000
  16639  16636  16648     1   110.1900474 564.840000
  16640  16641  16645     1   107.9700462 569.024000
  16640  16641  16657     1   107.9700462 569.024000
  16640  16639  16647     1   110.1900474 564.840000
  16641  16640  16646     1   110.1900474 564.840000
  16645  16641  16657     1   108.2900466 608.353600
  16649  16635  16657     1   107.9700462 569.024000
  16658  16659  16662     1   111.5100476 526.347200
  16658  16659  16671     1   110.1900474 564.840000
  16658  16672  16678     1   110.1900474 564.840000
  16658  16680  16664     1   112.4800480 524.673600
  16659  16658  16672     1   111.5100476 526.347200
  16659  16658  16680     1   107.9700462 569.024000
  16659  16662  16663     1   111.5100476 526.347200
  16659  16662  16670     1   110.1900474 564.840000
  16662  16659  16671     1   110.1900474 564.840000
  16662  16663  16664     1   111.5100476 526.347200
  16662  16663  16669     1   110.1900474 564.840000
  16663  16662  16670     1   110.1900474 564.840000
  16663  16664  16668     1   107.9700462 569.024000
  16663  16664  16680     1   107.9700462 569.024000
  16664  16663  16669     1   110.1900474 564.840000
  16668  16664  16680     1   108.2900466 608.353600
  16672  16658  16680     1   107.9700462 569.024000
  16681  16682  16685     1   111.5100476 526.347200
  16681  16682  16694     1   110.1900474 564.840000
  16681  16695  16701     1   110.1900474 564.840000
  16681  16703  16687     1   112.4800480 524.673600
  16682  16685  16686     1   111.5100476 526.347200
  16682  16685  16693     1   110.1900474 564.840000
  16682  16681  16695     1   111.5100476 526.347200
  16682  16681  16703     1   107.9700462 569.024000
  16685  16686  16687     1   111.5100476 526.347200
  16685  16686  16692     1   110.1900474 564.840000
  16685  16682  16694     1   110.1900474 564.840000
  16686  16687  16691     1   107.9700462 569.024000
  16686  16687  16703     1   107.9700462 569.024000
  16686  16685  16693     1   110.1900474 564.840000
  16687  16686  16692     1   110.1900474 564.840000
  16691  16687  16703     1   108.2900466 608.353600
  16695  16681  16703     1   107.9700462 569.024000
  16704  16705  16708     1   111.5100476 526.347200
  16704  16705  16717     1   110.1900474 564.840000
  16704  16718  16724     1   110.1900474 564.840000
  16704  16726  16710     1   112.4800480 524.673600
  16705  16704  16718     1   111.5100476 526.347200
  16705  16704  16726     1   107.9700462 569.024000
  16705  16708  16709     1   111.5100476 526.347200
  16705  16708  16716     1   110.1900474 564.840000
  16708  16705  16717     1   110.1900474 564.840000
  16708  16709  16710     1   111.5100476 526.347200
  16708  16709  16715     1   110.1900474 564.840000
  16709  16708  16716     1   110.1900474 564.840000
  16709  16710  16714     1   107.9700462 569.024000
  16709  16710  16726     1   107.9700462 569.024000
  16710  16709  16715     1   110.1900474 564.840000
  16714  16710  16726     1   108.2900466 608.353600
  16718  16704  16726     1   107.9700462 569.024000
  16727  16728  16731     1   111.5100476 526.347200
  16727  16728  16740     1   110.1900474 564.840000
  16727  16741  16747     1   110.1900474 564.840000
  16727  16749  16733     1   112.4800480 524.673600
  16728  16731  16732     1   111.5100476 526.347200
  16728  16731  16739     1   110.1900474 564.840000
  16728  16727  16741     1   111.5100476 526.347200
  16728  16727  16749     1   107.9700462 569.024000
  16731  16732  16733     1   111.5100476 526.347200
  16731  16732  16738     1   110.1900474 564.840000
  16731  16728  16740     1   110.1900474 564.840000
  16732  16733  16737     1   107.9700462 569.024000
  16732  16733  16749     1   107.9700462 569.024000
  16732  16731  16739     1   110.1900474 564.840000
  16733  16732  16738     1   110.1900474 564.840000
  16737  16733  16749     1   108.2900466 608.353600
  16741  16727  16749     1   107.9700462 569.024000
  16750  16751  16754     1   111.5100476 526.347200
  16750  16751  16763     1   110.1900474 564.840000
  16750  16764  16770     1   110.1900474 564.840000
  16750  16772  16756     1   112.4800480 524.673600
  16751  16750  16764     1   111.5100476 526.347200
  16751  16750  16772     1   107.9700462 569.024000
  16751  16754  16755     1   111.5100476 526.347200
  16751  16754  16762     1   110.1900474 564.840000
  16754  16751  16763     1   110.1900474 564.840000
  16754  16755  16756     1   111.5100476 526.347200
  16754  16755  16761     1   110.1900474 564.840000
  16755  16754  16762     1   110.1900474 564.840000
  16755  16756  16760     1   107.9700462 569.024000
  16755  16756  16772     1   107.9700462 569.024000
  16756  16755  16761     1   110.1900474 564.840000
  16760  16756  16772     1   108.2900466 608.353600
  16764  16750  16772     1   107.9700462 569.024000
  16773  16774  16777     1   111.5100476 526.347200
  16773  16774  16786     1   110.1900474 564.840000
  16773  16787  16793     1   110.1900474 564.840000
  16773  16795  16779     1   112.4800480 524.673600
  16774  16777  16778     1   111.5100476 526.347200
  16774  16777  16785     1   110.1900474 564.840000
  16774  16773  16787     1   111.5100476 526.347200
  16774  16773  16795     1   107.9700462 569.024000
  16777  16778  16779     1   111.5100476 526.347200
  16777  16778  16784     1   110.1900474 564.840000
  16777  16774  16786     1   110.1900474 564.840000
  16778  16779  16783     1   107.9700462 569.024000
  16778  16779  16795     1   107.9700462 569.024000
  16778  16777  16785     1   110.1900474 564.840000
  16779  16778  16784     1   110.1900474 564.840000
  16783  16779  16795     1   108.2900466 608.353600
  16787  16773  16795     1   107.9700462 569.024000
  16796  16797  16800     1   111.5100476 526.347200
  16796  16797  16809     1   110.1900474 564.840000
  16796  16810  16816     1   110.1900474 564.840000
  16796  16818  16802     1   112.4800480 524.673600
  16797  16796  16810     1   111.5100476 526.347200
  16797  16796  16818     1   107.9700462 569.024000
  16797  16800  16801     1   111.5100476 526.347200
  16797  16800  16808     1   110.1900474 564.840000
  16800  16797  16809     1   110.1900474 564.840000
  16800  16801  16802     1   111.5100476 526.347200
  16800  16801  16807     1   110.1900474 564.840000
  16801  16800  16808     1   110.1900474 564.840000
  16801  16802  16806     1   107.9700462 569.024000
  16801  16802  16818     1   107.9700462 569.024000
  16802  16801  16807     1   110.1900474 564.840000
  16806  16802  16818     1   108.2900466 608.353600
  16810  16796  16818     1   107.9700462 569.024000
  16819  16820  16823     1   111.5100476 526.347200
  16819  16820  16832     1   110.1900474 564.840000
  16819  16833  16839     1   110.1900474 564.840000
  16819  16841  16825     1   112.4800480 524.673600
  16820  16823  16824     1   111.5100476 526.347200
  16820  16823  16831     1   110.1900474 564.840000
  16820  16819  16833     1   111.5100476 526.347200
  16820  16819  16841     1   107.9700462 569.024000
  16823  16824  16825     1   111.5100476 526.347200
  16823  16824  16830     1   110.1900474 564.840000
  16823  16820  16832     1   110.1900474 564.840000
  16824  16825  16829     1   107.9700462 569.024000
  16824  16825  16841     1   107.9700462 569.024000
  16824  16823  16831     1   110.1900474 564.840000
  16825  16824  16830     1   110.1900474 564.840000
  16829  16825  16841     1   108.2900466 608.353600
  16833  16819  16841     1   107.9700462 569.024000
  16842  16843  16846     1   111.5100476 526.347200
  16842  16843  16855     1   110.1900474 564.840000
  16842  16856  16862     1   110.1900474 564.840000
  16842  16864  16848     1   112.4800480 524.673600
  16843  16842  16856     1   111.5100476 526.347200
  16843  16842  16864     1   107.9700462 569.024000
  16843  16846  16847     1   111.5100476 526.347200
  16843  16846  16854     1   110.1900474 564.840000
  16846  16843  16855     1   110.1900474 564.840000
  16846  16847  16848     1   111.5100476 526.347200
  16846  16847  16853     1   110.1900474 564.840000
  16847  16846  16854     1   110.1900474 564.840000
  16847  16848  16852     1   107.9700462 569.024000
  16847  16848  16864     1   107.9700462 569.024000
  16848  16847  16853     1   110.1900474 564.840000
  16852  16848  16864     1   108.2900466 608.353600
  16856  16842  16864     1   107.9700462 569.024000
  16865  16866  16869     1   111.5100476 526.347200
  16865  16866  16878     1   110.1900474 564.840000
  16865  16879  16885     1   110.1900474 564.840000
  16865  16887  16871     1   112.4800480 524.673600
  16866  16869  16870     1   111.5100476 526.347200
  16866  16869  16877     1   110.1900474 564.840000
  16866  16865  16879     1   111.5100476 526.347200
  16866  16865  16887     1   107.9700462 569.024000
  16869  16870  16871     1   111.5100476 526.347200
  16869  16870  16876     1   110.1900474 564.840000
  16869  16866  16878     1   110.1900474 564.840000
  16870  16871  16875     1   107.9700462 569.024000
  16870  16871  16887     1   107.9700462 569.024000
  16870  16869  16877     1   110.1900474 564.840000
  16871  16870  16876     1   110.1900474 564.840000
  16875  16871  16887     1   108.2900466 608.353600
  16879  16865  16887     1   107.9700462 569.024000
  16888  16889  16892     1   111.5100476 526.347200
  16888  16889  16901     1   110.1900474 564.840000
  16888  16902  16908     1   110.1900474 564.840000
  16888  16910  16894     1   112.4800480 524.673600
  16889  16888  16902     1   111.5100476 526.347200
  16889  16888  16910     1   107.9700462 569.024000
  16889  16892  16893     1   111.5100476 526.347200
  16889  16892  16900     1   110.1900474 564.840000
  16892  16889  16901     1   110.1900474 564.840000
  16892  16893  16894     1   111.5100476 526.347200
  16892  16893  16899     1   110.1900474 564.840000
  16893  16892  16900     1   110.1900474 564.840000
  16893  16894  16898     1   107.9700462 569.024000
  16893  16894  16910     1   107.9700462 569.024000
  16894  16893  16899     1   110.1900474 564.840000
  16898  16894  16910     1   108.2900466 608.353600
  16902  16888  16910     1   107.9700462 569.024000
  16911  16912  16915     1   111.5100476 526.347200
  16911  16912  16924     1   110.1900474 564.840000
  16911  16925  16931     1   110.1900474 564.840000
  16911  16933  16917     1   112.4800480 524.673600
  16912  16915  16916     1   111.5100476 526.347200
  16912  16915  16923     1   110.1900474 564.840000
  16912  16911  16925     1   111.5100476 526.347200
  16912  16911  16933     1   107.9700462 569.024000
  16915  16916  16917     1   111.5100476 526.347200
  16915  16916  16922     1   110.1900474 564.840000
  16915  16912  16924     1   110.1900474 564.840000
  16916  16917  16921     1   107.9700462 569.024000
  16916  16917  16933     1   107.9700462 569.024000
  16916  16915  16923     1   110.1900474 564.840000
  16917  16916  16922     1   110.1900474 564.840000
  16921  16917  16933     1   108.2900466 608.353600
  16925  16911  16933     1   107.9700462 569.024000
  16934  16935  16938     1   111.5100476 526.347200
  16934  16935  16947     1   110.1900474 564.840000
  16934  16948  16954     1   110.1900474 564.840000
  16934  16956  16940     1   112.4800480 524.673600
  16935  16934  16948     1   111.5100476 526.347200
  16935  16934  16956     1   107.9700462 569.024000
  16935  16938  16939     1   111.5100476 526.347200
  16935  16938  16946     1   110.1900474 564.840000
  16938  16935  16947     1   110.1900474 564.840000
  16938  16939  16940     1   111.5100476 526.347200
  16938  16939  16945     1   110.1900474 564.840000
  16939  16938  16946     1   110.1900474 564.840000
  16939  16940  16944     1   107.9700462 569.024000
  16939  16940  16956     1   107.9700462 569.024000
  16940  16939  16945     1   110.1900474 564.840000
  16944  16940  16956     1   108.2900466 608.353600
  16948  16934  16956     1   107.9700462 569.024000
  16957  16958  16961     1   111.5100476 526.347200
  16957  16958  16970     1   110.1900474 564.840000
  16957  16971  16977     1   110.1900474 564.840000
  16957  16979  16963     1   112.4800480 524.673600
  16958  16961  16962     1   111.5100476 526.347200
  16958  16961  16969     1   110.1900474 564.840000
  16958  16957  16971     1   111.5100476 526.347200
  16958  16957  16979     1   107.9700462 569.024000
  16961  16962  16963     1   111.5100476 526.347200
  16961  16962  16968     1   110.1900474 564.840000
  16961  16958  16970     1   110.1900474 564.840000
  16962  16963  16967     1   107.9700462 569.024000
  16962  16963  16979     1   107.9700462 569.024000
  16962  16961  16969     1   110.1900474 564.840000
  16963  16962  16968     1   110.1900474 564.840000
  16967  16963  16979     1   108.2900466 608.353600
  16971  16957  16979     1   107.9700462 569.024000
  16980  16981  16984     1   111.5100476 526.347200
  16980  16981  16993     1   110.1900474 564.840000
  16980  16994  17000     1   110.1900474 564.840000
  16980  17002  16986     1   112.4800480 524.673600
  16981  16980  16994     1   111.5100476 526.347200
  16981  16980  17002     1   107.9700462 569.024000
  16981  16984  16985     1   111.5100476 526.347200
  16981  16984  16992     1   110.1900474 564.840000
  16984  16981  16993     1   110.1900474 564.840000
  16984  16985  16986     1   111.5100476 526.347200
  16984  16985  16991     1   110.1900474 564.840000
  16985  16984  16992     1   110.1900474 564.840000
  16985  16986  16990     1   107.9700462 569.024000
  16985  16986  17002     1   107.9700462 569.024000
  16986  16985  16991     1   110.1900474 564.840000
  16990  16986  17002     1   108.2900466 608.353600
  16994  16980  17002     1   107.9700462 569.024000
  17003  17004  17007     1   111.5100476 526.347200
  17003  17004  17016     1   110.1900474 564.840000
  17003  17017  17023     1   110.1900474 564.840000
  17003  17025  17009     1   112.4800480 524.673600
  17004  17007  17008     1   111.5100476 526.347200
  17004  17007  17015     1   110.1900474 564.840000
  17004  17003  17017     1   111.5100476 526.347200
  17004  17003  17025     1   107.9700462 569.024000
  17007  17008  17009     1   111.5100476 526.347200
  17007  17008  17014     1   110.1900474 564.840000
  17007  17004  17016     1   110.1900474 564.840000
  17008  17009  17013     1   107.9700462 569.024000
  17008  17009  17025     1   107.9700462 569.024000
  17008  17007  17015     1   110.1900474 564.840000
  17009  17008  17014     1   110.1900474 564.840000
  17013  17009  17025     1   108.2900466 608.353600
  17017  17003  17025     1   107.9700462 569.024000
  17026  17027  17030     1   111.5100476 526.347200
  17026  17027  17039     1   110.1900474 564.840000
  17026  17040  17046     1   110.1900474 564.840000
  17026  17048  17032     1   112.4800480 524.673600
  17027  17026  17040     1   111.5100476 526.347200
  17027  17026  17048     1   107.9700462 569.024000
  17027  17030  17031     1   111.5100476 526.347200
  17027  17030  17038     1   110.1900474 564.840000
  17030  17027  17039     1   110.1900474 564.840000
  17030  17031  17032     1   111.5100476 526.347200
  17030  17031  17037     1   110.1900474 564.840000
  17031  17030  17038     1   110.1900474 564.840000
  17031  17032  17036     1   107.9700462 569.024000
  17031  17032  17048     1   107.9700462 569.024000
  17032  17031  17037     1   110.1900474 564.840000
  17036  17032  17048     1   108.2900466 608.353600
  17040  17026  17048     1   107.9700462 569.024000
  17049  17050  17053     1   111.5100476 526.347200
  17049  17050  17062     1   110.1900474 564.840000
  17049  17063  17069     1   110.1900474 564.840000
  17049  17071  17055     1   112.4800480 524.673600
  17050  17053  17054     1   111.5100476 526.347200
  17050  17053  17061     1   110.1900474 564.840000
  17050  17049  17063     1   111.5100476 526.347200
  17050  17049  17071     1   107.9700462 569.024000
  17053  17054  17055     1   111.5100476 526.347200
  17053  17054  17060     1   110.1900474 564.840000
  17053  17050  17062     1   110.1900474 564.840000
  17054  17055  17059     1   107.9700462 569.024000
  17054  17055  17071     1   107.9700462 569.024000
  17054  17053  17061     1   110.1900474 564.840000
  17055  17054  17060     1   110.1900474 564.840000
  17059  17055  17071     1   108.2900466 608.353600
  17063  17049  17071     1   107.9700462 569.024000
  17072  17073  17076     1   111.5100476 526.347200
  17072  17073  17085     1   110.1900474 564.840000
  17072  17086  17092     1   110.1900474 564.840000
  17072  17094  17078     1   112.4800480 524.673600
  17073  17072  17086     1   111.5100476 526.347200
  17073  17072  17094     1   107.9700462 569.024000
  17073  17076  17077     1   111.5100476 526.347200
  17073  17076  17084     1   110.1900474 564.840000
  17076  17073  17085     1   110.1900474 564.840000
  17076  17077  17078     1   111.5100476 526.347200
  17076  17077  17083     1   110.1900474 564.840000
  17077  17076  17084     1   110.1900474 564.840000
  17077  17078  17082     1   107.9700462 569.024000
  17077  17078  17094     1   107.9700462 569.024000
  17078  17077  17083     1   110.1900474 564.840000
  17082  17078  17094     1   108.2900466 608.353600
  17086  17072  17094     1   107.9700462 569.024000
  17095  17096  17099     1   111.5100476 526.347200
  17095  17096  17108     1   110.1900474 564.840000
  17095  17109  17115     1   110.1900474 564.840000
  17095  17117  17101     1   112.4800480 524.673600
  17096  17099  17100     1   111.5100476 526.347200
  17096  17099  17107     1   110.1900474 564.840000
  17096  17095  17109     1   111.5100476 526.347200
  17096  17095  17117     1   107.9700462 569.024000
  17099  17100  17101     1   111.5100476 526.347200
  17099  17100  17106     1   110.1900474 564.840000
  17099  17096  17108     1   110.1900474 564.840000
  17100  17101  17105     1   107.9700462 569.024000
  17100  17101  17117     1   107.9700462 569.024000
  17100  17099  17107     1   110.1900474 564.840000
  17101  17100  17106     1   110.1900474 564.840000
  17105  17101  17117     1   108.2900466 608.353600
  17109  17095  17117     1   107.9700462 569.024000
  17118  17119  17122     1   111.5100476 526.347200
  17118  17119  17131     1   110.1900474 564.840000
  17118  17132  17138     1   110.1900474 564.840000
  17118  17140  17124     1   112.4800480 524.673600
  17119  17118  17132     1   111.5100476 526.347200
  17119  17118  17140     1   107.9700462 569.024000
  17119  17122  17123     1   111.5100476 526.347200
  17119  17122  17130     1   110.1900474 564.840000
  17122  17119  17131     1   110.1900474 564.840000
  17122  17123  17124     1   111.5100476 526.347200
  17122  17123  17129     1   110.1900474 564.840000
  17123  17122  17130     1   110.1900474 564.840000
  17123  17124  17128     1   107.9700462 569.024000
  17123  17124  17140     1   107.9700462 569.024000
  17124  17123  17129     1   110.1900474 564.840000
  17128  17124  17140     1   108.2900466 608.353600
  17132  17118  17140     1   107.9700462 569.024000
  17141  17142  17145     1   111.5100476 526.347200
  17141  17142  17154     1   110.1900474 564.840000
  17141  17155  17161     1   110.1900474 564.840000
  17141  17163  17147     1   112.4800480 524.673600
  17142  17145  17146     1   111.5100476 526.347200
  17142  17145  17153     1   110.1900474 564.840000
  17142  17141  17155     1   111.5100476 526.347200
  17142  17141  17163     1   107.9700462 569.024000
  17145  17146  17147     1   111.5100476 526.347200
  17145  17146  17152     1   110.1900474 564.840000
  17145  17142  17154     1   110.1900474 564.840000
  17146  17147  17151     1   107.9700462 569.024000
  17146  17147  17163     1   107.9700462 569.024000
  17146  17145  17153     1   110.1900474 564.840000
  17147  17146  17152     1   110.1900474 564.840000
  17151  17147  17163     1   108.2900466 608.353600
  17155  17141  17163     1   107.9700462 569.024000
  17164  17165  17168     1   111.5100476 526.347200
  17164  17165  17177     1   110.1900474 564.840000
  17164  17178  17184     1   110.1900474 564.840000
  17164  17186  17170     1   112.4800480 524.673600
  17165  17164  17178     1   111.5100476 526.347200
  17165  17164  17186     1   107.9700462 569.024000
  17165  17168  17169     1   111.5100476 526.347200
  17165  17168  17176     1   110.1900474 564.840000
  17168  17165  17177     1   110.1900474 564.840000
  17168  17169  17170     1   111.5100476 526.347200
  17168  17169  17175     1   110.1900474 564.840000
  17169  17168  17176     1   110.1900474 564.840000
  17169  17170  17174     1   107.9700462 569.024000
  17169  17170  17186     1   107.9700462 569.024000
  17170  17169  17175     1   110.1900474 564.840000
  17174  17170  17186     1   108.2900466 608.353600
  17178  17164  17186     1   107.9700462 569.024000
  17187  17188  17191     1   111.5100476 526.347200
  17187  17188  17200     1   110.1900474 564.840000
  17187  17201  17207     1   110.1900474 564.840000
  17187  17209  17193     1   112.4800480 524.673600
  17188  17191  17192     1   111.5100476 526.347200
  17188  17191  17199     1   110.1900474 564.840000
  17188  17187  17201     1   111.5100476 526.347200
  17188  17187  17209     1   107.9700462 569.024000
  17191  17192  17193     1   111.5100476 526.347200
  17191  17192  17198     1   110.1900474 564.840000
  17191  17188  17200     1   110.1900474 564.840000
  17192  17193  17197     1   107.9700462 569.024000
  17192  17193  17209     1   107.9700462 569.024000
  17192  17191  17199     1   110.1900474 564.840000
  17193  17192  17198     1   110.1900474 564.840000
  17197  17193  17209     1   108.2900466 608.353600
  17201  17187  17209     1   107.9700462 569.024000
  17210  17211  17214     1   111.5100476 526.347200
  17210  17211  17223     1   110.1900474 564.840000
  17210  17224  17230     1   110.1900474 564.840000
  17210  17232  17216     1   112.4800480 524.673600
  17211  17210  17224     1   111.5100476 526.347200
  17211  17210  17232     1   107.9700462 569.024000
  17211  17214  17215     1   111.5100476 526.347200
  17211  17214  17222     1   110.1900474 564.840000
  17214  17211  17223     1   110.1900474 564.840000
  17214  17215  17216     1   111.5100476 526.347200
  17214  17215  17221     1   110.1900474 564.840000
  17215  17214  17222     1   110.1900474 564.840000
  17215  17216  17220     1   107.9700462 569.024000
  17215  17216  17232     1   107.9700462 569.024000
  17216  17215  17221     1   110.1900474 564.840000
  17220  17216  17232     1   108.2900466 608.353600
  17224  17210  17232     1   107.9700462 569.024000
  17233  17234  17237     1   111.5100476 526.347200
  17233  17234  17246     1   110.1900474 564.840000
  17233  17247  17253     1   110.1900474 564.840000
  17233  17255  17239     1   112.4800480 524.673600
  17234  17237  17238     1   111.5100476 526.347200
  17234  17237  17245     1   110.1900474 564.840000
  17234  17233  17247     1   111.5100476 526.347200
  17234  17233  17255     1   107.9700462 569.024000
  17237  17238  17239     1   111.5100476 526.347200
  17237  17238  17244     1   110.1900474 564.840000
  17237  17234  17246     1   110.1900474 564.840000
  17238  17239  17243     1   107.9700462 569.024000
  17238  17239  17255     1   107.9700462 569.024000
  17238  17237  17245     1   110.1900474 564.840000
  17239  17238  17244     1   110.1900474 564.840000
  17243  17239  17255     1   108.2900466 608.353600
  17247  17233  17255     1   107.9700462 569.024000
  17256  17257  17260     1   111.5100476 526.347200
  17256  17257  17269     1   110.1900474 564.840000
  17256  17270  17276     1   110.1900474 564.840000
  17256  17278  17262     1   112.4800480 524.673600
  17257  17256  17270     1   111.5100476 526.347200
  17257  17256  17278     1   107.9700462 569.024000
  17257  17260  17261     1   111.5100476 526.347200
  17257  17260  17268     1   110.1900474 564.840000
  17260  17257  17269     1   110.1900474 564.840000
  17260  17261  17262     1   111.5100476 526.347200
  17260  17261  17267     1   110.1900474 564.840000
  17261  17260  17268     1   110.1900474 564.840000
  17261  17262  17266     1   107.9700462 569.024000
  17261  17262  17278     1   107.9700462 569.024000
  17262  17261  17267     1   110.1900474 564.840000
  17266  17262  17278     1   108.2900466 608.353600
  17270  17256  17278     1   107.9700462 569.024000
  17279  17280  17283     1   111.5100476 526.347200
  17279  17280  17292     1   110.1900474 564.840000
  17279  17293  17299     1   110.1900474 564.840000
  17279  17301  17285     1   112.4800480 524.673600
  17280  17283  17284     1   111.5100476 526.347200
  17280  17283  17291     1   110.1900474 564.840000
  17280  17279  17293     1   111.5100476 526.347200
  17280  17279  17301     1   107.9700462 569.024000
  17283  17284  17285     1   111.5100476 526.347200
  17283  17284  17290     1   110.1900474 564.840000
  17283  17280  17292     1   110.1900474 564.840000
  17284  17285  17289     1   107.9700462 569.024000
  17284  17285  17301     1   107.9700462 569.024000
  17284  17283  17291     1   110.1900474 564.840000
  17285  17284  17290     1   110.1900474 564.840000
  17289  17285  17301     1   108.2900466 608.353600
  17293  17279  17301     1   107.9700462 569.024000
  17302  17303  17306     1   111.5100476 526.347200
  17302  17303  17315     1   110.1900474 564.840000
  17302  17316  17322     1   110.1900474 564.840000
  17302  17324  17308     1   112.4800480 524.673600
  17303  17302  17316     1   111.5100476 526.347200
  17303  17302  17324     1   107.9700462 569.024000
  17303  17306  17307     1   111.5100476 526.347200
  17303  17306  17314     1   110.1900474 564.840000
  17306  17303  17315     1   110.1900474 564.840000
  17306  17307  17308     1   111.5100476 526.347200
  17306  17307  17313     1   110.1900474 564.840000
  17307  17306  17314     1   110.1900474 564.840000
  17307  17308  17312     1   107.9700462 569.024000
  17307  17308  17324     1   107.9700462 569.024000
  17308  17307  17313     1   110.1900474 564.840000
  17312  17308  17324     1   108.2900466 608.353600
  17316  17302  17324     1   107.9700462 569.024000
  17325  17326  17329     1   111.5100476 526.347200
  17325  17326  17338     1   110.1900474 564.840000
  17325  17339  17345     1   110.1900474 564.840000
  17325  17347  17331     1   112.4800480 524.673600
  17326  17329  17330     1   111.5100476 526.347200
  17326  17329  17337     1   110.1900474 564.840000
  17326  17325  17339     1   111.5100476 526.347200
  17326  17325  17347     1   107.9700462 569.024000
  17329  17330  17331     1   111.5100476 526.347200
  17329  17330  17336     1   110.1900474 564.840000
  17329  17326  17338     1   110.1900474 564.840000
  17330  17331  17335     1   107.9700462 569.024000
  17330  17331  17347     1   107.9700462 569.024000
  17330  17329  17337     1   110.1900474 564.840000
  17331  17330  17336     1   110.1900474 564.840000
  17335  17331  17347     1   108.2900466 608.353600
  17339  17325  17347     1   107.9700462 569.024000
  17348  17349  17352     1   111.5100476 526.347200
  17348  17349  17361     1   110.1900474 564.840000
  17348  17362  17368     1   110.1900474 564.840000
  17348  17370  17354     1   112.4800480 524.673600
  17349  17348  17362     1   111.5100476 526.347200
  17349  17348  17370     1   107.9700462 569.024000
  17349  17352  17353     1   111.5100476 526.347200
  17349  17352  17360     1   110.1900474 564.840000
  17352  17349  17361     1   110.1900474 564.840000
  17352  17353  17354     1   111.5100476 526.347200
  17352  17353  17359     1   110.1900474 564.840000
  17353  17352  17360     1   110.1900474 564.840000
  17353  17354  17358     1   107.9700462 569.024000
  17353  17354  17370     1   107.9700462 569.024000
  17354  17353  17359     1   110.1900474 564.840000
  17358  17354  17370     1   108.2900466 608.353600
  17362  17348  17370     1   107.9700462 569.024000
  17371  17372  17375     1   111.5100476 526.347200
  17371  17372  17384     1   110.1900474 564.840000
  17371  17385  17391     1   110.1900474 564.840000
  17371  17393  17377     1   112.4800480 524.673600
  17372  17375  17376     1   111.5100476 526.347200
  17372  17375  17383     1   110.1900474 564.840000
  17372  17371  17385     1   111.5100476 526.347200
  17372  17371  17393     1   107.9700462 569.024000
  17375  17376  17377     1   111.5100476 526.347200
  17375  17376  17382     1   110.1900474 564.840000
  17375  17372  17384     1   110.1900474 564.840000
  17376  17377  17381     1   107.9700462 569.024000
  17376  17377  17393     1   107.9700462 569.024000
  17376  17375  17383     1   110.1900474 564.840000
  17377  17376  17382     1   110.1900474 564.840000
  17381  17377  17393     1   108.2900466 608.353600
  17385  17371  17393     1   107.9700462 569.024000
  17394  17395  17398     1   111.5100476 526.347200
  17394  17395  17407     1   110.1900474 564.840000
  17394  17408  17414     1   110.1900474 564.840000
  17394  17416  17400     1   112.4800480 524.673600
  17395  17394  17408     1   111.5100476 526.347200
  17395  17394  17416     1   107.9700462 569.024000
  17395  17398  17399     1   111.5100476 526.347200
  17395  17398  17406     1   110.1900474 564.840000
  17398  17395  17407     1   110.1900474 564.840000
  17398  17399  17400     1   111.5100476 526.347200
  17398  17399  17405     1   110.1900474 564.840000
  17399  17398  17406     1   110.1900474 564.840000
  17399  17400  17404     1   107.9700462 569.024000
  17399  17400  17416     1   107.9700462 569.024000
  17400  17399  17405     1   110.1900474 564.840000
  17404  17400  17416     1   108.2900466 608.353600
  17408  17394  17416     1   107.9700462 569.024000
  17417  17418  17421     1   111.5100476 526.347200
  17417  17418  17430     1   110.1900474 564.840000
  17417  17431  17437     1   110.1900474 564.840000
  17417  17439  17423     1   112.4800480 524.673600
  17418  17421  17422     1   111.5100476 526.347200
  17418  17421  17429     1   110.1900474 564.840000
  17418  17417  17431     1   111.5100476 526.347200
  17418  17417  17439     1   107.9700462 569.024000
  17421  17422  17423     1   111.5100476 526.347200
  17421  17422  17428     1   110.1900474 564.840000
  17421  17418  17430     1   110.1900474 564.840000
  17422  17423  17427     1   107.9700462 569.024000
  17422  17423  17439     1   107.9700462 569.024000
  17422  17421  17429     1   110.1900474 564.840000
  17423  17422  17428     1   110.1900474 564.840000
  17427  17423  17439     1   108.2900466 608.353600
  17431  17417  17439     1   107.9700462 569.024000
  17440  17441  17444     1   111.5100476 526.347200
  17440  17441  17453     1   110.1900474 564.840000
  17440  17454  17460     1   110.1900474 564.840000
  17440  17462  17446     1   112.4800480 524.673600
  17441  17440  17454     1   111.5100476 526.347200
  17441  17440  17462     1   107.9700462 569.024000
  17441  17444  17445     1   111.5100476 526.347200
  17441  17444  17452     1   110.1900474 564.840000
  17444  17441  17453     1   110.1900474 564.840000
  17444  17445  17446     1   111.5100476 526.347200
  17444  17445  17451     1   110.1900474 564.840000
  17445  17444  17452     1   110.1900474 564.840000
  17445  17446  17450     1   107.9700462 569.024000
  17445  17446  17462     1   107.9700462 569.024000
  17446  17445  17451     1   110.1900474 564.840000
  17450  17446  17462     1   108.2900466 608.353600
  17454  17440  17462     1   107.9700462 569.024000
  17463  17464  17467     1   111.5100476 526.347200
  17463  17464  17476     1   110.1900474 564.840000
  17463  17477  17483     1   110.1900474 564.840000
  17463  17485  17469     1   112.4800480 524.673600
  17464  17467  17468     1   111.5100476 526.347200
  17464  17467  17475     1   110.1900474 564.840000
  17464  17463  17477     1   111.5100476 526.347200
  17464  17463  17485     1   107.9700462 569.024000
  17467  17468  17469     1   111.5100476 526.347200
  17467  17468  17474     1   110.1900474 564.840000
  17467  17464  17476     1   110.1900474 564.840000
  17468  17469  17473     1   107.9700462 569.024000
  17468  17469  17485     1   107.9700462 569.024000
  17468  17467  17475     1   110.1900474 564.840000
  17469  17468  17474     1   110.1900474 564.840000
  17473  17469  17485     1   108.2900466 608.353600
  17477  17463  17485     1   107.9700462 569.024000
  17486  17487  17490     1   111.5100476 526.347200
  17486  17487  17499     1   110.1900474 564.840000
  17486  17500  17506     1   110.1900474 564.840000
  17486  17508  17492     1   112.4800480 524.673600
  17487  17486  17500     1   111.5100476 526.347200
  17487  17486  17508     1   107.9700462 569.024000
  17487  17490  17491     1   111.5100476 526.347200
  17487  17490  17498     1   110.1900474 564.840000
  17490  17487  17499     1   110.1900474 564.840000
  17490  17491  17492     1   111.5100476 526.347200
  17490  17491  17497     1   110.1900474 564.840000
  17491  17490  17498     1   110.1900474 564.840000
  17491  17492  17496     1   107.9700462 569.024000
  17491  17492  17508     1   107.9700462 569.024000
  17492  17491  17497     1   110.1900474 564.840000
  17496  17492  17508     1   108.2900466 608.353600
  17500  17486  17508     1   107.9700462 569.024000
  17509  17510  17513     1   111.5100476 526.347200
  17509  17510  17522     1   110.1900474 564.840000
  17509  17523  17529     1   110.1900474 564.840000
  17509  17531  17515     1   112.4800480 524.673600
  17510  17513  17514     1   111.5100476 526.347200
  17510  17513  17521     1   110.1900474 564.840000
  17510  17509  17523     1   111.5100476 526.347200
  17510  17509  17531     1   107.9700462 569.024000
  17513  17514  17515     1   111.5100476 526.347200
  17513  17514  17520     1   110.1900474 564.840000
  17513  17510  17522     1   110.1900474 564.840000
  17514  17515  17519     1   107.9700462 569.024000
  17514  17515  17531     1   107.9700462 569.024000
  17514  17513  17521     1   110.1900474 564.840000
  17515  17514  17520     1   110.1900474 564.840000
  17519  17515  17531     1   108.2900466 608.353600
  17523  17509  17531     1   107.9700462 569.024000
  17532  17533  17536     1   111.5100476 526.347200
  17532  17533  17545     1   110.1900474 564.840000
  17532  17546  17552     1   110.1900474 564.840000
  17532  17554  17538     1   112.4800480 524.673600
  17533  17532  17546     1   111.5100476 526.347200
  17533  17532  17554     1   107.9700462 569.024000
  17533  17536  17537     1   111.5100476 526.347200
  17533  17536  17544     1   110.1900474 564.840000
  17536  17533  17545     1   110.1900474 564.840000
  17536  17537  17538     1   111.5100476 526.347200
  17536  17537  17543     1   110.1900474 564.840000
  17537  17536  17544     1   110.1900474 564.840000
  17537  17538  17542     1   107.9700462 569.024000
  17537  17538  17554     1   107.9700462 569.024000
  17538  17537  17543     1   110.1900474 564.840000
  17542  17538  17554     1   108.2900466 608.353600
  17546  17532  17554     1   107.9700462 569.024000
  17555  17556  17559     1   111.5100476 526.347200
  17555  17556  17568     1   110.1900474 564.840000
  17555  17569  17575     1   110.1900474 564.840000
  17555  17577  17561     1   112.4800480 524.673600
  17556  17559  17560     1   111.5100476 526.347200
  17556  17559  17567     1   110.1900474 564.840000
  17556  17555  17569     1   111.5100476 526.347200
  17556  17555  17577     1   107.9700462 569.024000
  17559  17560  17561     1   111.5100476 526.347200
  17559  17560  17566     1   110.1900474 564.840000
  17559  17556  17568     1   110.1900474 564.840000
  17560  17561  17565     1   107.9700462 569.024000
  17560  17561  17577     1   107.9700462 569.024000
  17560  17559  17567     1   110.1900474 564.840000
  17561  17560  17566     1   110.1900474 564.840000
  17565  17561  17577     1   108.2900466 608.353600
  17569  17555  17577     1   107.9700462 569.024000
  17578  17579  17582     1   111.5100476 526.347200
  17578  17579  17591     1   110.1900474 564.840000
  17578  17592  17598     1   110.1900474 564.840000
  17578  17600  17584     1   112.4800480 524.673600
  17579  17578  17592     1   111.5100476 526.347200
  17579  17578  17600     1   107.9700462 569.024000
  17579  17582  17583     1   111.5100476 526.347200
  17579  17582  17590     1   110.1900474 564.840000
  17582  17579  17591     1   110.1900474 564.840000
  17582  17583  17584     1   111.5100476 526.347200
  17582  17583  17589     1   110.1900474 564.840000
  17583  17582  17590     1   110.1900474 564.840000
  17583  17584  17588     1   107.9700462 569.024000
  17583  17584  17600     1   107.9700462 569.024000
  17584  17583  17589     1   110.1900474 564.840000
  17588  17584  17600     1   108.2900466 608.353600
  17592  17578  17600     1   107.9700462 569.024000
  17601  17602  17605     1   111.5100476 526.347200
  17601  17602  17614     1   110.1900474 564.840000
  17601  17615  17621     1   110.1900474 564.840000
  17601  17623  17607     1   112.4800480 524.673600
  17602  17605  17606     1   111.5100476 526.347200
  17602  17605  17613     1   110.1900474 564.840000
  17602  17601  17615     1   111.5100476 526.347200
  17602  17601  17623     1   107.9700462 569.024000
  17605  17606  17607     1   111.5100476 526.347200
  17605  17606  17612     1   110.1900474 564.840000
  17605  17602  17614     1   110.1900474 564.840000
  17606  17607  17611     1   107.9700462 569.024000
  17606  17607  17623     1   107.9700462 569.024000
  17606  17605  17613     1   110.1900474 564.840000
  17607  17606  17612     1   110.1900474 564.840000
  17611  17607  17623     1   108.2900466 608.353600
  17615  17601  17623     1   107.9700462 569.024000
  17624  17625  17628     1   111.5100476 526.347200
  17624  17625  17637     1   110.1900474 564.840000
  17624  17638  17644     1   110.1900474 564.840000
  17624  17646  17630     1   112.4800480 524.673600
  17625  17624  17638     1   111.5100476 526.347200
  17625  17624  17646     1   107.9700462 569.024000
  17625  17628  17629     1   111.5100476 526.347200
  17625  17628  17636     1   110.1900474 564.840000
  17628  17625  17637     1   110.1900474 564.840000
  17628  17629  17630     1   111.5100476 526.347200
  17628  17629  17635     1   110.1900474 564.840000
  17629  17628  17636     1   110.1900474 564.840000
  17629  17630  17634     1   107.9700462 569.024000
  17629  17630  17646     1   107.9700462 569.024000
  17630  17629  17635     1   110.1900474 564.840000
  17634  17630  17646     1   108.2900466 608.353600
  17638  17624  17646     1   107.9700462 569.024000
  17647  17648  17651     1   111.5100476 526.347200
  17647  17648  17660     1   110.1900474 564.840000
  17647  17661  17667     1   110.1900474 564.840000
  17647  17669  17653     1   112.4800480 524.673600
  17648  17651  17652     1   111.5100476 526.347200
  17648  17651  17659     1   110.1900474 564.840000
  17648  17647  17661     1   111.5100476 526.347200
  17648  17647  17669     1   107.9700462 569.024000
  17651  17652  17653     1   111.5100476 526.347200
  17651  17652  17658     1   110.1900474 564.840000
  17651  17648  17660     1   110.1900474 564.840000
  17652  17653  17657     1   107.9700462 569.024000
  17652  17653  17669     1   107.9700462 569.024000
  17652  17651  17659     1   110.1900474 564.840000
  17653  17652  17658     1   110.1900474 564.840000
  17657  17653  17669     1   108.2900466 608.353600
  17661  17647  17669     1   107.9700462 569.024000
  17670  17671  17674     1   111.5100476 526.347200
  17670  17671  17683     1   110.1900474 564.840000
  17670  17684  17690     1   110.1900474 564.840000
  17670  17692  17676     1   112.4800480 524.673600
  17671  17670  17684     1   111.5100476 526.347200
  17671  17670  17692     1   107.9700462 569.024000
  17671  17674  17675     1   111.5100476 526.347200
  17671  17674  17682     1   110.1900474 564.840000
  17674  17671  17683     1   110.1900474 564.840000
  17674  17675  17676     1   111.5100476 526.347200
  17674  17675  17681     1   110.1900474 564.840000
  17675  17674  17682     1   110.1900474 564.840000
  17675  17676  17680     1   107.9700462 569.024000
  17675  17676  17692     1   107.9700462 569.024000
  17676  17675  17681     1   110.1900474 564.840000
  17680  17676  17692     1   108.2900466 608.353600
  17684  17670  17692     1   107.9700462 569.024000
  17693  17694  17697     1   111.5100476 526.347200
  17693  17694  17706     1   110.1900474 564.840000
  17693  17707  17713     1   110.1900474 564.840000
  17693  17715  17699     1   112.4800480 524.673600
  17694  17697  17698     1   111.5100476 526.347200
  17694  17697  17705     1   110.1900474 564.840000
  17694  17693  17707     1   111.5100476 526.347200
  17694  17693  17715     1   107.9700462 569.024000
  17697  17698  17699     1   111.5100476 526.347200
  17697  17698  17704     1   110.1900474 564.840000
  17697  17694  17706     1   110.1900474 564.840000
  17698  17699  17703     1   107.9700462 569.024000
  17698  17699  17715     1   107.9700462 569.024000
  17698  17697  17705     1   110.1900474 564.840000
  17699  17698  17704     1   110.1900474 564.840000
  17703  17699  17715     1   108.2900466 608.353600
  17707  17693  17715     1   107.9700462 569.024000
  17716  17717  17720     1   111.5100476 526.347200
  17716  17717  17729     1   110.1900474 564.840000
  17716  17730  17736     1   110.1900474 564.840000
  17716  17738  17722     1   112.4800480 524.673600
  17717  17716  17730     1   111.5100476 526.347200
  17717  17716  17738     1   107.9700462 569.024000
  17717  17720  17721     1   111.5100476 526.347200
  17717  17720  17728     1   110.1900474 564.840000
  17720  17717  17729     1   110.1900474 564.840000
  17720  17721  17722     1   111.5100476 526.347200
  17720  17721  17727     1   110.1900474 564.840000
  17721  17720  17728     1   110.1900474 564.840000
  17721  17722  17726     1   107.9700462 569.024000
  17721  17722  17738     1   107.9700462 569.024000
  17722  17721  17727     1   110.1900474 564.840000
  17726  17722  17738     1   108.2900466 608.353600
  17730  17716  17738     1   107.9700462 569.024000
  17739  17740  17743     1   111.5100476 526.347200
  17739  17740  17752     1   110.1900474 564.840000
  17739  17753  17759     1   110.1900474 564.840000
  17739  17761  17745     1   112.4800480 524.673600
  17740  17743  17744     1   111.5100476 526.347200
  17740  17743  17751     1   110.1900474 564.840000
  17740  17739  17753     1   111.5100476 526.347200
  17740  17739  17761     1   107.9700462 569.024000
  17743  17744  17745     1   111.5100476 526.347200
  17743  17744  17750     1   110.1900474 564.840000
  17743  17740  17752     1   110.1900474 564.840000
  17744  17745  17749     1   107.9700462 569.024000
  17744  17745  17761     1   107.9700462 569.024000
  17744  17743  17751     1   110.1900474 564.840000
  17745  17744  17750     1   110.1900474 564.840000
  17749  17745  17761     1   108.2900466 608.353600
  17753  17739  17761     1   107.9700462 569.024000
  17762  17763  17766     1   111.5100476 526.347200
  17762  17763  17775     1   110.1900474 564.840000
  17762  17776  17782     1   110.1900474 564.840000
  17762  17784  17768     1   112.4800480 524.673600
  17763  17762  17776     1   111.5100476 526.347200
  17763  17762  17784     1   107.9700462 569.024000
  17763  17766  17767     1   111.5100476 526.347200
  17763  17766  17774     1   110.1900474 564.840000
  17766  17763  17775     1   110.1900474 564.840000
  17766  17767  17768     1   111.5100476 526.347200
  17766  17767  17773     1   110.1900474 564.840000
  17767  17766  17774     1   110.1900474 564.840000
  17767  17768  17772     1   107.9700462 569.024000
  17767  17768  17784     1   107.9700462 569.024000
  17768  17767  17773     1   110.1900474 564.840000
  17772  17768  17784     1   108.2900466 608.353600
  17776  17762  17784     1   107.9700462 569.024000
  17785  17786  17789     1   111.5100476 526.347200
  17785  17786  17798     1   110.1900474 564.840000
  17785  17799  17805     1   110.1900474 564.840000
  17785  17807  17791     1   112.4800480 524.673600
  17786  17789  17790     1   111.5100476 526.347200
  17786  17789  17797     1   110.1900474 564.840000
  17786  17785  17799     1   111.5100476 526.347200
  17786  17785  17807     1   107.9700462 569.024000
  17789  17790  17791     1   111.5100476 526.347200
  17789  17790  17796     1   110.1900474 564.840000
  17789  17786  17798     1   110.1900474 564.840000
  17790  17791  17795     1   107.9700462 569.024000
  17790  17791  17807     1   107.9700462 569.024000
  17790  17789  17797     1   110.1900474 564.840000
  17791  17790  17796     1   110.1900474 564.840000
  17795  17791  17807     1   108.2900466 608.353600
  17799  17785  17807     1   107.9700462 569.024000
  17808  17809  17812     1   111.5100476 526.347200
  17808  17809  17821     1   110.1900474 564.840000
  17808  17822  17828     1   110.1900474 564.840000
  17808  17830  17814     1   112.4800480 524.673600
  17809  17808  17822     1   111.5100476 526.347200
  17809  17808  17830     1   107.9700462 569.024000
  17809  17812  17813     1   111.5100476 526.347200
  17809  17812  17820     1   110.1900474 564.840000
  17812  17809  17821     1   110.1900474 564.840000
  17812  17813  17814     1   111.5100476 526.347200
  17812  17813  17819     1   110.1900474 564.840000
  17813  17812  17820     1   110.1900474 564.840000
  17813  17814  17818     1   107.9700462 569.024000
  17813  17814  17830     1   107.9700462 569.024000
  17814  17813  17819     1   110.1900474 564.840000
  17818  17814  17830     1   108.2900466 608.353600
  17822  17808  17830     1   107.9700462 569.024000
  17831  17832  17835     1   111.5100476 526.347200
  17831  17832  17844     1   110.1900474 564.840000
  17831  17845  17851     1   110.1900474 564.840000
  17831  17853  17837     1   112.4800480 524.673600
  17832  17835  17836     1   111.5100476 526.347200
  17832  17835  17843     1   110.1900474 564.840000
  17832  17831  17845     1   111.5100476 526.347200
  17832  17831  17853     1   107.9700462 569.024000
  17835  17836  17837     1   111.5100476 526.347200
  17835  17836  17842     1   110.1900474 564.840000
  17835  17832  17844     1   110.1900474 564.840000
  17836  17837  17841     1   107.9700462 569.024000
  17836  17837  17853     1   107.9700462 569.024000
  17836  17835  17843     1   110.1900474 564.840000
  17837  17836  17842     1   110.1900474 564.840000
  17841  17837  17853     1   108.2900466 608.353600
  17845  17831  17853     1   107.9700462 569.024000
  17854  17855  17858     1   111.5100476 526.347200
  17854  17855  17867     1   110.1900474 564.840000
  17854  17868  17874     1   110.1900474 564.840000
  17854  17876  17860     1   112.4800480 524.673600
  17855  17854  17868     1   111.5100476 526.347200
  17855  17854  17876     1   107.9700462 569.024000
  17855  17858  17859     1   111.5100476 526.347200
  17855  17858  17866     1   110.1900474 564.840000
  17858  17855  17867     1   110.1900474 564.840000
  17858  17859  17860     1   111.5100476 526.347200
  17858  17859  17865     1   110.1900474 564.840000
  17859  17858  17866     1   110.1900474 564.840000
  17859  17860  17864     1   107.9700462 569.024000
  17859  17860  17876     1   107.9700462 569.024000
  17860  17859  17865     1   110.1900474 564.840000
  17864  17860  17876     1   108.2900466 608.353600
  17868  17854  17876     1   107.9700462 569.024000
  17877  17878  17881     1   111.5100476 526.347200
  17877  17878  17890     1   110.1900474 564.840000
  17877  17891  17897     1   110.1900474 564.840000
  17877  17899  17883     1   112.4800480 524.673600
  17878  17881  17882     1   111.5100476 526.347200
  17878  17881  17889     1   110.1900474 564.840000
  17878  17877  17891     1   111.5100476 526.347200
  17878  17877  17899     1   107.9700462 569.024000
  17881  17882  17883     1   111.5100476 526.347200
  17881  17882  17888     1   110.1900474 564.840000
  17881  17878  17890     1   110.1900474 564.840000
  17882  17883  17887     1   107.9700462 569.024000
  17882  17883  17899     1   107.9700462 569.024000
  17882  17881  17889     1   110.1900474 564.840000
  17883  17882  17888     1   110.1900474 564.840000
  17887  17883  17899     1   108.2900466 608.353600
  17891  17877  17899     1   107.9700462 569.024000
  17900  17901  17904     1   111.5100476 526.347200
  17900  17901  17913     1   110.1900474 564.840000
  17900  17914  17920     1   110.1900474 564.840000
  17900  17922  17906     1   112.4800480 524.673600
  17901  17900  17914     1   111.5100476 526.347200
  17901  17900  17922     1   107.9700462 569.024000
  17901  17904  17905     1   111.5100476 526.347200
  17901  17904  17912     1   110.1900474 564.840000
  17904  17901  17913     1   110.1900474 564.840000
  17904  17905  17906     1   111.5100476 526.347200
  17904  17905  17911     1   110.1900474 564.840000
  17905  17904  17912     1   110.1900474 564.840000
  17905  17906  17910     1   107.9700462 569.024000
  17905  17906  17922     1   107.9700462 569.024000
  17906  17905  17911     1   110.1900474 564.840000
  17910  17906  17922     1   108.2900466 608.353600
  17914  17900  17922     1   107.9700462 569.024000
  17923  17924  17927     1   111.5100476 526.347200
  17923  17924  17936     1   110.1900474 564.840000
  17923  17937  17943     1   110.1900474 564.840000
  17923  17945  17929     1   112.4800480 524.673600
  17924  17927  17928     1   111.5100476 526.347200
  17924  17927  17935     1   110.1900474 564.840000
  17924  17923  17937     1   111.5100476 526.347200
  17924  17923  17945     1   107.9700462 569.024000
  17927  17928  17929     1   111.5100476 526.347200
  17927  17928  17934     1   110.1900474 564.840000
  17927  17924  17936     1   110.1900474 564.840000
  17928  17929  17933     1   107.9700462 569.024000
  17928  17929  17945     1   107.9700462 569.024000
  17928  17927  17935     1   110.1900474 564.840000
  17929  17928  17934     1   110.1900474 564.840000
  17933  17929  17945     1   108.2900466 608.353600
  17937  17923  17945     1   107.9700462 569.024000
  17946  17947  17950     1   111.5100476 526.347200
  17946  17947  17959     1   110.1900474 564.840000
  17946  17960  17966     1   110.1900474 564.840000
  17946  17968  17952     1   112.4800480 524.673600
  17947  17946  17960     1   111.5100476 526.347200
  17947  17946  17968     1   107.9700462 569.024000
  17947  17950  17951     1   111.5100476 526.347200
  17947  17950  17958     1   110.1900474 564.840000
  17950  17947  17959     1   110.1900474 564.840000
  17950  17951  17952     1   111.5100476 526.347200
  17950  17951  17957     1   110.1900474 564.840000
  17951  17950  17958     1   110.1900474 564.840000
  17951  17952  17956     1   107.9700462 569.024000
  17951  17952  17968     1   107.9700462 569.024000
  17952  17951  17957     1   110.1900474 564.840000
  17956  17952  17968     1   108.2900466 608.353600
  17960  17946  17968     1   107.9700462 569.024000
  17969  17970  17973     1   111.5100476 526.347200
  17969  17970  17982     1   110.1900474 564.840000
  17969  17983  17989     1   110.1900474 564.840000
  17969  17991  17975     1   112.4800480 524.673600
  17970  17973  17974     1   111.5100476 526.347200
  17970  17973  17981     1   110.1900474 564.840000
  17970  17969  17983     1   111.5100476 526.347200
  17970  17969  17991     1   107.9700462 569.024000
  17973  17974  17975     1   111.5100476 526.347200
  17973  17974  17980     1   110.1900474 564.840000
  17973  17970  17982     1   110.1900474 564.840000
  17974  17975  17979     1   107.9700462 569.024000
  17974  17975  17991     1   107.9700462 569.024000
  17974  17973  17981     1   110.1900474 564.840000
  17975  17974  17980     1   110.1900474 564.840000
  17979  17975  17991     1   108.2900466 608.353600
  17983  17969  17991     1   107.9700462 569.024000
  17992  17993  17996     1   111.5100476 526.347200
  17992  17993  18005     1   110.1900474 564.840000
  17992  18006  18012     1   110.1900474 564.840000
  17992  18014  17998     1   112.4800480 524.673600
  17993  17992  18006     1   111.5100476 526.347200
  17993  17992  18014     1   107.9700462 569.024000
  17993  17996  17997     1   111.5100476 526.347200
  17993  17996  18004     1   110.1900474 564.840000
  17996  17993  18005     1   110.1900474 564.840000
  17996  17997  17998     1   111.5100476 526.347200
  17996  17997  18003     1   110.1900474 564.840000
  17997  17996  18004     1   110.1900474 564.840000
  17997  17998  18002     1   107.9700462 569.024000
  17997  17998  18014     1   107.9700462 569.024000
  17998  17997  18003     1   110.1900474 564.840000
  18002  17998  18014     1   108.2900466 608.353600
  18006  17992  18014     1   107.9700462 569.024000
  18015  18016  18019     1   111.5100476 526.347200
  18015  18016  18028     1   110.1900474 564.840000
  18015  18029  18035     1   110.1900474 564.840000
  18015  18037  18021     1   112.4800480 524.673600
  18016  18019  18020     1   111.5100476 526.347200
  18016  18019  18027     1   110.1900474 564.840000
  18016  18015  18029     1   111.5100476 526.347200
  18016  18015  18037     1   107.9700462 569.024000
  18019  18020  18021     1   111.5100476 526.347200
  18019  18020  18026     1   110.1900474 564.840000
  18019  18016  18028     1   110.1900474 564.840000
  18020  18021  18025     1   107.9700462 569.024000
  18020  18021  18037     1   107.9700462 569.024000
  18020  18019  18027     1   110.1900474 564.840000
  18021  18020  18026     1   110.1900474 564.840000
  18025  18021  18037     1   108.2900466 608.353600
  18029  18015  18037     1   107.9700462 569.024000
  18038  18039  18042     1   111.5100476 526.347200
  18038  18039  18051     1   110.1900474 564.840000
  18038  18052  18058     1   110.1900474 564.840000
  18038  18060  18044     1   112.4800480 524.673600
  18039  18038  18052     1   111.5100476 526.347200
  18039  18038  18060     1   107.9700462 569.024000
  18039  18042  18043     1   111.5100476 526.347200
  18039  18042  18050     1   110.1900474 564.840000
  18042  18039  18051     1   110.1900474 564.840000
  18042  18043  18044     1   111.5100476 526.347200
  18042  18043  18049     1   110.1900474 564.840000
  18043  18042  18050     1   110.1900474 564.840000
  18043  18044  18048     1   107.9700462 569.024000
  18043  18044  18060     1   107.9700462 569.024000
  18044  18043  18049     1   110.1900474 564.840000
  18048  18044  18060     1   108.2900466 608.353600
  18052  18038  18060     1   107.9700462 569.024000
  18061  18062  18065     1   111.5100476 526.347200
  18061  18062  18074     1   110.1900474 564.840000
  18061  18075  18081     1   110.1900474 564.840000
  18061  18083  18067     1   112.4800480 524.673600
  18062  18065  18066     1   111.5100476 526.347200
  18062  18065  18073     1   110.1900474 564.840000
  18062  18061  18075     1   111.5100476 526.347200
  18062  18061  18083     1   107.9700462 569.024000
  18065  18066  18067     1   111.5100476 526.347200
  18065  18066  18072     1   110.1900474 564.840000
  18065  18062  18074     1   110.1900474 564.840000
  18066  18067  18071     1   107.9700462 569.024000
  18066  18067  18083     1   107.9700462 569.024000
  18066  18065  18073     1   110.1900474 564.840000
  18067  18066  18072     1   110.1900474 564.840000
  18071  18067  18083     1   108.2900466 608.353600
  18075  18061  18083     1   107.9700462 569.024000
  18084  18085  18088     1   111.5100476 526.347200
  18084  18085  18097     1   110.1900474 564.840000
  18084  18098  18104     1   110.1900474 564.840000
  18084  18106  18090     1   112.4800480 524.673600
  18085  18084  18098     1   111.5100476 526.347200
  18085  18084  18106     1   107.9700462 569.024000
  18085  18088  18089     1   111.5100476 526.347200
  18085  18088  18096     1   110.1900474 564.840000
  18088  18085  18097     1   110.1900474 564.840000
  18088  18089  18090     1   111.5100476 526.347200
  18088  18089  18095     1   110.1900474 564.840000
  18089  18088  18096     1   110.1900474 564.840000
  18089  18090  18094     1   107.9700462 569.024000
  18089  18090  18106     1   107.9700462 569.024000
  18090  18089  18095     1   110.1900474 564.840000
  18094  18090  18106     1   108.2900466 608.353600
  18098  18084  18106     1   107.9700462 569.024000
  18107  18108  18111     1   111.5100476 526.347200
  18107  18108  18120     1   110.1900474 564.840000
  18107  18121  18127     1   110.1900474 564.840000
  18107  18129  18113     1   112.4800480 524.673600
  18108  18111  18112     1   111.5100476 526.347200
  18108  18111  18119     1   110.1900474 564.840000
  18108  18107  18121     1   111.5100476 526.347200
  18108  18107  18129     1   107.9700462 569.024000
  18111  18112  18113     1   111.5100476 526.347200
  18111  18112  18118     1   110.1900474 564.840000
  18111  18108  18120     1   110.1900474 564.840000
  18112  18113  18117     1   107.9700462 569.024000
  18112  18113  18129     1   107.9700462 569.024000
  18112  18111  18119     1   110.1900474 564.840000
  18113  18112  18118     1   110.1900474 564.840000
  18117  18113  18129     1   108.2900466 608.353600
  18121  18107  18129     1   107.9700462 569.024000
  18130  18131  18134     1   111.5100476 526.347200
  18130  18131  18143     1   110.1900474 564.840000
  18130  18144  18150     1   110.1900474 564.840000
  18130  18152  18136     1   112.4800480 524.673600
  18131  18130  18144     1   111.5100476 526.347200
  18131  18130  18152     1   107.9700462 569.024000
  18131  18134  18135     1   111.5100476 526.347200
  18131  18134  18142     1   110.1900474 564.840000
  18134  18131  18143     1   110.1900474 564.840000
  18134  18135  18136     1   111.5100476 526.347200
  18134  18135  18141     1   110.1900474 564.840000
  18135  18134  18142     1   110.1900474 564.840000
  18135  18136  18140     1   107.9700462 569.024000
  18135  18136  18152     1   107.9700462 569.024000
  18136  18135  18141     1   110.1900474 564.840000
  18140  18136  18152     1   108.2900466 608.353600
  18144  18130  18152     1   107.9700462 569.024000
  18153  18154  18157     1   111.5100476 526.347200
  18153  18154  18166     1   110.1900474 564.840000
  18153  18167  18173     1   110.1900474 564.840000
  18153  18175  18159     1   112.4800480 524.673600
  18154  18157  18158     1   111.5100476 526.347200
  18154  18157  18165     1   110.1900474 564.840000
  18154  18153  18167     1   111.5100476 526.347200
  18154  18153  18175     1   107.9700462 569.024000
  18157  18158  18159     1   111.5100476 526.347200
  18157  18158  18164     1   110.1900474 564.840000
  18157  18154  18166     1   110.1900474 564.840000
  18158  18159  18163     1   107.9700462 569.024000
  18158  18159  18175     1   107.9700462 569.024000
  18158  18157  18165     1   110.1900474 564.840000
  18159  18158  18164     1   110.1900474 564.840000
  18163  18159  18175     1   108.2900466 608.353600
  18167  18153  18175     1   107.9700462 569.024000
  18176  18177  18180     1   111.5100476 526.347200
  18176  18177  18189     1   110.1900474 564.840000
  18176  18190  18196     1   110.1900474 564.840000
  18176  18198  18182     1   112.4800480 524.673600
  18177  18176  18190     1   111.5100476 526.347200
  18177  18176  18198     1   107.9700462 569.024000
  18177  18180  18181     1   111.5100476 526.347200
  18177  18180  18188     1   110.1900474 564.840000
  18180  18177  18189     1   110.1900474 564.840000
  18180  18181  18182     1   111.5100476 526.347200
  18180  18181  18187     1   110.1900474 564.840000
  18181  18180  18188     1   110.1900474 564.840000
  18181  18182  18186     1   107.9700462 569.024000
  18181  18182  18198     1   107.9700462 569.024000
  18182  18181  18187     1   110.1900474 564.840000
  18186  18182  18198     1   108.2900466 608.353600
  18190  18176  18198     1   107.9700462 569.024000
  18199  18200  18203     1   111.5100476 526.347200
  18199  18200  18212     1   110.1900474 564.840000
  18199  18213  18219     1   110.1900474 564.840000
  18199  18221  18205     1   112.4800480 524.673600
  18200  18203  18204     1   111.5100476 526.347200
  18200  18203  18211     1   110.1900474 564.840000
  18200  18199  18213     1   111.5100476 526.347200
  18200  18199  18221     1   107.9700462 569.024000
  18203  18204  18205     1   111.5100476 526.347200
  18203  18204  18210     1   110.1900474 564.840000
  18203  18200  18212     1   110.1900474 564.840000
  18204  18205  18209     1   107.9700462 569.024000
  18204  18205  18221     1   107.9700462 569.024000
  18204  18203  18211     1   110.1900474 564.840000
  18205  18204  18210     1   110.1900474 564.840000
  18209  18205  18221     1   108.2900466 608.353600
  18213  18199  18221     1   107.9700462 569.024000
  18222  18223  18226     1   111.5100476 526.347200
  18222  18223  18235     1   110.1900474 564.840000
  18222  18236  18242     1   110.1900474 564.840000
  18222  18244  18228     1   112.4800480 524.673600
  18223  18222  18236     1   111.5100476 526.347200
  18223  18222  18244     1   107.9700462 569.024000
  18223  18226  18227     1   111.5100476 526.347200
  18223  18226  18234     1   110.1900474 564.840000
  18226  18223  18235     1   110.1900474 564.840000
  18226  18227  18228     1   111.5100476 526.347200
  18226  18227  18233     1   110.1900474 564.840000
  18227  18226  18234     1   110.1900474 564.840000
  18227  18228  18232     1   107.9700462 569.024000
  18227  18228  18244     1   107.9700462 569.024000
  18228  18227  18233     1   110.1900474 564.840000
  18232  18228  18244     1   108.2900466 608.353600
  18236  18222  18244     1   107.9700462 569.024000
  18245  18246  18249     1   111.5100476 526.347200
  18245  18246  18258     1   110.1900474 564.840000
  18245  18259  18265     1   110.1900474 564.840000
  18245  18267  18251     1   112.4800480 524.673600
  18246  18249  18250     1   111.5100476 526.347200
  18246  18249  18257     1   110.1900474 564.840000
  18246  18245  18259     1   111.5100476 526.347200
  18246  18245  18267     1   107.9700462 569.024000
  18249  18250  18251     1   111.5100476 526.347200
  18249  18250  18256     1   110.1900474 564.840000
  18249  18246  18258     1   110.1900474 564.840000
  18250  18251  18255     1   107.9700462 569.024000
  18250  18251  18267     1   107.9700462 569.024000
  18250  18249  18257     1   110.1900474 564.840000
  18251  18250  18256     1   110.1900474 564.840000
  18255  18251  18267     1   108.2900466 608.353600
  18259  18245  18267     1   107.9700462 569.024000
  18268  18269  18272     1   111.5100476 526.347200
  18268  18269  18281     1   110.1900474 564.840000
  18268  18282  18288     1   110.1900474 564.840000
  18268  18290  18274     1   112.4800480 524.673600
  18269  18268  18282     1   111.5100476 526.347200
  18269  18268  18290     1   107.9700462 569.024000
  18269  18272  18273     1   111.5100476 526.347200
  18269  18272  18280     1   110.1900474 564.840000
  18272  18269  18281     1   110.1900474 564.840000
  18272  18273  18274     1   111.5100476 526.347200
  18272  18273  18279     1   110.1900474 564.840000
  18273  18272  18280     1   110.1900474 564.840000
  18273  18274  18278     1   107.9700462 569.024000
  18273  18274  18290     1   107.9700462 569.024000
  18274  18273  18279     1   110.1900474 564.840000
  18278  18274  18290     1   108.2900466 608.353600
  18282  18268  18290     1   107.9700462 569.024000
  18291  18292  18295     1   111.5100476 526.347200
  18291  18292  18304     1   110.1900474 564.840000
  18291  18305  18311     1   110.1900474 564.840000
  18291  18313  18297     1   112.4800480 524.673600
  18292  18295  18296     1   111.5100476 526.347200
  18292  18295  18303     1   110.1900474 564.840000
  18292  18291  18305     1   111.5100476 526.347200
  18292  18291  18313     1   107.9700462 569.024000
  18295  18296  18297     1   111.5100476 526.347200
  18295  18296  18302     1   110.1900474 564.840000
  18295  18292  18304     1   110.1900474 564.840000
  18296  18297  18301     1   107.9700462 569.024000
  18296  18297  18313     1   107.9700462 569.024000
  18296  18295  18303     1   110.1900474 564.840000
  18297  18296  18302     1   110.1900474 564.840000
  18301  18297  18313     1   108.2900466 608.353600
  18305  18291  18313     1   107.9700462 569.024000
  18314  18315  18318     1   111.5100476 526.347200
  18314  18315  18327     1   110.1900474 564.840000
  18314  18328  18334     1   110.1900474 564.840000
  18314  18336  18320     1   112.4800480 524.673600
  18315  18314  18328     1   111.5100476 526.347200
  18315  18314  18336     1   107.9700462 569.024000
  18315  18318  18319     1   111.5100476 526.347200
  18315  18318  18326     1   110.1900474 564.840000
  18318  18315  18327     1   110.1900474 564.840000
  18318  18319  18320     1   111.5100476 526.347200
  18318  18319  18325     1   110.1900474 564.840000
  18319  18318  18326     1   110.1900474 564.840000
  18319  18320  18324     1   107.9700462 569.024000
  18319  18320  18336     1   107.9700462 569.024000
  18320  18319  18325     1   110.1900474 564.840000
  18324  18320  18336     1   108.2900466 608.353600
  18328  18314  18336     1   107.9700462 569.024000
  18337  18338  18341     1   111.5100476 526.347200
  18337  18338  18350     1   110.1900474 564.840000
  18337  18351  18357     1   110.1900474 564.840000
  18337  18359  18343     1   112.4800480 524.673600
  18338  18341  18342     1   111.5100476 526.347200
  18338  18341  18349     1   110.1900474 564.840000
  18338  18337  18351     1   111.5100476 526.347200
  18338  18337  18359     1   107.9700462 569.024000
  18341  18342  18343     1   111.5100476 526.347200
  18341  18342  18348     1   110.1900474 564.840000
  18341  18338  18350     1   110.1900474 564.840000
  18342  18343  18347     1   107.9700462 569.024000
  18342  18343  18359     1   107.9700462 569.024000
  18342  18341  18349     1   110.1900474 564.840000
  18343  18342  18348     1   110.1900474 564.840000
  18347  18343  18359     1   108.2900466 608.353600
  18351  18337  18359     1   107.9700462 569.024000
  18360  18361  18364     1   111.5100476 526.347200
  18360  18361  18373     1   110.1900474 564.840000
  18360  18374  18380     1   110.1900474 564.840000
  18360  18382  18366     1   112.4800480 524.673600
  18361  18360  18374     1   111.5100476 526.347200
  18361  18360  18382     1   107.9700462 569.024000
  18361  18364  18365     1   111.5100476 526.347200
  18361  18364  18372     1   110.1900474 564.840000
  18364  18361  18373     1   110.1900474 564.840000
  18364  18365  18366     1   111.5100476 526.347200
  18364  18365  18371     1   110.1900474 564.840000
  18365  18364  18372     1   110.1900474 564.840000
  18365  18366  18370     1   107.9700462 569.024000
  18365  18366  18382     1   107.9700462 569.024000
  18366  18365  18371     1   110.1900474 564.840000
  18370  18366  18382     1   108.2900466 608.353600
  18374  18360  18382     1   107.9700462 569.024000
  18383  18384  18387     1   111.5100476 526.347200
  18383  18384  18396     1   110.1900474 564.840000
  18383  18397  18403     1   110.1900474 564.840000
  18383  18405  18389     1   112.4800480 524.673600
  18384  18387  18388     1   111.5100476 526.347200
  18384  18387  18395     1   110.1900474 564.840000
  18384  18383  18397     1   111.5100476 526.347200
  18384  18383  18405     1   107.9700462 569.024000
  18387  18388  18389     1   111.5100476 526.347200
  18387  18388  18394     1   110.1900474 564.840000
  18387  18384  18396     1   110.1900474 564.840000
  18388  18389  18393     1   107.9700462 569.024000
  18388  18389  18405     1   107.9700462 569.024000
  18388  18387  18395     1   110.1900474 564.840000
  18389  18388  18394     1   110.1900474 564.840000
  18393  18389  18405     1   108.2900466 608.353600
  18397  18383  18405     1   107.9700462 569.024000
  18406  18407  18410     1   111.5100476 526.347200
  18406  18407  18419     1   110.1900474 564.840000
  18406  18420  18426     1   110.1900474 564.840000
  18406  18428  18412     1   112.4800480 524.673600
  18407  18406  18420     1   111.5100476 526.347200
  18407  18406  18428     1   107.9700462 569.024000
  18407  18410  18411     1   111.5100476 526.347200
  18407  18410  18418     1   110.1900474 564.840000
  18410  18407  18419     1   110.1900474 564.840000
  18410  18411  18412     1   111.5100476 526.347200
  18410  18411  18417     1   110.1900474 564.840000
  18411  18410  18418     1   110.1900474 564.840000
  18411  18412  18416     1   107.9700462 569.024000
  18411  18412  18428     1   107.9700462 569.024000
  18412  18411  18417     1   110.1900474 564.840000
  18416  18412  18428     1   108.2900466 608.353600
  18420  18406  18428     1   107.9700462 569.024000
  18429  18430  18433     1   111.5100476 526.347200
  18429  18430  18442     1   110.1900474 564.840000
  18429  18443  18449     1   110.1900474 564.840000
  18429  18451  18435     1   112.4800480 524.673600
  18430  18433  18434     1   111.5100476 526.347200
  18430  18433  18441     1   110.1900474 564.840000
  18430  18429  18443     1   111.5100476 526.347200
  18430  18429  18451     1   107.9700462 569.024000
  18433  18434  18435     1   111.5100476 526.347200
  18433  18434  18440     1   110.1900474 564.840000
  18433  18430  18442     1   110.1900474 564.840000
  18434  18435  18439     1   107.9700462 569.024000
  18434  18435  18451     1   107.9700462 569.024000
  18434  18433  18441     1   110.1900474 564.840000
  18435  18434  18440     1   110.1900474 564.840000
  18439  18435  18451     1   108.2900466 608.353600
  18443  18429  18451     1   107.9700462 569.024000
  18452  18453  18456     1   111.5100476 526.347200
  18452  18453  18465     1   110.1900474 564.840000
  18452  18466  18472     1   110.1900474 564.840000
  18452  18474  18458     1   112.4800480 524.673600
  18453  18452  18466     1   111.5100476 526.347200
  18453  18452  18474     1   107.9700462 569.024000
  18453  18456  18457     1   111.5100476 526.347200
  18453  18456  18464     1   110.1900474 564.840000
  18456  18453  18465     1   110.1900474 564.840000
  18456  18457  18458     1   111.5100476 526.347200
  18456  18457  18463     1   110.1900474 564.840000
  18457  18456  18464     1   110.1900474 564.840000
  18457  18458  18462     1   107.9700462 569.024000
  18457  18458  18474     1   107.9700462 569.024000
  18458  18457  18463     1   110.1900474 564.840000
  18462  18458  18474     1   108.2900466 608.353600
  18466  18452  18474     1   107.9700462 569.024000
  18475  18476  18479     1   111.5100476 526.347200
  18475  18476  18488     1   110.1900474 564.840000
  18475  18489  18495     1   110.1900474 564.840000
  18475  18497  18481     1   112.4800480 524.673600
  18476  18479  18480     1   111.5100476 526.347200
  18476  18479  18487     1   110.1900474 564.840000
  18476  18475  18489     1   111.5100476 526.347200
  18476  18475  18497     1   107.9700462 569.024000
  18479  18480  18481     1   111.5100476 526.347200
  18479  18480  18486     1   110.1900474 564.840000
  18479  18476  18488     1   110.1900474 564.840000
  18480  18481  18485     1   107.9700462 569.024000
  18480  18481  18497     1   107.9700462 569.024000
  18480  18479  18487     1   110.1900474 564.840000
  18481  18480  18486     1   110.1900474 564.840000
  18485  18481  18497     1   108.2900466 608.353600
  18489  18475  18497     1   107.9700462 569.024000
  18498  18499  18502     1   111.5100476 526.347200
  18498  18499  18511     1   110.1900474 564.840000
  18498  18512  18518     1   110.1900474 564.840000
  18498  18520  18504     1   112.4800480 524.673600
  18499  18498  18512     1   111.5100476 526.347200
  18499  18498  18520     1   107.9700462 569.024000
  18499  18502  18503     1   111.5100476 526.347200
  18499  18502  18510     1   110.1900474 564.840000
  18502  18499  18511     1   110.1900474 564.840000
  18502  18503  18504     1   111.5100476 526.347200
  18502  18503  18509     1   110.1900474 564.840000
  18503  18502  18510     1   110.1900474 564.840000
  18503  18504  18508     1   107.9700462 569.024000
  18503  18504  18520     1   107.9700462 569.024000
  18504  18503  18509     1   110.1900474 564.840000
  18508  18504  18520     1   108.2900466 608.353600
  18512  18498  18520     1   107.9700462 569.024000
  18521  18522  18525     1   111.5100476 526.347200
  18521  18522  18534     1   110.1900474 564.840000
  18521  18535  18541     1   110.1900474 564.840000
  18521  18543  18527     1   112.4800480 524.673600
  18522  18525  18526     1   111.5100476 526.347200
  18522  18525  18533     1   110.1900474 564.840000
  18522  18521  18535     1   111.5100476 526.347200
  18522  18521  18543     1   107.9700462 569.024000
  18525  18526  18527     1   111.5100476 526.347200
  18525  18526  18532     1   110.1900474 564.840000
  18525  18522  18534     1   110.1900474 564.840000
  18526  18527  18531     1   107.9700462 569.024000
  18526  18527  18543     1   107.9700462 569.024000
  18526  18525  18533     1   110.1900474 564.840000
  18527  18526  18532     1   110.1900474 564.840000
  18531  18527  18543     1   108.2900466 608.353600
  18535  18521  18543     1   107.9700462 569.024000
  18544  18545  18548     1   111.5100476 526.347200
  18544  18545  18557     1   110.1900474 564.840000
  18544  18558  18564     1   110.1900474 564.840000
  18544  18566  18550     1   112.4800480 524.673600
  18545  18544  18558     1   111.5100476 526.347200
  18545  18544  18566     1   107.9700462 569.024000
  18545  18548  18549     1   111.5100476 526.347200
  18545  18548  18556     1   110.1900474 564.840000
  18548  18545  18557     1   110.1900474 564.840000
  18548  18549  18550     1   111.5100476 526.347200
  18548  18549  18555     1   110.1900474 564.840000
  18549  18548  18556     1   110.1900474 564.840000
  18549  18550  18554     1   107.9700462 569.024000
  18549  18550  18566     1   107.9700462 569.024000
  18550  18549  18555     1   110.1900474 564.840000
  18554  18550  18566     1   108.2900466 608.353600
  18558  18544  18566     1   107.9700462 569.024000
  18567  18568  18571     1   111.5100476 526.347200
  18567  18568  18580     1   110.1900474 564.840000
  18567  18581  18587     1   110.1900474 564.840000
  18567  18589  18573     1   112.4800480 524.673600
  18568  18571  18572     1   111.5100476 526.347200
  18568  18571  18579     1   110.1900474 564.840000
  18568  18567  18581     1   111.5100476 526.347200
  18568  18567  18589     1   107.9700462 569.024000
  18571  18572  18573     1   111.5100476 526.347200
  18571  18572  18578     1   110.1900474 564.840000
  18571  18568  18580     1   110.1900474 564.840000
  18572  18573  18577     1   107.9700462 569.024000
  18572  18573  18589     1   107.9700462 569.024000
  18572  18571  18579     1   110.1900474 564.840000
  18573  18572  18578     1   110.1900474 564.840000
  18577  18573  18589     1   108.2900466 608.353600
  18581  18567  18589     1   107.9700462 569.024000
  18590  18591  18594     1   111.5100476 526.347200
  18590  18591  18603     1   110.1900474 564.840000
  18590  18604  18610     1   110.1900474 564.840000
  18590  18612  18596     1   112.4800480 524.673600
  18591  18590  18604     1   111.5100476 526.347200
  18591  18590  18612     1   107.9700462 569.024000
  18591  18594  18595     1   111.5100476 526.347200
  18591  18594  18602     1   110.1900474 564.840000
  18594  18591  18603     1   110.1900474 564.840000
  18594  18595  18596     1   111.5100476 526.347200
  18594  18595  18601     1   110.1900474 564.840000
  18595  18594  18602     1   110.1900474 564.840000
  18595  18596  18600     1   107.9700462 569.024000
  18595  18596  18612     1   107.9700462 569.024000
  18596  18595  18601     1   110.1900474 564.840000
  18600  18596  18612     1   108.2900466 608.353600
  18604  18590  18612     1   107.9700462 569.024000
  18613  18614  18617     1   111.5100476 526.347200
  18613  18614  18626     1   110.1900474 564.840000
  18613  18627  18633     1   110.1900474 564.840000
  18613  18635  18619     1   112.4800480 524.673600
  18614  18617  18618     1   111.5100476 526.347200
  18614  18617  18625     1   110.1900474 564.840000
  18614  18613  18627     1   111.5100476 526.347200
  18614  18613  18635     1   107.9700462 569.024000
  18617  18618  18619     1   111.5100476 526.347200
  18617  18618  18624     1   110.1900474 564.840000
  18617  18614  18626     1   110.1900474 564.840000
  18618  18619  18623     1   107.9700462 569.024000
  18618  18619  18635     1   107.9700462 569.024000
  18618  18617  18625     1   110.1900474 564.840000
  18619  18618  18624     1   110.1900474 564.840000
  18623  18619  18635     1   108.2900466 608.353600
  18627  18613  18635     1   107.9700462 569.024000
  18636  18637  18640     1   111.5100476 526.347200
  18636  18637  18649     1   110.1900474 564.840000
  18636  18650  18656     1   110.1900474 564.840000
  18636  18658  18642     1   112.4800480 524.673600
  18637  18636  18650     1   111.5100476 526.347200
  18637  18636  18658     1   107.9700462 569.024000
  18637  18640  18641     1   111.5100476 526.347200
  18637  18640  18648     1   110.1900474 564.840000
  18640  18637  18649     1   110.1900474 564.840000
  18640  18641  18642     1   111.5100476 526.347200
  18640  18641  18647     1   110.1900474 564.840000
  18641  18640  18648     1   110.1900474 564.840000
  18641  18642  18646     1   107.9700462 569.024000
  18641  18642  18658     1   107.9700462 569.024000
  18642  18641  18647     1   110.1900474 564.840000
  18646  18642  18658     1   108.2900466 608.353600
  18650  18636  18658     1   107.9700462 569.024000
  18659  18660  18663     1   111.5100476 526.347200
  18659  18660  18672     1   110.1900474 564.840000
  18659  18673  18679     1   110.1900474 564.840000
  18659  18681  18665     1   112.4800480 524.673600
  18660  18663  18664     1   111.5100476 526.347200
  18660  18663  18671     1   110.1900474 564.840000
  18660  18659  18673     1   111.5100476 526.347200
  18660  18659  18681     1   107.9700462 569.024000
  18663  18664  18665     1   111.5100476 526.347200
  18663  18664  18670     1   110.1900474 564.840000
  18663  18660  18672     1   110.1900474 564.840000
  18664  18665  18669     1   107.9700462 569.024000
  18664  18665  18681     1   107.9700462 569.024000
  18664  18663  18671     1   110.1900474 564.840000
  18665  18664  18670     1   110.1900474 564.840000
  18669  18665  18681     1   108.2900466 608.353600
  18673  18659  18681     1   107.9700462 569.024000
  18682  18683  18686     1   111.5100476 526.347200
  18682  18683  18695     1   110.1900474 564.840000
  18682  18696  18702     1   110.1900474 564.840000
  18682  18704  18688     1   112.4800480 524.673600
  18683  18682  18696     1   111.5100476 526.347200
  18683  18682  18704     1   107.9700462 569.024000
  18683  18686  18687     1   111.5100476 526.347200
  18683  18686  18694     1   110.1900474 564.840000
  18686  18683  18695     1   110.1900474 564.840000
  18686  18687  18688     1   111.5100476 526.347200
  18686  18687  18693     1   110.1900474 564.840000
  18687  18686  18694     1   110.1900474 564.840000
  18687  18688  18692     1   107.9700462 569.024000
  18687  18688  18704     1   107.9700462 569.024000
  18688  18687  18693     1   110.1900474 564.840000
  18692  18688  18704     1   108.2900466 608.353600
  18696  18682  18704     1   107.9700462 569.024000
  18705  18706  18709     1   111.5100476 526.347200
  18705  18706  18718     1   110.1900474 564.840000
  18705  18719  18725     1   110.1900474 564.840000
  18705  18727  18711     1   112.4800480 524.673600
  18706  18709  18710     1   111.5100476 526.347200
  18706  18709  18717     1   110.1900474 564.840000
  18706  18705  18719     1   111.5100476 526.347200
  18706  18705  18727     1   107.9700462 569.024000
  18709  18710  18711     1   111.5100476 526.347200
  18709  18710  18716     1   110.1900474 564.840000
  18709  18706  18718     1   110.1900474 564.840000
  18710  18711  18715     1   107.9700462 569.024000
  18710  18711  18727     1   107.9700462 569.024000
  18710  18709  18717     1   110.1900474 564.840000
  18711  18710  18716     1   110.1900474 564.840000
  18715  18711  18727     1   108.2900466 608.353600
  18719  18705  18727     1   107.9700462 569.024000
  18728  18729  18732     1   111.5100476 526.347200
  18728  18729  18741     1   110.1900474 564.840000
  18728  18742  18748     1   110.1900474 564.840000
  18728  18750  18734     1   112.4800480 524.673600
  18729  18728  18742     1   111.5100476 526.347200
  18729  18728  18750     1   107.9700462 569.024000
  18729  18732  18733     1   111.5100476 526.347200
  18729  18732  18740     1   110.1900474 564.840000
  18732  18729  18741     1   110.1900474 564.840000
  18732  18733  18734     1   111.5100476 526.347200
  18732  18733  18739     1   110.1900474 564.840000
  18733  18732  18740     1   110.1900474 564.840000
  18733  18734  18738     1   107.9700462 569.024000
  18733  18734  18750     1   107.9700462 569.024000
  18734  18733  18739     1   110.1900474 564.840000
  18738  18734  18750     1   108.2900466 608.353600
  18742  18728  18750     1   107.9700462 569.024000
  18751  18752  18755     1   111.5100476 526.347200
  18751  18752  18764     1   110.1900474 564.840000
  18751  18765  18771     1   110.1900474 564.840000
  18751  18773  18757     1   112.4800480 524.673600
  18752  18755  18756     1   111.5100476 526.347200
  18752  18755  18763     1   110.1900474 564.840000
  18752  18751  18765     1   111.5100476 526.347200
  18752  18751  18773     1   107.9700462 569.024000
  18755  18756  18757     1   111.5100476 526.347200
  18755  18756  18762     1   110.1900474 564.840000
  18755  18752  18764     1   110.1900474 564.840000
  18756  18757  18761     1   107.9700462 569.024000
  18756  18757  18773     1   107.9700462 569.024000
  18756  18755  18763     1   110.1900474 564.840000
  18757  18756  18762     1   110.1900474 564.840000
  18761  18757  18773     1   108.2900466 608.353600
  18765  18751  18773     1   107.9700462 569.024000
  18774  18775  18778     1   111.5100476 526.347200
  18774  18775  18787     1   110.1900474 564.840000
  18774  18788  18794     1   110.1900474 564.840000
  18774  18796  18780     1   112.4800480 524.673600
  18775  18774  18788     1   111.5100476 526.347200
  18775  18774  18796     1   107.9700462 569.024000
  18775  18778  18779     1   111.5100476 526.347200
  18775  18778  18786     1   110.1900474 564.840000
  18778  18775  18787     1   110.1900474 564.840000
  18778  18779  18780     1   111.5100476 526.347200
  18778  18779  18785     1   110.1900474 564.840000
  18779  18778  18786     1   110.1900474 564.840000
  18779  18780  18784     1   107.9700462 569.024000
  18779  18780  18796     1   107.9700462 569.024000
  18780  18779  18785     1   110.1900474 564.840000
  18784  18780  18796     1   108.2900466 608.353600
  18788  18774  18796     1   107.9700462 569.024000
  18797  18798  18801     1   111.5100476 526.347200
  18797  18798  18810     1   110.1900474 564.840000
  18797  18811  18817     1   110.1900474 564.840000
  18797  18819  18803     1   112.4800480 524.673600
  18798  18801  18802     1   111.5100476 526.347200
  18798  18801  18809     1   110.1900474 564.840000
  18798  18797  18811     1   111.5100476 526.347200
  18798  18797  18819     1   107.9700462 569.024000
  18801  18802  18803     1   111.5100476 526.347200
  18801  18802  18808     1   110.1900474 564.840000
  18801  18798  18810     1   110.1900474 564.840000
  18802  18803  18807     1   107.9700462 569.024000
  18802  18803  18819     1   107.9700462 569.024000
  18802  18801  18809     1   110.1900474 564.840000
  18803  18802  18808     1   110.1900474 564.840000
  18807  18803  18819     1   108.2900466 608.353600
  18811  18797  18819     1   107.9700462 569.024000
  18820  18821  18824     1   111.5100476 526.347200
  18820  18821  18833     1   110.1900474 564.840000
  18820  18834  18840     1   110.1900474 564.840000
  18820  18842  18826     1   112.4800480 524.673600
  18821  18820  18834     1   111.5100476 526.347200
  18821  18820  18842     1   107.9700462 569.024000
  18821  18824  18825     1   111.5100476 526.347200
  18821  18824  18832     1   110.1900474 564.840000
  18824  18821  18833     1   110.1900474 564.840000
  18824  18825  18826     1   111.5100476 526.347200
  18824  18825  18831     1   110.1900474 564.840000
  18825  18824  18832     1   110.1900474 564.840000
  18825  18826  18830     1   107.9700462 569.024000
  18825  18826  18842     1   107.9700462 569.024000
  18826  18825  18831     1   110.1900474 564.840000
  18830  18826  18842     1   108.2900466 608.353600
  18834  18820  18842     1   107.9700462 569.024000
  18843  18844  18847     1   111.5100476 526.347200
  18843  18844  18856     1   110.1900474 564.840000
  18843  18857  18863     1   110.1900474 564.840000
  18843  18865  18849     1   112.4800480 524.673600
  18844  18847  18848     1   111.5100476 526.347200
  18844  18847  18855     1   110.1900474 564.840000
  18844  18843  18857     1   111.5100476 526.347200
  18844  18843  18865     1   107.9700462 569.024000
  18847  18848  18849     1   111.5100476 526.347200
  18847  18848  18854     1   110.1900474 564.840000
  18847  18844  18856     1   110.1900474 564.840000
  18848  18849  18853     1   107.9700462 569.024000
  18848  18849  18865     1   107.9700462 569.024000
  18848  18847  18855     1   110.1900474 564.840000
  18849  18848  18854     1   110.1900474 564.840000
  18853  18849  18865     1   108.2900466 608.353600
  18857  18843  18865     1   107.9700462 569.024000
  18866  18867  18870     1   111.5100476 526.347200
  18866  18867  18879     1   110.1900474 564.840000
  18866  18880  18886     1   110.1900474 564.840000
  18866  18888  18872     1   112.4800480 524.673600
  18867  18866  18880     1   111.5100476 526.347200
  18867  18866  18888     1   107.9700462 569.024000
  18867  18870  18871     1   111.5100476 526.347200
  18867  18870  18878     1   110.1900474 564.840000
  18870  18867  18879     1   110.1900474 564.840000
  18870  18871  18872     1   111.5100476 526.347200
  18870  18871  18877     1   110.1900474 564.840000
  18871  18870  18878     1   110.1900474 564.840000
  18871  18872  18876     1   107.9700462 569.024000
  18871  18872  18888     1   107.9700462 569.024000
  18872  18871  18877     1   110.1900474 564.840000
  18876  18872  18888     1   108.2900466 608.353600
  18880  18866  18888     1   107.9700462 569.024000
  18889  18890  18893     1   111.5100476 526.347200
  18889  18890  18902     1   110.1900474 564.840000
  18889  18903  18909     1   110.1900474 564.840000
  18889  18911  18895     1   112.4800480 524.673600
  18890  18893  18894     1   111.5100476 526.347200
  18890  18893  18901     1   110.1900474 564.840000
  18890  18889  18903     1   111.5100476 526.347200
  18890  18889  18911     1   107.9700462 569.024000
  18893  18894  18895     1   111.5100476 526.347200
  18893  18894  18900     1   110.1900474 564.840000
  18893  18890  18902     1   110.1900474 564.840000
  18894  18895  18899     1   107.9700462 569.024000
  18894  18895  18911     1   107.9700462 569.024000
  18894  18893  18901     1   110.1900474 564.840000
  18895  18894  18900     1   110.1900474 564.840000
  18899  18895  18911     1   108.2900466 608.353600
  18903  18889  18911     1   107.9700462 569.024000
  18912  18913  18916     1   111.5100476 526.347200
  18912  18913  18925     1   110.1900474 564.840000
  18912  18926  18932     1   110.1900474 564.840000
  18912  18934  18918     1   112.4800480 524.673600
  18913  18912  18926     1   111.5100476 526.347200
  18913  18912  18934     1   107.9700462 569.024000
  18913  18916  18917     1   111.5100476 526.347200
  18913  18916  18924     1   110.1900474 564.840000
  18916  18913  18925     1   110.1900474 564.840000
  18916  18917  18918     1   111.5100476 526.347200
  18916  18917  18923     1   110.1900474 564.840000
  18917  18916  18924     1   110.1900474 564.840000
  18917  18918  18922     1   107.9700462 569.024000
  18917  18918  18934     1   107.9700462 569.024000
  18918  18917  18923     1   110.1900474 564.840000
  18922  18918  18934     1   108.2900466 608.353600
  18926  18912  18934     1   107.9700462 569.024000
  18935  18936  18939     1   111.5100476 526.347200
  18935  18936  18948     1   110.1900474 564.840000
  18935  18949  18955     1   110.1900474 564.840000
  18935  18957  18941     1   112.4800480 524.673600
  18936  18939  18940     1   111.5100476 526.347200
  18936  18939  18947     1   110.1900474 564.840000
  18936  18935  18949     1   111.5100476 526.347200
  18936  18935  18957     1   107.9700462 569.024000
  18939  18940  18941     1   111.5100476 526.347200
  18939  18940  18946     1   110.1900474 564.840000
  18939  18936  18948     1   110.1900474 564.840000
  18940  18941  18945     1   107.9700462 569.024000
  18940  18941  18957     1   107.9700462 569.024000
  18940  18939  18947     1   110.1900474 564.840000
  18941  18940  18946     1   110.1900474 564.840000
  18945  18941  18957     1   108.2900466 608.353600
  18949  18935  18957     1   107.9700462 569.024000
  18958  18959  18962     1   111.5100476 526.347200
  18958  18959  18971     1   110.1900474 564.840000
  18958  18972  18978     1   110.1900474 564.840000
  18958  18980  18964     1   112.4800480 524.673600
  18959  18958  18972     1   111.5100476 526.347200
  18959  18958  18980     1   107.9700462 569.024000
  18959  18962  18963     1   111.5100476 526.347200
  18959  18962  18970     1   110.1900474 564.840000
  18962  18959  18971     1   110.1900474 564.840000
  18962  18963  18964     1   111.5100476 526.347200
  18962  18963  18969     1   110.1900474 564.840000
  18963  18962  18970     1   110.1900474 564.840000
  18963  18964  18968     1   107.9700462 569.024000
  18963  18964  18980     1   107.9700462 569.024000
  18964  18963  18969     1   110.1900474 564.840000
  18968  18964  18980     1   108.2900466 608.353600
  18972  18958  18980     1   107.9700462 569.024000
  18981  18982  18985     1   111.5100476 526.347200
  18981  18982  18994     1   110.1900474 564.840000
  18981  18995  19001     1   110.1900474 564.840000
  18981  19003  18987     1   112.4800480 524.673600
  18982  18985  18986     1   111.5100476 526.347200
  18982  18985  18993     1   110.1900474 564.840000
  18982  18981  18995     1   111.5100476 526.347200
  18982  18981  19003     1   107.9700462 569.024000
  18985  18986  18987     1   111.5100476 526.347200
  18985  18986  18992     1   110.1900474 564.840000
  18985  18982  18994     1   110.1900474 564.840000
  18986  18987  18991     1   107.9700462 569.024000
  18986  18987  19003     1   107.9700462 569.024000
  18986  18985  18993     1   110.1900474 564.840000
  18987  18986  18992     1   110.1900474 564.840000
  18991  18987  19003     1   108.2900466 608.353600
  18995  18981  19003     1   107.9700462 569.024000
  19004  19005  19008     1   111.5100476 526.347200
  19004  19005  19017     1   110.1900474 564.840000
  19004  19018  19024     1   110.1900474 564.840000
  19004  19026  19010     1   112.4800480 524.673600
  19005  19004  19018     1   111.5100476 526.347200
  19005  19004  19026     1   107.9700462 569.024000
  19005  19008  19009     1   111.5100476 526.347200
  19005  19008  19016     1   110.1900474 564.840000
  19008  19005  19017     1   110.1900474 564.840000
  19008  19009  19010     1   111.5100476 526.347200
  19008  19009  19015     1   110.1900474 564.840000
  19009  19008  19016     1   110.1900474 564.840000
  19009  19010  19014     1   107.9700462 569.024000
  19009  19010  19026     1   107.9700462 569.024000
  19010  19009  19015     1   110.1900474 564.840000
  19014  19010  19026     1   108.2900466 608.353600
  19018  19004  19026     1   107.9700462 569.024000
  19027  19028  19031     1   111.5100476 526.347200
  19027  19028  19040     1   110.1900474 564.840000
  19027  19041  19047     1   110.1900474 564.840000
  19027  19049  19033     1   112.4800480 524.673600
  19028  19031  19032     1   111.5100476 526.347200
  19028  19031  19039     1   110.1900474 564.840000
  19028  19027  19041     1   111.5100476 526.347200
  19028  19027  19049     1   107.9700462 569.024000
  19031  19032  19033     1   111.5100476 526.347200
  19031  19032  19038     1   110.1900474 564.840000
  19031  19028  19040     1   110.1900474 564.840000
  19032  19033  19037     1   107.9700462 569.024000
  19032  19033  19049     1   107.9700462 569.024000
  19032  19031  19039     1   110.1900474 564.840000
  19033  19032  19038     1   110.1900474 564.840000
  19037  19033  19049     1   108.2900466 608.353600
  19041  19027  19049     1   107.9700462 569.024000
  19050  19051  19054     1   111.5100476 526.347200
  19050  19051  19063     1   110.1900474 564.840000
  19050  19064  19070     1   110.1900474 564.840000
  19050  19072  19056     1   112.4800480 524.673600
  19051  19050  19064     1   111.5100476 526.347200
  19051  19050  19072     1   107.9700462 569.024000
  19051  19054  19055     1   111.5100476 526.347200
  19051  19054  19062     1   110.1900474 564.840000
  19054  19051  19063     1   110.1900474 564.840000
  19054  19055  19056     1   111.5100476 526.347200
  19054  19055  19061     1   110.1900474 564.840000
  19055  19054  19062     1   110.1900474 564.840000
  19055  19056  19060     1   107.9700462 569.024000
  19055  19056  19072     1   107.9700462 569.024000
  19056  19055  19061     1   110.1900474 564.840000
  19060  19056  19072     1   108.2900466 608.353600
  19064  19050  19072     1   107.9700462 569.024000
  19073  19074  19077     1   111.5100476 526.347200
  19073  19074  19086     1   110.1900474 564.840000
  19073  19087  19093     1   110.1900474 564.840000
  19073  19095  19079     1   112.4800480 524.673600
  19074  19077  19078     1   111.5100476 526.347200
  19074  19077  19085     1   110.1900474 564.840000
  19074  19073  19087     1   111.5100476 526.347200
  19074  19073  19095     1   107.9700462 569.024000
  19077  19078  19079     1   111.5100476 526.347200
  19077  19078  19084     1   110.1900474 564.840000
  19077  19074  19086     1   110.1900474 564.840000
  19078  19079  19083     1   107.9700462 569.024000
  19078  19079  19095     1   107.9700462 569.024000
  19078  19077  19085     1   110.1900474 564.840000
  19079  19078  19084     1   110.1900474 564.840000
  19083  19079  19095     1   108.2900466 608.353600
  19087  19073  19095     1   107.9700462 569.024000
  19096  19097  19100     1   111.5100476 526.347200
  19096  19097  19109     1   110.1900474 564.840000
  19096  19110  19116     1   110.1900474 564.840000
  19096  19118  19102     1   112.4800480 524.673600
  19097  19096  19110     1   111.5100476 526.347200
  19097  19096  19118     1   107.9700462 569.024000
  19097  19100  19101     1   111.5100476 526.347200
  19097  19100  19108     1   110.1900474 564.840000
  19100  19097  19109     1   110.1900474 564.840000
  19100  19101  19102     1   111.5100476 526.347200
  19100  19101  19107     1   110.1900474 564.840000
  19101  19100  19108     1   110.1900474 564.840000
  19101  19102  19106     1   107.9700462 569.024000
  19101  19102  19118     1   107.9700462 569.024000
  19102  19101  19107     1   110.1900474 564.840000
  19106  19102  19118     1   108.2900466 608.353600
  19110  19096  19118     1   107.9700462 569.024000
  19119  19120  19123     1   111.5100476 526.347200
  19119  19120  19132     1   110.1900474 564.840000
  19119  19133  19139     1   110.1900474 564.840000
  19119  19141  19125     1   112.4800480 524.673600
  19120  19123  19124     1   111.5100476 526.347200
  19120  19123  19131     1   110.1900474 564.840000
  19120  19119  19133     1   111.5100476 526.347200
  19120  19119  19141     1   107.9700462 569.024000
  19123  19124  19125     1   111.5100476 526.347200
  19123  19124  19130     1   110.1900474 564.840000
  19123  19120  19132     1   110.1900474 564.840000
  19124  19125  19129     1   107.9700462 569.024000
  19124  19125  19141     1   107.9700462 569.024000
  19124  19123  19131     1   110.1900474 564.840000
  19125  19124  19130     1   110.1900474 564.840000
  19129  19125  19141     1   108.2900466 608.353600
  19133  19119  19141     1   107.9700462 569.024000
  19142  19143  19146     1   111.5100476 526.347200
  19142  19143  19155     1   110.1900474 564.840000
  19142  19156  19162     1   110.1900474 564.840000
  19142  19164  19148     1   112.4800480 524.673600
  19143  19142  19156     1   111.5100476 526.347200
  19143  19142  19164     1   107.9700462 569.024000
  19143  19146  19147     1   111.5100476 526.347200
  19143  19146  19154     1   110.1900474 564.840000
  19146  19143  19155     1   110.1900474 564.840000
  19146  19147  19148     1   111.5100476 526.347200
  19146  19147  19153     1   110.1900474 564.840000
  19147  19146  19154     1   110.1900474 564.840000
  19147  19148  19152     1   107.9700462 569.024000
  19147  19148  19164     1   107.9700462 569.024000
  19148  19147  19153     1   110.1900474 564.840000
  19152  19148  19164     1   108.2900466 608.353600
  19156  19142  19164     1   107.9700462 569.024000
  19165  19166  19169     1   111.5100476 526.347200
  19165  19166  19178     1   110.1900474 564.840000
  19165  19179  19185     1   110.1900474 564.840000
  19165  19187  19171     1   112.4800480 524.673600
  19166  19169  19170     1   111.5100476 526.347200
  19166  19169  19177     1   110.1900474 564.840000
  19166  19165  19179     1   111.5100476 526.347200
  19166  19165  19187     1   107.9700462 569.024000
  19169  19170  19171     1   111.5100476 526.347200
  19169  19170  19176     1   110.1900474 564.840000
  19169  19166  19178     1   110.1900474 564.840000
  19170  19171  19175     1   107.9700462 569.024000
  19170  19171  19187     1   107.9700462 569.024000
  19170  19169  19177     1   110.1900474 564.840000
  19171  19170  19176     1   110.1900474 564.840000
  19175  19171  19187     1   108.2900466 608.353600
  19179  19165  19187     1   107.9700462 569.024000
  19188  19189  19192     1   111.5100476 526.347200
  19188  19189  19201     1   110.1900474 564.840000
  19188  19202  19208     1   110.1900474 564.840000
  19188  19210  19194     1   112.4800480 524.673600
  19189  19188  19202     1   111.5100476 526.347200
  19189  19188  19210     1   107.9700462 569.024000
  19189  19192  19193     1   111.5100476 526.347200
  19189  19192  19200     1   110.1900474 564.840000
  19192  19189  19201     1   110.1900474 564.840000
  19192  19193  19194     1   111.5100476 526.347200
  19192  19193  19199     1   110.1900474 564.840000
  19193  19192  19200     1   110.1900474 564.840000
  19193  19194  19198     1   107.9700462 569.024000
  19193  19194  19210     1   107.9700462 569.024000
  19194  19193  19199     1   110.1900474 564.840000
  19198  19194  19210     1   108.2900466 608.353600
  19202  19188  19210     1   107.9700462 569.024000
  19211  19212  19215     1   111.5100476 526.347200
  19211  19212  19224     1   110.1900474 564.840000
  19211  19225  19231     1   110.1900474 564.840000
  19211  19233  19217     1   112.4800480 524.673600
  19212  19215  19216     1   111.5100476 526.347200
  19212  19215  19223     1   110.1900474 564.840000
  19212  19211  19225     1   111.5100476 526.347200
  19212  19211  19233     1   107.9700462 569.024000
  19215  19216  19217     1   111.5100476 526.347200
  19215  19216  19222     1   110.1900474 564.840000
  19215  19212  19224     1   110.1900474 564.840000
  19216  19217  19221     1   107.9700462 569.024000
  19216  19217  19233     1   107.9700462 569.024000
  19216  19215  19223     1   110.1900474 564.840000
  19217  19216  19222     1   110.1900474 564.840000
  19221  19217  19233     1   108.2900466 608.353600
  19225  19211  19233     1   107.9700462 569.024000
  19234  19235  19238     1   111.5100476 526.347200
  19234  19235  19247     1   110.1900474 564.840000
  19234  19248  19254     1   110.1900474 564.840000
  19234  19256  19240     1   112.4800480 524.673600
  19235  19234  19248     1   111.5100476 526.347200
  19235  19234  19256     1   107.9700462 569.024000
  19235  19238  19239     1   111.5100476 526.347200
  19235  19238  19246     1   110.1900474 564.840000
  19238  19235  19247     1   110.1900474 564.840000
  19238  19239  19240     1   111.5100476 526.347200
  19238  19239  19245     1   110.1900474 564.840000
  19239  19238  19246     1   110.1900474 564.840000
  19239  19240  19244     1   107.9700462 569.024000
  19239  19240  19256     1   107.9700462 569.024000
  19240  19239  19245     1   110.1900474 564.840000
  19244  19240  19256     1   108.2900466 608.353600
  19248  19234  19256     1   107.9700462 569.024000
  19257  19258  19261     1   111.5100476 526.347200
  19257  19258  19270     1   110.1900474 564.840000
  19257  19271  19277     1   110.1900474 564.840000
  19257  19279  19263     1   112.4800480 524.673600
  19258  19261  19262     1   111.5100476 526.347200
  19258  19261  19269     1   110.1900474 564.840000
  19258  19257  19271     1   111.5100476 526.347200
  19258  19257  19279     1   107.9700462 569.024000
  19261  19262  19263     1   111.5100476 526.347200
  19261  19262  19268     1   110.1900474 564.840000
  19261  19258  19270     1   110.1900474 564.840000
  19262  19263  19267     1   107.9700462 569.024000
  19262  19263  19279     1   107.9700462 569.024000
  19262  19261  19269     1   110.1900474 564.840000
  19263  19262  19268     1   110.1900474 564.840000
  19267  19263  19279     1   108.2900466 608.353600
  19271  19257  19279     1   107.9700462 569.024000
  19280  19281  19284     1   111.5100476 526.347200
  19280  19281  19293     1   110.1900474 564.840000
  19280  19294  19300     1   110.1900474 564.840000
  19280  19302  19286     1   112.4800480 524.673600
  19281  19280  19294     1   111.5100476 526.347200
  19281  19280  19302     1   107.9700462 569.024000
  19281  19284  19285     1   111.5100476 526.347200
  19281  19284  19292     1   110.1900474 564.840000
  19284  19281  19293     1   110.1900474 564.840000
  19284  19285  19286     1   111.5100476 526.347200
  19284  19285  19291     1   110.1900474 564.840000
  19285  19284  19292     1   110.1900474 564.840000
  19285  19286  19290     1   107.9700462 569.024000
  19285  19286  19302     1   107.9700462 569.024000
  19286  19285  19291     1   110.1900474 564.840000
  19290  19286  19302     1   108.2900466 608.353600
  19294  19280  19302     1   107.9700462 569.024000
  19303  19304  19307     1   111.5100476 526.347200
  19303  19304  19316     1   110.1900474 564.840000
  19303  19317  19323     1   110.1900474 564.840000
  19303  19325  19309     1   112.4800480 524.673600
  19304  19307  19308     1   111.5100476 526.347200
  19304  19307  19315     1   110.1900474 564.840000
  19304  19303  19317     1   111.5100476 526.347200
  19304  19303  19325     1   107.9700462 569.024000
  19307  19308  19309     1   111.5100476 526.347200
  19307  19308  19314     1   110.1900474 564.840000
  19307  19304  19316     1   110.1900474 564.840000
  19308  19309  19313     1   107.9700462 569.024000
  19308  19309  19325     1   107.9700462 569.024000
  19308  19307  19315     1   110.1900474 564.840000
  19309  19308  19314     1   110.1900474 564.840000
  19313  19309  19325     1   108.2900466 608.353600
  19317  19303  19325     1   107.9700462 569.024000
  19326  19327  19330     1   111.5100476 526.347200
  19326  19327  19339     1   110.1900474 564.840000
  19326  19340  19346     1   110.1900474 564.840000
  19326  19348  19332     1   112.4800480 524.673600
  19327  19326  19340     1   111.5100476 526.347200
  19327  19326  19348     1   107.9700462 569.024000
  19327  19330  19331     1   111.5100476 526.347200
  19327  19330  19338     1   110.1900474 564.840000
  19330  19327  19339     1   110.1900474 564.840000
  19330  19331  19332     1   111.5100476 526.347200
  19330  19331  19337     1   110.1900474 564.840000
  19331  19330  19338     1   110.1900474 564.840000
  19331  19332  19336     1   107.9700462 569.024000
  19331  19332  19348     1   107.9700462 569.024000
  19332  19331  19337     1   110.1900474 564.840000
  19336  19332  19348     1   108.2900466 608.353600
  19340  19326  19348     1   107.9700462 569.024000
  19349  19350  19353     1   111.5100476 526.347200
  19349  19350  19362     1   110.1900474 564.840000
  19349  19363  19369     1   110.1900474 564.840000
  19349  19371  19355     1   112.4800480 524.673600
  19350  19353  19354     1   111.5100476 526.347200
  19350  19353  19361     1   110.1900474 564.840000
  19350  19349  19363     1   111.5100476 526.347200
  19350  19349  19371     1   107.9700462 569.024000
  19353  19354  19355     1   111.5100476 526.347200
  19353  19354  19360     1   110.1900474 564.840000
  19353  19350  19362     1   110.1900474 564.840000
  19354  19355  19359     1   107.9700462 569.024000
  19354  19355  19371     1   107.9700462 569.024000
  19354  19353  19361     1   110.1900474 564.840000
  19355  19354  19360     1   110.1900474 564.840000
  19359  19355  19371     1   108.2900466 608.353600
  19363  19349  19371     1   107.9700462 569.024000
  19372  19373  19376     1   111.5100476 526.347200
  19372  19373  19385     1   110.1900474 564.840000
  19372  19386  19392     1   110.1900474 564.840000
  19372  19394  19378     1   112.4800480 524.673600
  19373  19372  19386     1   111.5100476 526.347200
  19373  19372  19394     1   107.9700462 569.024000
  19373  19376  19377     1   111.5100476 526.347200
  19373  19376  19384     1   110.1900474 564.840000
  19376  19373  19385     1   110.1900474 564.840000
  19376  19377  19378     1   111.5100476 526.347200
  19376  19377  19383     1   110.1900474 564.840000
  19377  19376  19384     1   110.1900474 564.840000
  19377  19378  19382     1   107.9700462 569.024000
  19377  19378  19394     1   107.9700462 569.024000
  19378  19377  19383     1   110.1900474 564.840000
  19382  19378  19394     1   108.2900466 608.353600
  19386  19372  19394     1   107.9700462 569.024000
  19395  19396  19399     1   111.5100476 526.347200
  19395  19396  19408     1   110.1900474 564.840000
  19395  19409  19415     1   110.1900474 564.840000
  19395  19417  19401     1   112.4800480 524.673600
  19396  19399  19400     1   111.5100476 526.347200
  19396  19399  19407     1   110.1900474 564.840000
  19396  19395  19409     1   111.5100476 526.347200
  19396  19395  19417     1   107.9700462 569.024000
  19399  19400  19401     1   111.5100476 526.347200
  19399  19400  19406     1   110.1900474 564.840000
  19399  19396  19408     1   110.1900474 564.840000
  19400  19401  19405     1   107.9700462 569.024000
  19400  19401  19417     1   107.9700462 569.024000
  19400  19399  19407     1   110.1900474 564.840000
  19401  19400  19406     1   110.1900474 564.840000
  19405  19401  19417     1   108.2900466 608.353600
  19409  19395  19417     1   107.9700462 569.024000
  19418  19419  19422     1   111.5100476 526.347200
  19418  19419  19431     1   110.1900474 564.840000
  19418  19432  19438     1   110.1900474 564.840000
  19418  19440  19424     1   112.4800480 524.673600
  19419  19418  19432     1   111.5100476 526.347200
  19419  19418  19440     1   107.9700462 569.024000
  19419  19422  19423     1   111.5100476 526.347200
  19419  19422  19430     1   110.1900474 564.840000
  19422  19419  19431     1   110.1900474 564.840000
  19422  19423  19424     1   111.5100476 526.347200
  19422  19423  19429     1   110.1900474 564.840000
  19423  19422  19430     1   110.1900474 564.840000
  19423  19424  19428     1   107.9700462 569.024000
  19423  19424  19440     1   107.9700462 569.024000
  19424  19423  19429     1   110.1900474 564.840000
  19428  19424  19440     1   108.2900466 608.353600
  19432  19418  19440     1   107.9700462 569.024000
  19441  19442  19445     1   111.5100476 526.347200
  19441  19442  19454     1   110.1900474 564.840000
  19441  19455  19461     1   110.1900474 564.840000
  19441  19463  19447     1   112.4800480 524.673600
  19442  19445  19446     1   111.5100476 526.347200
  19442  19445  19453     1   110.1900474 564.840000
  19442  19441  19455     1   111.5100476 526.347200
  19442  19441  19463     1   107.9700462 569.024000
  19445  19446  19447     1   111.5100476 526.347200
  19445  19446  19452     1   110.1900474 564.840000
  19445  19442  19454     1   110.1900474 564.840000
  19446  19447  19451     1   107.9700462 569.024000
  19446  19447  19463     1   107.9700462 569.024000
  19446  19445  19453     1   110.1900474 564.840000
  19447  19446  19452     1   110.1900474 564.840000
  19451  19447  19463     1   108.2900466 608.353600
  19455  19441  19463     1   107.9700462 569.024000
  19464  19465  19468     1   111.5100476 526.347200
  19464  19465  19477     1   110.1900474 564.840000
  19464  19478  19484     1   110.1900474 564.840000
  19464  19486  19470     1   112.4800480 524.673600
  19465  19464  19478     1   111.5100476 526.347200
  19465  19464  19486     1   107.9700462 569.024000
  19465  19468  19469     1   111.5100476 526.347200
  19465  19468  19476     1   110.1900474 564.840000
  19468  19465  19477     1   110.1900474 564.840000
  19468  19469  19470     1   111.5100476 526.347200
  19468  19469  19475     1   110.1900474 564.840000
  19469  19468  19476     1   110.1900474 564.840000
  19469  19470  19474     1   107.9700462 569.024000
  19469  19470  19486     1   107.9700462 569.024000
  19470  19469  19475     1   110.1900474 564.840000
  19474  19470  19486     1   108.2900466 608.353600
  19478  19464  19486     1   107.9700462 569.024000
  19487  19488  19491     1   111.5100476 526.347200
  19487  19488  19500     1   110.1900474 564.840000
  19487  19501  19507     1   110.1900474 564.840000
  19487  19509  19493     1   112.4800480 524.673600
  19488  19491  19492     1   111.5100476 526.347200
  19488  19491  19499     1   110.1900474 564.840000
  19488  19487  19501     1   111.5100476 526.347200
  19488  19487  19509     1   107.9700462 569.024000
  19491  19492  19493     1   111.5100476 526.347200
  19491  19492  19498     1   110.1900474 564.840000
  19491  19488  19500     1   110.1900474 564.840000
  19492  19493  19497     1   107.9700462 569.024000
  19492  19493  19509     1   107.9700462 569.024000
  19492  19491  19499     1   110.1900474 564.840000
  19493  19492  19498     1   110.1900474 564.840000
  19497  19493  19509     1   108.2900466 608.353600
  19501  19487  19509     1   107.9700462 569.024000
  19510  19511  19514     1   111.5100476 526.347200
  19510  19511  19523     1   110.1900474 564.840000
  19510  19524  19530     1   110.1900474 564.840000
  19510  19532  19516     1   112.4800480 524.673600
  19511  19510  19524     1   111.5100476 526.347200
  19511  19510  19532     1   107.9700462 569.024000
  19511  19514  19515     1   111.5100476 526.347200
  19511  19514  19522     1   110.1900474 564.840000
  19514  19511  19523     1   110.1900474 564.840000
  19514  19515  19516     1   111.5100476 526.347200
  19514  19515  19521     1   110.1900474 564.840000
  19515  19514  19522     1   110.1900474 564.840000
  19515  19516  19520     1   107.9700462 569.024000
  19515  19516  19532     1   107.9700462 569.024000
  19516  19515  19521     1   110.1900474 564.840000
  19520  19516  19532     1   108.2900466 608.353600
  19524  19510  19532     1   107.9700462 569.024000
  19533  19534  19537     1   111.5100476 526.347200
  19533  19534  19546     1   110.1900474 564.840000
  19533  19547  19553     1   110.1900474 564.840000
  19533  19555  19539     1   112.4800480 524.673600
  19534  19537  19538     1   111.5100476 526.347200
  19534  19537  19545     1   110.1900474 564.840000
  19534  19533  19547     1   111.5100476 526.347200
  19534  19533  19555     1   107.9700462 569.024000
  19537  19538  19539     1   111.5100476 526.347200
  19537  19538  19544     1   110.1900474 564.840000
  19537  19534  19546     1   110.1900474 564.840000
  19538  19539  19543     1   107.9700462 569.024000
  19538  19539  19555     1   107.9700462 569.024000
  19538  19537  19545     1   110.1900474 564.840000
  19539  19538  19544     1   110.1900474 564.840000
  19543  19539  19555     1   108.2900466 608.353600
  19547  19533  19555     1   107.9700462 569.024000
  19556  19557  19560     1   111.5100476 526.347200
  19556  19557  19569     1   110.1900474 564.840000
  19556  19570  19576     1   110.1900474 564.840000
  19556  19578  19562     1   112.4800480 524.673600
  19557  19556  19570     1   111.5100476 526.347200
  19557  19556  19578     1   107.9700462 569.024000
  19557  19560  19561     1   111.5100476 526.347200
  19557  19560  19568     1   110.1900474 564.840000
  19560  19557  19569     1   110.1900474 564.840000
  19560  19561  19562     1   111.5100476 526.347200
  19560  19561  19567     1   110.1900474 564.840000
  19561  19560  19568     1   110.1900474 564.840000
  19561  19562  19566     1   107.9700462 569.024000
  19561  19562  19578     1   107.9700462 569.024000
  19562  19561  19567     1   110.1900474 564.840000
  19566  19562  19578     1   108.2900466 608.353600
  19570  19556  19578     1   107.9700462 569.024000
  19579  19580  19583     1   111.5100476 526.347200
  19579  19580  19592     1   110.1900474 564.840000
  19579  19593  19599     1   110.1900474 564.840000
  19579  19601  19585     1   112.4800480 524.673600
  19580  19583  19584     1   111.5100476 526.347200
  19580  19583  19591     1   110.1900474 564.840000
  19580  19579  19593     1   111.5100476 526.347200
  19580  19579  19601     1   107.9700462 569.024000
  19583  19584  19585     1   111.5100476 526.347200
  19583  19584  19590     1   110.1900474 564.840000
  19583  19580  19592     1   110.1900474 564.840000
  19584  19585  19589     1   107.9700462 569.024000
  19584  19585  19601     1   107.9700462 569.024000
  19584  19583  19591     1   110.1900474 564.840000
  19585  19584  19590     1   110.1900474 564.840000
  19589  19585  19601     1   108.2900466 608.353600
  19593  19579  19601     1   107.9700462 569.024000
  19602  19603  19606     1   111.5100476 526.347200
  19602  19603  19615     1   110.1900474 564.840000
  19602  19616  19622     1   110.1900474 564.840000
  19602  19624  19608     1   112.4800480 524.673600
  19603  19602  19616     1   111.5100476 526.347200
  19603  19602  19624     1   107.9700462 569.024000
  19603  19606  19607     1   111.5100476 526.347200
  19603  19606  19614     1   110.1900474 564.840000
  19606  19603  19615     1   110.1900474 564.840000
  19606  19607  19608     1   111.5100476 526.347200
  19606  19607  19613     1   110.1900474 564.840000
  19607  19606  19614     1   110.1900474 564.840000
  19607  19608  19612     1   107.9700462 569.024000
  19607  19608  19624     1   107.9700462 569.024000
  19608  19607  19613     1   110.1900474 564.840000
  19612  19608  19624     1   108.2900466 608.353600
  19616  19602  19624     1   107.9700462 569.024000
  19625  19626  19629     1   111.5100476 526.347200
  19625  19626  19638     1   110.1900474 564.840000
  19625  19639  19645     1   110.1900474 564.840000
  19625  19647  19631     1   112.4800480 524.673600
  19626  19629  19630     1   111.5100476 526.347200
  19626  19629  19637     1   110.1900474 564.840000
  19626  19625  19639     1   111.5100476 526.347200
  19626  19625  19647     1   107.9700462 569.024000
  19629  19630  19631     1   111.5100476 526.347200
  19629  19630  19636     1   110.1900474 564.840000
  19629  19626  19638     1   110.1900474 564.840000
  19630  19631  19635     1   107.9700462 569.024000
  19630  19631  19647     1   107.9700462 569.024000
  19630  19629  19637     1   110.1900474 564.840000
  19631  19630  19636     1   110.1900474 564.840000
  19635  19631  19647     1   108.2900466 608.353600
  19639  19625  19647     1   107.9700462 569.024000
  19648  19649  19652     1   111.5100476 526.347200
  19648  19649  19661     1   110.1900474 564.840000
  19648  19662  19668     1   110.1900474 564.840000
  19648  19670  19654     1   112.4800480 524.673600
  19649  19648  19662     1   111.5100476 526.347200
  19649  19648  19670     1   107.9700462 569.024000
  19649  19652  19653     1   111.5100476 526.347200
  19649  19652  19660     1   110.1900474 564.840000
  19652  19649  19661     1   110.1900474 564.840000
  19652  19653  19654     1   111.5100476 526.347200
  19652  19653  19659     1   110.1900474 564.840000
  19653  19652  19660     1   110.1900474 564.840000
  19653  19654  19658     1   107.9700462 569.024000
  19653  19654  19670     1   107.9700462 569.024000
  19654  19653  19659     1   110.1900474 564.840000
  19658  19654  19670     1   108.2900466 608.353600
  19662  19648  19670     1   107.9700462 569.024000
  19671  19672  19675     1   111.5100476 526.347200
  19671  19672  19684     1   110.1900474 564.840000
  19671  19685  19691     1   110.1900474 564.840000
  19671  19693  19677     1   112.4800480 524.673600
  19672  19675  19676     1   111.5100476 526.347200
  19672  19675  19683     1   110.1900474 564.840000
  19672  19671  19685     1   111.5100476 526.347200
  19672  19671  19693     1   107.9700462 569.024000
  19675  19676  19677     1   111.5100476 526.347200
  19675  19676  19682     1   110.1900474 564.840000
  19675  19672  19684     1   110.1900474 564.840000
  19676  19677  19681     1   107.9700462 569.024000
  19676  19677  19693     1   107.9700462 569.024000
  19676  19675  19683     1   110.1900474 564.840000
  19677  19676  19682     1   110.1900474 564.840000
  19681  19677  19693     1   108.2900466 608.353600
  19685  19671  19693     1   107.9700462 569.024000
  19694  19695  19698     1   111.5100476 526.347200
  19694  19695  19707     1   110.1900474 564.840000
  19694  19708  19714     1   110.1900474 564.840000
  19694  19716  19700     1   112.4800480 524.673600
  19695  19694  19708     1   111.5100476 526.347200
  19695  19694  19716     1   107.9700462 569.024000
  19695  19698  19699     1   111.5100476 526.347200
  19695  19698  19706     1   110.1900474 564.840000
  19698  19695  19707     1   110.1900474 564.840000
  19698  19699  19700     1   111.5100476 526.347200
  19698  19699  19705     1   110.1900474 564.840000
  19699  19698  19706     1   110.1900474 564.840000
  19699  19700  19704     1   107.9700462 569.024000
  19699  19700  19716     1   107.9700462 569.024000
  19700  19699  19705     1   110.1900474 564.840000
  19704  19700  19716     1   108.2900466 608.353600
  19708  19694  19716     1   107.9700462 569.024000
  19717  19718  19721     1   111.5100476 526.347200
  19717  19718  19730     1   110.1900474 564.840000
  19717  19731  19737     1   110.1900474 564.840000
  19717  19739  19723     1   112.4800480 524.673600
  19718  19721  19722     1   111.5100476 526.347200
  19718  19721  19729     1   110.1900474 564.840000
  19718  19717  19731     1   111.5100476 526.347200
  19718  19717  19739     1   107.9700462 569.024000
  19721  19722  19723     1   111.5100476 526.347200
  19721  19722  19728     1   110.1900474 564.840000
  19721  19718  19730     1   110.1900474 564.840000
  19722  19723  19727     1   107.9700462 569.024000
  19722  19723  19739     1   107.9700462 569.024000
  19722  19721  19729     1   110.1900474 564.840000
  19723  19722  19728     1   110.1900474 564.840000
  19727  19723  19739     1   108.2900466 608.353600
  19731  19717  19739     1   107.9700462 569.024000
  19740  19741  19744     1   111.5100476 526.347200
  19740  19741  19753     1   110.1900474 564.840000
  19740  19754  19760     1   110.1900474 564.840000
  19740  19762  19746     1   112.4800480 524.673600
  19741  19740  19754     1   111.5100476 526.347200
  19741  19740  19762     1   107.9700462 569.024000
  19741  19744  19745     1   111.5100476 526.347200
  19741  19744  19752     1   110.1900474 564.840000
  19744  19741  19753     1   110.1900474 564.840000
  19744  19745  19746     1   111.5100476 526.347200
  19744  19745  19751     1   110.1900474 564.840000
  19745  19744  19752     1   110.1900474 564.840000
  19745  19746  19750     1   107.9700462 569.024000
  19745  19746  19762     1   107.9700462 569.024000
  19746  19745  19751     1   110.1900474 564.840000
  19750  19746  19762     1   108.2900466 608.353600
  19754  19740  19762     1   107.9700462 569.024000
  19763  19764  19767     1   111.5100476 526.347200
  19763  19764  19776     1   110.1900474 564.840000
  19763  19777  19783     1   110.1900474 564.840000
  19763  19785  19769     1   112.4800480 524.673600
  19764  19767  19768     1   111.5100476 526.347200
  19764  19767  19775     1   110.1900474 564.840000
  19764  19763  19777     1   111.5100476 526.347200
  19764  19763  19785     1   107.9700462 569.024000
  19767  19768  19769     1   111.5100476 526.347200
  19767  19768  19774     1   110.1900474 564.840000
  19767  19764  19776     1   110.1900474 564.840000
  19768  19769  19773     1   107.9700462 569.024000
  19768  19769  19785     1   107.9700462 569.024000
  19768  19767  19775     1   110.1900474 564.840000
  19769  19768  19774     1   110.1900474 564.840000
  19773  19769  19785     1   108.2900466 608.353600
  19777  19763  19785     1   107.9700462 569.024000
  19786  19787  19790     1   111.5100476 526.347200
  19786  19787  19799     1   110.1900474 564.840000
  19786  19800  19806     1   110.1900474 564.840000
  19786  19808  19792     1   112.4800480 524.673600
  19787  19786  19800     1   111.5100476 526.347200
  19787  19786  19808     1   107.9700462 569.024000
  19787  19790  19791     1   111.5100476 526.347200
  19787  19790  19798     1   110.1900474 564.840000
  19790  19787  19799     1   110.1900474 564.840000
  19790  19791  19792     1   111.5100476 526.347200
  19790  19791  19797     1   110.1900474 564.840000
  19791  19790  19798     1   110.1900474 564.840000
  19791  19792  19796     1   107.9700462 569.024000
  19791  19792  19808     1   107.9700462 569.024000
  19792  19791  19797     1   110.1900474 564.840000
  19796  19792  19808     1   108.2900466 608.353600
  19800  19786  19808     1   107.9700462 569.024000
  19809  19810  19813     1   111.5100476 526.347200
  19809  19810  19822     1   110.1900474 564.840000
  19809  19823  19829     1   110.1900474 564.840000
  19809  19831  19815     1   112.4800480 524.673600
  19810  19813  19814     1   111.5100476 526.347200
  19810  19813  19821     1   110.1900474 564.840000
  19810  19809  19823     1   111.5100476 526.347200
  19810  19809  19831     1   107.9700462 569.024000
  19813  19814  19815     1   111.5100476 526.347200
  19813  19814  19820     1   110.1900474 564.840000
  19813  19810  19822     1   110.1900474 564.840000
  19814  19815  19819     1   107.9700462 569.024000
  19814  19815  19831     1   107.9700462 569.024000
  19814  19813  19821     1   110.1900474 564.840000
  19815  19814  19820     1   110.1900474 564.840000
  19819  19815  19831     1   108.2900466 608.353600
  19823  19809  19831     1   107.9700462 569.024000
  19832  19833  19836     1   111.5100476 526.347200
  19832  19833  19845     1   110.1900474 564.840000
  19832  19846  19852     1   110.1900474 564.840000
  19832  19854  19838     1   112.4800480 524.673600
  19833  19832  19846     1   111.5100476 526.347200
  19833  19832  19854     1   107.9700462 569.024000
  19833  19836  19837     1   111.5100476 526.347200
  19833  19836  19844     1   110.1900474 564.840000
  19836  19833  19845     1   110.1900474 564.840000
  19836  19837  19838     1   111.5100476 526.347200
  19836  19837  19843     1   110.1900474 564.840000
  19837  19836  19844     1   110.1900474 564.840000
  19837  19838  19842     1   107.9700462 569.024000
  19837  19838  19854     1   107.9700462 569.024000
  19838  19837  19843     1   110.1900474 564.840000
  19842  19838  19854     1   108.2900466 608.353600
  19846  19832  19854     1   107.9700462 569.024000
  19855  19856  19859     1   111.5100476 526.347200
  19855  19856  19868     1   110.1900474 564.840000
  19855  19869  19875     1   110.1900474 564.840000
  19855  19877  19861     1   112.4800480 524.673600
  19856  19859  19860     1   111.5100476 526.347200
  19856  19859  19867     1   110.1900474 564.840000
  19856  19855  19869     1   111.5100476 526.347200
  19856  19855  19877     1   107.9700462 569.024000
  19859  19860  19861     1   111.5100476 526.347200
  19859  19860  19866     1   110.1900474 564.840000
  19859  19856  19868     1   110.1900474 564.840000
  19860  19861  19865     1   107.9700462 569.024000
  19860  19861  19877     1   107.9700462 569.024000
  19860  19859  19867     1   110.1900474 564.840000
  19861  19860  19866     1   110.1900474 564.840000
  19865  19861  19877     1   108.2900466 608.353600
  19869  19855  19877     1   107.9700462 569.024000
  19878  19879  19882     1   111.5100476 526.347200
  19878  19879  19891     1   110.1900474 564.840000
  19878  19892  19898     1   110.1900474 564.840000
  19878  19900  19884     1   112.4800480 524.673600
  19879  19878  19892     1   111.5100476 526.347200
  19879  19878  19900     1   107.9700462 569.024000
  19879  19882  19883     1   111.5100476 526.347200
  19879  19882  19890     1   110.1900474 564.840000
  19882  19879  19891     1   110.1900474 564.840000
  19882  19883  19884     1   111.5100476 526.347200
  19882  19883  19889     1   110.1900474 564.840000
  19883  19882  19890     1   110.1900474 564.840000
  19883  19884  19888     1   107.9700462 569.024000
  19883  19884  19900     1   107.9700462 569.024000
  19884  19883  19889     1   110.1900474 564.840000
  19888  19884  19900     1   108.2900466 608.353600
  19892  19878  19900     1   107.9700462 569.024000
  19901  19902  19905     1   111.5100476 526.347200
  19901  19902  19914     1   110.1900474 564.840000
  19901  19915  19921     1   110.1900474 564.840000
  19901  19923  19907     1   112.4800480 524.673600
  19902  19905  19906     1   111.5100476 526.347200
  19902  19905  19913     1   110.1900474 564.840000
  19902  19901  19915     1   111.5100476 526.347200
  19902  19901  19923     1   107.9700462 569.024000
  19905  19906  19907     1   111.5100476 526.347200
  19905  19906  19912     1   110.1900474 564.840000
  19905  19902  19914     1   110.1900474 564.840000
  19906  19907  19911     1   107.9700462 569.024000
  19906  19907  19923     1   107.9700462 569.024000
  19906  19905  19913     1   110.1900474 564.840000
  19907  19906  19912     1   110.1900474 564.840000
  19911  19907  19923     1   108.2900466 608.353600
  19915  19901  19923     1   107.9700462 569.024000
  19924  19925  19928     1   111.5100476 526.347200
  19924  19925  19937     1   110.1900474 564.840000
  19924  19938  19944     1   110.1900474 564.840000
  19924  19946  19930     1   112.4800480 524.673600
  19925  19924  19938     1   111.5100476 526.347200
  19925  19924  19946     1   107.9700462 569.024000
  19925  19928  19929     1   111.5100476 526.347200
  19925  19928  19936     1   110.1900474 564.840000
  19928  19925  19937     1   110.1900474 564.840000
  19928  19929  19930     1   111.5100476 526.347200
  19928  19929  19935     1   110.1900474 564.840000
  19929  19928  19936     1   110.1900474 564.840000
  19929  19930  19934     1   107.9700462 569.024000
  19929  19930  19946     1   107.9700462 569.024000
  19930  19929  19935     1   110.1900474 564.840000
  19934  19930  19946     1   108.2900466 608.353600
  19938  19924  19946     1   107.9700462 569.024000
  19947  19948  19951     1   111.5100476 526.347200
  19947  19948  19960     1   110.1900474 564.840000
  19947  19961  19967     1   110.1900474 564.840000
  19947  19969  19953     1   112.4800480 524.673600
  19948  19951  19952     1   111.5100476 526.347200
  19948  19951  19959     1   110.1900474 564.840000
  19948  19947  19961     1   111.5100476 526.347200
  19948  19947  19969     1   107.9700462 569.024000
  19951  19952  19953     1   111.5100476 526.347200
  19951  19952  19958     1   110.1900474 564.840000
  19951  19948  19960     1   110.1900474 564.840000
  19952  19953  19957     1   107.9700462 569.024000
  19952  19953  19969     1   107.9700462 569.024000
  19952  19951  19959     1   110.1900474 564.840000
  19953  19952  19958     1   110.1900474 564.840000
  19957  19953  19969     1   108.2900466 608.353600
  19961  19947  19969     1   107.9700462 569.024000
  19970  19971  19974     1   111.5100476 526.347200
  19970  19971  19983     1   110.1900474 564.840000
  19970  19984  19990     1   110.1900474 564.840000
  19970  19992  19976     1   112.4800480 524.673600
  19971  19970  19984     1   111.5100476 526.347200
  19971  19970  19992     1   107.9700462 569.024000
  19971  19974  19975     1   111.5100476 526.347200
  19971  19974  19982     1   110.1900474 564.840000
  19974  19971  19983     1   110.1900474 564.840000
  19974  19975  19976     1   111.5100476 526.347200
  19974  19975  19981     1   110.1900474 564.840000
  19975  19974  19982     1   110.1900474 564.840000
  19975  19976  19980     1   107.9700462 569.024000
  19975  19976  19992     1   107.9700462 569.024000
  19976  19975  19981     1   110.1900474 564.840000
  19980  19976  19992     1   108.2900466 608.353600
  19984  19970  19992     1   107.9700462 569.024000
  19993  19994  19997     1   111.5100476 526.347200
  19993  19994  20006     1   110.1900474 564.840000
  19993  20007  20013     1   110.1900474 564.840000
  19993  20015  19999     1   112.4800480 524.673600
  19994  19997  19998     1   111.5100476 526.347200
  19994  19997  20005     1   110.1900474 564.840000
  19994  19993  20007     1   111.5100476 526.347200
  19994  19993  20015     1   107.9700462 569.024000
  19997  19998  19999     1   111.5100476 526.347200
  19997  19998  20004     1   110.1900474 564.840000
  19997  19994  20006     1   110.1900474 564.840000
  19998  19999  20003     1   107.9700462 569.024000
  19998  19999  20015     1   107.9700462 569.024000
  19998  19997  20005     1   110.1900474 564.840000
  19999  19998  20004     1   110.1900474 564.840000
  20003  19999  20015     1   108.2900466 608.353600
  20007  19993  20015     1   107.9700462 569.024000
  20016  20017  20020     1   111.5100476 526.347200
  20016  20017  20029     1   110.1900474 564.840000
  20016  20030  20036     1   110.1900474 564.840000
  20016  20038  20022     1   112.4800480 524.673600
  20017  20016  20030     1   111.5100476 526.347200
  20017  20016  20038     1   107.9700462 569.024000
  20017  20020  20021     1   111.5100476 526.347200
  20017  20020  20028     1   110.1900474 564.840000
  20020  20017  20029     1   110.1900474 564.840000
  20020  20021  20022     1   111.5100476 526.347200
  20020  20021  20027     1   110.1900474 564.840000
  20021  20020  20028     1   110.1900474 564.840000
  20021  20022  20026     1   107.9700462 569.024000
  20021  20022  20038     1   107.9700462 569.024000
  20022  20021  20027     1   110.1900474 564.840000
  20026  20022  20038     1   108.2900466 608.353600
  20030  20016  20038     1   107.9700462 569.024000
  20039  20040  20043     1   111.5100476 526.347200
  20039  20040  20052     1   110.1900474 564.840000
  20039  20053  20059     1   110.1900474 564.840000
  20039  20061  20045     1   112.4800480 524.673600
  20040  20043  20044     1   111.5100476 526.347200
  20040  20043  20051     1   110.1900474 564.840000
  20040  20039  20053     1   111.5100476 526.347200
  20040  20039  20061     1   107.9700462 569.024000
  20043  20044  20045     1   111.5100476 526.347200
  20043  20044  20050     1   110.1900474 564.840000
  20043  20040  20052     1   110.1900474 564.840000
  20044  20045  20049     1   107.9700462 569.024000
  20044  20045  20061     1   107.9700462 569.024000
  20044  20043  20051     1   110.1900474 564.840000
  20045  20044  20050     1   110.1900474 564.840000
  20049  20045  20061     1   108.2900466 608.353600
  20053  20039  20061     1   107.9700462 569.024000
  20062  20063  20066     1   111.5100476 526.347200
  20062  20063  20075     1   110.1900474 564.840000
  20062  20076  20082     1   110.1900474 564.840000
  20062  20084  20068     1   112.4800480 524.673600
  20063  20062  20076     1   111.5100476 526.347200
  20063  20062  20084     1   107.9700462 569.024000
  20063  20066  20067     1   111.5100476 526.347200
  20063  20066  20074     1   110.1900474 564.840000
  20066  20063  20075     1   110.1900474 564.840000
  20066  20067  20068     1   111.5100476 526.347200
  20066  20067  20073     1   110.1900474 564.840000
  20067  20066  20074     1   110.1900474 564.840000
  20067  20068  20072     1   107.9700462 569.024000
  20067  20068  20084     1   107.9700462 569.024000
  20068  20067  20073     1   110.1900474 564.840000
  20072  20068  20084     1   108.2900466 608.353600
  20076  20062  20084     1   107.9700462 569.024000
  20085  20086  20089     1   111.5100476 526.347200
  20085  20086  20098     1   110.1900474 564.840000
  20085  20099  20105     1   110.1900474 564.840000
  20085  20107  20091     1   112.4800480 524.673600
  20086  20089  20090     1   111.5100476 526.347200
  20086  20089  20097     1   110.1900474 564.840000
  20086  20085  20099     1   111.5100476 526.347200
  20086  20085  20107     1   107.9700462 569.024000
  20089  20090  20091     1   111.5100476 526.347200
  20089  20090  20096     1   110.1900474 564.840000
  20089  20086  20098     1   110.1900474 564.840000
  20090  20091  20095     1   107.9700462 569.024000
  20090  20091  20107     1   107.9700462 569.024000
  20090  20089  20097     1   110.1900474 564.840000
  20091  20090  20096     1   110.1900474 564.840000
  20095  20091  20107     1   108.2900466 608.353600
  20099  20085  20107     1   107.9700462 569.024000
  20108  20109  20112     1   111.5100476 526.347200
  20108  20109  20121     1   110.1900474 564.840000
  20108  20122  20128     1   110.1900474 564.840000
  20108  20130  20114     1   112.4800480 524.673600
  20109  20108  20122     1   111.5100476 526.347200
  20109  20108  20130     1   107.9700462 569.024000
  20109  20112  20113     1   111.5100476 526.347200
  20109  20112  20120     1   110.1900474 564.840000
  20112  20109  20121     1   110.1900474 564.840000
  20112  20113  20114     1   111.5100476 526.347200
  20112  20113  20119     1   110.1900474 564.840000
  20113  20112  20120     1   110.1900474 564.840000
  20113  20114  20118     1   107.9700462 569.024000
  20113  20114  20130     1   107.9700462 569.024000
  20114  20113  20119     1   110.1900474 564.840000
  20118  20114  20130     1   108.2900466 608.353600
  20122  20108  20130     1   107.9700462 569.024000
  20131  20132  20135     1   111.5100476 526.347200
  20131  20132  20144     1   110.1900474 564.840000
  20131  20145  20151     1   110.1900474 564.840000
  20131  20153  20137     1   112.4800480 524.673600
  20132  20135  20136     1   111.5100476 526.347200
  20132  20135  20143     1   110.1900474 564.840000
  20132  20131  20145     1   111.5100476 526.347200
  20132  20131  20153     1   107.9700462 569.024000
  20135  20136  20137     1   111.5100476 526.347200
  20135  20136  20142     1   110.1900474 564.840000
  20135  20132  20144     1   110.1900474 564.840000
  20136  20137  20141     1   107.9700462 569.024000
  20136  20137  20153     1   107.9700462 569.024000
  20136  20135  20143     1   110.1900474 564.840000
  20137  20136  20142     1   110.1900474 564.840000
  20141  20137  20153     1   108.2900466 608.353600
  20145  20131  20153     1   107.9700462 569.024000
  20154  20155  20158     1   111.5100476 526.347200
  20154  20155  20167     1   110.1900474 564.840000
  20154  20168  20174     1   110.1900474 564.840000
  20154  20176  20160     1   112.4800480 524.673600
  20155  20154  20168     1   111.5100476 526.347200
  20155  20154  20176     1   107.9700462 569.024000
  20155  20158  20159     1   111.5100476 526.347200
  20155  20158  20166     1   110.1900474 564.840000
  20158  20155  20167     1   110.1900474 564.840000
  20158  20159  20160     1   111.5100476 526.347200
  20158  20159  20165     1   110.1900474 564.840000
  20159  20158  20166     1   110.1900474 564.840000
  20159  20160  20164     1   107.9700462 569.024000
  20159  20160  20176     1   107.9700462 569.024000
  20160  20159  20165     1   110.1900474 564.840000
  20164  20160  20176     1   108.2900466 608.353600
  20168  20154  20176     1   107.9700462 569.024000
  20177  20178  20181     1   111.5100476 526.347200
  20177  20178  20190     1   110.1900474 564.840000
  20177  20191  20197     1   110.1900474 564.840000
  20177  20199  20183     1   112.4800480 524.673600
  20178  20181  20182     1   111.5100476 526.347200
  20178  20181  20189     1   110.1900474 564.840000
  20178  20177  20191     1   111.5100476 526.347200
  20178  20177  20199     1   107.9700462 569.024000
  20181  20182  20183     1   111.5100476 526.347200
  20181  20182  20188     1   110.1900474 564.840000
  20181  20178  20190     1   110.1900474 564.840000
  20182  20183  20187     1   107.9700462 569.024000
  20182  20183  20199     1   107.9700462 569.024000
  20182  20181  20189     1   110.1900474 564.840000
  20183  20182  20188     1   110.1900474 564.840000
  20187  20183  20199     1   108.2900466 608.353600
  20191  20177  20199     1   107.9700462 569.024000
  20200  20201  20204     1   111.5100476 526.347200
  20200  20201  20213     1   110.1900474 564.840000
  20200  20214  20220     1   110.1900474 564.840000
  20200  20222  20206     1   112.4800480 524.673600
  20201  20200  20214     1   111.5100476 526.347200
  20201  20200  20222     1   107.9700462 569.024000
  20201  20204  20205     1   111.5100476 526.347200
  20201  20204  20212     1   110.1900474 564.840000
  20204  20201  20213     1   110.1900474 564.840000
  20204  20205  20206     1   111.5100476 526.347200
  20204  20205  20211     1   110.1900474 564.840000
  20205  20204  20212     1   110.1900474 564.840000
  20205  20206  20210     1   107.9700462 569.024000
  20205  20206  20222     1   107.9700462 569.024000
  20206  20205  20211     1   110.1900474 564.840000
  20210  20206  20222     1   108.2900466 608.353600
  20214  20200  20222     1   107.9700462 569.024000
  20223  20224  20227     1   111.5100476 526.347200
  20223  20224  20236     1   110.1900474 564.840000
  20223  20237  20243     1   110.1900474 564.840000
  20223  20245  20229     1   112.4800480 524.673600
  20224  20227  20228     1   111.5100476 526.347200
  20224  20227  20235     1   110.1900474 564.840000
  20224  20223  20237     1   111.5100476 526.347200
  20224  20223  20245     1   107.9700462 569.024000
  20227  20228  20229     1   111.5100476 526.347200
  20227  20228  20234     1   110.1900474 564.840000
  20227  20224  20236     1   110.1900474 564.840000
  20228  20229  20233     1   107.9700462 569.024000
  20228  20229  20245     1   107.9700462 569.024000
  20228  20227  20235     1   110.1900474 564.840000
  20229  20228  20234     1   110.1900474 564.840000
  20233  20229  20245     1   108.2900466 608.353600
  20237  20223  20245     1   107.9700462 569.024000
  20246  20247  20250     1   111.5100476 526.347200
  20246  20247  20259     1   110.1900474 564.840000
  20246  20260  20266     1   110.1900474 564.840000
  20246  20268  20252     1   112.4800480 524.673600
  20247  20246  20260     1   111.5100476 526.347200
  20247  20246  20268     1   107.9700462 569.024000
  20247  20250  20251     1   111.5100476 526.347200
  20247  20250  20258     1   110.1900474 564.840000
  20250  20247  20259     1   110.1900474 564.840000
  20250  20251  20252     1   111.5100476 526.347200
  20250  20251  20257     1   110.1900474 564.840000
  20251  20250  20258     1   110.1900474 564.840000
  20251  20252  20256     1   107.9700462 569.024000
  20251  20252  20268     1   107.9700462 569.024000
  20252  20251  20257     1   110.1900474 564.840000
  20256  20252  20268     1   108.2900466 608.353600
  20260  20246  20268     1   107.9700462 569.024000
  20269  20270  20273     1   111.5100476 526.347200
  20269  20270  20282     1   110.1900474 564.840000
  20269  20283  20289     1   110.1900474 564.840000
  20269  20291  20275     1   112.4800480 524.673600
  20270  20273  20274     1   111.5100476 526.347200
  20270  20273  20281     1   110.1900474 564.840000
  20270  20269  20283     1   111.5100476 526.347200
  20270  20269  20291     1   107.9700462 569.024000
  20273  20274  20275     1   111.5100476 526.347200
  20273  20274  20280     1   110.1900474 564.840000
  20273  20270  20282     1   110.1900474 564.840000
  20274  20275  20279     1   107.9700462 569.024000
  20274  20275  20291     1   107.9700462 569.024000
  20274  20273  20281     1   110.1900474 564.840000
  20275  20274  20280     1   110.1900474 564.840000
  20279  20275  20291     1   108.2900466 608.353600
  20283  20269  20291     1   107.9700462 569.024000
      1      2      3     1   108.0100461 406.684800
      1      2      4     1   108.0100461 406.684800
      1      5      6     1   108.0100461 406.684800
      1      5      7     1   108.0100461 406.684800
      1      8      9     1   108.0100461 406.684800
      1      8     10     1   108.0100461 406.684800
      2      1     29     1   110.1100470 384.091200
      2     14     15     1   109.8000471 387.438400
      2     14     16     1   109.8000471 387.438400
      3      2     14     1   110.5600475 386.601600
      3      2      4     1   109.7500473 328.025600
      4      2     14     1   110.5600475 386.601600
      5      1     29     1   110.1100470 384.091200
      5     17     18     1   109.8000471 387.438400
      5     17     19     1   109.8000471 387.438400
      6      5     17     1   110.5600475 386.601600
      6      5      7     1   109.7500473 328.025600
      7      5     17     1   110.5600475 386.601600
      8      1     29     1   110.1100470 384.091200
      8     11     12     1   109.8000471 387.438400
      8     11     13     1   109.8000471 387.438400
      9      8     11     1   110.5600475 386.601600
      9      8     10     1   109.7500473 328.025600
     10      8     11     1   110.5600475 386.601600
     11     23     24     1   109.5600471 388.275200
     11     23     25     1   109.5600471 388.275200
     12     11     23     1   109.8000471 387.438400
     12     11     13     1   107.5800459 329.699200
     13     11     23     1   109.8000471 387.438400
     14     26     27     1   109.5600471 388.275200
     14     26     28     1   109.5600471 388.275200
     15     14     26     1   109.8000471 387.438400
     15     14     16     1   107.5800459 329.699200
     16     14     26     1   109.8000471 387.438400
     17     20     21     1   109.5600471 388.275200
     17     20     22     1   109.5600471 388.275200
     18     17     20     1   109.8000471 387.438400
     18     17     19     1   107.5800459 329.699200
     19     17     20     1   109.8000471 387.438400
     21     20     58     1   109.7800468 425.094400
     21     20     22     1   108.4600466 328.025600
     22     20     58     1   109.7800468 425.094400
     24     23     88     1   109.7800468 425.094400
     24     23     25     1   108.4600466 328.025600
     25     23     88     1   109.7800468 425.094400
     27     26    118     1   109.7800468 425.094400
     27     26     28     1   108.4600466 328.025600
     28     26    118     1   109.7800468 425.094400
     30     31     32     1   108.0100461 406.684800
     30     31     33     1   108.0100461 406.684800
     30     34     35     1   108.0100461 406.684800
     30     34     36     1   108.0100461 406.684800
     30     37     38     1   108.0100461 406.684800
     30     37     39     1   108.0100461 406.684800
     31     30     59     1   110.1100470 384.091200
     31     43     44     1   109.8000471 387.438400
     31     43     45     1   109.8000471 387.438400
     32     31     43     1   110.5600475 386.601600
     32     31     33     1   109.7500473 328.025600
     33     31     43     1   110.5600475 386.601600
     34     30     59     1   110.1100470 384.091200
     34     46     47     1   109.8000471 387.438400
     34     46     48     1   109.8000471 387.438400
     35     34     46     1   110.5600475 386.601600
     35     34     36     1   109.7500473 328.025600
     36     34     46     1   110.5600475 386.601600
     37     30     59     1   110.1100470 384.091200
     37     40     41     1   109.8000471 387.438400
     37     40     42     1   109.8000471 387.438400
     38     37     40     1   110.5600475 386.601600
     38     37     39     1   109.7500473 328.025600
     39     37     40     1   110.5600475 386.601600
     40     49     50     1   109.5600471 388.275200
     40     49     51     1   109.5600471 388.275200
     41     40     49     1   109.8000471 387.438400
     41     40     42     1   107.5800459 329.699200
     42     40     49     1   109.8000471 387.438400
     43     55     56     1   109.5600471 388.275200
     43     55     57     1   109.5600471 388.275200
     44     43     55     1   109.8000471 387.438400
     44     43     45     1   107.5800459 329.699200
     45     43     55     1   109.8000471 387.438400
     46     52     53     1   109.5600471 388.275200
     46     52     54     1   109.5600471 388.275200
     47     46     52     1   109.8000471 387.438400
     47     46     48     1   107.5800459 329.699200
     48     46     52     1   109.8000471 387.438400
     50     49     58     1   109.7800468 425.094400
     50     49     51     1   108.4600466 328.025600
     51     49     58     1   109.7800468 425.094400
     53     52    148     1   109.7800468 425.094400
     53     52     54     1   108.4600466 328.025600
     54     52    148     1   109.7800468 425.094400
     56     55    178     1   109.7800468 425.094400
     56     55     57     1   108.4600466 328.025600
     57     55    178     1   109.7800468 425.094400
     60     61     62     1   108.0100461 406.684800
     60     61     63     1   108.0100461 406.684800
     60     64     65     1   108.0100461 406.684800
     60     64     66     1   108.0100461 406.684800
     60     67     68     1   108.0100461 406.684800
     60     67     69     1   108.0100461 406.684800
     61     60     89     1   110.1100470 384.091200
     61     73     74     1   109.8000471 387.438400
     61     73     75     1   109.8000471 387.438400
     62     61     73     1   110.5600475 386.601600
     62     61     63     1   109.7500473 328.025600
     63     61     73     1   110.5600475 386.601600
     64     60     89     1   110.1100470 384.091200
     64     76     77     1   109.8000471 387.438400
     64     76     78     1   109.8000471 387.438400
     65     64     76     1   110.5600475 386.601600
     65     64     66     1   109.7500473 328.025600
     66     64     76     1   110.5600475 386.601600
     67     60     89     1   110.1100470 384.091200
     67     70     71     1   109.8000471 387.438400
     67     70     72     1   109.8000471 387.438400
     68     67     70     1   110.5600475 386.601600
     68     67     69     1   109.7500473 328.025600
     69     67     70     1   110.5600475 386.601600
     70     79     80     1   109.5600471 388.275200
     70     79     81     1   109.5600471 388.275200
     71     70     79     1   109.8000471 387.438400
     71     70     72     1   107.5800459 329.699200
     72     70     79     1   109.8000471 387.438400
     73     85     86     1   109.5600471 388.275200
     73     85     87     1   109.5600471 388.275200
     74     73     85     1   109.8000471 387.438400
     74     73     75     1   107.5800459 329.699200
     75     73     85     1   109.8000471 387.438400
     76     82     83     1   109.5600471 388.275200
     76     82     84     1   109.5600471 388.275200
     77     76     82     1   109.8000471 387.438400
     77     76     78     1   107.5800459 329.699200
     78     76     82     1   109.8000471 387.438400
     80     79     88     1   109.7800468 425.094400
     80     79     81     1   108.4600466 328.025600
     81     79     88     1   109.7800468 425.094400
     83     82    208     1   109.7800468 425.094400
     83     82     84     1   108.4600466 328.025600
     84     82    208     1   109.7800468 425.094400
     86     85    238     1   109.7800468 425.094400
     86     85     87     1   108.4600466 328.025600
     87     85    238     1   109.7800468 425.094400
     90     91     92     1   108.0100461 406.684800
     90     91     93     1   108.0100461 406.684800
     90     94     95     1   108.0100461 406.684800
     90     94     96     1   108.0100461 406.684800
     90     97     98     1   108.0100461 406.684800
     90     97     99     1   108.0100461 406.684800
     91     90    119     1   110.1100470 384.091200
     91    103    104     1   109.8000471 387.438400
     91    103    105     1   109.8000471 387.438400
     92     91    103     1   110.5600475 386.601600
     92     91     93     1   109.7500473 328.025600
     93     91    103     1   110.5600475 386.601600
     94     90    119     1   110.1100470 384.091200
     94    106    107     1   109.8000471 387.438400
     94    106    108     1   109.8000471 387.438400
     95     94    106     1   110.5600475 386.601600
     95     94     96     1   109.7500473 328.025600
     96     94    106     1   110.5600475 386.601600
     97     90    119     1   110.1100470 384.091200
     97    100    101     1   109.8000471 387.438400
     97    100    102     1   109.8000471 387.438400
     98     97    100     1   110.5600475 386.601600
     98     97     99     1   109.7500473 328.025600
     99     97    100     1   110.5600475 386.601600
    100    109    110     1   109.5600471 388.275200
    100    109    111     1   109.5600471 388.275200
    101    100    109     1   109.8000471 387.438400
    101    100    102     1   107.5800459 329.699200
    102    100    109     1   109.8000471 387.438400
    103    115    116     1   109.5600471 388.275200
    103    115    117     1   109.5600471 388.275200
    104    103    115     1   109.8000471 387.438400
    104    103    105     1   107.5800459 329.699200
    105    103    115     1   109.8000471 387.438400
    106    112    113     1   109.5600471 388.275200
    106    112    114     1   109.5600471 388.275200
    107    106    112     1   109.8000471 387.438400
    107    106    108     1   107.5800459 329.699200
    108    106    112     1   109.8000471 387.438400
    110    109    118     1   109.7800468 425.094400
    110    109    111     1   108.4600466 328.025600
    111    109    118     1   109.7800468 425.094400
    113    112    268     1   109.7800468 425.094400
    113    112    114     1   108.4600466 328.025600
    114    112    268     1   109.7800468 425.094400
    116    115    298     1   109.7800468 425.094400
    116    115    117     1   108.4600466 328.025600
    117    115    298     1   109.7800468 425.094400
    120    121    122     1   108.0100461 406.684800
    120    121    123     1   108.0100461 406.684800
    120    124    125     1   108.0100461 406.684800
    120    124    126     1   108.0100461 406.684800
    120    127    128     1   108.0100461 406.684800
    120    127    129     1   108.0100461 406.684800
    121    120    149     1   110.1100470 384.091200
    121    133    134     1   109.8000471 387.438400
    121    133    135     1   109.8000471 387.438400
    122    121    133     1   110.5600475 386.601600
    122    121    123     1   109.7500473 328.025600
    123    121    133     1   110.5600475 386.601600
    124    120    149     1   110.1100470 384.091200
    124    136    137     1   109.8000471 387.438400
    124    136    138     1   109.8000471 387.438400
    125    124    136     1   110.5600475 386.601600
    125    124    126     1   109.7500473 328.025600
    126    124    136     1   110.5600475 386.601600
    127    120    149     1   110.1100470 384.091200
    127    130    131     1   109.8000471 387.438400
    127    130    132     1   109.8000471 387.438400
    128    127    130     1   110.5600475 386.601600
    128    127    129     1   109.7500473 328.025600
    129    127    130     1   110.5600475 386.601600
    130    139    140     1   109.5600471 388.275200
    130    139    141     1   109.5600471 388.275200
    131    130    139     1   109.8000471 387.438400
    131    130    132     1   107.5800459 329.699200
    132    130    139     1   109.8000471 387.438400
    133    145    146     1   109.5600471 388.275200
    133    145    147     1   109.5600471 388.275200
    134    133    145     1   109.8000471 387.438400
    134    133    135     1   107.5800459 329.699200
    135    133    145     1   109.8000471 387.438400
    136    142    143     1   109.5600471 388.275200
    136    142    144     1   109.5600471 388.275200
    137    136    142     1   109.8000471 387.438400
    137    136    138     1   107.5800459 329.699200
    138    136    142     1   109.8000471 387.438400
    140    139    148     1   109.7800468 425.094400
    140    139    141     1   108.4600466 328.025600
    141    139    148     1   109.7800468 425.094400
    143    142    328     1   109.7800468 425.094400
    143    142    144     1   108.4600466 328.025600
    144    142    328     1   109.7800468 425.094400
    146    145    358     1   109.7800468 425.094400
    146    145    147     1   108.4600466 328.025600
    147    145    358     1   109.7800468 425.094400
    150    151    152     1   108.0100461 406.684800
    150    151    153     1   108.0100461 406.684800
    150    154    155     1   108.0100461 406.684800
    150    154    156     1   108.0100461 406.684800
    150    157    158     1   108.0100461 406.684800
    150    157    159     1   108.0100461 406.684800
    151    150    179     1   110.1100470 384.091200
    151    163    164     1   109.8000471 387.438400
    151    163    165     1   109.8000471 387.438400
    152    151    163     1   110.5600475 386.601600
    152    151    153     1   109.7500473 328.025600
    153    151    163     1   110.5600475 386.601600
    154    150    179     1   110.1100470 384.091200
    154    166    167     1   109.8000471 387.438400
    154    166    168     1   109.8000471 387.438400
    155    154    166     1   110.5600475 386.601600
    155    154    156     1   109.7500473 328.025600
    156    154    166     1   110.5600475 386.601600
    157    150    179     1   110.1100470 384.091200
    157    160    161     1   109.8000471 387.438400
    157    160    162     1   109.8000471 387.438400
    158    157    160     1   110.5600475 386.601600
    158    157    159     1   109.7500473 328.025600
    159    157    160     1   110.5600475 386.601600
    160    169    170     1   109.5600471 388.275200
    160    169    171     1   109.5600471 388.275200
    161    160    169     1   109.8000471 387.438400
    161    160    162     1   107.5800459 329.699200
    162    160    169     1   109.8000471 387.438400
    163    175    176     1   109.5600471 388.275200
    163    175    177     1   109.5600471 388.275200
    164    163    175     1   109.8000471 387.438400
    164    163    165     1   107.5800459 329.699200
    165    163    175     1   109.8000471 387.438400
    166    172    173     1   109.5600471 388.275200
    166    172    174     1   109.5600471 388.275200
    167    166    172     1   109.8000471 387.438400
    167    166    168     1   107.5800459 329.699200
    168    166    172     1   109.8000471 387.438400
    170    169    178     1   109.7800468 425.094400
    170    169    171     1   108.4600466 328.025600
    171    169    178     1   109.7800468 425.094400
    173    172    388     1   109.7800468 425.094400
    173    172    174     1   108.4600466 328.025600
    174    172    388     1   109.7800468 425.094400
    176    175    418     1   109.7800468 425.094400
    176    175    177     1   108.4600466 328.025600
    177    175    418     1   109.7800468 425.094400
    180    181    182     1   108.0100461 406.684800
    180    181    183     1   108.0100461 406.684800
    180    184    185     1   108.0100461 406.684800
    180    184    186     1   108.0100461 406.684800
    180    187    188     1   108.0100461 406.684800
    180    187    189     1   108.0100461 406.684800
    181    180    209     1   110.1100470 384.091200
    181    193    194     1   109.8000471 387.438400
    181    193    195     1   109.8000471 387.438400
    182    181    193     1   110.5600475 386.601600
    182    181    183     1   109.7500473 328.025600
    183    181    193     1   110.5600475 386.601600
    184    180    209     1   110.1100470 384.091200
    184    196    197     1   109.8000471 387.438400
    184    196    198     1   109.8000471 387.438400
    185    184    196     1   110.5600475 386.601600
    185    184    186     1   109.7500473 328.025600
    186    184    196     1   110.5600475 386.601600
    187    180    209     1   110.1100470 384.091200
    187    190    191     1   109.8000471 387.438400
    187    190    192     1   109.8000471 387.438400
    188    187    190     1   110.5600475 386.601600
    188    187    189     1   109.7500473 328.025600
    189    187    190     1   110.5600475 386.601600
    190    199    200     1   109.5600471 388.275200
    190    199    201     1   109.5600471 388.275200
    191    190    199     1   109.8000471 387.438400
    191    190    192     1   107.5800459 329.699200
    192    190    199     1   109.8000471 387.438400
    193    205    206     1   109.5600471 388.275200
    193    205    207     1   109.5600471 388.275200
    194    193    205     1   109.8000471 387.438400
    194    193    195     1   107.5800459 329.699200
    195    193    205     1   109.8000471 387.438400
    196    202    203     1   109.5600471 388.275200
    196    202    204     1   109.5600471 388.275200
    197    196    202     1   109.8000471 387.438400
    197    196    198     1   107.5800459 329.699200
    198    196    202     1   109.8000471 387.438400
    200    199    208     1   109.7800468 425.094400
    200    199    201     1   108.4600466 328.025600
    201    199    208     1   109.7800468 425.094400
    203    202    448     1   109.7800468 425.094400
    203    202    204     1   108.4600466 328.025600
    204    202    448     1   109.7800468 425.094400
    206    205    478     1   109.7800468 425.094400
    206    205    207     1   108.4600466 328.025600
    207    205    478     1   109.7800468 425.094400
    210    211    212     1   108.0100461 406.684800
    210    211    213     1   108.0100461 406.684800
    210    214    215     1   108.0100461 406.684800
    210    214    216     1   108.0100461 406.684800
    210    217    218     1   108.0100461 406.684800
    210    217    219     1   108.0100461 406.684800
    211    210    239     1   110.1100470 384.091200
    211    223    224     1   109.8000471 387.438400
    211    223    225     1   109.8000471 387.438400
    212    211    223     1   110.5600475 386.601600
    212    211    213     1   109.7500473 328.025600
    213    211    223     1   110.5600475 386.601600
    214    210    239     1   110.1100470 384.091200
    214    226    227     1   109.8000471 387.438400
    214    226    228     1   109.8000471 387.438400
    215    214    226     1   110.5600475 386.601600
    215    214    216     1   109.7500473 328.025600
    216    214    226     1   110.5600475 386.601600
    217    210    239     1   110.1100470 384.091200
    217    220    221     1   109.8000471 387.438400
    217    220    222     1   109.8000471 387.438400
    218    217    220     1   110.5600475 386.601600
    218    217    219     1   109.7500473 328.025600
    219    217    220     1   110.5600475 386.601600
    220    229    230     1   109.5600471 388.275200
    220    229    231     1   109.5600471 388.275200
    221    220    229     1   109.8000471 387.438400
    221    220    222     1   107.5800459 329.699200
    222    220    229     1   109.8000471 387.438400
    223    235    236     1   109.5600471 388.275200
    223    235    237     1   109.5600471 388.275200
    224    223    235     1   109.8000471 387.438400
    224    223    225     1   107.5800459 329.699200
    225    223    235     1   109.8000471 387.438400
    226    232    233     1   109.5600471 388.275200
    226    232    234     1   109.5600471 388.275200
    227    226    232     1   109.8000471 387.438400
    227    226    228     1   107.5800459 329.699200
    228    226    232     1   109.8000471 387.438400
    230    229    238     1   109.7800468 425.094400
    230    229    231     1   108.4600466 328.025600
    231    229    238     1   109.7800468 425.094400
    233    232    508     1   109.7800468 425.094400
    233    232    234     1   108.4600466 328.025600
    234    232    508     1   109.7800468 425.094400
    236    235    538     1   109.7800468 425.094400
    236    235    237     1   108.4600466 328.025600
    237    235    538     1   109.7800468 425.094400
    240    241    242     1   108.0100461 406.684800
    240    241    243     1   108.0100461 406.684800
    240    244    245     1   108.0100461 406.684800
    240    244    246     1   108.0100461 406.684800
    240    247    248     1   108.0100461 406.684800
    240    247    249     1   108.0100461 406.684800
    241    240    269     1   110.1100470 384.091200
    241    253    254     1   109.8000471 387.438400
    241    253    255     1   109.8000471 387.438400
    242    241    253     1   110.5600475 386.601600
    242    241    243     1   109.7500473 328.025600
    243    241    253     1   110.5600475 386.601600
    244    240    269     1   110.1100470 384.091200
    244    256    257     1   109.8000471 387.438400
    244    256    258     1   109.8000471 387.438400
    245    244    256     1   110.5600475 386.601600
    245    244    246     1   109.7500473 328.025600
    246    244    256     1   110.5600475 386.601600
    247    240    269     1   110.1100470 384.091200
    247    250    251     1   109.8000471 387.438400
    247    250    252     1   109.8000471 387.438400
    248    247    250     1   110.5600475 386.601600
    248    247    249     1   109.7500473 328.025600
    249    247    250     1   110.5600475 386.601600
    250    259    260     1   109.5600471 388.275200
    250    259    261     1   109.5600471 388.275200
    251    250    259     1   109.8000471 387.438400
    251    250    252     1   107.5800459 329.699200
    252    250    259     1   109.8000471 387.438400
    253    265    266     1   109.5600471 388.275200
    253    265    267     1   109.5600471 388.275200
    254    253    265     1   109.8000471 387.438400
    254    253    255     1   107.5800459 329.699200
    255    253    265     1   109.8000471 387.438400
    256    262    263     1   109.5600471 388.275200
    256    262    264     1   109.5600471 388.275200
    257    256    262     1   109.8000471 387.438400
    257    256    258     1   107.5800459 329.699200
    258    256    262     1   109.8000471 387.438400
    260    259    268     1   109.7800468 425.094400
    260    259    261     1   108.4600466 328.025600
    261    259    268     1   109.7800468 425.094400
    263    262    568     1   109.7800468 425.094400
    263    262    264     1   108.4600466 328.025600
    264    262    568     1   109.7800468 425.094400
    266    265    598     1   109.7800468 425.094400
    266    265    267     1   108.4600466 328.025600
    267    265    598     1   109.7800468 425.094400
    270    271    272     1   108.0100461 406.684800
    270    271    273     1   108.0100461 406.684800
    270    274    275     1   108.0100461 406.684800
    270    274    276     1   108.0100461 406.684800
    270    277    278     1   108.0100461 406.684800
    270    277    279     1   108.0100461 406.684800
    271    270    299     1   110.1100470 384.091200
    271    283    284     1   109.8000471 387.438400
    271    283    285     1   109.8000471 387.438400
    272    271    283     1   110.5600475 386.601600
    272    271    273     1   109.7500473 328.025600
    273    271    283     1   110.5600475 386.601600
    274    270    299     1   110.1100470 384.091200
    274    286    287     1   109.8000471 387.438400
    274    286    288     1   109.8000471 387.438400
    275    274    286     1   110.5600475 386.601600
    275    274    276     1   109.7500473 328.025600
    276    274    286     1   110.5600475 386.601600
    277    270    299     1   110.1100470 384.091200
    277    280    281     1   109.8000471 387.438400
    277    280    282     1   109.8000471 387.438400
    278    277    280     1   110.5600475 386.601600
    278    277    279     1   109.7500473 328.025600
    279    277    280     1   110.5600475 386.601600
    280    289    290     1   109.5600471 388.275200
    280    289    291     1   109.5600471 388.275200
    281    280    289     1   109.8000471 387.438400
    281    280    282     1   107.5800459 329.699200
    282    280    289     1   109.8000471 387.438400
    283    295    296     1   109.5600471 388.275200
    283    295    297     1   109.5600471 388.275200
    284    283    295     1   109.8000471 387.438400
    284    283    285     1   107.5800459 329.699200
    285    283    295     1   109.8000471 387.438400
    286    292    293     1   109.5600471 388.275200
    286    292    294     1   109.5600471 388.275200
    287    286    292     1   109.8000471 387.438400
    287    286    288     1   107.5800459 329.699200
    288    286    292     1   109.8000471 387.438400
    290    289    298     1   109.7800468 425.094400
    290    289    291     1   108.4600466 328.025600
    291    289    298     1   109.7800468 425.094400
    293    292    628     1   109.7800468 425.094400
    293    292    294     1   108.4600466 328.025600
    294    292    628     1   109.7800468 425.094400
    296    295    658     1   109.7800468 425.094400
    296    295    297     1   108.4600466 328.025600
    297    295    658     1   109.7800468 425.094400
    300    301    302     1   108.0100461 406.684800
    300    301    303     1   108.0100461 406.684800
    300    304    305     1   108.0100461 406.684800
    300    304    306     1   108.0100461 406.684800
    300    307    308     1   108.0100461 406.684800
    300    307    309     1   108.0100461 406.684800
    301    300    329     1   110.1100470 384.091200
    301    313    314     1   109.8000471 387.438400
    301    313    315     1   109.8000471 387.438400
    302    301    313     1   110.5600475 386.601600
    302    301    303     1   109.7500473 328.025600
    303    301    313     1   110.5600475 386.601600
    304    300    329     1   110.1100470 384.091200
    304    316    317     1   109.8000471 387.438400
    304    316    318     1   109.8000471 387.438400
    305    304    316     1   110.5600475 386.601600
    305    304    306     1   109.7500473 328.025600
    306    304    316     1   110.5600475 386.601600
    307    300    329     1   110.1100470 384.091200
    307    310    311     1   109.8000471 387.438400
    307    310    312     1   109.8000471 387.438400
    308    307    310     1   110.5600475 386.601600
    308    307    309     1   109.7500473 328.025600
    309    307    310     1   110.5600475 386.601600
    310    319    320     1   109.5600471 388.275200
    310    319    321     1   109.5600471 388.275200
    311    310    319     1   109.8000471 387.438400
    311    310    312     1   107.5800459 329.699200
    312    310    319     1   109.8000471 387.438400
    313    325    326     1   109.5600471 388.275200
    313    325    327     1   109.5600471 388.275200
    314    313    325     1   109.8000471 387.438400
    314    313    315     1   107.5800459 329.699200
    315    313    325     1   109.8000471 387.438400
    316    322    323     1   109.5600471 388.275200
    316    322    324     1   109.5600471 388.275200
    317    316    322     1   109.8000471 387.438400
    317    316    318     1   107.5800459 329.699200
    318    316    322     1   109.8000471 387.438400
    320    319    328     1   109.7800468 425.094400
    320    319    321     1   108.4600466 328.025600
    321    319    328     1   109.7800468 425.094400
    323    322    688     1   109.7800468 425.094400
    323    322    324     1   108.4600466 328.025600
    324    322    688     1   109.7800468 425.094400
    326    325    718     1   109.7800468 425.094400
    326    325    327     1   108.4600466 328.025600
    327    325    718     1   109.7800468 425.094400
    330    331    332     1   108.0100461 406.684800
    330    331    333     1   108.0100461 406.684800
    330    334    335     1   108.0100461 406.684800
    330    334    336     1   108.0100461 406.684800
    330    337    338     1   108.0100461 406.684800
    330    337    339     1   108.0100461 406.684800
    331    330    359     1   110.1100470 384.091200
    331    343    344     1   109.8000471 387.438400
    331    343    345     1   109.8000471 387.438400
    332    331    343     1   110.5600475 386.601600
    332    331    333     1   109.7500473 328.025600
    333    331    343     1   110.5600475 386.601600
    334    330    359     1   110.1100470 384.091200
    334    346    347     1   109.8000471 387.438400
    334    346    348     1   109.8000471 387.438400
    335    334    346     1   110.5600475 386.601600
    335    334    336     1   109.7500473 328.025600
    336    334    346     1   110.5600475 386.601600
    337    330    359     1   110.1100470 384.091200
    337    340    341     1   109.8000471 387.438400
    337    340    342     1   109.8000471 387.438400
    338    337    340     1   110.5600475 386.601600
    338    337    339     1   109.7500473 328.025600
    339    337    340     1   110.5600475 386.601600
    340    349    350     1   109.5600471 388.275200
    340    349    351     1   109.5600471 388.275200
    341    340    349     1   109.8000471 387.438400
    341    340    342     1   107.5800459 329.699200
    342    340    349     1   109.8000471 387.438400
    343    355    356     1   109.5600471 388.275200
    343    355    357     1   109.5600471 388.275200
    344    343    355     1   109.8000471 387.438400
    344    343    345     1   107.5800459 329.699200
    345    343    355     1   109.8000471 387.438400
    346    352    353     1   109.5600471 388.275200
    346    352    354     1   109.5600471 388.275200
    347    346    352     1   109.8000471 387.438400
    347    346    348     1   107.5800459 329.699200
    348    346    352     1   109.8000471 387.438400
    350    349    358     1   109.7800468 425.094400
    350    349    351     1   108.4600466 328.025600
    351    349    358     1   109.7800468 425.094400
    353    352    748     1   109.7800468 425.094400
    353    352    354     1   108.4600466 328.025600
    354    352    748     1   109.7800468 425.094400
    356    355    778     1   109.7800468 425.094400
    356    355    357     1   108.4600466 328.025600
    357    355    778     1   109.7800468 425.094400
    360    361    362     1   108.0100461 406.684800
    360    361    363     1   108.0100461 406.684800
    360    364    365     1   108.0100461 406.684800
    360    364    366     1   108.0100461 406.684800
    360    367    368     1   108.0100461 406.684800
    360    367    369     1   108.0100461 406.684800
    361    360    389     1   110.1100470 384.091200
    361    373    374     1   109.8000471 387.438400
    361    373    375     1   109.8000471 387.438400
    362    361    373     1   110.5600475 386.601600
    362    361    363     1   109.7500473 328.025600
    363    361    373     1   110.5600475 386.601600
    364    360    389     1   110.1100470 384.091200
    364    376    377     1   109.8000471 387.438400
    364    376    378     1   109.8000471 387.438400
    365    364    376     1   110.5600475 386.601600
    365    364    366     1   109.7500473 328.025600
    366    364    376     1   110.5600475 386.601600
    367    360    389     1   110.1100470 384.091200
    367    370    371     1   109.8000471 387.438400
    367    370    372     1   109.8000471 387.438400
    368    367    370     1   110.5600475 386.601600
    368    367    369     1   109.7500473 328.025600
    369    367    370     1   110.5600475 386.601600
    370    379    380     1   109.5600471 388.275200
    370    379    381     1   109.5600471 388.275200
    371    370    379     1   109.8000471 387.438400
    371    370    372     1   107.5800459 329.699200
    372    370    379     1   109.8000471 387.438400
    373    385    386     1   109.5600471 388.275200
    373    385    387     1   109.5600471 388.275200
    374    373    385     1   109.8000471 387.438400
    374    373    375     1   107.5800459 329.699200
    375    373    385     1   109.8000471 387.438400
    376    382    383     1   109.5600471 388.275200
    376    382    384     1   109.5600471 388.275200
    377    376    382     1   109.8000471 387.438400
    377    376    378     1   107.5800459 329.699200
    378    376    382     1   109.8000471 387.438400
    380    379    388     1   109.7800468 425.094400
    380    379    381     1   108.4600466 328.025600
    381    379    388     1   109.7800468 425.094400
    383    382    808     1   109.7800468 425.094400
    383    382    384     1   108.4600466 328.025600
    384    382    808     1   109.7800468 425.094400
    386    385    838     1   109.7800468 425.094400
    386    385    387     1   108.4600466 328.025600
    387    385    838     1   109.7800468 425.094400
    390    391    392     1   108.0100461 406.684800
    390    391    393     1   108.0100461 406.684800
    390    394    395     1   108.0100461 406.684800
    390    394    396     1   108.0100461 406.684800
    390    397    398     1   108.0100461 406.684800
    390    397    399     1   108.0100461 406.684800
    391    390    419     1   110.1100470 384.091200
    391    403    404     1   109.8000471 387.438400
    391    403    405     1   109.8000471 387.438400
    392    391    403     1   110.5600475 386.601600
    392    391    393     1   109.7500473 328.025600
    393    391    403     1   110.5600475 386.601600
    394    390    419     1   110.1100470 384.091200
    394    406    407     1   109.8000471 387.438400
    394    406    408     1   109.8000471 387.438400
    395    394    406     1   110.5600475 386.601600
    395    394    396     1   109.7500473 328.025600
    396    394    406     1   110.5600475 386.601600
    397    390    419     1   110.1100470 384.091200
    397    400    401     1   109.8000471 387.438400
    397    400    402     1   109.8000471 387.438400
    398    397    400     1   110.5600475 386.601600
    398    397    399     1   109.7500473 328.025600
    399    397    400     1   110.5600475 386.601600
    400    409    410     1   109.5600471 388.275200
    400    409    411     1   109.5600471 388.275200
    401    400    409     1   109.8000471 387.438400
    401    400    402     1   107.5800459 329.699200
    402    400    409     1   109.8000471 387.438400
    403    415    416     1   109.5600471 388.275200
    403    415    417     1   109.5600471 388.275200
    404    403    415     1   109.8000471 387.438400
    404    403    405     1   107.5800459 329.699200
    405    403    415     1   109.8000471 387.438400
    406    412    413     1   109.5600471 388.275200
    406    412    414     1   109.5600471 388.275200
    407    406    412     1   109.8000471 387.438400
    407    406    408     1   107.5800459 329.699200
    408    406    412     1   109.8000471 387.438400
    410    409    418     1   109.7800468 425.094400
    410    409    411     1   108.4600466 328.025600
    411    409    418     1   109.7800468 425.094400
    413    412    868     1   109.7800468 425.094400
    413    412    414     1   108.4600466 328.025600
    414    412    868     1   109.7800468 425.094400
    416    415    898     1   109.7800468 425.094400
    416    415    417     1   108.4600466 328.025600
    417    415    898     1   109.7800468 425.094400
    420    421    422     1   108.0100461 406.684800
    420    421    423     1   108.0100461 406.684800
    420    424    425     1   108.0100461 406.684800
    420    424    426     1   108.0100461 406.684800
    420    427    428     1   108.0100461 406.684800
    420    427    429     1   108.0100461 406.684800
    421    420    449     1   110.1100470 384.091200
    421    433    434     1   109.8000471 387.438400
    421    433    435     1   109.8000471 387.438400
    422    421    433     1   110.5600475 386.601600
    422    421    423     1   109.7500473 328.025600
    423    421    433     1   110.5600475 386.601600
    424    420    449     1   110.1100470 384.091200
    424    436    437     1   109.8000471 387.438400
    424    436    438     1   109.8000471 387.438400
    425    424    436     1   110.5600475 386.601600
    425    424    426     1   109.7500473 328.025600
    426    424    436     1   110.5600475 386.601600
    427    420    449     1   110.1100470 384.091200
    427    430    431     1   109.8000471 387.438400
    427    430    432     1   109.8000471 387.438400
    428    427    430     1   110.5600475 386.601600
    428    427    429     1   109.7500473 328.025600
    429    427    430     1   110.5600475 386.601600
    430    439    440     1   109.5600471 388.275200
    430    439    441     1   109.5600471 388.275200
    431    430    439     1   109.8000471 387.438400
    431    430    432     1   107.5800459 329.699200
    432    430    439     1   109.8000471 387.438400
    433    445    446     1   109.5600471 388.275200
    433    445    447     1   109.5600471 388.275200
    434    433    445     1   109.8000471 387.438400
    434    433    435     1   107.5800459 329.699200
    435    433    445     1   109.8000471 387.438400
    436    442    443     1   109.5600471 388.275200
    436    442    444     1   109.5600471 388.275200
    437    436    442     1   109.8000471 387.438400
    437    436    438     1   107.5800459 329.699200
    438    436    442     1   109.8000471 387.438400
    440    439    448     1   109.7800468 425.094400
    440    439    441     1   108.4600466 328.025600
    441    439    448     1   109.7800468 425.094400
    443    442    928     1   109.7800468 425.094400
    443    442    444     1   108.4600466 328.025600
    444    442    928     1   109.7800468 425.094400
    446    445    958     1   109.7800468 425.094400
    446    445    447     1   108.4600466 328.025600
    447    445    958     1   109.7800468 425.094400
    450    451    452     1   108.0100461 406.684800
    450    451    453     1   108.0100461 406.684800
    450    454    455     1   108.0100461 406.684800
    450    454    456     1   108.0100461 406.684800
    450    457    458     1   108.0100461 406.684800
    450    457    459     1   108.0100461 406.684800
    451    450    479     1   110.1100470 384.091200
    451    463    464     1   109.8000471 387.438400
    451    463    465     1   109.8000471 387.438400
    452    451    463     1   110.5600475 386.601600
    452    451    453     1   109.7500473 328.025600
    453    451    463     1   110.5600475 386.601600
    454    450    479     1   110.1100470 384.091200
    454    466    467     1   109.8000471 387.438400
    454    466    468     1   109.8000471 387.438400
    455    454    466     1   110.5600475 386.601600
    455    454    456     1   109.7500473 328.025600
    456    454    466     1   110.5600475 386.601600
    457    450    479     1   110.1100470 384.091200
    457    460    461     1   109.8000471 387.438400
    457    460    462     1   109.8000471 387.438400
    458    457    460     1   110.5600475 386.601600
    458    457    459     1   109.7500473 328.025600
    459    457    460     1   110.5600475 386.601600
    460    469    470     1   109.5600471 388.275200
    460    469    471     1   109.5600471 388.275200
    461    460    469     1   109.8000471 387.438400
    461    460    462     1   107.5800459 329.699200
    462    460    469     1   109.8000471 387.438400
    463    475    476     1   109.5600471 388.275200
    463    475    477     1   109.5600471 388.275200
    464    463    475     1   109.8000471 387.438400
    464    463    465     1   107.5800459 329.699200
    465    463    475     1   109.8000471 387.438400
    466    472    473     1   109.5600471 388.275200
    466    472    474     1   109.5600471 388.275200
    467    466    472     1   109.8000471 387.438400
    467    466    468     1   107.5800459 329.699200
    468    466    472     1   109.8000471 387.438400
    470    469    478     1   109.7800468 425.094400
    470    469    471     1   108.4600466 328.025600
    471    469    478     1   109.7800468 425.094400
    473    472    988     1   109.7800468 425.094400
    473    472    474     1   108.4600466 328.025600
    474    472    988     1   109.7800468 425.094400
    476    475   1018     1   109.7800468 425.094400
    476    475    477     1   108.4600466 328.025600
    477    475   1018     1   109.7800468 425.094400
    480    481    482     1   108.0100461 406.684800
    480    481    483     1   108.0100461 406.684800
    480    484    485     1   108.0100461 406.684800
    480    484    486     1   108.0100461 406.684800
    480    487    488     1   108.0100461 406.684800
    480    487    489     1   108.0100461 406.684800
    481    480    509     1   110.1100470 384.091200
    481    493    494     1   109.8000471 387.438400
    481    493    495     1   109.8000471 387.438400
    482    481    493     1   110.5600475 386.601600
    482    481    483     1   109.7500473 328.025600
    483    481    493     1   110.5600475 386.601600
    484    480    509     1   110.1100470 384.091200
    484    496    497     1   109.8000471 387.438400
    484    496    498     1   109.8000471 387.438400
    485    484    496     1   110.5600475 386.601600
    485    484    486     1   109.7500473 328.025600
    486    484    496     1   110.5600475 386.601600
    487    480    509     1   110.1100470 384.091200
    487    490    491     1   109.8000471 387.438400
    487    490    492     1   109.8000471 387.438400
    488    487    490     1   110.5600475 386.601600
    488    487    489     1   109.7500473 328.025600
    489    487    490     1   110.5600475 386.601600
    490    499    500     1   109.5600471 388.275200
    490    499    501     1   109.5600471 388.275200
    491    490    499     1   109.8000471 387.438400
    491    490    492     1   107.5800459 329.699200
    492    490    499     1   109.8000471 387.438400
    493    505    506     1   109.5600471 388.275200
    493    505    507     1   109.5600471 388.275200
    494    493    505     1   109.8000471 387.438400
    494    493    495     1   107.5800459 329.699200
    495    493    505     1   109.8000471 387.438400
    496    502    503     1   109.5600471 388.275200
    496    502    504     1   109.5600471 388.275200
    497    496    502     1   109.8000471 387.438400
    497    496    498     1   107.5800459 329.699200
    498    496    502     1   109.8000471 387.438400
    500    499    508     1   109.7800468 425.094400
    500    499    501     1   108.4600466 328.025600
    501    499    508     1   109.7800468 425.094400
    503    502   1048     1   109.7800468 425.094400
    503    502    504     1   108.4600466 328.025600
    504    502   1048     1   109.7800468 425.094400
    506    505   1078     1   109.7800468 425.094400
    506    505    507     1   108.4600466 328.025600
    507    505   1078     1   109.7800468 425.094400
    510    511    512     1   108.0100461 406.684800
    510    511    513     1   108.0100461 406.684800
    510    514    515     1   108.0100461 406.684800
    510    514    516     1   108.0100461 406.684800
    510    517    518     1   108.0100461 406.684800
    510    517    519     1   108.0100461 406.684800
    511    510    539     1   110.1100470 384.091200
    511    523    524     1   109.8000471 387.438400
    511    523    525     1   109.8000471 387.438400
    512    511    523     1   110.5600475 386.601600
    512    511    513     1   109.7500473 328.025600
    513    511    523     1   110.5600475 386.601600
    514    510    539     1   110.1100470 384.091200
    514    526    527     1   109.8000471 387.438400
    514    526    528     1   109.8000471 387.438400
    515    514    526     1   110.5600475 386.601600
    515    514    516     1   109.7500473 328.025600
    516    514    526     1   110.5600475 386.601600
    517    510    539     1   110.1100470 384.091200
    517    520    521     1   109.8000471 387.438400
    517    520    522     1   109.8000471 387.438400
    518    517    520     1   110.5600475 386.601600
    518    517    519     1   109.7500473 328.025600
    519    517    520     1   110.5600475 386.601600
    520    529    530     1   109.5600471 388.275200
    520    529    531     1   109.5600471 388.275200
    521    520    529     1   109.8000471 387.438400
    521    520    522     1   107.5800459 329.699200
    522    520    529     1   109.8000471 387.438400
    523    535    536     1   109.5600471 388.275200
    523    535    537     1   109.5600471 388.275200
    524    523    535     1   109.8000471 387.438400
    524    523    525     1   107.5800459 329.699200
    525    523    535     1   109.8000471 387.438400
    526    532    533     1   109.5600471 388.275200
    526    532    534     1   109.5600471 388.275200
    527    526    532     1   109.8000471 387.438400
    527    526    528     1   107.5800459 329.699200
    528    526    532     1   109.8000471 387.438400
    530    529    538     1   109.7800468 425.094400
    530    529    531     1   108.4600466 328.025600
    531    529    538     1   109.7800468 425.094400
    533    532   1108     1   109.7800468 425.094400
    533    532    534     1   108.4600466 328.025600
    534    532   1108     1   109.7800468 425.094400
    536    535   1138     1   109.7800468 425.094400
    536    535    537     1   108.4600466 328.025600
    537    535   1138     1   109.7800468 425.094400
    540    541    542     1   108.0100461 406.684800
    540    541    543     1   108.0100461 406.684800
    540    544    545     1   108.0100461 406.684800
    540    544    546     1   108.0100461 406.684800
    540    547    548     1   108.0100461 406.684800
    540    547    549     1   108.0100461 406.684800
    541    540    569     1   110.1100470 384.091200
    541    553    554     1   109.8000471 387.438400
    541    553    555     1   109.8000471 387.438400
    542    541    553     1   110.5600475 386.601600
    542    541    543     1   109.7500473 328.025600
    543    541    553     1   110.5600475 386.601600
    544    540    569     1   110.1100470 384.091200
    544    556    557     1   109.8000471 387.438400
    544    556    558     1   109.8000471 387.438400
    545    544    556     1   110.5600475 386.601600
    545    544    546     1   109.7500473 328.025600
    546    544    556     1   110.5600475 386.601600
    547    540    569     1   110.1100470 384.091200
    547    550    551     1   109.8000471 387.438400
    547    550    552     1   109.8000471 387.438400
    548    547    550     1   110.5600475 386.601600
    548    547    549     1   109.7500473 328.025600
    549    547    550     1   110.5600475 386.601600
    550    559    560     1   109.5600471 388.275200
    550    559    561     1   109.5600471 388.275200
    551    550    559     1   109.8000471 387.438400
    551    550    552     1   107.5800459 329.699200
    552    550    559     1   109.8000471 387.438400
    553    565    566     1   109.5600471 388.275200
    553    565    567     1   109.5600471 388.275200
    554    553    565     1   109.8000471 387.438400
    554    553    555     1   107.5800459 329.699200
    555    553    565     1   109.8000471 387.438400
    556    562    563     1   109.5600471 388.275200
    556    562    564     1   109.5600471 388.275200
    557    556    562     1   109.8000471 387.438400
    557    556    558     1   107.5800459 329.699200
    558    556    562     1   109.8000471 387.438400
    560    559    568     1   109.7800468 425.094400
    560    559    561     1   108.4600466 328.025600
    561    559    568     1   109.7800468 425.094400
    563    562   1168     1   109.7800468 425.094400
    563    562    564     1   108.4600466 328.025600
    564    562   1168     1   109.7800468 425.094400
    566    565   1198     1   109.7800468 425.094400
    566    565    567     1   108.4600466 328.025600
    567    565   1198     1   109.7800468 425.094400
    570    571    572     1   108.0100461 406.684800
    570    571    573     1   108.0100461 406.684800
    570    574    575     1   108.0100461 406.684800
    570    574    576     1   108.0100461 406.684800
    570    577    578     1   108.0100461 406.684800
    570    577    579     1   108.0100461 406.684800
    571    570    599     1   110.1100470 384.091200
    571    583    584     1   109.8000471 387.438400
    571    583    585     1   109.8000471 387.438400
    572    571    583     1   110.5600475 386.601600
    572    571    573     1   109.7500473 328.025600
    573    571    583     1   110.5600475 386.601600
    574    570    599     1   110.1100470 384.091200
    574    586    587     1   109.8000471 387.438400
    574    586    588     1   109.8000471 387.438400
    575    574    586     1   110.5600475 386.601600
    575    574    576     1   109.7500473 328.025600
    576    574    586     1   110.5600475 386.601600
    577    570    599     1   110.1100470 384.091200
    577    580    581     1   109.8000471 387.438400
    577    580    582     1   109.8000471 387.438400
    578    577    580     1   110.5600475 386.601600
    578    577    579     1   109.7500473 328.025600
    579    577    580     1   110.5600475 386.601600
    580    589    590     1   109.5600471 388.275200
    580    589    591     1   109.5600471 388.275200
    581    580    589     1   109.8000471 387.438400
    581    580    582     1   107.5800459 329.699200
    582    580    589     1   109.8000471 387.438400
    583    595    596     1   109.5600471 388.275200
    583    595    597     1   109.5600471 388.275200
    584    583    595     1   109.8000471 387.438400
    584    583    585     1   107.5800459 329.699200
    585    583    595     1   109.8000471 387.438400
    586    592    593     1   109.5600471 388.275200
    586    592    594     1   109.5600471 388.275200
    587    586    592     1   109.8000471 387.438400
    587    586    588     1   107.5800459 329.699200
    588    586    592     1   109.8000471 387.438400
    590    589    598     1   109.7800468 425.094400
    590    589    591     1   108.4600466 328.025600
    591    589    598     1   109.7800468 425.094400
    593    592   1228     1   109.7800468 425.094400
    593    592    594     1   108.4600466 328.025600
    594    592   1228     1   109.7800468 425.094400
    596    595   1258     1   109.7800468 425.094400
    596    595    597     1   108.4600466 328.025600
    597    595   1258     1   109.7800468 425.094400
    600    601    602     1   108.0100461 406.684800
    600    601    603     1   108.0100461 406.684800
    600    604    605     1   108.0100461 406.684800
    600    604    606     1   108.0100461 406.684800
    600    607    608     1   108.0100461 406.684800
    600    607    609     1   108.0100461 406.684800
    601    600    629     1   110.1100470 384.091200
    601    613    614     1   109.8000471 387.438400
    601    613    615     1   109.8000471 387.438400
    602    601    613     1   110.5600475 386.601600
    602    601    603     1   109.7500473 328.025600
    603    601    613     1   110.5600475 386.601600
    604    600    629     1   110.1100470 384.091200
    604    616    617     1   109.8000471 387.438400
    604    616    618     1   109.8000471 387.438400
    605    604    616     1   110.5600475 386.601600
    605    604    606     1   109.7500473 328.025600
    606    604    616     1   110.5600475 386.601600
    607    600    629     1   110.1100470 384.091200
    607    610    611     1   109.8000471 387.438400
    607    610    612     1   109.8000471 387.438400
    608    607    610     1   110.5600475 386.601600
    608    607    609     1   109.7500473 328.025600
    609    607    610     1   110.5600475 386.601600
    610    619    620     1   109.5600471 388.275200
    610    619    621     1   109.5600471 388.275200
    611    610    619     1   109.8000471 387.438400
    611    610    612     1   107.5800459 329.699200
    612    610    619     1   109.8000471 387.438400
    613    625    626     1   109.5600471 388.275200
    613    625    627     1   109.5600471 388.275200
    614    613    625     1   109.8000471 387.438400
    614    613    615     1   107.5800459 329.699200
    615    613    625     1   109.8000471 387.438400
    616    622    623     1   109.5600471 388.275200
    616    622    624     1   109.5600471 388.275200
    617    616    622     1   109.8000471 387.438400
    617    616    618     1   107.5800459 329.699200
    618    616    622     1   109.8000471 387.438400
    620    619    628     1   109.7800468 425.094400
    620    619    621     1   108.4600466 328.025600
    621    619    628     1   109.7800468 425.094400
    623    622   1288     1   109.7800468 425.094400
    623    622    624     1   108.4600466 328.025600
    624    622   1288     1   109.7800468 425.094400
    626    625   1318     1   109.7800468 425.094400
    626    625    627     1   108.4600466 328.025600
    627    625   1318     1   109.7800468 425.094400
    630    631    632     1   108.0100461 406.684800
    630    631    633     1   108.0100461 406.684800
    630    634    635     1   108.0100461 406.684800
    630    634    636     1   108.0100461 406.684800
    630    637    638     1   108.0100461 406.684800
    630    637    639     1   108.0100461 406.684800
    631    630    659     1   110.1100470 384.091200
    631    643    644     1   109.8000471 387.438400
    631    643    645     1   109.8000471 387.438400
    632    631    643     1   110.5600475 386.601600
    632    631    633     1   109.7500473 328.025600
    633    631    643     1   110.5600475 386.601600
    634    630    659     1   110.1100470 384.091200
    634    646    647     1   109.8000471 387.438400
    634    646    648     1   109.8000471 387.438400
    635    634    646     1   110.5600475 386.601600
    635    634    636     1   109.7500473 328.025600
    636    634    646     1   110.5600475 386.601600
    637    630    659     1   110.1100470 384.091200
    637    640    641     1   109.8000471 387.438400
    637    640    642     1   109.8000471 387.438400
    638    637    640     1   110.5600475 386.601600
    638    637    639     1   109.7500473 328.025600
    639    637    640     1   110.5600475 386.601600
    640    649    650     1   109.5600471 388.275200
    640    649    651     1   109.5600471 388.275200
    641    640    649     1   109.8000471 387.438400
    641    640    642     1   107.5800459 329.699200
    642    640    649     1   109.8000471 387.438400
    643    655    656     1   109.5600471 388.275200
    643    655    657     1   109.5600471 388.275200
    644    643    655     1   109.8000471 387.438400
    644    643    645     1   107.5800459 329.699200
    645    643    655     1   109.8000471 387.438400
    646    652    653     1   109.5600471 388.275200
    646    652    654     1   109.5600471 388.275200
    647    646    652     1   109.8000471 387.438400
    647    646    648     1   107.5800459 329.699200
    648    646    652     1   109.8000471 387.438400
    650    649    658     1   109.7800468 425.094400
    650    649    651     1   108.4600466 328.025600
    651    649    658     1   109.7800468 425.094400
    653    652   1348     1   109.7800468 425.094400
    653    652    654     1   108.4600466 328.025600
    654    652   1348     1   109.7800468 425.094400
    656    655   1378     1   109.7800468 425.094400
    656    655    657     1   108.4600466 328.025600
    657    655   1378     1   109.7800468 425.094400
    660    661    662     1   108.0100461 406.684800
    660    661    663     1   108.0100461 406.684800
    660    664    665     1   108.0100461 406.684800
    660    664    666     1   108.0100461 406.684800
    660    667    668     1   108.0100461 406.684800
    660    667    669     1   108.0100461 406.684800
    661    660    689     1   110.1100470 384.091200
    661    673    674     1   109.8000471 387.438400
    661    673    675     1   109.8000471 387.438400
    662    661    673     1   110.5600475 386.601600
    662    661    663     1   109.7500473 328.025600
    663    661    673     1   110.5600475 386.601600
    664    660    689     1   110.1100470 384.091200
    664    676    677     1   109.8000471 387.438400
    664    676    678     1   109.8000471 387.438400
    665    664    676     1   110.5600475 386.601600
    665    664    666     1   109.7500473 328.025600
    666    664    676     1   110.5600475 386.601600
    667    660    689     1   110.1100470 384.091200
    667    670    671     1   109.8000471 387.438400
    667    670    672     1   109.8000471 387.438400
    668    667    670     1   110.5600475 386.601600
    668    667    669     1   109.7500473 328.025600
    669    667    670     1   110.5600475 386.601600
    670    679    680     1   109.5600471 388.275200
    670    679    681     1   109.5600471 388.275200
    671    670    679     1   109.8000471 387.438400
    671    670    672     1   107.5800459 329.699200
    672    670    679     1   109.8000471 387.438400
    673    685    686     1   109.5600471 388.275200
    673    685    687     1   109.5600471 388.275200
    674    673    685     1   109.8000471 387.438400
    674    673    675     1   107.5800459 329.699200
    675    673    685     1   109.8000471 387.438400
    676    682    683     1   109.5600471 388.275200
    676    682    684     1   109.5600471 388.275200
    677    676    682     1   109.8000471 387.438400
    677    676    678     1   107.5800459 329.699200
    678    676    682     1   109.8000471 387.438400
    680    679    688     1   109.7800468 425.094400
    680    679    681     1   108.4600466 328.025600
    681    679    688     1   109.7800468 425.094400
    683    682   1408     1   109.7800468 425.094400
    683    682    684     1   108.4600466 328.025600
    684    682   1408     1   109.7800468 425.094400
    686    685   1438     1   109.7800468 425.094400
    686    685    687     1   108.4600466 328.025600
    687    685   1438     1   109.7800468 425.094400
    690    691    692     1   108.0100461 406.684800
    690    691    693     1   108.0100461 406.684800
    690    694    695     1   108.0100461 406.684800
    690    694    696     1   108.0100461 406.684800
    690    697    698     1   108.0100461 406.684800
    690    697    699     1   108.0100461 406.684800
    691    690    719     1   110.1100470 384.091200
    691    703    704     1   109.8000471 387.438400
    691    703    705     1   109.8000471 387.438400
    692    691    703     1   110.5600475 386.601600
    692    691    693     1   109.7500473 328.025600
    693    691    703     1   110.5600475 386.601600
    694    690    719     1   110.1100470 384.091200
    694    706    707     1   109.8000471 387.438400
    694    706    708     1   109.8000471 387.438400
    695    694    706     1   110.5600475 386.601600
    695    694    696     1   109.7500473 328.025600
    696    694    706     1   110.5600475 386.601600
    697    690    719     1   110.1100470 384.091200
    697    700    701     1   109.8000471 387.438400
    697    700    702     1   109.8000471 387.438400
    698    697    700     1   110.5600475 386.601600
    698    697    699     1   109.7500473 328.025600
    699    697    700     1   110.5600475 386.601600
    700    709    710     1   109.5600471 388.275200
    700    709    711     1   109.5600471 388.275200
    701    700    709     1   109.8000471 387.438400
    701    700    702     1   107.5800459 329.699200
    702    700    709     1   109.8000471 387.438400
    703    715    716     1   109.5600471 388.275200
    703    715    717     1   109.5600471 388.275200
    704    703    715     1   109.8000471 387.438400
    704    703    705     1   107.5800459 329.699200
    705    703    715     1   109.8000471 387.438400
    706    712    713     1   109.5600471 388.275200
    706    712    714     1   109.5600471 388.275200
    707    706    712     1   109.8000471 387.438400
    707    706    708     1   107.5800459 329.699200
    708    706    712     1   109.8000471 387.438400
    710    709    718     1   109.7800468 425.094400
    710    709    711     1   108.4600466 328.025600
    711    709    718     1   109.7800468 425.094400
    713    712   1468     1   109.7800468 425.094400
    713    712    714     1   108.4600466 328.025600
    714    712   1468     1   109.7800468 425.094400
    716    715   1498     1   109.7800468 425.094400
    716    715    717     1   108.4600466 328.025600
    717    715   1498     1   109.7800468 425.094400
    720    721    722     1   108.0100461 406.684800
    720    721    723     1   108.0100461 406.684800
    720    724    725     1   108.0100461 406.684800
    720    724    726     1   108.0100461 406.684800
    720    727    728     1   108.0100461 406.684800
    720    727    729     1   108.0100461 406.684800
    721    720    749     1   110.1100470 384.091200
    721    733    734     1   109.8000471 387.438400
    721    733    735     1   109.8000471 387.438400
    722    721    733     1   110.5600475 386.601600
    722    721    723     1   109.7500473 328.025600
    723    721    733     1   110.5600475 386.601600
    724    720    749     1   110.1100470 384.091200
    724    736    737     1   109.8000471 387.438400
    724    736    738     1   109.8000471 387.438400
    725    724    736     1   110.5600475 386.601600
    725    724    726     1   109.7500473 328.025600
    726    724    736     1   110.5600475 386.601600
    727    720    749     1   110.1100470 384.091200
    727    730    731     1   109.8000471 387.438400
    727    730    732     1   109.8000471 387.438400
    728    727    730     1   110.5600475 386.601600
    728    727    729     1   109.7500473 328.025600
    729    727    730     1   110.5600475 386.601600
    730    739    740     1   109.5600471 388.275200
    730    739    741     1   109.5600471 388.275200
    731    730    739     1   109.8000471 387.438400
    731    730    732     1   107.5800459 329.699200
    732    730    739     1   109.8000471 387.438400
    733    745    746     1   109.5600471 388.275200
    733    745    747     1   109.5600471 388.275200
    734    733    745     1   109.8000471 387.438400
    734    733    735     1   107.5800459 329.699200
    735    733    745     1   109.8000471 387.438400
    736    742    743     1   109.5600471 388.275200
    736    742    744     1   109.5600471 388.275200
    737    736    742     1   109.8000471 387.438400
    737    736    738     1   107.5800459 329.699200
    738    736    742     1   109.8000471 387.438400
    740    739    748     1   109.7800468 425.094400
    740    739    741     1   108.4600466 328.025600
    741    739    748     1   109.7800468 425.094400
    743    742   1528     1   109.7800468 425.094400
    743    742    744     1   108.4600466 328.025600
    744    742   1528     1   109.7800468 425.094400
    746    745   1558     1   109.7800468 425.094400
    746    745    747     1   108.4600466 328.025600
    747    745   1558     1   109.7800468 425.094400
    750    751    752     1   108.0100461 406.684800
    750    751    753     1   108.0100461 406.684800
    750    754    755     1   108.0100461 406.684800
    750    754    756     1   108.0100461 406.684800
    750    757    758     1   108.0100461 406.684800
    750    757    759     1   108.0100461 406.684800
    751    750    779     1   110.1100470 384.091200
    751    763    764     1   109.8000471 387.438400
    751    763    765     1   109.8000471 387.438400
    752    751    763     1   110.5600475 386.601600
    752    751    753     1   109.7500473 328.025600
    753    751    763     1   110.5600475 386.601600
    754    750    779     1   110.1100470 384.091200
    754    766    767     1   109.8000471 387.438400
    754    766    768     1   109.8000471 387.438400
    755    754    766     1   110.5600475 386.601600
    755    754    756     1   109.7500473 328.025600
    756    754    766     1   110.5600475 386.601600
    757    750    779     1   110.1100470 384.091200
    757    760    761     1   109.8000471 387.438400
    757    760    762     1   109.8000471 387.438400
    758    757    760     1   110.5600475 386.601600
    758    757    759     1   109.7500473 328.025600
    759    757    760     1   110.5600475 386.601600
    760    769    770     1   109.5600471 388.275200
    760    769    771     1   109.5600471 388.275200
    761    760    769     1   109.8000471 387.438400
    761    760    762     1   107.5800459 329.699200
    762    760    769     1   109.8000471 387.438400
    763    775    776     1   109.5600471 388.275200
    763    775    777     1   109.5600471 388.275200
    764    763    775     1   109.8000471 387.438400
    764    763    765     1   107.5800459 329.699200
    765    763    775     1   109.8000471 387.438400
    766    772    773     1   109.5600471 388.275200
    766    772    774     1   109.5600471 388.275200
    767    766    772     1   109.8000471 387.438400
    767    766    768     1   107.5800459 329.699200
    768    766    772     1   109.8000471 387.438400
    770    769    778     1   109.7800468 425.094400
    770    769    771     1   108.4600466 328.025600
    771    769    778     1   109.7800468 425.094400
    773    772   1588     1   109.7800468 425.094400
    773    772    774     1   108.4600466 328.025600
    774    772   1588     1   109.7800468 425.094400
    776    775   1618     1   109.7800468 425.094400
    776    775    777     1   108.4600466 328.025600
    777    775   1618     1   109.7800468 425.094400
    780    781    782     1   108.0100461 406.684800
    780    781    783     1   108.0100461 406.684800
    780    784    785     1   108.0100461 406.684800
    780    784    786     1   108.0100461 406.684800
    780    787    788     1   108.0100461 406.684800
    780    787    789     1   108.0100461 406.684800
    781    780    809     1   110.1100470 384.091200
    781    793    794     1   109.8000471 387.438400
    781    793    795     1   109.8000471 387.438400
    782    781    793     1   110.5600475 386.601600
    782    781    783     1   109.7500473 328.025600
    783    781    793     1   110.5600475 386.601600
    784    780    809     1   110.1100470 384.091200
    784    796    797     1   109.8000471 387.438400
    784    796    798     1   109.8000471 387.438400
    785    784    796     1   110.5600475 386.601600
    785    784    786     1   109.7500473 328.025600
    786    784    796     1   110.5600475 386.601600
    787    780    809     1   110.1100470 384.091200
    787    790    791     1   109.8000471 387.438400
    787    790    792     1   109.8000471 387.438400
    788    787    790     1   110.5600475 386.601600
    788    787    789     1   109.7500473 328.025600
    789    787    790     1   110.5600475 386.601600
    790    799    800     1   109.5600471 388.275200
    790    799    801     1   109.5600471 388.275200
    791    790    799     1   109.8000471 387.438400
    791    790    792     1   107.5800459 329.699200
    792    790    799     1   109.8000471 387.438400
    793    805    806     1   109.5600471 388.275200
    793    805    807     1   109.5600471 388.275200
    794    793    805     1   109.8000471 387.438400
    794    793    795     1   107.5800459 329.699200
    795    793    805     1   109.8000471 387.438400
    796    802    803     1   109.5600471 388.275200
    796    802    804     1   109.5600471 388.275200
    797    796    802     1   109.8000471 387.438400
    797    796    798     1   107.5800459 329.699200
    798    796    802     1   109.8000471 387.438400
    800    799    808     1   109.7800468 425.094400
    800    799    801     1   108.4600466 328.025600
    801    799    808     1   109.7800468 425.094400
    803    802   1648     1   109.7800468 425.094400
    803    802    804     1   108.4600466 328.025600
    804    802   1648     1   109.7800468 425.094400
    806    805   1678     1   109.7800468 425.094400
    806    805    807     1   108.4600466 328.025600
    807    805   1678     1   109.7800468 425.094400
    810    811    812     1   108.0100461 406.684800
    810    811    813     1   108.0100461 406.684800
    810    814    815     1   108.0100461 406.684800
    810    814    816     1   108.0100461 406.684800
    810    817    818     1   108.0100461 406.684800
    810    817    819     1   108.0100461 406.684800
    811    810    839     1   110.1100470 384.091200
    811    823    824     1   109.8000471 387.438400
    811    823    825     1   109.8000471 387.438400
    812    811    823     1   110.5600475 386.601600
    812    811    813     1   109.7500473 328.025600
    813    811    823     1   110.5600475 386.601600
    814    810    839     1   110.1100470 384.091200
    814    826    827     1   109.8000471 387.438400
    814    826    828     1   109.8000471 387.438400
    815    814    826     1   110.5600475 386.601600
    815    814    816     1   109.7500473 328.025600
    816    814    826     1   110.5600475 386.601600
    817    810    839     1   110.1100470 384.091200
    817    820    821     1   109.8000471 387.438400
    817    820    822     1   109.8000471 387.438400
    818    817    820     1   110.5600475 386.601600
    818    817    819     1   109.7500473 328.025600
    819    817    820     1   110.5600475 386.601600
    820    829    830     1   109.5600471 388.275200
    820    829    831     1   109.5600471 388.275200
    821    820    829     1   109.8000471 387.438400
    821    820    822     1   107.5800459 329.699200
    822    820    829     1   109.8000471 387.438400
    823    835    836     1   109.5600471 388.275200
    823    835    837     1   109.5600471 388.275200
    824    823    835     1   109.8000471 387.438400
    824    823    825     1   107.5800459 329.699200
    825    823    835     1   109.8000471 387.438400
    826    832    833     1   109.5600471 388.275200
    826    832    834     1   109.5600471 388.275200
    827    826    832     1   109.8000471 387.438400
    827    826    828     1   107.5800459 329.699200
    828    826    832     1   109.8000471 387.438400
    830    829    838     1   109.7800468 425.094400
    830    829    831     1   108.4600466 328.025600
    831    829    838     1   109.7800468 425.094400
    833    832   1708     1   109.7800468 425.094400
    833    832    834     1   108.4600466 328.025600
    834    832   1708     1   109.7800468 425.094400
    836    835   1738     1   109.7800468 425.094400
    836    835    837     1   108.4600466 328.025600
    837    835   1738     1   109.7800468 425.094400
    840    841    842     1   108.0100461 406.684800
    840    841    843     1   108.0100461 406.684800
    840    844    845     1   108.0100461 406.684800
    840    844    846     1   108.0100461 406.684800
    840    847    848     1   108.0100461 406.684800
    840    847    849     1   108.0100461 406.684800
    841    840    869     1   110.1100470 384.091200
    841    853    854     1   109.8000471 387.438400
    841    853    855     1   109.8000471 387.438400
    842    841    853     1   110.5600475 386.601600
    842    841    843     1   109.7500473 328.025600
    843    841    853     1   110.5600475 386.601600
    844    840    869     1   110.1100470 384.091200
    844    856    857     1   109.8000471 387.438400
    844    856    858     1   109.8000471 387.438400
    845    844    856     1   110.5600475 386.601600
    845    844    846     1   109.7500473 328.025600
    846    844    856     1   110.5600475 386.601600
    847    840    869     1   110.1100470 384.091200
    847    850    851     1   109.8000471 387.438400
    847    850    852     1   109.8000471 387.438400
    848    847    850     1   110.5600475 386.601600
    848    847    849     1   109.7500473 328.025600
    849    847    850     1   110.5600475 386.601600
    850    859    860     1   109.5600471 388.275200
    850    859    861     1   109.5600471 388.275200
    851    850    859     1   109.8000471 387.438400
    851    850    852     1   107.5800459 329.699200
    852    850    859     1   109.8000471 387.438400
    853    865    866     1   109.5600471 388.275200
    853    865    867     1   109.5600471 388.275200
    854    853    865     1   109.8000471 387.438400
    854    853    855     1   107.5800459 329.699200
    855    853    865     1   109.8000471 387.438400
    856    862    863     1   109.5600471 388.275200
    856    862    864     1   109.5600471 388.275200
    857    856    862     1   109.8000471 387.438400
    857    856    858     1   107.5800459 329.699200
    858    856    862     1   109.8000471 387.438400
    860    859    868     1   109.7800468 425.094400
    860    859    861     1   108.4600466 328.025600
    861    859    868     1   109.7800468 425.094400
    863    862   1768     1   109.7800468 425.094400
    863    862    864     1   108.4600466 328.025600
    864    862   1768     1   109.7800468 425.094400
    866    865   1798     1   109.7800468 425.094400
    866    865    867     1   108.4600466 328.025600
    867    865   1798     1   109.7800468 425.094400
    870    871    872     1   108.0100461 406.684800
    870    871    873     1   108.0100461 406.684800
    870    874    875     1   108.0100461 406.684800
    870    874    876     1   108.0100461 406.684800
    870    877    878     1   108.0100461 406.684800
    870    877    879     1   108.0100461 406.684800
    871    870    899     1   110.1100470 384.091200
    871    883    884     1   109.8000471 387.438400
    871    883    885     1   109.8000471 387.438400
    872    871    883     1   110.5600475 386.601600
    872    871    873     1   109.7500473 328.025600
    873    871    883     1   110.5600475 386.601600
    874    870    899     1   110.1100470 384.091200
    874    886    887     1   109.8000471 387.438400
    874    886    888     1   109.8000471 387.438400
    875    874    886     1   110.5600475 386.601600
    875    874    876     1   109.7500473 328.025600
    876    874    886     1   110.5600475 386.601600
    877    870    899     1   110.1100470 384.091200
    877    880    881     1   109.8000471 387.438400
    877    880    882     1   109.8000471 387.438400
    878    877    880     1   110.5600475 386.601600
    878    877    879     1   109.7500473 328.025600
    879    877    880     1   110.5600475 386.601600
    880    889    890     1   109.5600471 388.275200
    880    889    891     1   109.5600471 388.275200
    881    880    889     1   109.8000471 387.438400
    881    880    882     1   107.5800459 329.699200
    882    880    889     1   109.8000471 387.438400
    883    895    896     1   109.5600471 388.275200
    883    895    897     1   109.5600471 388.275200
    884    883    895     1   109.8000471 387.438400
    884    883    885     1   107.5800459 329.699200
    885    883    895     1   109.8000471 387.438400
    886    892    893     1   109.5600471 388.275200
    886    892    894     1   109.5600471 388.275200
    887    886    892     1   109.8000471 387.438400
    887    886    888     1   107.5800459 329.699200
    888    886    892     1   109.8000471 387.438400
    890    889    898     1   109.7800468 425.094400
    890    889    891     1   108.4600466 328.025600
    891    889    898     1   109.7800468 425.094400
    893    892   1828     1   109.7800468 425.094400
    893    892    894     1   108.4600466 328.025600
    894    892   1828     1   109.7800468 425.094400
    896    895   1858     1   109.7800468 425.094400
    896    895    897     1   108.4600466 328.025600
    897    895   1858     1   109.7800468 425.094400
    900    901    902     1   108.0100461 406.684800
    900    901    903     1   108.0100461 406.684800
    900    904    905     1   108.0100461 406.684800
    900    904    906     1   108.0100461 406.684800
    900    907    908     1   108.0100461 406.684800
    900    907    909     1   108.0100461 406.684800
    901    900    929     1   110.1100470 384.091200
    901    913    914     1   109.8000471 387.438400
    901    913    915     1   109.8000471 387.438400
    902    901    913     1   110.5600475 386.601600
    902    901    903     1   109.7500473 328.025600
    903    901    913     1   110.5600475 386.601600
    904    900    929     1   110.1100470 384.091200
    904    916    917     1   109.8000471 387.438400
    904    916    918     1   109.8000471 387.438400
    905    904    916     1   110.5600475 386.601600
    905    904    906     1   109.7500473 328.025600
    906    904    916     1   110.5600475 386.601600
    907    900    929     1   110.1100470 384.091200
    907    910    911     1   109.8000471 387.438400
    907    910    912     1   109.8000471 387.438400
    908    907    910     1   110.5600475 386.601600
    908    907    909     1   109.7500473 328.025600
    909    907    910     1   110.5600475 386.601600
    910    919    920     1   109.5600471 388.275200
    910    919    921     1   109.5600471 388.275200
    911    910    919     1   109.8000471 387.438400
    911    910    912     1   107.5800459 329.699200
    912    910    919     1   109.8000471 387.438400
    913    925    926     1   109.5600471 388.275200
    913    925    927     1   109.5600471 388.275200
    914    913    925     1   109.8000471 387.438400
    914    913    915     1   107.5800459 329.699200
    915    913    925     1   109.8000471 387.438400
    916    922    923     1   109.5600471 388.275200
    916    922    924     1   109.5600471 388.275200
    917    916    922     1   109.8000471 387.438400
    917    916    918     1   107.5800459 329.699200
    918    916    922     1   109.8000471 387.438400
    920    919    928     1   109.7800468 425.094400
    920    919    921     1   108.4600466 328.025600
    921    919    928     1   109.7800468 425.094400
    923    922   1888     1   109.7800468 425.094400
    923    922    924     1   108.4600466 328.025600
    924    922   1888     1   109.7800468 425.094400
    926    925   1918     1   109.7800468 425.094400
    926    925    927     1   108.4600466 328.025600
    927    925   1918     1   109.7800468 425.094400
    930    931    932     1   108.0100461 406.684800
    930    931    933     1   108.0100461 406.684800
    930    934    935     1   108.0100461 406.684800
    930    934    936     1   108.0100461 406.684800
    930    937    938     1   108.0100461 406.684800
    930    937    939     1   108.0100461 406.684800
    931    930    959     1   110.1100470 384.091200
    931    943    944     1   109.8000471 387.438400
    931    943    945     1   109.8000471 387.438400
    932    931    943     1   110.5600475 386.601600
    932    931    933     1   109.7500473 328.025600
    933    931    943     1   110.5600475 386.601600
    934    930    959     1   110.1100470 384.091200
    934    946    947     1   109.8000471 387.438400
    934    946    948     1   109.8000471 387.438400
    935    934    946     1   110.5600475 386.601600
    935    934    936     1   109.7500473 328.025600
    936    934    946     1   110.5600475 386.601600
    937    930    959     1   110.1100470 384.091200
    937    940    941     1   109.8000471 387.438400
    937    940    942     1   109.8000471 387.438400
    938    937    940     1   110.5600475 386.601600
    938    937    939     1   109.7500473 328.025600
    939    937    940     1   110.5600475 386.601600
    940    949    950     1   109.5600471 388.275200
    940    949    951     1   109.5600471 388.275200
    941    940    949     1   109.8000471 387.438400
    941    940    942     1   107.5800459 329.699200
    942    940    949     1   109.8000471 387.438400
    943    955    956     1   109.5600471 388.275200
    943    955    957     1   109.5600471 388.275200
    944    943    955     1   109.8000471 387.438400
    944    943    945     1   107.5800459 329.699200
    945    943    955     1   109.8000471 387.438400
    946    952    953     1   109.5600471 388.275200
    946    952    954     1   109.5600471 388.275200
    947    946    952     1   109.8000471 387.438400
    947    946    948     1   107.5800459 329.699200
    948    946    952     1   109.8000471 387.438400
    950    949    958     1   109.7800468 425.094400
    950    949    951     1   108.4600466 328.025600
    951    949    958     1   109.7800468 425.094400
    953    952   1948     1   109.7800468 425.094400
    953    952    954     1   108.4600466 328.025600
    954    952   1948     1   109.7800468 425.094400
    956    955   1978     1   109.7800468 425.094400
    956    955    957     1   108.4600466 328.025600
    957    955   1978     1   109.7800468 425.094400
    960    961    962     1   108.0100461 406.684800
    960    961    963     1   108.0100461 406.684800
    960    964    965     1   108.0100461 406.684800
    960    964    966     1   108.0100461 406.684800
    960    967    968     1   108.0100461 406.684800
    960    967    969     1   108.0100461 406.684800
    961    960    989     1   110.1100470 384.091200
    961    973    974     1   109.8000471 387.438400
    961    973    975     1   109.8000471 387.438400
    962    961    973     1   110.5600475 386.601600
    962    961    963     1   109.7500473 328.025600
    963    961    973     1   110.5600475 386.601600
    964    960    989     1   110.1100470 384.091200
    964    976    977     1   109.8000471 387.438400
    964    976    978     1   109.8000471 387.438400
    965    964    976     1   110.5600475 386.601600
    965    964    966     1   109.7500473 328.025600
    966    964    976     1   110.5600475 386.601600
    967    960    989     1   110.1100470 384.091200
    967    970    971     1   109.8000471 387.438400
    967    970    972     1   109.8000471 387.438400
    968    967    970     1   110.5600475 386.601600
    968    967    969     1   109.7500473 328.025600
    969    967    970     1   110.5600475 386.601600
    970    979    980     1   109.5600471 388.275200
    970    979    981     1   109.5600471 388.275200
    971    970    979     1   109.8000471 387.438400
    971    970    972     1   107.5800459 329.699200
    972    970    979     1   109.8000471 387.438400
    973    985    986     1   109.5600471 388.275200
    973    985    987     1   109.5600471 388.275200
    974    973    985     1   109.8000471 387.438400
    974    973    975     1   107.5800459 329.699200
    975    973    985     1   109.8000471 387.438400
    976    982    983     1   109.5600471 388.275200
    976    982    984     1   109.5600471 388.275200
    977    976    982     1   109.8000471 387.438400
    977    976    978     1   107.5800459 329.699200
    978    976    982     1   109.8000471 387.438400
    980    979    988     1   109.7800468 425.094400
    980    979    981     1   108.4600466 328.025600
    981    979    988     1   109.7800468 425.094400
    983    982   2008     1   109.7800468 425.094400
    983    982    984     1   108.4600466 328.025600
    984    982   2008     1   109.7800468 425.094400
    986    985   2038     1   109.7800468 425.094400
    986    985    987     1   108.4600466 328.025600
    987    985   2038     1   109.7800468 425.094400
    990    991    992     1   108.0100461 406.684800
    990    991    993     1   108.0100461 406.684800
    990    994    995     1   108.0100461 406.684800
    990    994    996     1   108.0100461 406.684800
    990    997    998     1   108.0100461 406.684800
    990    997    999     1   108.0100461 406.684800
    991    990   1019     1   110.1100470 384.091200
    991   1003   1004     1   109.8000471 387.438400
    991   1003   1005     1   109.8000471 387.438400
    992    991   1003     1   110.5600475 386.601600
    992    991    993     1   109.7500473 328.025600
    993    991   1003     1   110.5600475 386.601600
    994    990   1019     1   110.1100470 384.091200
    994   1006   1007     1   109.8000471 387.438400
    994   1006   1008     1   109.8000471 387.438400
    995    994   1006     1   110.5600475 386.601600
    995    994    996     1   109.7500473 328.025600
    996    994   1006     1   110.5600475 386.601600
    997    990   1019     1   110.1100470 384.091200
    997   1000   1001     1   109.8000471 387.438400
    997   1000   1002     1   109.8000471 387.438400
    998    997   1000     1   110.5600475 386.601600
    998    997    999     1   109.7500473 328.025600
    999    997   1000     1   110.5600475 386.601600
   1000   1009   1010     1   109.5600471 388.275200
   1000   1009   1011     1   109.5600471 388.275200
   1001   1000   1009     1   109.8000471 387.438400
   1001   1000   1002     1   107.5800459 329.699200
   1002   1000   1009     1   109.8000471 387.438400
   1003   1015   1016     1   109.5600471 388.275200
   1003   1015   1017     1   109.5600471 388.275200
   1004   1003   1015     1   109.8000471 387.438400
   1004   1003   1005     1   107.5800459 329.699200
   1005   1003   1015     1   109.8000471 387.438400
   1006   1012   1013     1   109.5600471 388.275200
   1006   1012   1014     1   109.5600471 388.275200
   1007   1006   1012     1   109.8000471 387.438400
   1007   1006   1008     1   107.5800459 329.699200
   1008   1006   1012     1   109.8000471 387.438400
   1010   1009   1018     1   109.7800468 425.094400
   1010   1009   1011     1   108.4600466 328.025600
   1011   1009   1018     1   109.7800468 425.094400
   1013   1012   2068     1   109.7800468 425.094400
   1013   1012   1014     1   108.4600466 328.025600
   1014   1012   2068     1   109.7800468 425.094400
   1016   1015   2098     1   109.7800468 425.094400
   1016   1015   1017     1   108.4600466 328.025600
   1017   1015   2098     1   109.7800468 425.094400
   1020   1021   1022     1   108.0100461 406.684800
   1020   1021   1023     1   108.0100461 406.684800
   1020   1024   1025     1   108.0100461 406.684800
   1020   1024   1026     1   108.0100461 406.684800
   1020   1027   1028     1   108.0100461 406.684800
   1020   1027   1029     1   108.0100461 406.684800
   1021   1020   1049     1   110.1100470 384.091200
   1021   1033   1034     1   109.8000471 387.438400
   1021   1033   1035     1   109.8000471 387.438400
   1022   1021   1033     1   110.5600475 386.601600
   1022   1021   1023     1   109.7500473 328.025600
   1023   1021   1033     1   110.5600475 386.601600
   1024   1020   1049     1   110.1100470 384.091200
   1024   1036   1037     1   109.8000471 387.438400
   1024   1036   1038     1   109.8000471 387.438400
   1025   1024   1036     1   110.5600475 386.601600
   1025   1024   1026     1   109.7500473 328.025600
   1026   1024   1036     1   110.5600475 386.601600
   1027   1020   1049     1   110.1100470 384.091200
   1027   1030   1031     1   109.8000471 387.438400
   1027   1030   1032     1   109.8000471 387.438400
   1028   1027   1030     1   110.5600475 386.601600
   1028   1027   1029     1   109.7500473 328.025600
   1029   1027   1030     1   110.5600475 386.601600
   1030   1039   1040     1   109.5600471 388.275200
   1030   1039   1041     1   109.5600471 388.275200
   1031   1030   1039     1   109.8000471 387.438400
   1031   1030   1032     1   107.5800459 329.699200
   1032   1030   1039     1   109.8000471 387.438400
   1033   1045   1046     1   109.5600471 388.275200
   1033   1045   1047     1   109.5600471 388.275200
   1034   1033   1045     1   109.8000471 387.438400
   1034   1033   1035     1   107.5800459 329.699200
   1035   1033   1045     1   109.8000471 387.438400
   1036   1042   1043     1   109.5600471 388.275200
   1036   1042   1044     1   109.5600471 388.275200
   1037   1036   1042     1   109.8000471 387.438400
   1037   1036   1038     1   107.5800459 329.699200
   1038   1036   1042     1   109.8000471 387.438400
   1040   1039   1048     1   109.7800468 425.094400
   1040   1039   1041     1   108.4600466 328.025600
   1041   1039   1048     1   109.7800468 425.094400
   1043   1042   2128     1   109.7800468 425.094400
   1043   1042   1044     1   108.4600466 328.025600
   1044   1042   2128     1   109.7800468 425.094400
   1046   1045   2158     1   109.7800468 425.094400
   1046   1045   1047     1   108.4600466 328.025600
   1047   1045   2158     1   109.7800468 425.094400
   1050   1051   1052     1   108.0100461 406.684800
   1050   1051   1053     1   108.0100461 406.684800
   1050   1054   1055     1   108.0100461 406.684800
   1050   1054   1056     1   108.0100461 406.684800
   1050   1057   1058     1   108.0100461 406.684800
   1050   1057   1059     1   108.0100461 406.684800
   1051   1050   1079     1   110.1100470 384.091200
   1051   1063   1064     1   109.8000471 387.438400
   1051   1063   1065     1   109.8000471 387.438400
   1052   1051   1063     1   110.5600475 386.601600
   1052   1051   1053     1   109.7500473 328.025600
   1053   1051   1063     1   110.5600475 386.601600
   1054   1050   1079     1   110.1100470 384.091200
   1054   1066   1067     1   109.8000471 387.438400
   1054   1066   1068     1   109.8000471 387.438400
   1055   1054   1066     1   110.5600475 386.601600
   1055   1054   1056     1   109.7500473 328.025600
   1056   1054   1066     1   110.5600475 386.601600
   1057   1050   1079     1   110.1100470 384.091200
   1057   1060   1061     1   109.8000471 387.438400
   1057   1060   1062     1   109.8000471 387.438400
   1058   1057   1060     1   110.5600475 386.601600
   1058   1057   1059     1   109.7500473 328.025600
   1059   1057   1060     1   110.5600475 386.601600
   1060   1069   1070     1   109.5600471 388.275200
   1060   1069   1071     1   109.5600471 388.275200
   1061   1060   1069     1   109.8000471 387.438400
   1061   1060   1062     1   107.5800459 329.699200
   1062   1060   1069     1   109.8000471 387.438400
   1063   1075   1076     1   109.5600471 388.275200
   1063   1075   1077     1   109.5600471 388.275200
   1064   1063   1075     1   109.8000471 387.438400
   1064   1063   1065     1   107.5800459 329.699200
   1065   1063   1075     1   109.8000471 387.438400
   1066   1072   1073     1   109.5600471 388.275200
   1066   1072   1074     1   109.5600471 388.275200
   1067   1066   1072     1   109.8000471 387.438400
   1067   1066   1068     1   107.5800459 329.699200
   1068   1066   1072     1   109.8000471 387.438400
   1070   1069   1078     1   109.7800468 425.094400
   1070   1069   1071     1   108.4600466 328.025600
   1071   1069   1078     1   109.7800468 425.094400
   1073   1072   2188     1   109.7800468 425.094400
   1073   1072   1074     1   108.4600466 328.025600
   1074   1072   2188     1   109.7800468 425.094400
   1076   1075   2218     1   109.7800468 425.094400
   1076   1075   1077     1   108.4600466 328.025600
   1077   1075   2218     1   109.7800468 425.094400
   1080   1081   1082     1   108.0100461 406.684800
   1080   1081   1083     1   108.0100461 406.684800
   1080   1084   1085     1   108.0100461 406.684800
   1080   1084   1086     1   108.0100461 406.684800
   1080   1087   1088     1   108.0100461 406.684800
   1080   1087   1089     1   108.0100461 406.684800
   1081   1080   1109     1   110.1100470 384.091200
   1081   1093   1094     1   109.8000471 387.438400
   1081   1093   1095     1   109.8000471 387.438400
   1082   1081   1093     1   110.5600475 386.601600
   1082   1081   1083     1   109.7500473 328.025600
   1083   1081   1093     1   110.5600475 386.601600
   1084   1080   1109     1   110.1100470 384.091200
   1084   1096   1097     1   109.8000471 387.438400
   1084   1096   1098     1   109.8000471 387.438400
   1085   1084   1096     1   110.5600475 386.601600
   1085   1084   1086     1   109.7500473 328.025600
   1086   1084   1096     1   110.5600475 386.601600
   1087   1080   1109     1   110.1100470 384.091200
   1087   1090   1091     1   109.8000471 387.438400
   1087   1090   1092     1   109.8000471 387.438400
   1088   1087   1090     1   110.5600475 386.601600
   1088   1087   1089     1   109.7500473 328.025600
   1089   1087   1090     1   110.5600475 386.601600
   1090   1099   1100     1   109.5600471 388.275200
   1090   1099   1101     1   109.5600471 388.275200
   1091   1090   1099     1   109.8000471 387.438400
   1091   1090   1092     1   107.5800459 329.699200
   1092   1090   1099     1   109.8000471 387.438400
   1093   1105   1106     1   109.5600471 388.275200
   1093   1105   1107     1   109.5600471 388.275200
   1094   1093   1105     1   109.8000471 387.438400
   1094   1093   1095     1   107.5800459 329.699200
   1095   1093   1105     1   109.8000471 387.438400
   1096   1102   1103     1   109.5600471 388.275200
   1096   1102   1104     1   109.5600471 388.275200
   1097   1096   1102     1   109.8000471 387.438400
   1097   1096   1098     1   107.5800459 329.699200
   1098   1096   1102     1   109.8000471 387.438400
   1100   1099   1108     1   109.7800468 425.094400
   1100   1099   1101     1   108.4600466 328.025600
   1101   1099   1108     1   109.7800468 425.094400
   1103   1102   2248     1   109.7800468 425.094400
   1103   1102   1104     1   108.4600466 328.025600
   1104   1102   2248     1   109.7800468 425.094400
   1106   1105   2278     1   109.7800468 425.094400
   1106   1105   1107     1   108.4600466 328.025600
   1107   1105   2278     1   109.7800468 425.094400
   1110   1111   1112     1   108.0100461 406.684800
   1110   1111   1113     1   108.0100461 406.684800
   1110   1114   1115     1   108.0100461 406.684800
   1110   1114   1116     1   108.0100461 406.684800
   1110   1117   1118     1   108.0100461 406.684800
   1110   1117   1119     1   108.0100461 406.684800
   1111   1110   1139     1   110.1100470 384.091200
   1111   1123   1124     1   109.8000471 387.438400
   1111   1123   1125     1   109.8000471 387.438400
   1112   1111   1123     1   110.5600475 386.601600
   1112   1111   1113     1   109.7500473 328.025600
   1113   1111   1123     1   110.5600475 386.601600
   1114   1110   1139     1   110.1100470 384.091200
   1114   1126   1127     1   109.8000471 387.438400
   1114   1126   1128     1   109.8000471 387.438400
   1115   1114   1126     1   110.5600475 386.601600
   1115   1114   1116     1   109.7500473 328.025600
   1116   1114   1126     1   110.5600475 386.601600
   1117   1110   1139     1   110.1100470 384.091200
   1117   1120   1121     1   109.8000471 387.438400
   1117   1120   1122     1   109.8000471 387.438400
   1118   1117   1120     1   110.5600475 386.601600
   1118   1117   1119     1   109.7500473 328.025600
   1119   1117   1120     1   110.5600475 386.601600
   1120   1129   1130     1   109.5600471 388.275200
   1120   1129   1131     1   109.5600471 388.275200
   1121   1120   1129     1   109.8000471 387.438400
   1121   1120   1122     1   107.5800459 329.699200
   1122   1120   1129     1   109.8000471 387.438400
   1123   1135   1136     1   109.5600471 388.275200
   1123   1135   1137     1   109.5600471 388.275200
   1124   1123   1135     1   109.8000471 387.438400
   1124   1123   1125     1   107.5800459 329.699200
   1125   1123   1135     1   109.8000471 387.438400
   1126   1132   1133     1   109.5600471 388.275200
   1126   1132   1134     1   109.5600471 388.275200
   1127   1126   1132     1   109.8000471 387.438400
   1127   1126   1128     1   107.5800459 329.699200
   1128   1126   1132     1   109.8000471 387.438400
   1130   1129   1138     1   109.7800468 425.094400
   1130   1129   1131     1   108.4600466 328.025600
   1131   1129   1138     1   109.7800468 425.094400
   1133   1132   2308     1   109.7800468 425.094400
   1133   1132   1134     1   108.4600466 328.025600
   1134   1132   2308     1   109.7800468 425.094400
   1136   1135   2338     1   109.7800468 425.094400
   1136   1135   1137     1   108.4600466 328.025600
   1137   1135   2338     1   109.7800468 425.094400
   1140   1141   1142     1   108.0100461 406.684800
   1140   1141   1143     1   108.0100461 406.684800
   1140   1144   1145     1   108.0100461 406.684800
   1140   1144   1146     1   108.0100461 406.684800
   1140   1147   1148     1   108.0100461 406.684800
   1140   1147   1149     1   108.0100461 406.684800
   1141   1140   1169     1   110.1100470 384.091200
   1141   1153   1154     1   109.8000471 387.438400
   1141   1153   1155     1   109.8000471 387.438400
   1142   1141   1153     1   110.5600475 386.601600
   1142   1141   1143     1   109.7500473 328.025600
   1143   1141   1153     1   110.5600475 386.601600
   1144   1140   1169     1   110.1100470 384.091200
   1144   1156   1157     1   109.8000471 387.438400
   1144   1156   1158     1   109.8000471 387.438400
   1145   1144   1156     1   110.5600475 386.601600
   1145   1144   1146     1   109.7500473 328.025600
   1146   1144   1156     1   110.5600475 386.601600
   1147   1140   1169     1   110.1100470 384.091200
   1147   1150   1151     1   109.8000471 387.438400
   1147   1150   1152     1   109.8000471 387.438400
   1148   1147   1150     1   110.5600475 386.601600
   1148   1147   1149     1   109.7500473 328.025600
   1149   1147   1150     1   110.5600475 386.601600
   1150   1159   1160     1   109.5600471 388.275200
   1150   1159   1161     1   109.5600471 388.275200
   1151   1150   1159     1   109.8000471 387.438400
   1151   1150   1152     1   107.5800459 329.699200
   1152   1150   1159     1   109.8000471 387.438400
   1153   1165   1166     1   109.5600471 388.275200
   1153   1165   1167     1   109.5600471 388.275200
   1154   1153   1165     1   109.8000471 387.438400
   1154   1153   1155     1   107.5800459 329.699200
   1155   1153   1165     1   109.8000471 387.438400
   1156   1162   1163     1   109.5600471 388.275200
   1156   1162   1164     1   109.5600471 388.275200
   1157   1156   1162     1   109.8000471 387.438400
   1157   1156   1158     1   107.5800459 329.699200
   1158   1156   1162     1   109.8000471 387.438400
   1160   1159   1168     1   109.7800468 425.094400
   1160   1159   1161     1   108.4600466 328.025600
   1161   1159   1168     1   109.7800468 425.094400
   1163   1162   2368     1   109.7800468 425.094400
   1163   1162   1164     1   108.4600466 328.025600
   1164   1162   2368     1   109.7800468 425.094400
   1166   1165   2398     1   109.7800468 425.094400
   1166   1165   1167     1   108.4600466 328.025600
   1167   1165   2398     1   109.7800468 425.094400
   1170   1171   1172     1   108.0100461 406.684800
   1170   1171   1173     1   108.0100461 406.684800
   1170   1174   1175     1   108.0100461 406.684800
   1170   1174   1176     1   108.0100461 406.684800
   1170   1177   1178     1   108.0100461 406.684800
   1170   1177   1179     1   108.0100461 406.684800
   1171   1170   1199     1   110.1100470 384.091200
   1171   1183   1184     1   109.8000471 387.438400
   1171   1183   1185     1   109.8000471 387.438400
   1172   1171   1183     1   110.5600475 386.601600
   1172   1171   1173     1   109.7500473 328.025600
   1173   1171   1183     1   110.5600475 386.601600
   1174   1170   1199     1   110.1100470 384.091200
   1174   1186   1187     1   109.8000471 387.438400
   1174   1186   1188     1   109.8000471 387.438400
   1175   1174   1186     1   110.5600475 386.601600
   1175   1174   1176     1   109.7500473 328.025600
   1176   1174   1186     1   110.5600475 386.601600
   1177   1170   1199     1   110.1100470 384.091200
   1177   1180   1181     1   109.8000471 387.438400
   1177   1180   1182     1   109.8000471 387.438400
   1178   1177   1180     1   110.5600475 386.601600
   1178   1177   1179     1   109.7500473 328.025600
   1179   1177   1180     1   110.5600475 386.601600
   1180   1189   1190     1   109.5600471 388.275200
   1180   1189   1191     1   109.5600471 388.275200
   1181   1180   1189     1   109.8000471 387.438400
   1181   1180   1182     1   107.5800459 329.699200
   1182   1180   1189     1   109.8000471 387.438400
   1183   1195   1196     1   109.5600471 388.275200
   1183   1195   1197     1   109.5600471 388.275200
   1184   1183   1195     1   109.8000471 387.438400
   1184   1183   1185     1   107.5800459 329.699200
   1185   1183   1195     1   109.8000471 387.438400
   1186   1192   1193     1   109.5600471 388.275200
   1186   1192   1194     1   109.5600471 388.275200
   1187   1186   1192     1   109.8000471 387.438400
   1187   1186   1188     1   107.5800459 329.699200
   1188   1186   1192     1   109.8000471 387.438400
   1190   1189   1198     1   109.7800468 425.094400
   1190   1189   1191     1   108.4600466 328.025600
   1191   1189   1198     1   109.7800468 425.094400
   1193   1192   2428     1   109.7800468 425.094400
   1193   1192   1194     1   108.4600466 328.025600
   1194   1192   2428     1   109.7800468 425.094400
   1196   1195   2458     1   109.7800468 425.094400
   1196   1195   1197     1   108.4600466 328.025600
   1197   1195   2458     1   109.7800468 425.094400
   1200   1201   1202     1   108.0100461 406.684800
   1200   1201   1203     1   108.0100461 406.684800
   1200   1204   1205     1   108.0100461 406.684800
   1200   1204   1206     1   108.0100461 406.684800
   1200   1207   1208     1   108.0100461 406.684800
   1200   1207   1209     1   108.0100461 406.684800
   1201   1200   1229     1   110.1100470 384.091200
   1201   1213   1214     1   109.8000471 387.438400
   1201   1213   1215     1   109.8000471 387.438400
   1202   1201   1213     1   110.5600475 386.601600
   1202   1201   1203     1   109.7500473 328.025600
   1203   1201   1213     1   110.5600475 386.601600
   1204   1200   1229     1   110.1100470 384.091200
   1204   1216   1217     1   109.8000471 387.438400
   1204   1216   1218     1   109.8000471 387.438400
   1205   1204   1216     1   110.5600475 386.601600
   1205   1204   1206     1   109.7500473 328.025600
   1206   1204   1216     1   110.5600475 386.601600
   1207   1200   1229     1   110.1100470 384.091200
   1207   1210   1211     1   109.8000471 387.438400
   1207   1210   1212     1   109.8000471 387.438400
   1208   1207   1210     1   110.5600475 386.601600
   1208   1207   1209     1   109.7500473 328.025600
   1209   1207   1210     1   110.5600475 386.601600
   1210   1219   1220     1   109.5600471 388.275200
   1210   1219   1221     1   109.5600471 388.275200
   1211   1210   1219     1   109.8000471 387.438400
   1211   1210   1212     1   107.5800459 329.699200
   1212   1210   1219     1   109.8000471 387.438400
   1213   1225   1226     1   109.5600471 388.275200
   1213   1225   1227     1   109.5600471 388.275200
   1214   1213   1225     1   109.8000471 387.438400
   1214   1213   1215     1   107.5800459 329.699200
   1215   1213   1225     1   109.8000471 387.438400
   1216   1222   1223     1   109.5600471 388.275200
   1216   1222   1224     1   109.5600471 388.275200
   1217   1216   1222     1   109.8000471 387.438400
   1217   1216   1218     1   107.5800459 329.699200
   1218   1216   1222     1   109.8000471 387.438400
   1220   1219   1228     1   109.7800468 425.094400
   1220   1219   1221     1   108.4600466 328.025600
   1221   1219   1228     1   109.7800468 425.094400
   1223   1222   2488     1   109.7800468 425.094400
   1223   1222   1224     1   108.4600466 328.025600
   1224   1222   2488     1   109.7800468 425.094400
   1226   1225   2518     1   109.7800468 425.094400
   1226   1225   1227     1   108.4600466 328.025600
   1227   1225   2518     1   109.7800468 425.094400
   1230   1231   1232     1   108.0100461 406.684800
   1230   1231   1233     1   108.0100461 406.684800
   1230   1234   1235     1   108.0100461 406.684800
   1230   1234   1236     1   108.0100461 406.684800
   1230   1237   1238     1   108.0100461 406.684800
   1230   1237   1239     1   108.0100461 406.684800
   1231   1230   1259     1   110.1100470 384.091200
   1231   1243   1244     1   109.8000471 387.438400
   1231   1243   1245     1   109.8000471 387.438400
   1232   1231   1243     1   110.5600475 386.601600
   1232   1231   1233     1   109.7500473 328.025600
   1233   1231   1243     1   110.5600475 386.601600
   1234   1230   1259     1   110.1100470 384.091200
   1234   1246   1247     1   109.8000471 387.438400
   1234   1246   1248     1   109.8000471 387.438400
   1235   1234   1246     1   110.5600475 386.601600
   1235   1234   1236     1   109.7500473 328.025600
   1236   1234   1246     1   110.5600475 386.601600
   1237   1230   1259     1   110.1100470 384.091200
   1237   1240   1241     1   109.8000471 387.438400
   1237   1240   1242     1   109.8000471 387.438400
   1238   1237   1240     1   110.5600475 386.601600
   1238   1237   1239     1   109.7500473 328.025600
   1239   1237   1240     1   110.5600475 386.601600
   1240   1249   1250     1   109.5600471 388.275200
   1240   1249   1251     1   109.5600471 388.275200
   1241   1240   1249     1   109.8000471 387.438400
   1241   1240   1242     1   107.5800459 329.699200
   1242   1240   1249     1   109.8000471 387.438400
   1243   1255   1256     1   109.5600471 388.275200
   1243   1255   1257     1   109.5600471 388.275200
   1244   1243   1255     1   109.8000471 387.438400
   1244   1243   1245     1   107.5800459 329.699200
   1245   1243   1255     1   109.8000471 387.438400
   1246   1252   1253     1   109.5600471 388.275200
   1246   1252   1254     1   109.5600471 388.275200
   1247   1246   1252     1   109.8000471 387.438400
   1247   1246   1248     1   107.5800459 329.699200
   1248   1246   1252     1   109.8000471 387.438400
   1250   1249   1258     1   109.7800468 425.094400
   1250   1249   1251     1   108.4600466 328.025600
   1251   1249   1258     1   109.7800468 425.094400
   1253   1252   2548     1   109.7800468 425.094400
   1253   1252   1254     1   108.4600466 328.025600
   1254   1252   2548     1   109.7800468 425.094400
   1256   1255   2578     1   109.7800468 425.094400
   1256   1255   1257     1   108.4600466 328.025600
   1257   1255   2578     1   109.7800468 425.094400
   1260   1261   1262     1   108.0100461 406.684800
   1260   1261   1263     1   108.0100461 406.684800
   1260   1264   1265     1   108.0100461 406.684800
   1260   1264   1266     1   108.0100461 406.684800
   1260   1267   1268     1   108.0100461 406.684800
   1260   1267   1269     1   108.0100461 406.684800
   1261   1260   1289     1   110.1100470 384.091200
   1261   1273   1274     1   109.8000471 387.438400
   1261   1273   1275     1   109.8000471 387.438400
   1262   1261   1273     1   110.5600475 386.601600
   1262   1261   1263     1   109.7500473 328.025600
   1263   1261   1273     1   110.5600475 386.601600
   1264   1260   1289     1   110.1100470 384.091200
   1264   1276   1277     1   109.8000471 387.438400
   1264   1276   1278     1   109.8000471 387.438400
   1265   1264   1276     1   110.5600475 386.601600
   1265   1264   1266     1   109.7500473 328.025600
   1266   1264   1276     1   110.5600475 386.601600
   1267   1260   1289     1   110.1100470 384.091200
   1267   1270   1271     1   109.8000471 387.438400
   1267   1270   1272     1   109.8000471 387.438400
   1268   1267   1270     1   110.5600475 386.601600
   1268   1267   1269     1   109.7500473 328.025600
   1269   1267   1270     1   110.5600475 386.601600
   1270   1279   1280     1   109.5600471 388.275200
   1270   1279   1281     1   109.5600471 388.275200
   1271   1270   1279     1   109.8000471 387.438400
   1271   1270   1272     1   107.5800459 329.699200
   1272   1270   1279     1   109.8000471 387.438400
   1273   1285   1286     1   109.5600471 388.275200
   1273   1285   1287     1   109.5600471 388.275200
   1274   1273   1285     1   109.8000471 387.438400
   1274   1273   1275     1   107.5800459 329.699200
   1275   1273   1285     1   109.8000471 387.438400
   1276   1282   1283     1   109.5600471 388.275200
   1276   1282   1284     1   109.5600471 388.275200
   1277   1276   1282     1   109.8000471 387.438400
   1277   1276   1278     1   107.5800459 329.699200
   1278   1276   1282     1   109.8000471 387.438400
   1280   1279   1288     1   109.7800468 425.094400
   1280   1279   1281     1   108.4600466 328.025600
   1281   1279   1288     1   109.7800468 425.094400
   1283   1282   2608     1   109.7800468 425.094400
   1283   1282   1284     1   108.4600466 328.025600
   1284   1282   2608     1   109.7800468 425.094400
   1286   1285   2638     1   109.7800468 425.094400
   1286   1285   1287     1   108.4600466 328.025600
   1287   1285   2638     1   109.7800468 425.094400
   1290   1291   1292     1   108.0100461 406.684800
   1290   1291   1293     1   108.0100461 406.684800
   1290   1294   1295     1   108.0100461 406.684800
   1290   1294   1296     1   108.0100461 406.684800
   1290   1297   1298     1   108.0100461 406.684800
   1290   1297   1299     1   108.0100461 406.684800
   1291   1290   1319     1   110.1100470 384.091200
   1291   1303   1304     1   109.8000471 387.438400
   1291   1303   1305     1   109.8000471 387.438400
   1292   1291   1303     1   110.5600475 386.601600
   1292   1291   1293     1   109.7500473 328.025600
   1293   1291   1303     1   110.5600475 386.601600
   1294   1290   1319     1   110.1100470 384.091200
   1294   1306   1307     1   109.8000471 387.438400
   1294   1306   1308     1   109.8000471 387.438400
   1295   1294   1306     1   110.5600475 386.601600
   1295   1294   1296     1   109.7500473 328.025600
   1296   1294   1306     1   110.5600475 386.601600
   1297   1290   1319     1   110.1100470 384.091200
   1297   1300   1301     1   109.8000471 387.438400
   1297   1300   1302     1   109.8000471 387.438400
   1298   1297   1300     1   110.5600475 386.601600
   1298   1297   1299     1   109.7500473 328.025600
   1299   1297   1300     1   110.5600475 386.601600
   1300   1309   1310     1   109.5600471 388.275200
   1300   1309   1311     1   109.5600471 388.275200
   1301   1300   1309     1   109.8000471 387.438400
   1301   1300   1302     1   107.5800459 329.699200
   1302   1300   1309     1   109.8000471 387.438400
   1303   1315   1316     1   109.5600471 388.275200
   1303   1315   1317     1   109.5600471 388.275200
   1304   1303   1315     1   109.8000471 387.438400
   1304   1303   1305     1   107.5800459 329.699200
   1305   1303   1315     1   109.8000471 387.438400
   1306   1312   1313     1   109.5600471 388.275200
   1306   1312   1314     1   109.5600471 388.275200
   1307   1306   1312     1   109.8000471 387.438400
   1307   1306   1308     1   107.5800459 329.699200
   1308   1306   1312     1   109.8000471 387.438400
   1310   1309   1318     1   109.7800468 425.094400
   1310   1309   1311     1   108.4600466 328.025600
   1311   1309   1318     1   109.7800468 425.094400
   1313   1312   2668     1   109.7800468 425.094400
   1313   1312   1314     1   108.4600466 328.025600
   1314   1312   2668     1   109.7800468 425.094400
   1316   1315   2698     1   109.7800468 425.094400
   1316   1315   1317     1   108.4600466 328.025600
   1317   1315   2698     1   109.7800468 425.094400
   1320   1321   1322     1   108.0100461 406.684800
   1320   1321   1323     1   108.0100461 406.684800
   1320   1324   1325     1   108.0100461 406.684800
   1320   1324   1326     1   108.0100461 406.684800
   1320   1327   1328     1   108.0100461 406.684800
   1320   1327   1329     1   108.0100461 406.684800
   1321   1320   1349     1   110.1100470 384.091200
   1321   1333   1334     1   109.8000471 387.438400
   1321   1333   1335     1   109.8000471 387.438400
   1322   1321   1333     1   110.5600475 386.601600
   1322   1321   1323     1   109.7500473 328.025600
   1323   1321   1333     1   110.5600475 386.601600
   1324   1320   1349     1   110.1100470 384.091200
   1324   1336   1337     1   109.8000471 387.438400
   1324   1336   1338     1   109.8000471 387.438400
   1325   1324   1336     1   110.5600475 386.601600
   1325   1324   1326     1   109.7500473 328.025600
   1326   1324   1336     1   110.5600475 386.601600
   1327   1320   1349     1   110.1100470 384.091200
   1327   1330   1331     1   109.8000471 387.438400
   1327   1330   1332     1   109.8000471 387.438400
   1328   1327   1330     1   110.5600475 386.601600
   1328   1327   1329     1   109.7500473 328.025600
   1329   1327   1330     1   110.5600475 386.601600
   1330   1339   1340     1   109.5600471 388.275200
   1330   1339   1341     1   109.5600471 388.275200
   1331   1330   1339     1   109.8000471 387.438400
   1331   1330   1332     1   107.5800459 329.699200
   1332   1330   1339     1   109.8000471 387.438400
   1333   1345   1346     1   109.5600471 388.275200
   1333   1345   1347     1   109.5600471 388.275200
   1334   1333   1345     1   109.8000471 387.438400
   1334   1333   1335     1   107.5800459 329.699200
   1335   1333   1345     1   109.8000471 387.438400
   1336   1342   1343     1   109.5600471 388.275200
   1336   1342   1344     1   109.5600471 388.275200
   1337   1336   1342     1   109.8000471 387.438400
   1337   1336   1338     1   107.5800459 329.699200
   1338   1336   1342     1   109.8000471 387.438400
   1340   1339   1348     1   109.7800468 425.094400
   1340   1339   1341     1   108.4600466 328.025600
   1341   1339   1348     1   109.7800468 425.094400
   1343   1342   2728     1   109.7800468 425.094400
   1343   1342   1344     1   108.4600466 328.025600
   1344   1342   2728     1   109.7800468 425.094400
   1346   1345   2758     1   109.7800468 425.094400
   1346   1345   1347     1   108.4600466 328.025600
   1347   1345   2758     1   109.7800468 425.094400
   1350   1351   1352     1   108.0100461 406.684800
   1350   1351   1353     1   108.0100461 406.684800
   1350   1354   1355     1   108.0100461 406.684800
   1350   1354   1356     1   108.0100461 406.684800
   1350   1357   1358     1   108.0100461 406.684800
   1350   1357   1359     1   108.0100461 406.684800
   1351   1350   1379     1   110.1100470 384.091200
   1351   1363   1364     1   109.8000471 387.438400
   1351   1363   1365     1   109.8000471 387.438400
   1352   1351   1363     1   110.5600475 386.601600
   1352   1351   1353     1   109.7500473 328.025600
   1353   1351   1363     1   110.5600475 386.601600
   1354   1350   1379     1   110.1100470 384.091200
   1354   1366   1367     1   109.8000471 387.438400
   1354   1366   1368     1   109.8000471 387.438400
   1355   1354   1366     1   110.5600475 386.601600
   1355   1354   1356     1   109.7500473 328.025600
   1356   1354   1366     1   110.5600475 386.601600
   1357   1350   1379     1   110.1100470 384.091200
   1357   1360   1361     1   109.8000471 387.438400
   1357   1360   1362     1   109.8000471 387.438400
   1358   1357   1360     1   110.5600475 386.601600
   1358   1357   1359     1   109.7500473 328.025600
   1359   1357   1360     1   110.5600475 386.601600
   1360   1369   1370     1   109.5600471 388.275200
   1360   1369   1371     1   109.5600471 388.275200
   1361   1360   1369     1   109.8000471 387.438400
   1361   1360   1362     1   107.5800459 329.699200
   1362   1360   1369     1   109.8000471 387.438400
   1363   1375   1376     1   109.5600471 388.275200
   1363   1375   1377     1   109.5600471 388.275200
   1364   1363   1375     1   109.8000471 387.438400
   1364   1363   1365     1   107.5800459 329.699200
   1365   1363   1375     1   109.8000471 387.438400
   1366   1372   1373     1   109.5600471 388.275200
   1366   1372   1374     1   109.5600471 388.275200
   1367   1366   1372     1   109.8000471 387.438400
   1367   1366   1368     1   107.5800459 329.699200
   1368   1366   1372     1   109.8000471 387.438400
   1370   1369   1378     1   109.7800468 425.094400
   1370   1369   1371     1   108.4600466 328.025600
   1371   1369   1378     1   109.7800468 425.094400
   1373   1372   2788     1   109.7800468 425.094400
   1373   1372   1374     1   108.4600466 328.025600
   1374   1372   2788     1   109.7800468 425.094400
   1376   1375   2818     1   109.7800468 425.094400
   1376   1375   1377     1   108.4600466 328.025600
   1377   1375   2818     1   109.7800468 425.094400
   1380   1381   1382     1   108.0100461 406.684800
   1380   1381   1383     1   108.0100461 406.684800
   1380   1384   1385     1   108.0100461 406.684800
   1380   1384   1386     1   108.0100461 406.684800
   1380   1387   1388     1   108.0100461 406.684800
   1380   1387   1389     1   108.0100461 406.684800
   1381   1380   1409     1   110.1100470 384.091200
   1381   1393   1394     1   109.8000471 387.438400
   1381   1393   1395     1   109.8000471 387.438400
   1382   1381   1393     1   110.5600475 386.601600
   1382   1381   1383     1   109.7500473 328.025600
   1383   1381   1393     1   110.5600475 386.601600
   1384   1380   1409     1   110.1100470 384.091200
   1384   1396   1397     1   109.8000471 387.438400
   1384   1396   1398     1   109.8000471 387.438400
   1385   1384   1396     1   110.5600475 386.601600
   1385   1384   1386     1   109.7500473 328.025600
   1386   1384   1396     1   110.5600475 386.601600
   1387   1380   1409     1   110.1100470 384.091200
   1387   1390   1391     1   109.8000471 387.438400
   1387   1390   1392     1   109.8000471 387.438400
   1388   1387   1390     1   110.5600475 386.601600
   1388   1387   1389     1   109.7500473 328.025600
   1389   1387   1390     1   110.5600475 386.601600
   1390   1399   1400     1   109.5600471 388.275200
   1390   1399   1401     1   109.5600471 388.275200
   1391   1390   1399     1   109.8000471 387.438400
   1391   1390   1392     1   107.5800459 329.699200
   1392   1390   1399     1   109.8000471 387.438400
   1393   1405   1406     1   109.5600471 388.275200
   1393   1405   1407     1   109.5600471 388.275200
   1394   1393   1405     1   109.8000471 387.438400
   1394   1393   1395     1   107.5800459 329.699200
   1395   1393   1405     1   109.8000471 387.438400
   1396   1402   1403     1   109.5600471 388.275200
   1396   1402   1404     1   109.5600471 388.275200
   1397   1396   1402     1   109.8000471 387.438400
   1397   1396   1398     1   107.5800459 329.699200
   1398   1396   1402     1   109.8000471 387.438400
   1400   1399   1408     1   109.7800468 425.094400
   1400   1399   1401     1   108.4600466 328.025600
   1401   1399   1408     1   109.7800468 425.094400
   1403   1402   2848     1   109.7800468 425.094400
   1403   1402   1404     1   108.4600466 328.025600
   1404   1402   2848     1   109.7800468 425.094400
   1406   1405   2878     1   109.7800468 425.094400
   1406   1405   1407     1   108.4600466 328.025600
   1407   1405   2878     1   109.7800468 425.094400
   1410   1411   1412     1   108.0100461 406.684800
   1410   1411   1413     1   108.0100461 406.684800
   1410   1414   1415     1   108.0100461 406.684800
   1410   1414   1416     1   108.0100461 406.684800
   1410   1417   1418     1   108.0100461 406.684800
   1410   1417   1419     1   108.0100461 406.684800
   1411   1410   1439     1   110.1100470 384.091200
   1411   1423   1424     1   109.8000471 387.438400
   1411   1423   1425     1   109.8000471 387.438400
   1412   1411   1423     1   110.5600475 386.601600
   1412   1411   1413     1   109.7500473 328.025600
   1413   1411   1423     1   110.5600475 386.601600
   1414   1410   1439     1   110.1100470 384.091200
   1414   1426   1427     1   109.8000471 387.438400
   1414   1426   1428     1   109.8000471 387.438400
   1415   1414   1426     1   110.5600475 386.601600
   1415   1414   1416     1   109.7500473 328.025600
   1416   1414   1426     1   110.5600475 386.601600
   1417   1410   1439     1   110.1100470 384.091200
   1417   1420   1421     1   109.8000471 387.438400
   1417   1420   1422     1   109.8000471 387.438400
   1418   1417   1420     1   110.5600475 386.601600
   1418   1417   1419     1   109.7500473 328.025600
   1419   1417   1420     1   110.5600475 386.601600
   1420   1429   1430     1   109.5600471 388.275200
   1420   1429   1431     1   109.5600471 388.275200
   1421   1420   1429     1   109.8000471 387.438400
   1421   1420   1422     1   107.5800459 329.699200
   1422   1420   1429     1   109.8000471 387.438400
   1423   1435   1436     1   109.5600471 388.275200
   1423   1435   1437     1   109.5600471 388.275200
   1424   1423   1435     1   109.8000471 387.438400
   1424   1423   1425     1   107.5800459 329.699200
   1425   1423   1435     1   109.8000471 387.438400
   1426   1432   1433     1   109.5600471 388.275200
   1426   1432   1434     1   109.5600471 388.275200
   1427   1426   1432     1   109.8000471 387.438400
   1427   1426   1428     1   107.5800459 329.699200
   1428   1426   1432     1   109.8000471 387.438400
   1430   1429   1438     1   109.7800468 425.094400
   1430   1429   1431     1   108.4600466 328.025600
   1431   1429   1438     1   109.7800468 425.094400
   1433   1432   2908     1   109.7800468 425.094400
   1433   1432   1434     1   108.4600466 328.025600
   1434   1432   2908     1   109.7800468 425.094400
   1436   1435   2938     1   109.7800468 425.094400
   1436   1435   1437     1   108.4600466 328.025600
   1437   1435   2938     1   109.7800468 425.094400
   1440   1441   1442     1   108.0100461 406.684800
   1440   1441   1443     1   108.0100461 406.684800
   1440   1444   1445     1   108.0100461 406.684800
   1440   1444   1446     1   108.0100461 406.684800
   1440   1447   1448     1   108.0100461 406.684800
   1440   1447   1449     1   108.0100461 406.684800
   1441   1440   1469     1   110.1100470 384.091200
   1441   1453   1454     1   109.8000471 387.438400
   1441   1453   1455     1   109.8000471 387.438400
   1442   1441   1453     1   110.5600475 386.601600
   1442   1441   1443     1   109.7500473 328.025600
   1443   1441   1453     1   110.5600475 386.601600
   1444   1440   1469     1   110.1100470 384.091200
   1444   1456   1457     1   109.8000471 387.438400
   1444   1456   1458     1   109.8000471 387.438400
   1445   1444   1456     1   110.5600475 386.601600
   1445   1444   1446     1   109.7500473 328.025600
   1446   1444   1456     1   110.5600475 386.601600
   1447   1440   1469     1   110.1100470 384.091200
   1447   1450   1451     1   109.8000471 387.438400
   1447   1450   1452     1   109.8000471 387.438400
   1448   1447   1450     1   110.5600475 386.601600
   1448   1447   1449     1   109.7500473 328.025600
   1449   1447   1450     1   110.5600475 386.601600
   1450   1459   1460     1   109.5600471 388.275200
   1450   1459   1461     1   109.5600471 388.275200
   1451   1450   1459     1   109.8000471 387.438400
   1451   1450   1452     1   107.5800459 329.699200
   1452   1450   1459     1   109.8000471 387.438400
   1453   1465   1466     1   109.5600471 388.275200
   1453   1465   1467     1   109.5600471 388.275200
   1454   1453   1465     1   109.8000471 387.438400
   1454   1453   1455     1   107.5800459 329.699200
   1455   1453   1465     1   109.8000471 387.438400
   1456   1462   1463     1   109.5600471 388.275200
   1456   1462   1464     1   109.5600471 388.275200
   1457   1456   1462     1   109.8000471 387.438400
   1457   1456   1458     1   107.5800459 329.699200
   1458   1456   1462     1   109.8000471 387.438400
   1460   1459   1468     1   109.7800468 425.094400
   1460   1459   1461     1   108.4600466 328.025600
   1461   1459   1468     1   109.7800468 425.094400
   1463   1462   2968     1   109.7800468 425.094400
   1463   1462   1464     1   108.4600466 328.025600
   1464   1462   2968     1   109.7800468 425.094400
   1466   1465   2998     1   109.7800468 425.094400
   1466   1465   1467     1   108.4600466 328.025600
   1467   1465   2998     1   109.7800468 425.094400
   1470   1471   1472     1   108.0100461 406.684800
   1470   1471   1473     1   108.0100461 406.684800
   1470   1474   1475     1   108.0100461 406.684800
   1470   1474   1476     1   108.0100461 406.684800
   1470   1477   1478     1   108.0100461 406.684800
   1470   1477   1479     1   108.0100461 406.684800
   1471   1470   1499     1   110.1100470 384.091200
   1471   1483   1484     1   109.8000471 387.438400
   1471   1483   1485     1   109.8000471 387.438400
   1472   1471   1483     1   110.5600475 386.601600
   1472   1471   1473     1   109.7500473 328.025600
   1473   1471   1483     1   110.5600475 386.601600
   1474   1470   1499     1   110.1100470 384.091200
   1474   1486   1487     1   109.8000471 387.438400
   1474   1486   1488     1   109.8000471 387.438400
   1475   1474   1486     1   110.5600475 386.601600
   1475   1474   1476     1   109.7500473 328.025600
   1476   1474   1486     1   110.5600475 386.601600
   1477   1470   1499     1   110.1100470 384.091200
   1477   1480   1481     1   109.8000471 387.438400
   1477   1480   1482     1   109.8000471 387.438400
   1478   1477   1480     1   110.5600475 386.601600
   1478   1477   1479     1   109.7500473 328.025600
   1479   1477   1480     1   110.5600475 386.601600
   1480   1489   1490     1   109.5600471 388.275200
   1480   1489   1491     1   109.5600471 388.275200
   1481   1480   1489     1   109.8000471 387.438400
   1481   1480   1482     1   107.5800459 329.699200
   1482   1480   1489     1   109.8000471 387.438400
   1483   1495   1496     1   109.5600471 388.275200
   1483   1495   1497     1   109.5600471 388.275200
   1484   1483   1495     1   109.8000471 387.438400
   1484   1483   1485     1   107.5800459 329.699200
   1485   1483   1495     1   109.8000471 387.438400
   1486   1492   1493     1   109.5600471 388.275200
   1486   1492   1494     1   109.5600471 388.275200
   1487   1486   1492     1   109.8000471 387.438400
   1487   1486   1488     1   107.5800459 329.699200
   1488   1486   1492     1   109.8000471 387.438400
   1490   1489   1498     1   109.7800468 425.094400
   1490   1489   1491     1   108.4600466 328.025600
   1491   1489   1498     1   109.7800468 425.094400
   1493   1492   3028     1   109.7800468 425.094400
   1493   1492   1494     1   108.4600466 328.025600
   1494   1492   3028     1   109.7800468 425.094400
   1496   1495   3058     1   109.7800468 425.094400
   1496   1495   1497     1   108.4600466 328.025600
   1497   1495   3058     1   109.7800468 425.094400
   1500   1501   1502     1   108.0100461 406.684800
   1500   1501   1503     1   108.0100461 406.684800
   1500   1504   1505     1   108.0100461 406.684800
   1500   1504   1506     1   108.0100461 406.684800
   1500   1507   1508     1   108.0100461 406.684800
   1500   1507   1509     1   108.0100461 406.684800
   1501   1500   1529     1   110.1100470 384.091200
   1501   1513   1514     1   109.8000471 387.438400
   1501   1513   1515     1   109.8000471 387.438400
   1502   1501   1513     1   110.5600475 386.601600
   1502   1501   1503     1   109.7500473 328.025600
   1503   1501   1513     1   110.5600475 386.601600
   1504   1500   1529     1   110.1100470 384.091200
   1504   1516   1517     1   109.8000471 387.438400
   1504   1516   1518     1   109.8000471 387.438400
   1505   1504   1516     1   110.5600475 386.601600
   1505   1504   1506     1   109.7500473 328.025600
   1506   1504   1516     1   110.5600475 386.601600
   1507   1500   1529     1   110.1100470 384.091200
   1507   1510   1511     1   109.8000471 387.438400
   1507   1510   1512     1   109.8000471 387.438400
   1508   1507   1510     1   110.5600475 386.601600
   1508   1507   1509     1   109.7500473 328.025600
   1509   1507   1510     1   110.5600475 386.601600
   1510   1519   1520     1   109.5600471 388.275200
   1510   1519   1521     1   109.5600471 388.275200
   1511   1510   1519     1   109.8000471 387.438400
   1511   1510   1512     1   107.5800459 329.699200
   1512   1510   1519     1   109.8000471 387.438400
   1513   1525   1526     1   109.5600471 388.275200
   1513   1525   1527     1   109.5600471 388.275200
   1514   1513   1525     1   109.8000471 387.438400
   1514   1513   1515     1   107.5800459 329.699200
   1515   1513   1525     1   109.8000471 387.438400
   1516   1522   1523     1   109.5600471 388.275200
   1516   1522   1524     1   109.5600471 388.275200
   1517   1516   1522     1   109.8000471 387.438400
   1517   1516   1518     1   107.5800459 329.699200
   1518   1516   1522     1   109.8000471 387.438400
   1520   1519   1528     1   109.7800468 425.094400
   1520   1519   1521     1   108.4600466 328.025600
   1521   1519   1528     1   109.7800468 425.094400
   1523   1522   3088     1   109.7800468 425.094400
   1523   1522   1524     1   108.4600466 328.025600
   1524   1522   3088     1   109.7800468 425.094400
   1526   1525   3118     1   109.7800468 425.094400
   1526   1525   1527     1   108.4600466 328.025600
   1527   1525   3118     1   109.7800468 425.094400
   1530   1531   1532     1   108.0100461 406.684800
   1530   1531   1533     1   108.0100461 406.684800
   1530   1534   1535     1   108.0100461 406.684800
   1530   1534   1536     1   108.0100461 406.684800
   1530   1537   1538     1   108.0100461 406.684800
   1530   1537   1539     1   108.0100461 406.684800
   1531   1530   1559     1   110.1100470 384.091200
   1531   1543   1544     1   109.8000471 387.438400
   1531   1543   1545     1   109.8000471 387.438400
   1532   1531   1543     1   110.5600475 386.601600
   1532   1531   1533     1   109.7500473 328.025600
   1533   1531   1543     1   110.5600475 386.601600
   1534   1530   1559     1   110.1100470 384.091200
   1534   1546   1547     1   109.8000471 387.438400
   1534   1546   1548     1   109.8000471 387.438400
   1535   1534   1546     1   110.5600475 386.601600
   1535   1534   1536     1   109.7500473 328.025600
   1536   1534   1546     1   110.5600475 386.601600
   1537   1530   1559     1   110.1100470 384.091200
   1537   1540   1541     1   109.8000471 387.438400
   1537   1540   1542     1   109.8000471 387.438400
   1538   1537   1540     1   110.5600475 386.601600
   1538   1537   1539     1   109.7500473 328.025600
   1539   1537   1540     1   110.5600475 386.601600
   1540   1549   1550     1   109.5600471 388.275200
   1540   1549   1551     1   109.5600471 388.275200
   1541   1540   1549     1   109.8000471 387.438400
   1541   1540   1542     1   107.5800459 329.699200
   1542   1540   1549     1   109.8000471 387.438400
   1543   1555   1556     1   109.5600471 388.275200
   1543   1555   1557     1   109.5600471 388.275200
   1544   1543   1555     1   109.8000471 387.438400
   1544   1543   1545     1   107.5800459 329.699200
   1545   1543   1555     1   109.8000471 387.438400
   1546   1552   1553     1   109.5600471 388.275200
   1546   1552   1554     1   109.5600471 388.275200
   1547   1546   1552     1   109.8000471 387.438400
   1547   1546   1548     1   107.5800459 329.699200
   1548   1546   1552     1   109.8000471 387.438400
   1550   1549   1558     1   109.7800468 425.094400
   1550   1549   1551     1   108.4600466 328.025600
   1551   1549   1558     1   109.7800468 425.094400
   1553   1552   3148     1   109.7800468 425.094400
   1553   1552   1554     1   108.4600466 328.025600
   1554   1552   3148     1   109.7800468 425.094400
   1556   1555   3178     1   109.7800468 425.094400
   1556   1555   1557     1   108.4600466 328.025600
   1557   1555   3178     1   109.7800468 425.094400
   1560   1561   1562     1   108.0100461 406.684800
   1560   1561   1563     1   108.0100461 406.684800
   1560   1564   1565     1   108.0100461 406.684800
   1560   1564   1566     1   108.0100461 406.684800
   1560   1567   1568     1   108.0100461 406.684800
   1560   1567   1569     1   108.0100461 406.684800
   1561   1560   1589     1   110.1100470 384.091200
   1561   1573   1574     1   109.8000471 387.438400
   1561   1573   1575     1   109.8000471 387.438400
   1562   1561   1573     1   110.5600475 386.601600
   1562   1561   1563     1   109.7500473 328.025600
   1563   1561   1573     1   110.5600475 386.601600
   1564   1560   1589     1   110.1100470 384.091200
   1564   1576   1577     1   109.8000471 387.438400
   1564   1576   1578     1   109.8000471 387.438400
   1565   1564   1576     1   110.5600475 386.601600
   1565   1564   1566     1   109.7500473 328.025600
   1566   1564   1576     1   110.5600475 386.601600
   1567   1560   1589     1   110.1100470 384.091200
   1567   1570   1571     1   109.8000471 387.438400
   1567   1570   1572     1   109.8000471 387.438400
   1568   1567   1570     1   110.5600475 386.601600
   1568   1567   1569     1   109.7500473 328.025600
   1569   1567   1570     1   110.5600475 386.601600
   1570   1579   1580     1   109.5600471 388.275200
   1570   1579   1581     1   109.5600471 388.275200
   1571   1570   1579     1   109.8000471 387.438400
   1571   1570   1572     1   107.5800459 329.699200
   1572   1570   1579     1   109.8000471 387.438400
   1573   1585   1586     1   109.5600471 388.275200
   1573   1585   1587     1   109.5600471 388.275200
   1574   1573   1585     1   109.8000471 387.438400
   1574   1573   1575     1   107.5800459 329.699200
   1575   1573   1585     1   109.8000471 387.438400
   1576   1582   1583     1   109.5600471 388.275200
   1576   1582   1584     1   109.5600471 388.275200
   1577   1576   1582     1   109.8000471 387.438400
   1577   1576   1578     1   107.5800459 329.699200
   1578   1576   1582     1   109.8000471 387.438400
   1580   1579   1588     1   109.7800468 425.094400
   1580   1579   1581     1   108.4600466 328.025600
   1581   1579   1588     1   109.7800468 425.094400
   1583   1582   3208     1   109.7800468 425.094400
   1583   1582   1584     1   108.4600466 328.025600
   1584   1582   3208     1   109.7800468 425.094400
   1586   1585   3238     1   109.7800468 425.094400
   1586   1585   1587     1   108.4600466 328.025600
   1587   1585   3238     1   109.7800468 425.094400
   1590   1591   1592     1   108.0100461 406.684800
   1590   1591   1593     1   108.0100461 406.684800
   1590   1594   1595     1   108.0100461 406.684800
   1590   1594   1596     1   108.0100461 406.684800
   1590   1597   1598     1   108.0100461 406.684800
   1590   1597   1599     1   108.0100461 406.684800
   1591   1590   1619     1   110.1100470 384.091200
   1591   1603   1604     1   109.8000471 387.438400
   1591   1603   1605     1   109.8000471 387.438400
   1592   1591   1603     1   110.5600475 386.601600
   1592   1591   1593     1   109.7500473 328.025600
   1593   1591   1603     1   110.5600475 386.601600
   1594   1590   1619     1   110.1100470 384.091200
   1594   1606   1607     1   109.8000471 387.438400
   1594   1606   1608     1   109.8000471 387.438400
   1595   1594   1606     1   110.5600475 386.601600
   1595   1594   1596     1   109.7500473 328.025600
   1596   1594   1606     1   110.5600475 386.601600
   1597   1590   1619     1   110.1100470 384.091200
   1597   1600   1601     1   109.8000471 387.438400
   1597   1600   1602     1   109.8000471 387.438400
   1598   1597   1600     1   110.5600475 386.601600
   1598   1597   1599     1   109.7500473 328.025600
   1599   1597   1600     1   110.5600475 386.601600
   1600   1609   1610     1   109.5600471 388.275200
   1600   1609   1611     1   109.5600471 388.275200
   1601   1600   1609     1   109.8000471 387.438400
   1601   1600   1602     1   107.5800459 329.699200
   1602   1600   1609     1   109.8000471 387.438400
   1603   1615   1616     1   109.5600471 388.275200
   1603   1615   1617     1   109.5600471 388.275200
   1604   1603   1615     1   109.8000471 387.438400
   1604   1603   1605     1   107.5800459 329.699200
   1605   1603   1615     1   109.8000471 387.438400
   1606   1612   1613     1   109.5600471 388.275200
   1606   1612   1614     1   109.5600471 388.275200
   1607   1606   1612     1   109.8000471 387.438400
   1607   1606   1608     1   107.5800459 329.699200
   1608   1606   1612     1   109.8000471 387.438400
   1610   1609   1618     1   109.7800468 425.094400
   1610   1609   1611     1   108.4600466 328.025600
   1611   1609   1618     1   109.7800468 425.094400
   1613   1612   3268     1   109.7800468 425.094400
   1613   1612   1614     1   108.4600466 328.025600
   1614   1612   3268     1   109.7800468 425.094400
   1616   1615   3298     1   109.7800468 425.094400
   1616   1615   1617     1   108.4600466 328.025600
   1617   1615   3298     1   109.7800468 425.094400
   1620   1621   1622     1   108.0100461 406.684800
   1620   1621   1623     1   108.0100461 406.684800
   1620   1624   1625     1   108.0100461 406.684800
   1620   1624   1626     1   108.0100461 406.684800
   1620   1627   1628     1   108.0100461 406.684800
   1620   1627   1629     1   108.0100461 406.684800
   1621   1620   1649     1   110.1100470 384.091200
   1621   1633   1634     1   109.8000471 387.438400
   1621   1633   1635     1   109.8000471 387.438400
   1622   1621   1633     1   110.5600475 386.601600
   1622   1621   1623     1   109.7500473 328.025600
   1623   1621   1633     1   110.5600475 386.601600
   1624   1620   1649     1   110.1100470 384.091200
   1624   1636   1637     1   109.8000471 387.438400
   1624   1636   1638     1   109.8000471 387.438400
   1625   1624   1636     1   110.5600475 386.601600
   1625   1624   1626     1   109.7500473 328.025600
   1626   1624   1636     1   110.5600475 386.601600
   1627   1620   1649     1   110.1100470 384.091200
   1627   1630   1631     1   109.8000471 387.438400
   1627   1630   1632     1   109.8000471 387.438400
   1628   1627   1630     1   110.5600475 386.601600
   1628   1627   1629     1   109.7500473 328.025600
   1629   1627   1630     1   110.5600475 386.601600
   1630   1639   1640     1   109.5600471 388.275200
   1630   1639   1641     1   109.5600471 388.275200
   1631   1630   1639     1   109.8000471 387.438400
   1631   1630   1632     1   107.5800459 329.699200
   1632   1630   1639     1   109.8000471 387.438400
   1633   1645   1646     1   109.5600471 388.275200
   1633   1645   1647     1   109.5600471 388.275200
   1634   1633   1645     1   109.8000471 387.438400
   1634   1633   1635     1   107.5800459 329.699200
   1635   1633   1645     1   109.8000471 387.438400
   1636   1642   1643     1   109.5600471 388.275200
   1636   1642   1644     1   109.5600471 388.275200
   1637   1636   1642     1   109.8000471 387.438400
   1637   1636   1638     1   107.5800459 329.699200
   1638   1636   1642     1   109.8000471 387.438400
   1640   1639   1648     1   109.7800468 425.094400
   1640   1639   1641     1   108.4600466 328.025600
   1641   1639   1648     1   109.7800468 425.094400
   1643   1642   3328     1   109.7800468 425.094400
   1643   1642   1644     1   108.4600466 328.025600
   1644   1642   3328     1   109.7800468 425.094400
   1646   1645   3358     1   109.7800468 425.094400
   1646   1645   1647     1   108.4600466 328.025600
   1647   1645   3358     1   109.7800468 425.094400
   1650   1651   1652     1   108.0100461 406.684800
   1650   1651   1653     1   108.0100461 406.684800
   1650   1654   1655     1   108.0100461 406.684800
   1650   1654   1656     1   108.0100461 406.684800
   1650   1657   1658     1   108.0100461 406.684800
   1650   1657   1659     1   108.0100461 406.684800
   1651   1650   1679     1   110.1100470 384.091200
   1651   1663   1664     1   109.8000471 387.438400
   1651   1663   1665     1   109.8000471 387.438400
   1652   1651   1663     1   110.5600475 386.601600
   1652   1651   1653     1   109.7500473 328.025600
   1653   1651   1663     1   110.5600475 386.601600
   1654   1650   1679     1   110.1100470 384.091200
   1654   1666   1667     1   109.8000471 387.438400
   1654   1666   1668     1   109.8000471 387.438400
   1655   1654   1666     1   110.5600475 386.601600
   1655   1654   1656     1   109.7500473 328.025600
   1656   1654   1666     1   110.5600475 386.601600
   1657   1650   1679     1   110.1100470 384.091200
   1657   1660   1661     1   109.8000471 387.438400
   1657   1660   1662     1   109.8000471 387.438400
   1658   1657   1660     1   110.5600475 386.601600
   1658   1657   1659     1   109.7500473 328.025600
   1659   1657   1660     1   110.5600475 386.601600
   1660   1669   1670     1   109.5600471 388.275200
   1660   1669   1671     1   109.5600471 388.275200
   1661   1660   1669     1   109.8000471 387.438400
   1661   1660   1662     1   107.5800459 329.699200
   1662   1660   1669     1   109.8000471 387.438400
   1663   1675   1676     1   109.5600471 388.275200
   1663   1675   1677     1   109.5600471 388.275200
   1664   1663   1675     1   109.8000471 387.438400
   1664   1663   1665     1   107.5800459 329.699200
   1665   1663   1675     1   109.8000471 387.438400
   1666   1672   1673     1   109.5600471 388.275200
   1666   1672   1674     1   109.5600471 388.275200
   1667   1666   1672     1   109.8000471 387.438400
   1667   1666   1668     1   107.5800459 329.699200
   1668   1666   1672     1   109.8000471 387.438400
   1670   1669   1678     1   109.7800468 425.094400
   1670   1669   1671     1   108.4600466 328.025600
   1671   1669   1678     1   109.7800468 425.094400
   1673   1672   3388     1   109.7800468 425.094400
   1673   1672   1674     1   108.4600466 328.025600
   1674   1672   3388     1   109.7800468 425.094400
   1676   1675   3418     1   109.7800468 425.094400
   1676   1675   1677     1   108.4600466 328.025600
   1677   1675   3418     1   109.7800468 425.094400
   1680   1681   1682     1   108.0100461 406.684800
   1680   1681   1683     1   108.0100461 406.684800
   1680   1684   1685     1   108.0100461 406.684800
   1680   1684   1686     1   108.0100461 406.684800
   1680   1687   1688     1   108.0100461 406.684800
   1680   1687   1689     1   108.0100461 406.684800
   1681   1680   1709     1   110.1100470 384.091200
   1681   1693   1694     1   109.8000471 387.438400
   1681   1693   1695     1   109.8000471 387.438400
   1682   1681   1693     1   110.5600475 386.601600
   1682   1681   1683     1   109.7500473 328.025600
   1683   1681   1693     1   110.5600475 386.601600
   1684   1680   1709     1   110.1100470 384.091200
   1684   1696   1697     1   109.8000471 387.438400
   1684   1696   1698     1   109.8000471 387.438400
   1685   1684   1696     1   110.5600475 386.601600
   1685   1684   1686     1   109.7500473 328.025600
   1686   1684   1696     1   110.5600475 386.601600
   1687   1680   1709     1   110.1100470 384.091200
   1687   1690   1691     1   109.8000471 387.438400
   1687   1690   1692     1   109.8000471 387.438400
   1688   1687   1690     1   110.5600475 386.601600
   1688   1687   1689     1   109.7500473 328.025600
   1689   1687   1690     1   110.5600475 386.601600
   1690   1699   1700     1   109.5600471 388.275200
   1690   1699   1701     1   109.5600471 388.275200
   1691   1690   1699     1   109.8000471 387.438400
   1691   1690   1692     1   107.5800459 329.699200
   1692   1690   1699     1   109.8000471 387.438400
   1693   1705   1706     1   109.5600471 388.275200
   1693   1705   1707     1   109.5600471 388.275200
   1694   1693   1705     1   109.8000471 387.438400
   1694   1693   1695     1   107.5800459 329.699200
   1695   1693   1705     1   109.8000471 387.438400
   1696   1702   1703     1   109.5600471 388.275200
   1696   1702   1704     1   109.5600471 388.275200
   1697   1696   1702     1   109.8000471 387.438400
   1697   1696   1698     1   107.5800459 329.699200
   1698   1696   1702     1   109.8000471 387.438400
   1700   1699   1708     1   109.7800468 425.094400
   1700   1699   1701     1   108.4600466 328.025600
   1701   1699   1708     1   109.7800468 425.094400
   1703   1702   3448     1   109.7800468 425.094400
   1703   1702   1704     1   108.4600466 328.025600
   1704   1702   3448     1   109.7800468 425.094400
   1706   1705   3478     1   109.7800468 425.094400
   1706   1705   1707     1   108.4600466 328.025600
   1707   1705   3478     1   109.7800468 425.094400
   1710   1711   1712     1   108.0100461 406.684800
   1710   1711   1713     1   108.0100461 406.684800
   1710   1714   1715     1   108.0100461 406.684800
   1710   1714   1716     1   108.0100461 406.684800
   1710   1717   1718     1   108.0100461 406.684800
   1710   1717   1719     1   108.0100461 406.684800
   1711   1710   1739     1   110.1100470 384.091200
   1711   1723   1724     1   109.8000471 387.438400
   1711   1723   1725     1   109.8000471 387.438400
   1712   1711   1723     1   110.5600475 386.601600
   1712   1711   1713     1   109.7500473 328.025600
   1713   1711   1723     1   110.5600475 386.601600
   1714   1710   1739     1   110.1100470 384.091200
   1714   1726   1727     1   109.8000471 387.438400
   1714   1726   1728     1   109.8000471 387.438400
   1715   1714   1726     1   110.5600475 386.601600
   1715   1714   1716     1   109.7500473 328.025600
   1716   1714   1726     1   110.5600475 386.601600
   1717   1710   1739     1   110.1100470 384.091200
   1717   1720   1721     1   109.8000471 387.438400
   1717   1720   1722     1   109.8000471 387.438400
   1718   1717   1720     1   110.5600475 386.601600
   1718   1717   1719     1   109.7500473 328.025600
   1719   1717   1720     1   110.5600475 386.601600
   1720   1729   1730     1   109.5600471 388.275200
   1720   1729   1731     1   109.5600471 388.275200
   1721   1720   1729     1   109.8000471 387.438400
   1721   1720   1722     1   107.5800459 329.699200
   1722   1720   1729     1   109.8000471 387.438400
   1723   1735   1736     1   109.5600471 388.275200
   1723   1735   1737     1   109.5600471 388.275200
   1724   1723   1735     1   109.8000471 387.438400
   1724   1723   1725     1   107.5800459 329.699200
   1725   1723   1735     1   109.8000471 387.438400
   1726   1732   1733     1   109.5600471 388.275200
   1726   1732   1734     1   109.5600471 388.275200
   1727   1726   1732     1   109.8000471 387.438400
   1727   1726   1728     1   107.5800459 329.699200
   1728   1726   1732     1   109.8000471 387.438400
   1730   1729   1738     1   109.7800468 425.094400
   1730   1729   1731     1   108.4600466 328.025600
   1731   1729   1738     1   109.7800468 425.094400
   1733   1732   3508     1   109.7800468 425.094400
   1733   1732   1734     1   108.4600466 328.025600
   1734   1732   3508     1   109.7800468 425.094400
   1736   1735   3538     1   109.7800468 425.094400
   1736   1735   1737     1   108.4600466 328.025600
   1737   1735   3538     1   109.7800468 425.094400
   1740   1741   1742     1   108.0100461 406.684800
   1740   1741   1743     1   108.0100461 406.684800
   1740   1744   1745     1   108.0100461 406.684800
   1740   1744   1746     1   108.0100461 406.684800
   1740   1747   1748     1   108.0100461 406.684800
   1740   1747   1749     1   108.0100461 406.684800
   1741   1740   1769     1   110.1100470 384.091200
   1741   1753   1754     1   109.8000471 387.438400
   1741   1753   1755     1   109.8000471 387.438400
   1742   1741   1753     1   110.5600475 386.601600
   1742   1741   1743     1   109.7500473 328.025600
   1743   1741   1753     1   110.5600475 386.601600
   1744   1740   1769     1   110.1100470 384.091200
   1744   1756   1757     1   109.8000471 387.438400
   1744   1756   1758     1   109.8000471 387.438400
   1745   1744   1756     1   110.5600475 386.601600
   1745   1744   1746     1   109.7500473 328.025600
   1746   1744   1756     1   110.5600475 386.601600
   1747   1740   1769     1   110.1100470 384.091200
   1747   1750   1751     1   109.8000471 387.438400
   1747   1750   1752     1   109.8000471 387.438400
   1748   1747   1750     1   110.5600475 386.601600
   1748   1747   1749     1   109.7500473 328.025600
   1749   1747   1750     1   110.5600475 386.601600
   1750   1759   1760     1   109.5600471 388.275200
   1750   1759   1761     1   109.5600471 388.275200
   1751   1750   1759     1   109.8000471 387.438400
   1751   1750   1752     1   107.5800459 329.699200
   1752   1750   1759     1   109.8000471 387.438400
   1753   1765   1766     1   109.5600471 388.275200
   1753   1765   1767     1   109.5600471 388.275200
   1754   1753   1765     1   109.8000471 387.438400
   1754   1753   1755     1   107.5800459 329.699200
   1755   1753   1765     1   109.8000471 387.438400
   1756   1762   1763     1   109.5600471 388.275200
   1756   1762   1764     1   109.5600471 388.275200
   1757   1756   1762     1   109.8000471 387.438400
   1757   1756   1758     1   107.5800459 329.699200
   1758   1756   1762     1   109.8000471 387.438400
   1760   1759   1768     1   109.7800468 425.094400
   1760   1759   1761     1   108.4600466 328.025600
   1761   1759   1768     1   109.7800468 425.094400
   1763   1762   3568     1   109.7800468 425.094400
   1763   1762   1764     1   108.4600466 328.025600
   1764   1762   3568     1   109.7800468 425.094400
   1766   1765   3598     1   109.7800468 425.094400
   1766   1765   1767     1   108.4600466 328.025600
   1767   1765   3598     1   109.7800468 425.094400
   1770   1771   1772     1   108.0100461 406.684800
   1770   1771   1773     1   108.0100461 406.684800
   1770   1774   1775     1   108.0100461 406.684800
   1770   1774   1776     1   108.0100461 406.684800
   1770   1777   1778     1   108.0100461 406.684800
   1770   1777   1779     1   108.0100461 406.684800
   1771   1770   1799     1   110.1100470 384.091200
   1771   1783   1784     1   109.8000471 387.438400
   1771   1783   1785     1   109.8000471 387.438400
   1772   1771   1783     1   110.5600475 386.601600
   1772   1771   1773     1   109.7500473 328.025600
   1773   1771   1783     1   110.5600475 386.601600
   1774   1770   1799     1   110.1100470 384.091200
   1774   1786   1787     1   109.8000471 387.438400
   1774   1786   1788     1   109.8000471 387.438400
   1775   1774   1786     1   110.5600475 386.601600
   1775   1774   1776     1   109.7500473 328.025600
   1776   1774   1786     1   110.5600475 386.601600
   1777   1770   1799     1   110.1100470 384.091200
   1777   1780   1781     1   109.8000471 387.438400
   1777   1780   1782     1   109.8000471 387.438400
   1778   1777   1780     1   110.5600475 386.601600
   1778   1777   1779     1   109.7500473 328.025600
   1779   1777   1780     1   110.5600475 386.601600
   1780   1789   1790     1   109.5600471 388.275200
   1780   1789   1791     1   109.5600471 388.275200
   1781   1780   1789     1   109.8000471 387.438400
   1781   1780   1782     1   107.5800459 329.699200
   1782   1780   1789     1   109.8000471 387.438400
   1783   1795   1796     1   109.5600471 388.275200
   1783   1795   1797     1   109.5600471 388.275200
   1784   1783   1795     1   109.8000471 387.438400
   1784   1783   1785     1   107.5800459 329.699200
   1785   1783   1795     1   109.8000471 387.438400
   1786   1792   1793     1   109.5600471 388.275200
   1786   1792   1794     1   109.5600471 388.275200
   1787   1786   1792     1   109.8000471 387.438400
   1787   1786   1788     1   107.5800459 329.699200
   1788   1786   1792     1   109.8000471 387.438400
   1790   1789   1798     1   109.7800468 425.094400
   1790   1789   1791     1   108.4600466 328.025600
   1791   1789   1798     1   109.7800468 425.094400
   1793   1792   3628     1   109.7800468 425.094400
   1793   1792   1794     1   108.4600466 328.025600
   1794   1792   3628     1   109.7800468 425.094400
   1796   1795   3658     1   109.7800468 425.094400
   1796   1795   1797     1   108.4600466 328.025600
   1797   1795   3658     1   109.7800468 425.094400
   1800   1801   1802     1   108.0100461 406.684800
   1800   1801   1803     1   108.0100461 406.684800
   1800   1804   1805     1   108.0100461 406.684800
   1800   1804   1806     1   108.0100461 406.684800
   1800   1807   1808     1   108.0100461 406.684800
   1800   1807   1809     1   108.0100461 406.684800
   1801   1800   1829     1   110.1100470 384.091200
   1801   1813   1814     1   109.8000471 387.438400
   1801   1813   1815     1   109.8000471 387.438400
   1802   1801   1813     1   110.5600475 386.601600
   1802   1801   1803     1   109.7500473 328.025600
   1803   1801   1813     1   110.5600475 386.601600
   1804   1800   1829     1   110.1100470 384.091200
   1804   1816   1817     1   109.8000471 387.438400
   1804   1816   1818     1   109.8000471 387.438400
   1805   1804   1816     1   110.5600475 386.601600
   1805   1804   1806     1   109.7500473 328.025600
   1806   1804   1816     1   110.5600475 386.601600
   1807   1800   1829     1   110.1100470 384.091200
   1807   1810   1811     1   109.8000471 387.438400
   1807   1810   1812     1   109.8000471 387.438400
   1808   1807   1810     1   110.5600475 386.601600
   1808   1807   1809     1   109.7500473 328.025600
   1809   1807   1810     1   110.5600475 386.601600
   1810   1819   1820     1   109.5600471 388.275200
   1810   1819   1821     1   109.5600471 388.275200
   1811   1810   1819     1   109.8000471 387.438400
   1811   1810   1812     1   107.5800459 329.699200
   1812   1810   1819     1   109.8000471 387.438400
   1813   1825   1826     1   109.5600471 388.275200
   1813   1825   1827     1   109.5600471 388.275200
   1814   1813   1825     1   109.8000471 387.438400
   1814   1813   1815     1   107.5800459 329.699200
   1815   1813   1825     1   109.8000471 387.438400
   1816   1822   1823     1   109.5600471 388.275200
   1816   1822   1824     1   109.5600471 388.275200
   1817   1816   1822     1   109.8000471 387.438400
   1817   1816   1818     1   107.5800459 329.699200
   1818   1816   1822     1   109.8000471 387.438400
   1820   1819   1828     1   109.7800468 425.094400
   1820   1819   1821     1   108.4600466 328.025600
   1821   1819   1828     1   109.7800468 425.094400
   1823   1822   3688     1   109.7800468 425.094400
   1823   1822   1824     1   108.4600466 328.025600
   1824   1822   3688     1   109.7800468 425.094400
   1826   1825   3718     1   109.7800468 425.094400
   1826   1825   1827     1   108.4600466 328.025600
   1827   1825   3718     1   109.7800468 425.094400
   1830   1831   1832     1   108.0100461 406.684800
   1830   1831   1833     1   108.0100461 406.684800
   1830   1834   1835     1   108.0100461 406.684800
   1830   1834   1836     1   108.0100461 406.684800
   1830   1837   1838     1   108.0100461 406.684800
   1830   1837   1839     1   108.0100461 406.684800
   1831   1830   1859     1   110.1100470 384.091200
   1831   1843   1844     1   109.8000471 387.438400
   1831   1843   1845     1   109.8000471 387.438400
   1832   1831   1843     1   110.5600475 386.601600
   1832   1831   1833     1   109.7500473 328.025600
   1833   1831   1843     1   110.5600475 386.601600
   1834   1830   1859     1   110.1100470 384.091200
   1834   1846   1847     1   109.8000471 387.438400
   1834   1846   1848     1   109.8000471 387.438400
   1835   1834   1846     1   110.5600475 386.601600
   1835   1834   1836     1   109.7500473 328.025600
   1836   1834   1846     1   110.5600475 386.601600
   1837   1830   1859     1   110.1100470 384.091200
   1837   1840   1841     1   109.8000471 387.438400
   1837   1840   1842     1   109.8000471 387.438400
   1838   1837   1840     1   110.5600475 386.601600
   1838   1837   1839     1   109.7500473 328.025600
   1839   1837   1840     1   110.5600475 386.601600
   1840   1849   1850     1   109.5600471 388.275200
   1840   1849   1851     1   109.5600471 388.275200
   1841   1840   1849     1   109.8000471 387.438400
   1841   1840   1842     1   107.5800459 329.699200
   1842   1840   1849     1   109.8000471 387.438400
   1843   1855   1856     1   109.5600471 388.275200
   1843   1855   1857     1   109.5600471 388.275200
   1844   1843   1855     1   109.8000471 387.438400
   1844   1843   1845     1   107.5800459 329.699200
   1845   1843   1855     1   109.8000471 387.438400
   1846   1852   1853     1   109.5600471 388.275200
   1846   1852   1854     1   109.5600471 388.275200
   1847   1846   1852     1   109.8000471 387.438400
   1847   1846   1848     1   107.5800459 329.699200
   1848   1846   1852     1   109.8000471 387.438400
   1850   1849   1858     1   109.7800468 425.094400
   1850   1849   1851     1   108.4600466 328.025600
   1851   1849   1858     1   109.7800468 425.094400
   1853   1852   3748     1   109.7800468 425.094400
   1853   1852   1854     1   108.4600466 328.025600
   1854   1852   3748     1   109.7800468 425.094400
   1856   1855   3778     1   109.7800468 425.094400
   1856   1855   1857     1   108.4600466 328.025600
   1857   1855   3778     1   109.7800468 425.094400
   1860   1861   1862     1   108.0100461 406.684800
   1860   1861   1863     1   108.0100461 406.684800
   1860   1864   1865     1   108.0100461 406.684800
   1860   1864   1866     1   108.0100461 406.684800
   1860   1867   1868     1   108.0100461 406.684800
   1860   1867   1869     1   108.0100461 406.684800
   1861   1860   1889     1   110.1100470 384.091200
   1861   1873   1874     1   109.8000471 387.438400
   1861   1873   1875     1   109.8000471 387.438400
   1862   1861   1873     1   110.5600475 386.601600
   1862   1861   1863     1   109.7500473 328.025600
   1863   1861   1873     1   110.5600475 386.601600
   1864   1860   1889     1   110.1100470 384.091200
   1864   1876   1877     1   109.8000471 387.438400
   1864   1876   1878     1   109.8000471 387.438400
   1865   1864   1876     1   110.5600475 386.601600
   1865   1864   1866     1   109.7500473 328.025600
   1866   1864   1876     1   110.5600475 386.601600
   1867   1860   1889     1   110.1100470 384.091200
   1867   1870   1871     1   109.8000471 387.438400
   1867   1870   1872     1   109.8000471 387.438400
   1868   1867   1870     1   110.5600475 386.601600
   1868   1867   1869     1   109.7500473 328.025600
   1869   1867   1870     1   110.5600475 386.601600
   1870   1879   1880     1   109.5600471 388.275200
   1870   1879   1881     1   109.5600471 388.275200
   1871   1870   1879     1   109.8000471 387.438400
   1871   1870   1872     1   107.5800459 329.699200
   1872   1870   1879     1   109.8000471 387.438400
   1873   1885   1886     1   109.5600471 388.275200
   1873   1885   1887     1   109.5600471 388.275200
   1874   1873   1885     1   109.8000471 387.438400
   1874   1873   1875     1   107.5800459 329.699200
   1875   1873   1885     1   109.8000471 387.438400
   1876   1882   1883     1   109.5600471 388.275200
   1876   1882   1884     1   109.5600471 388.275200
   1877   1876   1882     1   109.8000471 387.438400
   1877   1876   1878     1   107.5800459 329.699200
   1878   1876   1882     1   109.8000471 387.438400
   1880   1879   1888     1   109.7800468 425.094400
   1880   1879   1881     1   108.4600466 328.025600
   1881   1879   1888     1   109.7800468 425.094400
   1883   1882   3808     1   109.7800468 425.094400
   1883   1882   1884     1   108.4600466 328.025600
   1884   1882   3808     1   109.7800468 425.094400
   1886   1885   3838     1   109.7800468 425.094400
   1886   1885   1887     1   108.4600466 328.025600
   1887   1885   3838     1   109.7800468 425.094400
   1890   1891   1892     1   108.0100461 406.684800
   1890   1891   1893     1   108.0100461 406.684800
   1890   1894   1895     1   108.0100461 406.684800
   1890   1894   1896     1   108.0100461 406.684800
   1890   1897   1898     1   108.0100461 406.684800
   1890   1897   1899     1   108.0100461 406.684800
   1891   1890   1919     1   110.1100470 384.091200
   1891   1903   1904     1   109.8000471 387.438400
   1891   1903   1905     1   109.8000471 387.438400
   1892   1891   1903     1   110.5600475 386.601600
   1892   1891   1893     1   109.7500473 328.025600
   1893   1891   1903     1   110.5600475 386.601600
   1894   1890   1919     1   110.1100470 384.091200
   1894   1906   1907     1   109.8000471 387.438400
   1894   1906   1908     1   109.8000471 387.438400
   1895   1894   1906     1   110.5600475 386.601600
   1895   1894   1896     1   109.7500473 328.025600
   1896   1894   1906     1   110.5600475 386.601600
   1897   1890   1919     1   110.1100470 384.091200
   1897   1900   1901     1   109.8000471 387.438400
   1897   1900   1902     1   109.8000471 387.438400
   1898   1897   1900     1   110.5600475 386.601600
   1898   1897   1899     1   109.7500473 328.025600
   1899   1897   1900     1   110.5600475 386.601600
   1900   1909   1910     1   109.5600471 388.275200
   1900   1909   1911     1   109.5600471 388.275200
   1901   1900   1909     1   109.8000471 387.438400
   1901   1900   1902     1   107.5800459 329.699200
   1902   1900   1909     1   109.8000471 387.438400
   1903   1915   1916     1   109.5600471 388.275200
   1903   1915   1917     1   109.5600471 388.275200
   1904   1903   1915     1   109.8000471 387.438400
   1904   1903   1905     1   107.5800459 329.699200
   1905   1903   1915     1   109.8000471 387.438400
   1906   1912   1913     1   109.5600471 388.275200
   1906   1912   1914     1   109.5600471 388.275200
   1907   1906   1912     1   109.8000471 387.438400
   1907   1906   1908     1   107.5800459 329.699200
   1908   1906   1912     1   109.8000471 387.438400
   1910   1909   1918     1   109.7800468 425.094400
   1910   1909   1911     1   108.4600466 328.025600
   1911   1909   1918     1   109.7800468 425.094400
   1913   1912   3868     1   109.7800468 425.094400
   1913   1912   1914     1   108.4600466 328.025600
   1914   1912   3868     1   109.7800468 425.094400
   1916   1915   3898     1   109.7800468 425.094400
   1916   1915   1917     1   108.4600466 328.025600
   1917   1915   3898     1   109.7800468 425.094400
   1920   1921   1922     1   108.0100461 406.684800
   1920   1921   1923     1   108.0100461 406.684800
   1920   1924   1925     1   108.0100461 406.684800
   1920   1924   1926     1   108.0100461 406.684800
   1920   1927   1928     1   108.0100461 406.684800
   1920   1927   1929     1   108.0100461 406.684800
   1921   1920   1949     1   110.1100470 384.091200
   1921   1933   1934     1   109.8000471 387.438400
   1921   1933   1935     1   109.8000471 387.438400
   1922   1921   1933     1   110.5600475 386.601600
   1922   1921   1923     1   109.7500473 328.025600
   1923   1921   1933     1   110.5600475 386.601600
   1924   1920   1949     1   110.1100470 384.091200
   1924   1936   1937     1   109.8000471 387.438400
   1924   1936   1938     1   109.8000471 387.438400
   1925   1924   1936     1   110.5600475 386.601600
   1925   1924   1926     1   109.7500473 328.025600
   1926   1924   1936     1   110.5600475 386.601600
   1927   1920   1949     1   110.1100470 384.091200
   1927   1930   1931     1   109.8000471 387.438400
   1927   1930   1932     1   109.8000471 387.438400
   1928   1927   1930     1   110.5600475 386.601600
   1928   1927   1929     1   109.7500473 328.025600
   1929   1927   1930     1   110.5600475 386.601600
   1930   1939   1940     1   109.5600471 388.275200
   1930   1939   1941     1   109.5600471 388.275200
   1931   1930   1939     1   109.8000471 387.438400
   1931   1930   1932     1   107.5800459 329.699200
   1932   1930   1939     1   109.8000471 387.438400
   1933   1945   1946     1   109.5600471 388.275200
   1933   1945   1947     1   109.5600471 388.275200
   1934   1933   1945     1   109.8000471 387.438400
   1934   1933   1935     1   107.5800459 329.699200
   1935   1933   1945     1   109.8000471 387.438400
   1936   1942   1943     1   109.5600471 388.275200
   1936   1942   1944     1   109.5600471 388.275200
   1937   1936   1942     1   109.8000471 387.438400
   1937   1936   1938     1   107.5800459 329.699200
   1938   1936   1942     1   109.8000471 387.438400
   1940   1939   1948     1   109.7800468 425.094400
   1940   1939   1941     1   108.4600466 328.025600
   1941   1939   1948     1   109.7800468 425.094400
   1943   1942   3928     1   109.7800468 425.094400
   1943   1942   1944     1   108.4600466 328.025600
   1944   1942   3928     1   109.7800468 425.094400
   1946   1945   3958     1   109.7800468 425.094400
   1946   1945   1947     1   108.4600466 328.025600
   1947   1945   3958     1   109.7800468 425.094400
   1950   1951   1952     1   108.0100461 406.684800
   1950   1951   1953     1   108.0100461 406.684800
   1950   1954   1955     1   108.0100461 406.684800
   1950   1954   1956     1   108.0100461 406.684800
   1950   1957   1958     1   108.0100461 406.684800
   1950   1957   1959     1   108.0100461 406.684800
   1951   1950   1979     1   110.1100470 384.091200
   1951   1963   1964     1   109.8000471 387.438400
   1951   1963   1965     1   109.8000471 387.438400
   1952   1951   1963     1   110.5600475 386.601600
   1952   1951   1953     1   109.7500473 328.025600
   1953   1951   1963     1   110.5600475 386.601600
   1954   1950   1979     1   110.1100470 384.091200
   1954   1966   1967     1   109.8000471 387.438400
   1954   1966   1968     1   109.8000471 387.438400
   1955   1954   1966     1   110.5600475 386.601600
   1955   1954   1956     1   109.7500473 328.025600
   1956   1954   1966     1   110.5600475 386.601600
   1957   1950   1979     1   110.1100470 384.091200
   1957   1960   1961     1   109.8000471 387.438400
   1957   1960   1962     1   109.8000471 387.438400
   1958   1957   1960     1   110.5600475 386.601600
   1958   1957   1959     1   109.7500473 328.025600
   1959   1957   1960     1   110.5600475 386.601600
   1960   1969   1970     1   109.5600471 388.275200
   1960   1969   1971     1   109.5600471 388.275200
   1961   1960   1969     1   109.8000471 387.438400
   1961   1960   1962     1   107.5800459 329.699200
   1962   1960   1969     1   109.8000471 387.438400
   1963   1975   1976     1   109.5600471 388.275200
   1963   1975   1977     1   109.5600471 388.275200
   1964   1963   1975     1   109.8000471 387.438400
   1964   1963   1965     1   107.5800459 329.699200
   1965   1963   1975     1   109.8000471 387.438400
   1966   1972   1973     1   109.5600471 388.275200
   1966   1972   1974     1   109.5600471 388.275200
   1967   1966   1972     1   109.8000471 387.438400
   1967   1966   1968     1   107.5800459 329.699200
   1968   1966   1972     1   109.8000471 387.438400
   1970   1969   1978     1   109.7800468 425.094400
   1970   1969   1971     1   108.4600466 328.025600
   1971   1969   1978     1   109.7800468 425.094400
   1973   1972   3988     1   109.7800468 425.094400
   1973   1972   1974     1   108.4600466 328.025600
   1974   1972   3988     1   109.7800468 425.094400
   1976   1975   4018     1   109.7800468 425.094400
   1976   1975   1977     1   108.4600466 328.025600
   1977   1975   4018     1   109.7800468 425.094400
   1980   1981   1982     1   108.0100461 406.684800
   1980   1981   1983     1   108.0100461 406.684800
   1980   1984   1985     1   108.0100461 406.684800
   1980   1984   1986     1   108.0100461 406.684800
   1980   1987   1988     1   108.0100461 406.684800
   1980   1987   1989     1   108.0100461 406.684800
   1981   1980   2009     1   110.1100470 384.091200
   1981   1993   1994     1   109.8000471 387.438400
   1981   1993   1995     1   109.8000471 387.438400
   1982   1981   1993     1   110.5600475 386.601600
   1982   1981   1983     1   109.7500473 328.025600
   1983   1981   1993     1   110.5600475 386.601600
   1984   1980   2009     1   110.1100470 384.091200
   1984   1996   1997     1   109.8000471 387.438400
   1984   1996   1998     1   109.8000471 387.438400
   1985   1984   1996     1   110.5600475 386.601600
   1985   1984   1986     1   109.7500473 328.025600
   1986   1984   1996     1   110.5600475 386.601600
   1987   1980   2009     1   110.1100470 384.091200
   1987   1990   1991     1   109.8000471 387.438400
   1987   1990   1992     1   109.8000471 387.438400
   1988   1987   1990     1   110.5600475 386.601600
   1988   1987   1989     1   109.7500473 328.025600
   1989   1987   1990     1   110.5600475 386.601600
   1990   1999   2000     1   109.5600471 388.275200
   1990   1999   2001     1   109.5600471 388.275200
   1991   1990   1999     1   109.8000471 387.438400
   1991   1990   1992     1   107.5800459 329.699200
   1992   1990   1999     1   109.8000471 387.438400
   1993   2005   2006     1   109.5600471 388.275200
   1993   2005   2007     1   109.5600471 388.275200
   1994   1993   2005     1   109.8000471 387.438400
   1994   1993   1995     1   107.5800459 329.699200
   1995   1993   2005     1   109.8000471 387.438400
   1996   2002   2003     1   109.5600471 388.275200
   1996   2002   2004     1   109.5600471 388.275200
   1997   1996   2002     1   109.8000471 387.438400
   1997   1996   1998     1   107.5800459 329.699200
   1998   1996   2002     1   109.8000471 387.438400
   2000   1999   2008     1   109.7800468 425.094400
   2000   1999   2001     1   108.4600466 328.025600
   2001   1999   2008     1   109.7800468 425.094400
   2003   2002   4048     1   109.7800468 425.094400
   2003   2002   2004     1   108.4600466 328.025600
   2004   2002   4048     1   109.7800468 425.094400
   2006   2005   4078     1   109.7800468 425.094400
   2006   2005   2007     1   108.4600466 328.025600
   2007   2005   4078     1   109.7800468 425.094400
   2010   2011   2012     1   108.0100461 406.684800
   2010   2011   2013     1   108.0100461 406.684800
   2010   2014   2015     1   108.0100461 406.684800
   2010   2014   2016     1   108.0100461 406.684800
   2010   2017   2018     1   108.0100461 406.684800
   2010   2017   2019     1   108.0100461 406.684800
   2011   2010   2039     1   110.1100470 384.091200
   2011   2023   2024     1   109.8000471 387.438400
   2011   2023   2025     1   109.8000471 387.438400
   2012   2011   2023     1   110.5600475 386.601600
   2012   2011   2013     1   109.7500473 328.025600
   2013   2011   2023     1   110.5600475 386.601600
   2014   2010   2039     1   110.1100470 384.091200
   2014   2026   2027     1   109.8000471 387.438400
   2014   2026   2028     1   109.8000471 387.438400
   2015   2014   2026     1   110.5600475 386.601600
   2015   2014   2016     1   109.7500473 328.025600
   2016   2014   2026     1   110.5600475 386.601600
   2017   2010   2039     1   110.1100470 384.091200
   2017   2020   2021     1   109.8000471 387.438400
   2017   2020   2022     1   109.8000471 387.438400
   2018   2017   2020     1   110.5600475 386.601600
   2018   2017   2019     1   109.7500473 328.025600
   2019   2017   2020     1   110.5600475 386.601600
   2020   2029   2030     1   109.5600471 388.275200
   2020   2029   2031     1   109.5600471 388.275200
   2021   2020   2029     1   109.8000471 387.438400
   2021   2020   2022     1   107.5800459 329.699200
   2022   2020   2029     1   109.8000471 387.438400
   2023   2035   2036     1   109.5600471 388.275200
   2023   2035   2037     1   109.5600471 388.275200
   2024   2023   2035     1   109.8000471 387.438400
   2024   2023   2025     1   107.5800459 329.699200
   2025   2023   2035     1   109.8000471 387.438400
   2026   2032   2033     1   109.5600471 388.275200
   2026   2032   2034     1   109.5600471 388.275200
   2027   2026   2032     1   109.8000471 387.438400
   2027   2026   2028     1   107.5800459 329.699200
   2028   2026   2032     1   109.8000471 387.438400
   2030   2029   2038     1   109.7800468 425.094400
   2030   2029   2031     1   108.4600466 328.025600
   2031   2029   2038     1   109.7800468 425.094400
   2033   2032   4108     1   109.7800468 425.094400
   2033   2032   2034     1   108.4600466 328.025600
   2034   2032   4108     1   109.7800468 425.094400
   2036   2035   4138     1   109.7800468 425.094400
   2036   2035   2037     1   108.4600466 328.025600
   2037   2035   4138     1   109.7800468 425.094400
   2040   2041   2042     1   108.0100461 406.684800
   2040   2041   2043     1   108.0100461 406.684800
   2040   2044   2045     1   108.0100461 406.684800
   2040   2044   2046     1   108.0100461 406.684800
   2040   2047   2048     1   108.0100461 406.684800
   2040   2047   2049     1   108.0100461 406.684800
   2041   2040   2069     1   110.1100470 384.091200
   2041   2053   2054     1   109.8000471 387.438400
   2041   2053   2055     1   109.8000471 387.438400
   2042   2041   2053     1   110.5600475 386.601600
   2042   2041   2043     1   109.7500473 328.025600
   2043   2041   2053     1   110.5600475 386.601600
   2044   2040   2069     1   110.1100470 384.091200
   2044   2056   2057     1   109.8000471 387.438400
   2044   2056   2058     1   109.8000471 387.438400
   2045   2044   2056     1   110.5600475 386.601600
   2045   2044   2046     1   109.7500473 328.025600
   2046   2044   2056     1   110.5600475 386.601600
   2047   2040   2069     1   110.1100470 384.091200
   2047   2050   2051     1   109.8000471 387.438400
   2047   2050   2052     1   109.8000471 387.438400
   2048   2047   2050     1   110.5600475 386.601600
   2048   2047   2049     1   109.7500473 328.025600
   2049   2047   2050     1   110.5600475 386.601600
   2050   2059   2060     1   109.5600471 388.275200
   2050   2059   2061     1   109.5600471 388.275200
   2051   2050   2059     1   109.8000471 387.438400
   2051   2050   2052     1   107.5800459 329.699200
   2052   2050   2059     1   109.8000471 387.438400
   2053   2065   2066     1   109.5600471 388.275200
   2053   2065   2067     1   109.5600471 388.275200
   2054   2053   2065     1   109.8000471 387.438400
   2054   2053   2055     1   107.5800459 329.699200
   2055   2053   2065     1   109.8000471 387.438400
   2056   2062   2063     1   109.5600471 388.275200
   2056   2062   2064     1   109.5600471 388.275200
   2057   2056   2062     1   109.8000471 387.438400
   2057   2056   2058     1   107.5800459 329.699200
   2058   2056   2062     1   109.8000471 387.438400
   2060   2059   2068     1   109.7800468 425.094400
   2060   2059   2061     1   108.4600466 328.025600
   2061   2059   2068     1   109.7800468 425.094400
   2063   2062   4168     1   109.7800468 425.094400
   2063   2062   2064     1   108.4600466 328.025600
   2064   2062   4168     1   109.7800468 425.094400
   2066   2065   4198     1   109.7800468 425.094400
   2066   2065   2067     1   108.4600466 328.025600
   2067   2065   4198     1   109.7800468 425.094400
   2070   2071   2072     1   108.0100461 406.684800
   2070   2071   2073     1   108.0100461 406.684800
   2070   2074   2075     1   108.0100461 406.684800
   2070   2074   2076     1   108.0100461 406.684800
   2070   2077   2078     1   108.0100461 406.684800
   2070   2077   2079     1   108.0100461 406.684800
   2071   2070   2099     1   110.1100470 384.091200
   2071   2083   2084     1   109.8000471 387.438400
   2071   2083   2085     1   109.8000471 387.438400
   2072   2071   2083     1   110.5600475 386.601600
   2072   2071   2073     1   109.7500473 328.025600
   2073   2071   2083     1   110.5600475 386.601600
   2074   2070   2099     1   110.1100470 384.091200
   2074   2086   2087     1   109.8000471 387.438400
   2074   2086   2088     1   109.8000471 387.438400
   2075   2074   2086     1   110.5600475 386.601600
   2075   2074   2076     1   109.7500473 328.025600
   2076   2074   2086     1   110.5600475 386.601600
   2077   2070   2099     1   110.1100470 384.091200
   2077   2080   2081     1   109.8000471 387.438400
   2077   2080   2082     1   109.8000471 387.438400
   2078   2077   2080     1   110.5600475 386.601600
   2078   2077   2079     1   109.7500473 328.025600
   2079   2077   2080     1   110.5600475 386.601600
   2080   2089   2090     1   109.5600471 388.275200
   2080   2089   2091     1   109.5600471 388.275200
   2081   2080   2089     1   109.8000471 387.438400
   2081   2080   2082     1   107.5800459 329.699200
   2082   2080   2089     1   109.8000471 387.438400
   2083   2095   2096     1   109.5600471 388.275200
   2083   2095   2097     1   109.5600471 388.275200
   2084   2083   2095     1   109.8000471 387.438400
   2084   2083   2085     1   107.5800459 329.699200
   2085   2083   2095     1   109.8000471 387.438400
   2086   2092   2093     1   109.5600471 388.275200
   2086   2092   2094     1   109.5600471 388.275200
   2087   2086   2092     1   109.8000471 387.438400
   2087   2086   2088     1   107.5800459 329.699200
   2088   2086   2092     1   109.8000471 387.438400
   2090   2089   2098     1   109.7800468 425.094400
   2090   2089   2091     1   108.4600466 328.025600
   2091   2089   2098     1   109.7800468 425.094400
   2093   2092   4228     1   109.7800468 425.094400
   2093   2092   2094     1   108.4600466 328.025600
   2094   2092   4228     1   109.7800468 425.094400
   2096   2095   4258     1   109.7800468 425.094400
   2096   2095   2097     1   108.4600466 328.025600
   2097   2095   4258     1   109.7800468 425.094400
   2100   2101   2102     1   108.0100461 406.684800
   2100   2101   2103     1   108.0100461 406.684800
   2100   2104   2105     1   108.0100461 406.684800
   2100   2104   2106     1   108.0100461 406.684800
   2100   2107   2108     1   108.0100461 406.684800
   2100   2107   2109     1   108.0100461 406.684800
   2101   2100   2129     1   110.1100470 384.091200
   2101   2113   2114     1   109.8000471 387.438400
   2101   2113   2115     1   109.8000471 387.438400
   2102   2101   2113     1   110.5600475 386.601600
   2102   2101   2103     1   109.7500473 328.025600
   2103   2101   2113     1   110.5600475 386.601600
   2104   2100   2129     1   110.1100470 384.091200
   2104   2116   2117     1   109.8000471 387.438400
   2104   2116   2118     1   109.8000471 387.438400
   2105   2104   2116     1   110.5600475 386.601600
   2105   2104   2106     1   109.7500473 328.025600
   2106   2104   2116     1   110.5600475 386.601600
   2107   2100   2129     1   110.1100470 384.091200
   2107   2110   2111     1   109.8000471 387.438400
   2107   2110   2112     1   109.8000471 387.438400
   2108   2107   2110     1   110.5600475 386.601600
   2108   2107   2109     1   109.7500473 328.025600
   2109   2107   2110     1   110.5600475 386.601600
   2110   2119   2120     1   109.5600471 388.275200
   2110   2119   2121     1   109.5600471 388.275200
   2111   2110   2119     1   109.8000471 387.438400
   2111   2110   2112     1   107.5800459 329.699200
   2112   2110   2119     1   109.8000471 387.438400
   2113   2125   2126     1   109.5600471 388.275200
   2113   2125   2127     1   109.5600471 388.275200
   2114   2113   2125     1   109.8000471 387.438400
   2114   2113   2115     1   107.5800459 329.699200
   2115   2113   2125     1   109.8000471 387.438400
   2116   2122   2123     1   109.5600471 388.275200
   2116   2122   2124     1   109.5600471 388.275200
   2117   2116   2122     1   109.8000471 387.438400
   2117   2116   2118     1   107.5800459 329.699200
   2118   2116   2122     1   109.8000471 387.438400
   2120   2119   2128     1   109.7800468 425.094400
   2120   2119   2121     1   108.4600466 328.025600
   2121   2119   2128     1   109.7800468 425.094400
   2123   2122   4288     1   109.7800468 425.094400
   2123   2122   2124     1   108.4600466 328.025600
   2124   2122   4288     1   109.7800468 425.094400
   2126   2125   4318     1   109.7800468 425.094400
   2126   2125   2127     1   108.4600466 328.025600
   2127   2125   4318     1   109.7800468 425.094400
   2130   2131   2132     1   108.0100461 406.684800
   2130   2131   2133     1   108.0100461 406.684800
   2130   2134   2135     1   108.0100461 406.684800
   2130   2134   2136     1   108.0100461 406.684800
   2130   2137   2138     1   108.0100461 406.684800
   2130   2137   2139     1   108.0100461 406.684800
   2131   2130   2159     1   110.1100470 384.091200
   2131   2143   2144     1   109.8000471 387.438400
   2131   2143   2145     1   109.8000471 387.438400
   2132   2131   2143     1   110.5600475 386.601600
   2132   2131   2133     1   109.7500473 328.025600
   2133   2131   2143     1   110.5600475 386.601600
   2134   2130   2159     1   110.1100470 384.091200
   2134   2146   2147     1   109.8000471 387.438400
   2134   2146   2148     1   109.8000471 387.438400
   2135   2134   2146     1   110.5600475 386.601600
   2135   2134   2136     1   109.7500473 328.025600
   2136   2134   2146     1   110.5600475 386.601600
   2137   2130   2159     1   110.1100470 384.091200
   2137   2140   2141     1   109.8000471 387.438400
   2137   2140   2142     1   109.8000471 387.438400
   2138   2137   2140     1   110.5600475 386.601600
   2138   2137   2139     1   109.7500473 328.025600
   2139   2137   2140     1   110.5600475 386.601600
   2140   2149   2150     1   109.5600471 388.275200
   2140   2149   2151     1   109.5600471 388.275200
   2141   2140   2149     1   109.8000471 387.438400
   2141   2140   2142     1   107.5800459 329.699200
   2142   2140   2149     1   109.8000471 387.438400
   2143   2155   2156     1   109.5600471 388.275200
   2143   2155   2157     1   109.5600471 388.275200
   2144   2143   2155     1   109.8000471 387.438400
   2144   2143   2145     1   107.5800459 329.699200
   2145   2143   2155     1   109.8000471 387.438400
   2146   2152   2153     1   109.5600471 388.275200
   2146   2152   2154     1   109.5600471 388.275200
   2147   2146   2152     1   109.8000471 387.438400
   2147   2146   2148     1   107.5800459 329.699200
   2148   2146   2152     1   109.8000471 387.438400
   2150   2149   2158     1   109.7800468 425.094400
   2150   2149   2151     1   108.4600466 328.025600
   2151   2149   2158     1   109.7800468 425.094400
   2153   2152   4348     1   109.7800468 425.094400
   2153   2152   2154     1   108.4600466 328.025600
   2154   2152   4348     1   109.7800468 425.094400
   2156   2155   4378     1   109.7800468 425.094400
   2156   2155   2157     1   108.4600466 328.025600
   2157   2155   4378     1   109.7800468 425.094400
   2160   2161   2162     1   108.0100461 406.684800
   2160   2161   2163     1   108.0100461 406.684800
   2160   2164   2165     1   108.0100461 406.684800
   2160   2164   2166     1   108.0100461 406.684800
   2160   2167   2168     1   108.0100461 406.684800
   2160   2167   2169     1   108.0100461 406.684800
   2161   2160   2189     1   110.1100470 384.091200
   2161   2173   2174     1   109.8000471 387.438400
   2161   2173   2175     1   109.8000471 387.438400
   2162   2161   2173     1   110.5600475 386.601600
   2162   2161   2163     1   109.7500473 328.025600
   2163   2161   2173     1   110.5600475 386.601600
   2164   2160   2189     1   110.1100470 384.091200
   2164   2176   2177     1   109.8000471 387.438400
   2164   2176   2178     1   109.8000471 387.438400
   2165   2164   2176     1   110.5600475 386.601600
   2165   2164   2166     1   109.7500473 328.025600
   2166   2164   2176     1   110.5600475 386.601600
   2167   2160   2189     1   110.1100470 384.091200
   2167   2170   2171     1   109.8000471 387.438400
   2167   2170   2172     1   109.8000471 387.438400
   2168   2167   2170     1   110.5600475 386.601600
   2168   2167   2169     1   109.7500473 328.025600
   2169   2167   2170     1   110.5600475 386.601600
   2170   2179   2180     1   109.5600471 388.275200
   2170   2179   2181     1   109.5600471 388.275200
   2171   2170   2179     1   109.8000471 387.438400
   2171   2170   2172     1   107.5800459 329.699200
   2172   2170   2179     1   109.8000471 387.438400
   2173   2185   2186     1   109.5600471 388.275200
   2173   2185   2187     1   109.5600471 388.275200
   2174   2173   2185     1   109.8000471 387.438400
   2174   2173   2175     1   107.5800459 329.699200
   2175   2173   2185     1   109.8000471 387.438400
   2176   2182   2183     1   109.5600471 388.275200
   2176   2182   2184     1   109.5600471 388.275200
   2177   2176   2182     1   109.8000471 387.438400
   2177   2176   2178     1   107.5800459 329.699200
   2178   2176   2182     1   109.8000471 387.438400
   2180   2179   2188     1   109.7800468 425.094400
   2180   2179   2181     1   108.4600466 328.025600
   2181   2179   2188     1   109.7800468 425.094400
   2183   2182   4408     1   109.7800468 425.094400
   2183   2182   2184     1   108.4600466 328.025600
   2184   2182   4408     1   109.7800468 425.094400
   2186   2185   4438     1   109.7800468 425.094400
   2186   2185   2187     1   108.4600466 328.025600
   2187   2185   4438     1   109.7800468 425.094400
   2190   2191   2192     1   108.0100461 406.684800
   2190   2191   2193     1   108.0100461 406.684800
   2190   2194   2195     1   108.0100461 406.684800
   2190   2194   2196     1   108.0100461 406.684800
   2190   2197   2198     1   108.0100461 406.684800
   2190   2197   2199     1   108.0100461 406.684800
   2191   2190   2219     1   110.1100470 384.091200
   2191   2203   2204     1   109.8000471 387.438400
   2191   2203   2205     1   109.8000471 387.438400
   2192   2191   2203     1   110.5600475 386.601600
   2192   2191   2193     1   109.7500473 328.025600
   2193   2191   2203     1   110.5600475 386.601600
   2194   2190   2219     1   110.1100470 384.091200
   2194   2206   2207     1   109.8000471 387.438400
   2194   2206   2208     1   109.8000471 387.438400
   2195   2194   2206     1   110.5600475 386.601600
   2195   2194   2196     1   109.7500473 328.025600
   2196   2194   2206     1   110.5600475 386.601600
   2197   2190   2219     1   110.1100470 384.091200
   2197   2200   2201     1   109.8000471 387.438400
   2197   2200   2202     1   109.8000471 387.438400
   2198   2197   2200     1   110.5600475 386.601600
   2198   2197   2199     1   109.7500473 328.025600
   2199   2197   2200     1   110.5600475 386.601600
   2200   2209   2210     1   109.5600471 388.275200
   2200   2209   2211     1   109.5600471 388.275200
   2201   2200   2209     1   109.8000471 387.438400
   2201   2200   2202     1   107.5800459 329.699200
   2202   2200   2209     1   109.8000471 387.438400
   2203   2215   2216     1   109.5600471 388.275200
   2203   2215   2217     1   109.5600471 388.275200
   2204   2203   2215     1   109.8000471 387.438400
   2204   2203   2205     1   107.5800459 329.699200
   2205   2203   2215     1   109.8000471 387.438400
   2206   2212   2213     1   109.5600471 388.275200
   2206   2212   2214     1   109.5600471 388.275200
   2207   2206   2212     1   109.8000471 387.438400
   2207   2206   2208     1   107.5800459 329.699200
   2208   2206   2212     1   109.8000471 387.438400
   2210   2209   2218     1   109.7800468 425.094400
   2210   2209   2211     1   108.4600466 328.025600
   2211   2209   2218     1   109.7800468 425.094400
   2213   2212   4468     1   109.7800468 425.094400
   2213   2212   2214     1   108.4600466 328.025600
   2214   2212   4468     1   109.7800468 425.094400
   2216   2215   4498     1   109.7800468 425.094400
   2216   2215   2217     1   108.4600466 328.025600
   2217   2215   4498     1   109.7800468 425.094400
   2220   2221   2222     1   108.0100461 406.684800
   2220   2221   2223     1   108.0100461 406.684800
   2220   2224   2225     1   108.0100461 406.684800
   2220   2224   2226     1   108.0100461 406.684800
   2220   2227   2228     1   108.0100461 406.684800
   2220   2227   2229     1   108.0100461 406.684800
   2221   2220   2249     1   110.1100470 384.091200
   2221   2233   2234     1   109.8000471 387.438400
   2221   2233   2235     1   109.8000471 387.438400
   2222   2221   2233     1   110.5600475 386.601600
   2222   2221   2223     1   109.7500473 328.025600
   2223   2221   2233     1   110.5600475 386.601600
   2224   2220   2249     1   110.1100470 384.091200
   2224   2236   2237     1   109.8000471 387.438400
   2224   2236   2238     1   109.8000471 387.438400
   2225   2224   2236     1   110.5600475 386.601600
   2225   2224   2226     1   109.7500473 328.025600
   2226   2224   2236     1   110.5600475 386.601600
   2227   2220   2249     1   110.1100470 384.091200
   2227   2230   2231     1   109.8000471 387.438400
   2227   2230   2232     1   109.8000471 387.438400
   2228   2227   2230     1   110.5600475 386.601600
   2228   2227   2229     1   109.7500473 328.025600
   2229   2227   2230     1   110.5600475 386.601600
   2230   2239   2240     1   109.5600471 388.275200
   2230   2239   2241     1   109.5600471 388.275200
   2231   2230   2239     1   109.8000471 387.438400
   2231   2230   2232     1   107.5800459 329.699200
   2232   2230   2239     1   109.8000471 387.438400
   2233   2245   2246     1   109.5600471 388.275200
   2233   2245   2247     1   109.5600471 388.275200
   2234   2233   2245     1   109.8000471 387.438400
   2234   2233   2235     1   107.5800459 329.699200
   2235   2233   2245     1   109.8000471 387.438400
   2236   2242   2243     1   109.5600471 388.275200
   2236   2242   2244     1   109.5600471 388.275200
   2237   2236   2242     1   109.8000471 387.438400
   2237   2236   2238     1   107.5800459 329.699200
   2238   2236   2242     1   109.8000471 387.438400
   2240   2239   2248     1   109.7800468 425.094400
   2240   2239   2241     1   108.4600466 328.025600
   2241   2239   2248     1   109.7800468 425.094400
   2243   2242   4528     1   109.7800468 425.094400
   2243   2242   2244     1   108.4600466 328.025600
   2244   2242   4528     1   109.7800468 425.094400
   2246   2245   4558     1   109.7800468 425.094400
   2246   2245   2247     1   108.4600466 328.025600
   2247   2245   4558     1   109.7800468 425.094400
   2250   2251   2252     1   108.0100461 406.684800
   2250   2251   2253     1   108.0100461 406.684800
   2250   2254   2255     1   108.0100461 406.684800
   2250   2254   2256     1   108.0100461 406.684800
   2250   2257   2258     1   108.0100461 406.684800
   2250   2257   2259     1   108.0100461 406.684800
   2251   2250   2279     1   110.1100470 384.091200
   2251   2263   2264     1   109.8000471 387.438400
   2251   2263   2265     1   109.8000471 387.438400
   2252   2251   2263     1   110.5600475 386.601600
   2252   2251   2253     1   109.7500473 328.025600
   2253   2251   2263     1   110.5600475 386.601600
   2254   2250   2279     1   110.1100470 384.091200
   2254   2266   2267     1   109.8000471 387.438400
   2254   2266   2268     1   109.8000471 387.438400
   2255   2254   2266     1   110.5600475 386.601600
   2255   2254   2256     1   109.7500473 328.025600
   2256   2254   2266     1   110.5600475 386.601600
   2257   2250   2279     1   110.1100470 384.091200
   2257   2260   2261     1   109.8000471 387.438400
   2257   2260   2262     1   109.8000471 387.438400
   2258   2257   2260     1   110.5600475 386.601600
   2258   2257   2259     1   109.7500473 328.025600
   2259   2257   2260     1   110.5600475 386.601600
   2260   2269   2270     1   109.5600471 388.275200
   2260   2269   2271     1   109.5600471 388.275200
   2261   2260   2269     1   109.8000471 387.438400
   2261   2260   2262     1   107.5800459 329.699200
   2262   2260   2269     1   109.8000471 387.438400
   2263   2275   2276     1   109.5600471 388.275200
   2263   2275   2277     1   109.5600471 388.275200
   2264   2263   2275     1   109.8000471 387.438400
   2264   2263   2265     1   107.5800459 329.699200
   2265   2263   2275     1   109.8000471 387.438400
   2266   2272   2273     1   109.5600471 388.275200
   2266   2272   2274     1   109.5600471 388.275200
   2267   2266   2272     1   109.8000471 387.438400
   2267   2266   2268     1   107.5800459 329.699200
   2268   2266   2272     1   109.8000471 387.438400
   2270   2269   2278     1   109.7800468 425.094400
   2270   2269   2271     1   108.4600466 328.025600
   2271   2269   2278     1   109.7800468 425.094400
   2273   2272   4588     1   109.7800468 425.094400
   2273   2272   2274     1   108.4600466 328.025600
   2274   2272   4588     1   109.7800468 425.094400
   2276   2275   4618     1   109.7800468 425.094400
   2276   2275   2277     1   108.4600466 328.025600
   2277   2275   4618     1   109.7800468 425.094400
   2280   2281   2282     1   108.0100461 406.684800
   2280   2281   2283     1   108.0100461 406.684800
   2280   2284   2285     1   108.0100461 406.684800
   2280   2284   2286     1   108.0100461 406.684800
   2280   2287   2288     1   108.0100461 406.684800
   2280   2287   2289     1   108.0100461 406.684800
   2281   2280   2309     1   110.1100470 384.091200
   2281   2293   2294     1   109.8000471 387.438400
   2281   2293   2295     1   109.8000471 387.438400
   2282   2281   2293     1   110.5600475 386.601600
   2282   2281   2283     1   109.7500473 328.025600
   2283   2281   2293     1   110.5600475 386.601600
   2284   2280   2309     1   110.1100470 384.091200
   2284   2296   2297     1   109.8000471 387.438400
   2284   2296   2298     1   109.8000471 387.438400
   2285   2284   2296     1   110.5600475 386.601600
   2285   2284   2286     1   109.7500473 328.025600
   2286   2284   2296     1   110.5600475 386.601600
   2287   2280   2309     1   110.1100470 384.091200
   2287   2290   2291     1   109.8000471 387.438400
   2287   2290   2292     1   109.8000471 387.438400
   2288   2287   2290     1   110.5600475 386.601600
   2288   2287   2289     1   109.7500473 328.025600
   2289   2287   2290     1   110.5600475 386.601600
   2290   2299   2300     1   109.5600471 388.275200
   2290   2299   2301     1   109.5600471 388.275200
   2291   2290   2299     1   109.8000471 387.438400
   2291   2290   2292     1   107.5800459 329.699200
   2292   2290   2299     1   109.8000471 387.438400
   2293   2305   2306     1   109.5600471 388.275200
   2293   2305   2307     1   109.5600471 388.275200
   2294   2293   2305     1   109.8000471 387.438400
   2294   2293   2295     1   107.5800459 329.699200
   2295   2293   2305     1   109.8000471 387.438400
   2296   2302   2303     1   109.5600471 388.275200
   2296   2302   2304     1   109.5600471 388.275200
   2297   2296   2302     1   109.8000471 387.438400
   2297   2296   2298     1   107.5800459 329.699200
   2298   2296   2302     1   109.8000471 387.438400
   2300   2299   2308     1   109.7800468 425.094400
   2300   2299   2301     1   108.4600466 328.025600
   2301   2299   2308     1   109.7800468 425.094400
   2303   2302   4648     1   109.7800468 425.094400
   2303   2302   2304     1   108.4600466 328.025600
   2304   2302   4648     1   109.7800468 425.094400
   2306   2305   4678     1   109.7800468 425.094400
   2306   2305   2307     1   108.4600466 328.025600
   2307   2305   4678     1   109.7800468 425.094400
   2310   2311   2312     1   108.0100461 406.684800
   2310   2311   2313     1   108.0100461 406.684800
   2310   2314   2315     1   108.0100461 406.684800
   2310   2314   2316     1   108.0100461 406.684800
   2310   2317   2318     1   108.0100461 406.684800
   2310   2317   2319     1   108.0100461 406.684800
   2311   2310   2339     1   110.1100470 384.091200
   2311   2323   2324     1   109.8000471 387.438400
   2311   2323   2325     1   109.8000471 387.438400
   2312   2311   2323     1   110.5600475 386.601600
   2312   2311   2313     1   109.7500473 328.025600
   2313   2311   2323     1   110.5600475 386.601600
   2314   2310   2339     1   110.1100470 384.091200
   2314   2326   2327     1   109.8000471 387.438400
   2314   2326   2328     1   109.8000471 387.438400
   2315   2314   2326     1   110.5600475 386.601600
   2315   2314   2316     1   109.7500473 328.025600
   2316   2314   2326     1   110.5600475 386.601600
   2317   2310   2339     1   110.1100470 384.091200
   2317   2320   2321     1   109.8000471 387.438400
   2317   2320   2322     1   109.8000471 387.438400
   2318   2317   2320     1   110.5600475 386.601600
   2318   2317   2319     1   109.7500473 328.025600
   2319   2317   2320     1   110.5600475 386.601600
   2320   2329   2330     1   109.5600471 388.275200
   2320   2329   2331     1   109.5600471 388.275200
   2321   2320   2329     1   109.8000471 387.438400
   2321   2320   2322     1   107.5800459 329.699200
   2322   2320   2329     1   109.8000471 387.438400
   2323   2335   2336     1   109.5600471 388.275200
   2323   2335   2337     1   109.5600471 388.275200
   2324   2323   2335     1   109.8000471 387.438400
   2324   2323   2325     1   107.5800459 329.699200
   2325   2323   2335     1   109.8000471 387.438400
   2326   2332   2333     1   109.5600471 388.275200
   2326   2332   2334     1   109.5600471 388.275200
   2327   2326   2332     1   109.8000471 387.438400
   2327   2326   2328     1   107.5800459 329.699200
   2328   2326   2332     1   109.8000471 387.438400
   2330   2329   2338     1   109.7800468 425.094400
   2330   2329   2331     1   108.4600466 328.025600
   2331   2329   2338     1   109.7800468 425.094400
   2333   2332   4708     1   109.7800468 425.094400
   2333   2332   2334     1   108.4600466 328.025600
   2334   2332   4708     1   109.7800468 425.094400
   2336   2335   4738     1   109.7800468 425.094400
   2336   2335   2337     1   108.4600466 328.025600
   2337   2335   4738     1   109.7800468 425.094400
   2340   2341   2342     1   108.0100461 406.684800
   2340   2341   2343     1   108.0100461 406.684800
   2340   2344   2345     1   108.0100461 406.684800
   2340   2344   2346     1   108.0100461 406.684800
   2340   2347   2348     1   108.0100461 406.684800
   2340   2347   2349     1   108.0100461 406.684800
   2341   2340   2369     1   110.1100470 384.091200
   2341   2353   2354     1   109.8000471 387.438400
   2341   2353   2355     1   109.8000471 387.438400
   2342   2341   2353     1   110.5600475 386.601600
   2342   2341   2343     1   109.7500473 328.025600
   2343   2341   2353     1   110.5600475 386.601600
   2344   2340   2369     1   110.1100470 384.091200
   2344   2356   2357     1   109.8000471 387.438400
   2344   2356   2358     1   109.8000471 387.438400
   2345   2344   2356     1   110.5600475 386.601600
   2345   2344   2346     1   109.7500473 328.025600
   2346   2344   2356     1   110.5600475 386.601600
   2347   2340   2369     1   110.1100470 384.091200
   2347   2350   2351     1   109.8000471 387.438400
   2347   2350   2352     1   109.8000471 387.438400
   2348   2347   2350     1   110.5600475 386.601600
   2348   2347   2349     1   109.7500473 328.025600
   2349   2347   2350     1   110.5600475 386.601600
   2350   2359   2360     1   109.5600471 388.275200
   2350   2359   2361     1   109.5600471 388.275200
   2351   2350   2359     1   109.8000471 387.438400
   2351   2350   2352     1   107.5800459 329.699200
   2352   2350   2359     1   109.8000471 387.438400
   2353   2365   2366     1   109.5600471 388.275200
   2353   2365   2367     1   109.5600471 388.275200
   2354   2353   2365     1   109.8000471 387.438400
   2354   2353   2355     1   107.5800459 329.699200
   2355   2353   2365     1   109.8000471 387.438400
   2356   2362   2363     1   109.5600471 388.275200
   2356   2362   2364     1   109.5600471 388.275200
   2357   2356   2362     1   109.8000471 387.438400
   2357   2356   2358     1   107.5800459 329.699200
   2358   2356   2362     1   109.8000471 387.438400
   2360   2359   2368     1   109.7800468 425.094400
   2360   2359   2361     1   108.4600466 328.025600
   2361   2359   2368     1   109.7800468 425.094400
   2363   2362   4768     1   109.7800468 425.094400
   2363   2362   2364     1   108.4600466 328.025600
   2364   2362   4768     1   109.7800468 425.094400
   2366   2365   4798     1   109.7800468 425.094400
   2366   2365   2367     1   108.4600466 328.025600
   2367   2365   4798     1   109.7800468 425.094400
   2370   2371   2372     1   108.0100461 406.684800
   2370   2371   2373     1   108.0100461 406.684800
   2370   2374   2375     1   108.0100461 406.684800
   2370   2374   2376     1   108.0100461 406.684800
   2370   2377   2378     1   108.0100461 406.684800
   2370   2377   2379     1   108.0100461 406.684800
   2371   2370   2399     1   110.1100470 384.091200
   2371   2383   2384     1   109.8000471 387.438400
   2371   2383   2385     1   109.8000471 387.438400
   2372   2371   2383     1   110.5600475 386.601600
   2372   2371   2373     1   109.7500473 328.025600
   2373   2371   2383     1   110.5600475 386.601600
   2374   2370   2399     1   110.1100470 384.091200
   2374   2386   2387     1   109.8000471 387.438400
   2374   2386   2388     1   109.8000471 387.438400
   2375   2374   2386     1   110.5600475 386.601600
   2375   2374   2376     1   109.7500473 328.025600
   2376   2374   2386     1   110.5600475 386.601600
   2377   2370   2399     1   110.1100470 384.091200
   2377   2380   2381     1   109.8000471 387.438400
   2377   2380   2382     1   109.8000471 387.438400
   2378   2377   2380     1   110.5600475 386.601600
   2378   2377   2379     1   109.7500473 328.025600
   2379   2377   2380     1   110.5600475 386.601600
   2380   2389   2390     1   109.5600471 388.275200
   2380   2389   2391     1   109.5600471 388.275200
   2381   2380   2389     1   109.8000471 387.438400
   2381   2380   2382     1   107.5800459 329.699200
   2382   2380   2389     1   109.8000471 387.438400
   2383   2395   2396     1   109.5600471 388.275200
   2383   2395   2397     1   109.5600471 388.275200
   2384   2383   2395     1   109.8000471 387.438400
   2384   2383   2385     1   107.5800459 329.699200
   2385   2383   2395     1   109.8000471 387.438400
   2386   2392   2393     1   109.5600471 388.275200
   2386   2392   2394     1   109.5600471 388.275200
   2387   2386   2392     1   109.8000471 387.438400
   2387   2386   2388     1   107.5800459 329.699200
   2388   2386   2392     1   109.8000471 387.438400
   2390   2389   2398     1   109.7800468 425.094400
   2390   2389   2391     1   108.4600466 328.025600
   2391   2389   2398     1   109.7800468 425.094400
   2393   2392   4828     1   109.7800468 425.094400
   2393   2392   2394     1   108.4600466 328.025600
   2394   2392   4828     1   109.7800468 425.094400
   2396   2395   4858     1   109.7800468 425.094400
   2396   2395   2397     1   108.4600466 328.025600
   2397   2395   4858     1   109.7800468 425.094400
   2400   2401   2402     1   108.0100461 406.684800
   2400   2401   2403     1   108.0100461 406.684800
   2400   2404   2405     1   108.0100461 406.684800
   2400   2404   2406     1   108.0100461 406.684800
   2400   2407   2408     1   108.0100461 406.684800
   2400   2407   2409     1   108.0100461 406.684800
   2401   2400   2429     1   110.1100470 384.091200
   2401   2413   2414     1   109.8000471 387.438400
   2401   2413   2415     1   109.8000471 387.438400
   2402   2401   2413     1   110.5600475 386.601600
   2402   2401   2403     1   109.7500473 328.025600
   2403   2401   2413     1   110.5600475 386.601600
   2404   2400   2429     1   110.1100470 384.091200
   2404   2416   2417     1   109.8000471 387.438400
   2404   2416   2418     1   109.8000471 387.438400
   2405   2404   2416     1   110.5600475 386.601600
   2405   2404   2406     1   109.7500473 328.025600
   2406   2404   2416     1   110.5600475 386.601600
   2407   2400   2429     1   110.1100470 384.091200
   2407   2410   2411     1   109.8000471 387.438400
   2407   2410   2412     1   109.8000471 387.438400
   2408   2407   2410     1   110.5600475 386.601600
   2408   2407   2409     1   109.7500473 328.025600
   2409   2407   2410     1   110.5600475 386.601600
   2410   2419   2420     1   109.5600471 388.275200
   2410   2419   2421     1   109.5600471 388.275200
   2411   2410   2419     1   109.8000471 387.438400
   2411   2410   2412     1   107.5800459 329.699200
   2412   2410   2419     1   109.8000471 387.438400
   2413   2425   2426     1   109.5600471 388.275200
   2413   2425   2427     1   109.5600471 388.275200
   2414   2413   2425     1   109.8000471 387.438400
   2414   2413   2415     1   107.5800459 329.699200
   2415   2413   2425     1   109.8000471 387.438400
   2416   2422   2423     1   109.5600471 388.275200
   2416   2422   2424     1   109.5600471 388.275200
   2417   2416   2422     1   109.8000471 387.438400
   2417   2416   2418     1   107.5800459 329.699200
   2418   2416   2422     1   109.8000471 387.438400
   2420   2419   2428     1   109.7800468 425.094400
   2420   2419   2421     1   108.4600466 328.025600
   2421   2419   2428     1   109.7800468 425.094400
   2423   2422   4888     1   109.7800468 425.094400
   2423   2422   2424     1   108.4600466 328.025600
   2424   2422   4888     1   109.7800468 425.094400
   2426   2425   4918     1   109.7800468 425.094400
   2426   2425   2427     1   108.4600466 328.025600
   2427   2425   4918     1   109.7800468 425.094400
   2430   2431   2432     1   108.0100461 406.684800
   2430   2431   2433     1   108.0100461 406.684800
   2430   2434   2435     1   108.0100461 406.684800
   2430   2434   2436     1   108.0100461 406.684800
   2430   2437   2438     1   108.0100461 406.684800
   2430   2437   2439     1   108.0100461 406.684800
   2431   2430   2459     1   110.1100470 384.091200
   2431   2443   2444     1   109.8000471 387.438400
   2431   2443   2445     1   109.8000471 387.438400
   2432   2431   2443     1   110.5600475 386.601600
   2432   2431   2433     1   109.7500473 328.025600
   2433   2431   2443     1   110.5600475 386.601600
   2434   2430   2459     1   110.1100470 384.091200
   2434   2446   2447     1   109.8000471 387.438400
   2434   2446   2448     1   109.8000471 387.438400
   2435   2434   2446     1   110.5600475 386.601600
   2435   2434   2436     1   109.7500473 328.025600
   2436   2434   2446     1   110.5600475 386.601600
   2437   2430   2459     1   110.1100470 384.091200
   2437   2440   2441     1   109.8000471 387.438400
   2437   2440   2442     1   109.8000471 387.438400
   2438   2437   2440     1   110.5600475 386.601600
   2438   2437   2439     1   109.7500473 328.025600
   2439   2437   2440     1   110.5600475 386.601600
   2440   2449   2450     1   109.5600471 388.275200
   2440   2449   2451     1   109.5600471 388.275200
   2441   2440   2449     1   109.8000471 387.438400
   2441   2440   2442     1   107.5800459 329.699200
   2442   2440   2449     1   109.8000471 387.438400
   2443   2455   2456     1   109.5600471 388.275200
   2443   2455   2457     1   109.5600471 388.275200
   2444   2443   2455     1   109.8000471 387.438400
   2444   2443   2445     1   107.5800459 329.699200
   2445   2443   2455     1   109.8000471 387.438400
   2446   2452   2453     1   109.5600471 388.275200
   2446   2452   2454     1   109.5600471 388.275200
   2447   2446   2452     1   109.8000471 387.438400
   2447   2446   2448     1   107.5800459 329.699200
   2448   2446   2452     1   109.8000471 387.438400
   2450   2449   2458     1   109.7800468 425.094400
   2450   2449   2451     1   108.4600466 328.025600
   2451   2449   2458     1   109.7800468 425.094400
   2453   2452   4948     1   109.7800468 425.094400
   2453   2452   2454     1   108.4600466 328.025600
   2454   2452   4948     1   109.7800468 425.094400
   2456   2455   4978     1   109.7800468 425.094400
   2456   2455   2457     1   108.4600466 328.025600
   2457   2455   4978     1   109.7800468 425.094400
   2460   2461   2462     1   108.0100461 406.684800
   2460   2461   2463     1   108.0100461 406.684800
   2460   2464   2465     1   108.0100461 406.684800
   2460   2464   2466     1   108.0100461 406.684800
   2460   2467   2468     1   108.0100461 406.684800
   2460   2467   2469     1   108.0100461 406.684800
   2461   2460   2489     1   110.1100470 384.091200
   2461   2473   2474     1   109.8000471 387.438400
   2461   2473   2475     1   109.8000471 387.438400
   2462   2461   2473     1   110.5600475 386.601600
   2462   2461   2463     1   109.7500473 328.025600
   2463   2461   2473     1   110.5600475 386.601600
   2464   2460   2489     1   110.1100470 384.091200
   2464   2476   2477     1   109.8000471 387.438400
   2464   2476   2478     1   109.8000471 387.438400
   2465   2464   2476     1   110.5600475 386.601600
   2465   2464   2466     1   109.7500473 328.025600
   2466   2464   2476     1   110.5600475 386.601600
   2467   2460   2489     1   110.1100470 384.091200
   2467   2470   2471     1   109.8000471 387.438400
   2467   2470   2472     1   109.8000471 387.438400
   2468   2467   2470     1   110.5600475 386.601600
   2468   2467   2469     1   109.7500473 328.025600
   2469   2467   2470     1   110.5600475 386.601600
   2470   2479   2480     1   109.5600471 388.275200
   2470   2479   2481     1   109.5600471 388.275200
   2471   2470   2479     1   109.8000471 387.438400
   2471   2470   2472     1   107.5800459 329.699200
   2472   2470   2479     1   109.8000471 387.438400
   2473   2485   2486     1   109.5600471 388.275200
   2473   2485   2487     1   109.5600471 388.275200
   2474   2473   2485     1   109.8000471 387.438400
   2474   2473   2475     1   107.5800459 329.699200
   2475   2473   2485     1   109.8000471 387.438400
   2476   2482   2483     1   109.5600471 388.275200
   2476   2482   2484     1   109.5600471 388.275200
   2477   2476   2482     1   109.8000471 387.438400
   2477   2476   2478     1   107.5800459 329.699200
   2478   2476   2482     1   109.8000471 387.438400
   2480   2479   2488     1   109.7800468 425.094400
   2480   2479   2481     1   108.4600466 328.025600
   2481   2479   2488     1   109.7800468 425.094400
   2483   2482   5008     1   109.7800468 425.094400
   2483   2482   2484     1   108.4600466 328.025600
   2484   2482   5008     1   109.7800468 425.094400
   2486   2485   5038     1   109.7800468 425.094400
   2486   2485   2487     1   108.4600466 328.025600
   2487   2485   5038     1   109.7800468 425.094400
   2490   2491   2492     1   108.0100461 406.684800
   2490   2491   2493     1   108.0100461 406.684800
   2490   2494   2495     1   108.0100461 406.684800
   2490   2494   2496     1   108.0100461 406.684800
   2490   2497   2498     1   108.0100461 406.684800
   2490   2497   2499     1   108.0100461 406.684800
   2491   2490   2519     1   110.1100470 384.091200
   2491   2503   2504     1   109.8000471 387.438400
   2491   2503   2505     1   109.8000471 387.438400
   2492   2491   2503     1   110.5600475 386.601600
   2492   2491   2493     1   109.7500473 328.025600
   2493   2491   2503     1   110.5600475 386.601600
   2494   2490   2519     1   110.1100470 384.091200
   2494   2506   2507     1   109.8000471 387.438400
   2494   2506   2508     1   109.8000471 387.438400
   2495   2494   2506     1   110.5600475 386.601600
   2495   2494   2496     1   109.7500473 328.025600
   2496   2494   2506     1   110.5600475 386.601600
   2497   2490   2519     1   110.1100470 384.091200
   2497   2500   2501     1   109.8000471 387.438400
   2497   2500   2502     1   109.8000471 387.438400
   2498   2497   2500     1   110.5600475 386.601600
   2498   2497   2499     1   109.7500473 328.025600
   2499   2497   2500     1   110.5600475 386.601600
   2500   2509   2510     1   109.5600471 388.275200
   2500   2509   2511     1   109.5600471 388.275200
   2501   2500   2509     1   109.8000471 387.438400
   2501   2500   2502     1   107.5800459 329.699200
   2502   2500   2509     1   109.8000471 387.438400
   2503   2515   2516     1   109.5600471 388.275200
   2503   2515   2517     1   109.5600471 388.275200
   2504   2503   2515     1   109.8000471 387.438400
   2504   2503   2505     1   107.5800459 329.699200
   2505   2503   2515     1   109.8000471 387.438400
   2506   2512   2513     1   109.5600471 388.275200
   2506   2512   2514     1   109.5600471 388.275200
   2507   2506   2512     1   109.8000471 387.438400
   2507   2506   2508     1   107.5800459 329.699200
   2508   2506   2512     1   109.8000471 387.438400
   2510   2509   2518     1   109.7800468 425.094400
   2510   2509   2511     1   108.4600466 328.025600
   2511   2509   2518     1   109.7800468 425.094400
   2513   2512   5068     1   109.7800468 425.094400
   2513   2512   2514     1   108.4600466 328.025600
   2514   2512   5068     1   109.7800468 425.094400
   2516   2515   5098     1   109.7800468 425.094400
   2516   2515   2517     1   108.4600466 328.025600
   2517   2515   5098     1   109.7800468 425.094400
   2520   2521   2522     1   108.0100461 406.684800
   2520   2521   2523     1   108.0100461 406.684800
   2520   2524   2525     1   108.0100461 406.684800
   2520   2524   2526     1   108.0100461 406.684800
   2520   2527   2528     1   108.0100461 406.684800
   2520   2527   2529     1   108.0100461 406.684800
   2521   2520   2549     1   110.1100470 384.091200
   2521   2533   2534     1   109.8000471 387.438400
   2521   2533   2535     1   109.8000471 387.438400
   2522   2521   2533     1   110.5600475 386.601600
   2522   2521   2523     1   109.7500473 328.025600
   2523   2521   2533     1   110.5600475 386.601600
   2524   2520   2549     1   110.1100470 384.091200
   2524   2536   2537     1   109.8000471 387.438400
   2524   2536   2538     1   109.8000471 387.438400
   2525   2524   2536     1   110.5600475 386.601600
   2525   2524   2526     1   109.7500473 328.025600
   2526   2524   2536     1   110.5600475 386.601600
   2527   2520   2549     1   110.1100470 384.091200
   2527   2530   2531     1   109.8000471 387.438400
   2527   2530   2532     1   109.8000471 387.438400
   2528   2527   2530     1   110.5600475 386.601600
   2528   2527   2529     1   109.7500473 328.025600
   2529   2527   2530     1   110.5600475 386.601600
   2530   2539   2540     1   109.5600471 388.275200
   2530   2539   2541     1   109.5600471 388.275200
   2531   2530   2539     1   109.8000471 387.438400
   2531   2530   2532     1   107.5800459 329.699200
   2532   2530   2539     1   109.8000471 387.438400
   2533   2545   2546     1   109.5600471 388.275200
   2533   2545   2547     1   109.5600471 388.275200
   2534   2533   2545     1   109.8000471 387.438400
   2534   2533   2535     1   107.5800459 329.699200
   2535   2533   2545     1   109.8000471 387.438400
   2536   2542   2543     1   109.5600471 388.275200
   2536   2542   2544     1   109.5600471 388.275200
   2537   2536   2542     1   109.8000471 387.438400
   2537   2536   2538     1   107.5800459 329.699200
   2538   2536   2542     1   109.8000471 387.438400
   2540   2539   2548     1   109.7800468 425.094400
   2540   2539   2541     1   108.4600466 328.025600
   2541   2539   2548     1   109.7800468 425.094400
   2543   2542   5128     1   109.7800468 425.094400
   2543   2542   2544     1   108.4600466 328.025600
   2544   2542   5128     1   109.7800468 425.094400
   2546   2545   5158     1   109.7800468 425.094400
   2546   2545   2547     1   108.4600466 328.025600
   2547   2545   5158     1   109.7800468 425.094400
   2550   2551   2552     1   108.0100461 406.684800
   2550   2551   2553     1   108.0100461 406.684800
   2550   2554   2555     1   108.0100461 406.684800
   2550   2554   2556     1   108.0100461 406.684800
   2550   2557   2558     1   108.0100461 406.684800
   2550   2557   2559     1   108.0100461 406.684800
   2551   2550   2579     1   110.1100470 384.091200
   2551   2563   2564     1   109.8000471 387.438400
   2551   2563   2565     1   109.8000471 387.438400
   2552   2551   2563     1   110.5600475 386.601600
   2552   2551   2553     1   109.7500473 328.025600
   2553   2551   2563     1   110.5600475 386.601600
   2554   2550   2579     1   110.1100470 384.091200
   2554   2566   2567     1   109.8000471 387.438400
   2554   2566   2568     1   109.8000471 387.438400
   2555   2554   2566     1   110.5600475 386.601600
   2555   2554   2556     1   109.7500473 328.025600
   2556   2554   2566     1   110.5600475 386.601600
   2557   2550   2579     1   110.1100470 384.091200
   2557   2560   2561     1   109.8000471 387.438400
   2557   2560   2562     1   109.8000471 387.438400
   2558   2557   2560     1   110.5600475 386.601600
   2558   2557   2559     1   109.7500473 328.025600
   2559   2557   2560     1   110.5600475 386.601600
   2560   2569   2570     1   109.5600471 388.275200
   2560   2569   2571     1   109.5600471 388.275200
   2561   2560   2569     1   109.8000471 387.438400
   2561   2560   2562     1   107.5800459 329.699200
   2562   2560   2569     1   109.8000471 387.438400
   2563   2575   2576     1   109.5600471 388.275200
   2563   2575   2577     1   109.5600471 388.275200
   2564   2563   2575     1   109.8000471 387.438400
   2564   2563   2565     1   107.5800459 329.699200
   2565   2563   2575     1   109.8000471 387.438400
   2566   2572   2573     1   109.5600471 388.275200
   2566   2572   2574     1   109.5600471 388.275200
   2567   2566   2572     1   109.8000471 387.438400
   2567   2566   2568     1   107.5800459 329.699200
   2568   2566   2572     1   109.8000471 387.438400
   2570   2569   2578     1   109.7800468 425.094400
   2570   2569   2571     1   108.4600466 328.025600
   2571   2569   2578     1   109.7800468 425.094400
   2573   2572   5188     1   109.7800468 425.094400
   2573   2572   2574     1   108.4600466 328.025600
   2574   2572   5188     1   109.7800468 425.094400
   2576   2575   5218     1   109.7800468 425.094400
   2576   2575   2577     1   108.4600466 328.025600
   2577   2575   5218     1   109.7800468 425.094400
   2580   2581   2582     1   108.0100461 406.684800
   2580   2581   2583     1   108.0100461 406.684800
   2580   2584   2585     1   108.0100461 406.684800
   2580   2584   2586     1   108.0100461 406.684800
   2580   2587   2588     1   108.0100461 406.684800
   2580   2587   2589     1   108.0100461 406.684800
   2581   2580   2609     1   110.1100470 384.091200
   2581   2593   2594     1   109.8000471 387.438400
   2581   2593   2595     1   109.8000471 387.438400
   2582   2581   2593     1   110.5600475 386.601600
   2582   2581   2583     1   109.7500473 328.025600
   2583   2581   2593     1   110.5600475 386.601600
   2584   2580   2609     1   110.1100470 384.091200
   2584   2596   2597     1   109.8000471 387.438400
   2584   2596   2598     1   109.8000471 387.438400
   2585   2584   2596     1   110.5600475 386.601600
   2585   2584   2586     1   109.7500473 328.025600
   2586   2584   2596     1   110.5600475 386.601600
   2587   2580   2609     1   110.1100470 384.091200
   2587   2590   2591     1   109.8000471 387.438400
   2587   2590   2592     1   109.8000471 387.438400
   2588   2587   2590     1   110.5600475 386.601600
   2588   2587   2589     1   109.7500473 328.025600
   2589   2587   2590     1   110.5600475 386.601600
   2590   2599   2600     1   109.5600471 388.275200
   2590   2599   2601     1   109.5600471 388.275200
   2591   2590   2599     1   109.8000471 387.438400
   2591   2590   2592     1   107.5800459 329.699200
   2592   2590   2599     1   109.8000471 387.438400
   2593   2605   2606     1   109.5600471 388.275200
   2593   2605   2607     1   109.5600471 388.275200
   2594   2593   2605     1   109.8000471 387.438400
   2594   2593   2595     1   107.5800459 329.699200
   2595   2593   2605     1   109.8000471 387.438400
   2596   2602   2603     1   109.5600471 388.275200
   2596   2602   2604     1   109.5600471 388.275200
   2597   2596   2602     1   109.8000471 387.438400
   2597   2596   2598     1   107.5800459 329.699200
   2598   2596   2602     1   109.8000471 387.438400
   2600   2599   2608     1   109.7800468 425.094400
   2600   2599   2601     1   108.4600466 328.025600
   2601   2599   2608     1   109.7800468 425.094400
   2603   2602   5248     1   109.7800468 425.094400
   2603   2602   2604     1   108.4600466 328.025600
   2604   2602   5248     1   109.7800468 425.094400
   2606   2605   5278     1   109.7800468 425.094400
   2606   2605   2607     1   108.4600466 328.025600
   2607   2605   5278     1   109.7800468 425.094400
   2610   2611   2612     1   108.0100461 406.684800
   2610   2611   2613     1   108.0100461 406.684800
   2610   2614   2615     1   108.0100461 406.684800
   2610   2614   2616     1   108.0100461 406.684800
   2610   2617   2618     1   108.0100461 406.684800
   2610   2617   2619     1   108.0100461 406.684800
   2611   2610   2639     1   110.1100470 384.091200
   2611   2623   2624     1   109.8000471 387.438400
   2611   2623   2625     1   109.8000471 387.438400
   2612   2611   2623     1   110.5600475 386.601600
   2612   2611   2613     1   109.7500473 328.025600
   2613   2611   2623     1   110.5600475 386.601600
   2614   2610   2639     1   110.1100470 384.091200
   2614   2626   2627     1   109.8000471 387.438400
   2614   2626   2628     1   109.8000471 387.438400
   2615   2614   2626     1   110.5600475 386.601600
   2615   2614   2616     1   109.7500473 328.025600
   2616   2614   2626     1   110.5600475 386.601600
   2617   2610   2639     1   110.1100470 384.091200
   2617   2620   2621     1   109.8000471 387.438400
   2617   2620   2622     1   109.8000471 387.438400
   2618   2617   2620     1   110.5600475 386.601600
   2618   2617   2619     1   109.7500473 328.025600
   2619   2617   2620     1   110.5600475 386.601600
   2620   2629   2630     1   109.5600471 388.275200
   2620   2629   2631     1   109.5600471 388.275200
   2621   2620   2629     1   109.8000471 387.438400
   2621   2620   2622     1   107.5800459 329.699200
   2622   2620   2629     1   109.8000471 387.438400
   2623   2635   2636     1   109.5600471 388.275200
   2623   2635   2637     1   109.5600471 388.275200
   2624   2623   2635     1   109.8000471 387.438400
   2624   2623   2625     1   107.5800459 329.699200
   2625   2623   2635     1   109.8000471 387.438400
   2626   2632   2633     1   109.5600471 388.275200
   2626   2632   2634     1   109.5600471 388.275200
   2627   2626   2632     1   109.8000471 387.438400
   2627   2626   2628     1   107.5800459 329.699200
   2628   2626   2632     1   109.8000471 387.438400
   2630   2629   2638     1   109.7800468 425.094400
   2630   2629   2631     1   108.4600466 328.025600
   2631   2629   2638     1   109.7800468 425.094400
   2633   2632   5308     1   109.7800468 425.094400
   2633   2632   2634     1   108.4600466 328.025600
   2634   2632   5308     1   109.7800468 425.094400
   2636   2635   5338     1   109.7800468 425.094400
   2636   2635   2637     1   108.4600466 328.025600
   2637   2635   5338     1   109.7800468 425.094400
   2640   2641   2642     1   108.0100461 406.684800
   2640   2641   2643     1   108.0100461 406.684800
   2640   2644   2645     1   108.0100461 406.684800
   2640   2644   2646     1   108.0100461 406.684800
   2640   2647   2648     1   108.0100461 406.684800
   2640   2647   2649     1   108.0100461 406.684800
   2641   2640   2669     1   110.1100470 384.091200
   2641   2653   2654     1   109.8000471 387.438400
   2641   2653   2655     1   109.8000471 387.438400
   2642   2641   2653     1   110.5600475 386.601600
   2642   2641   2643     1   109.7500473 328.025600
   2643   2641   2653     1   110.5600475 386.601600
   2644   2640   2669     1   110.1100470 384.091200
   2644   2656   2657     1   109.8000471 387.438400
   2644   2656   2658     1   109.8000471 387.438400
   2645   2644   2656     1   110.5600475 386.601600
   2645   2644   2646     1   109.7500473 328.025600
   2646   2644   2656     1   110.5600475 386.601600
   2647   2640   2669     1   110.1100470 384.091200
   2647   2650   2651     1   109.8000471 387.438400
   2647   2650   2652     1   109.8000471 387.438400
   2648   2647   2650     1   110.5600475 386.601600
   2648   2647   2649     1   109.7500473 328.025600
   2649   2647   2650     1   110.5600475 386.601600
   2650   2659   2660     1   109.5600471 388.275200
   2650   2659   2661     1   109.5600471 388.275200
   2651   2650   2659     1   109.8000471 387.438400
   2651   2650   2652     1   107.5800459 329.699200
   2652   2650   2659     1   109.8000471 387.438400
   2653   2665   2666     1   109.5600471 388.275200
   2653   2665   2667     1   109.5600471 388.275200
   2654   2653   2665     1   109.8000471 387.438400
   2654   2653   2655     1   107.5800459 329.699200
   2655   2653   2665     1   109.8000471 387.438400
   2656   2662   2663     1   109.5600471 388.275200
   2656   2662   2664     1   109.5600471 388.275200
   2657   2656   2662     1   109.8000471 387.438400
   2657   2656   2658     1   107.5800459 329.699200
   2658   2656   2662     1   109.8000471 387.438400
   2660   2659   2668     1   109.7800468 425.094400
   2660   2659   2661     1   108.4600466 328.025600
   2661   2659   2668     1   109.7800468 425.094400
   2663   2662   5368     1   109.7800468 425.094400
   2663   2662   2664     1   108.4600466 328.025600
   2664   2662   5368     1   109.7800468 425.094400
   2666   2665   5398     1   109.7800468 425.094400
   2666   2665   2667     1   108.4600466 328.025600
   2667   2665   5398     1   109.7800468 425.094400
   2670   2671   2672     1   108.0100461 406.684800
   2670   2671   2673     1   108.0100461 406.684800
   2670   2674   2675     1   108.0100461 406.684800
   2670   2674   2676     1   108.0100461 406.684800
   2670   2677   2678     1   108.0100461 406.684800
   2670   2677   2679     1   108.0100461 406.684800
   2671   2670   2699     1   110.1100470 384.091200
   2671   2683   2684     1   109.8000471 387.438400
   2671   2683   2685     1   109.8000471 387.438400
   2672   2671   2683     1   110.5600475 386.601600
   2672   2671   2673     1   109.7500473 328.025600
   2673   2671   2683     1   110.5600475 386.601600
   2674   2670   2699     1   110.1100470 384.091200
   2674   2686   2687     1   109.8000471 387.438400
   2674   2686   2688     1   109.8000471 387.438400
   2675   2674   2686     1   110.5600475 386.601600
   2675   2674   2676     1   109.7500473 328.025600
   2676   2674   2686     1   110.5600475 386.601600
   2677   2670   2699     1   110.1100470 384.091200
   2677   2680   2681     1   109.8000471 387.438400
   2677   2680   2682     1   109.8000471 387.438400
   2678   2677   2680     1   110.5600475 386.601600
   2678   2677   2679     1   109.7500473 328.025600
   2679   2677   2680     1   110.5600475 386.601600
   2680   2689   2690     1   109.5600471 388.275200
   2680   2689   2691     1   109.5600471 388.275200
   2681   2680   2689     1   109.8000471 387.438400
   2681   2680   2682     1   107.5800459 329.699200
   2682   2680   2689     1   109.8000471 387.438400
   2683   2695   2696     1   109.5600471 388.275200
   2683   2695   2697     1   109.5600471 388.275200
   2684   2683   2695     1   109.8000471 387.438400
   2684   2683   2685     1   107.5800459 329.699200
   2685   2683   2695     1   109.8000471 387.438400
   2686   2692   2693     1   109.5600471 388.275200
   2686   2692   2694     1   109.5600471 388.275200
   2687   2686   2692     1   109.8000471 387.438400
   2687   2686   2688     1   107.5800459 329.699200
   2688   2686   2692     1   109.8000471 387.438400
   2690   2689   2698     1   109.7800468 425.094400
   2690   2689   2691     1   108.4600466 328.025600
   2691   2689   2698     1   109.7800468 425.094400
   2693   2692   5428     1   109.7800468 425.094400
   2693   2692   2694     1   108.4600466 328.025600
   2694   2692   5428     1   109.7800468 425.094400
   2696   2695   5458     1   109.7800468 425.094400
   2696   2695   2697     1   108.4600466 328.025600
   2697   2695   5458     1   109.7800468 425.094400
   2700   2701   2702     1   108.0100461 406.684800
   2700   2701   2703     1   108.0100461 406.684800
   2700   2704   2705     1   108.0100461 406.684800
   2700   2704   2706     1   108.0100461 406.684800
   2700   2707   2708     1   108.0100461 406.684800
   2700   2707   2709     1   108.0100461 406.684800
   2701   2700   2729     1   110.1100470 384.091200
   2701   2713   2714     1   109.8000471 387.438400
   2701   2713   2715     1   109.8000471 387.438400
   2702   2701   2713     1   110.5600475 386.601600
   2702   2701   2703     1   109.7500473 328.025600
   2703   2701   2713     1   110.5600475 386.601600
   2704   2700   2729     1   110.1100470 384.091200
   2704   2716   2717     1   109.8000471 387.438400
   2704   2716   2718     1   109.8000471 387.438400
   2705   2704   2716     1   110.5600475 386.601600
   2705   2704   2706     1   109.7500473 328.025600
   2706   2704   2716     1   110.5600475 386.601600
   2707   2700   2729     1   110.1100470 384.091200
   2707   2710   2711     1   109.8000471 387.438400
   2707   2710   2712     1   109.8000471 387.438400
   2708   2707   2710     1   110.5600475 386.601600
   2708   2707   2709     1   109.7500473 328.025600
   2709   2707   2710     1   110.5600475 386.601600
   2710   2719   2720     1   109.5600471 388.275200
   2710   2719   2721     1   109.5600471 388.275200
   2711   2710   2719     1   109.8000471 387.438400
   2711   2710   2712     1   107.5800459 329.699200
   2712   2710   2719     1   109.8000471 387.438400
   2713   2725   2726     1   109.5600471 388.275200
   2713   2725   2727     1   109.5600471 388.275200
   2714   2713   2725     1   109.8000471 387.438400
   2714   2713   2715     1   107.5800459 329.699200
   2715   2713   2725     1   109.8000471 387.438400
   2716   2722   2723     1   109.5600471 388.275200
   2716   2722   2724     1   109.5600471 388.275200
   2717   2716   2722     1   109.8000471 387.438400
   2717   2716   2718     1   107.5800459 329.699200
   2718   2716   2722     1   109.8000471 387.438400
   2720   2719   2728     1   109.7800468 425.094400
   2720   2719   2721     1   108.4600466 328.025600
   2721   2719   2728     1   109.7800468 425.094400
   2723   2722   5488     1   109.7800468 425.094400
   2723   2722   2724     1   108.4600466 328.025600
   2724   2722   5488     1   109.7800468 425.094400
   2726   2725   5518     1   109.7800468 425.094400
   2726   2725   2727     1   108.4600466 328.025600
   2727   2725   5518     1   109.7800468 425.094400
   2730   2731   2732     1   108.0100461 406.684800
   2730   2731   2733     1   108.0100461 406.684800
   2730   2734   2735     1   108.0100461 406.684800
   2730   2734   2736     1   108.0100461 406.684800
   2730   2737   2738     1   108.0100461 406.684800
   2730   2737   2739     1   108.0100461 406.684800
   2731   2730   2759     1   110.1100470 384.091200
   2731   2743   2744     1   109.8000471 387.438400
   2731   2743   2745     1   109.8000471 387.438400
   2732   2731   2743     1   110.5600475 386.601600
   2732   2731   2733     1   109.7500473 328.025600
   2733   2731   2743     1   110.5600475 386.601600
   2734   2730   2759     1   110.1100470 384.091200
   2734   2746   2747     1   109.8000471 387.438400
   2734   2746   2748     1   109.8000471 387.438400
   2735   2734   2746     1   110.5600475 386.601600
   2735   2734   2736     1   109.7500473 328.025600
   2736   2734   2746     1   110.5600475 386.601600
   2737   2730   2759     1   110.1100470 384.091200
   2737   2740   2741     1   109.8000471 387.438400
   2737   2740   2742     1   109.8000471 387.438400
   2738   2737   2740     1   110.5600475 386.601600
   2738   2737   2739     1   109.7500473 328.025600
   2739   2737   2740     1   110.5600475 386.601600
   2740   2749   2750     1   109.5600471 388.275200
   2740   2749   2751     1   109.5600471 388.275200
   2741   2740   2749     1   109.8000471 387.438400
   2741   2740   2742     1   107.5800459 329.699200
   2742   2740   2749     1   109.8000471 387.438400
   2743   2755   2756     1   109.5600471 388.275200
   2743   2755   2757     1   109.5600471 388.275200
   2744   2743   2755     1   109.8000471 387.438400
   2744   2743   2745     1   107.5800459 329.699200
   2745   2743   2755     1   109.8000471 387.438400
   2746   2752   2753     1   109.5600471 388.275200
   2746   2752   2754     1   109.5600471 388.275200
   2747   2746   2752     1   109.8000471 387.438400
   2747   2746   2748     1   107.5800459 329.699200
   2748   2746   2752     1   109.8000471 387.438400
   2750   2749   2758     1   109.7800468 425.094400
   2750   2749   2751     1   108.4600466 328.025600
   2751   2749   2758     1   109.7800468 425.094400
   2753   2752   5548     1   109.7800468 425.094400
   2753   2752   2754     1   108.4600466 328.025600
   2754   2752   5548     1   109.7800468 425.094400
   2756   2755   5578     1   109.7800468 425.094400
   2756   2755   2757     1   108.4600466 328.025600
   2757   2755   5578     1   109.7800468 425.094400
   2760   2761   2762     1   108.0100461 406.684800
   2760   2761   2763     1   108.0100461 406.684800
   2760   2764   2765     1   108.0100461 406.684800
   2760   2764   2766     1   108.0100461 406.684800
   2760   2767   2768     1   108.0100461 406.684800
   2760   2767   2769     1   108.0100461 406.684800
   2761   2760   2789     1   110.1100470 384.091200
   2761   2773   2774     1   109.8000471 387.438400
   2761   2773   2775     1   109.8000471 387.438400
   2762   2761   2773     1   110.5600475 386.601600
   2762   2761   2763     1   109.7500473 328.025600
   2763   2761   2773     1   110.5600475 386.601600
   2764   2760   2789     1   110.1100470 384.091200
   2764   2776   2777     1   109.8000471 387.438400
   2764   2776   2778     1   109.8000471 387.438400
   2765   2764   2776     1   110.5600475 386.601600
   2765   2764   2766     1   109.7500473 328.025600
   2766   2764   2776     1   110.5600475 386.601600
   2767   2760   2789     1   110.1100470 384.091200
   2767   2770   2771     1   109.8000471 387.438400
   2767   2770   2772     1   109.8000471 387.438400
   2768   2767   2770     1   110.5600475 386.601600
   2768   2767   2769     1   109.7500473 328.025600
   2769   2767   2770     1   110.5600475 386.601600
   2770   2779   2780     1   109.5600471 388.275200
   2770   2779   2781     1   109.5600471 388.275200
   2771   2770   2779     1   109.8000471 387.438400
   2771   2770   2772     1   107.5800459 329.699200
   2772   2770   2779     1   109.8000471 387.438400
   2773   2785   2786     1   109.5600471 388.275200
   2773   2785   2787     1   109.5600471 388.275200
   2774   2773   2785     1   109.8000471 387.438400
   2774   2773   2775     1   107.5800459 329.699200
   2775   2773   2785     1   109.8000471 387.438400
   2776   2782   2783     1   109.5600471 388.275200
   2776   2782   2784     1   109.5600471 388.275200
   2777   2776   2782     1   109.8000471 387.438400
   2777   2776   2778     1   107.5800459 329.699200
   2778   2776   2782     1   109.8000471 387.438400
   2780   2779   2788     1   109.7800468 425.094400
   2780   2779   2781     1   108.4600466 328.025600
   2781   2779   2788     1   109.7800468 425.094400
   2783   2782   5608     1   109.7800468 425.094400
   2783   2782   2784     1   108.4600466 328.025600
   2784   2782   5608     1   109.7800468 425.094400
   2786   2785   5638     1   109.7800468 425.094400
   2786   2785   2787     1   108.4600466 328.025600
   2787   2785   5638     1   109.7800468 425.094400
   2790   2791   2792     1   108.0100461 406.684800
   2790   2791   2793     1   108.0100461 406.684800
   2790   2794   2795     1   108.0100461 406.684800
   2790   2794   2796     1   108.0100461 406.684800
   2790   2797   2798     1   108.0100461 406.684800
   2790   2797   2799     1   108.0100461 406.684800
   2791   2790   2819     1   110.1100470 384.091200
   2791   2803   2804     1   109.8000471 387.438400
   2791   2803   2805     1   109.8000471 387.438400
   2792   2791   2803     1   110.5600475 386.601600
   2792   2791   2793     1   109.7500473 328.025600
   2793   2791   2803     1   110.5600475 386.601600
   2794   2790   2819     1   110.1100470 384.091200
   2794   2806   2807     1   109.8000471 387.438400
   2794   2806   2808     1   109.8000471 387.438400
   2795   2794   2806     1   110.5600475 386.601600
   2795   2794   2796     1   109.7500473 328.025600
   2796   2794   2806     1   110.5600475 386.601600
   2797   2790   2819     1   110.1100470 384.091200
   2797   2800   2801     1   109.8000471 387.438400
   2797   2800   2802     1   109.8000471 387.438400
   2798   2797   2800     1   110.5600475 386.601600
   2798   2797   2799     1   109.7500473 328.025600
   2799   2797   2800     1   110.5600475 386.601600
   2800   2809   2810     1   109.5600471 388.275200
   2800   2809   2811     1   109.5600471 388.275200
   2801   2800   2809     1   109.8000471 387.438400
   2801   2800   2802     1   107.5800459 329.699200
   2802   2800   2809     1   109.8000471 387.438400
   2803   2815   2816     1   109.5600471 388.275200
   2803   2815   2817     1   109.5600471 388.275200
   2804   2803   2815     1   109.8000471 387.438400
   2804   2803   2805     1   107.5800459 329.699200
   2805   2803   2815     1   109.8000471 387.438400
   2806   2812   2813     1   109.5600471 388.275200
   2806   2812   2814     1   109.5600471 388.275200
   2807   2806   2812     1   109.8000471 387.438400
   2807   2806   2808     1   107.5800459 329.699200
   2808   2806   2812     1   109.8000471 387.438400
   2810   2809   2818     1   109.7800468 425.094400
   2810   2809   2811     1   108.4600466 328.025600
   2811   2809   2818     1   109.7800468 425.094400
   2813   2812   5668     1   109.7800468 425.094400
   2813   2812   2814     1   108.4600466 328.025600
   2814   2812   5668     1   109.7800468 425.094400
   2816   2815   5698     1   109.7800468 425.094400
   2816   2815   2817     1   108.4600466 328.025600
   2817   2815   5698     1   109.7800468 425.094400
   2820   2821   2822     1   108.0100461 406.684800
   2820   2821   2823     1   108.0100461 406.684800
   2820   2824   2825     1   108.0100461 406.684800
   2820   2824   2826     1   108.0100461 406.684800
   2820   2827   2828     1   108.0100461 406.684800
   2820   2827   2829     1   108.0100461 406.684800
   2821   2820   2849     1   110.1100470 384.091200
   2821   2833   2834     1   109.8000471 387.438400
   2821   2833   2835     1   109.8000471 387.438400
   2822   2821   2833     1   110.5600475 386.601600
   2822   2821   2823     1   109.7500473 328.025600
   2823   2821   2833     1   110.5600475 386.601600
   2824   2820   2849     1   110.1100470 384.091200
   2824   2836   2837     1   109.8000471 387.438400
   2824   2836   2838     1   109.8000471 387.438400
   2825   2824   2836     1   110.5600475 386.601600
   2825   2824   2826     1   109.7500473 328.025600
   2826   2824   2836     1   110.5600475 386.601600
   2827   2820   2849     1   110.1100470 384.091200
   2827   2830   2831     1   109.8000471 387.438400
   2827   2830   2832     1   109.8000471 387.438400
   2828   2827   2830     1   110.5600475 386.601600
   2828   2827   2829     1   109.7500473 328.025600
   2829   2827   2830     1   110.5600475 386.601600
   2830   2839   2840     1   109.5600471 388.275200
   2830   2839   2841     1   109.5600471 388.275200
   2831   2830   2839     1   109.8000471 387.438400
   2831   2830   2832     1   107.5800459 329.699200
   2832   2830   2839     1   109.8000471 387.438400
   2833   2845   2846     1   109.5600471 388.275200
   2833   2845   2847     1   109.5600471 388.275200
   2834   2833   2845     1   109.8000471 387.438400
   2834   2833   2835     1   107.5800459 329.699200
   2835   2833   2845     1   109.8000471 387.438400
   2836   2842   2843     1   109.5600471 388.275200
   2836   2842   2844     1   109.5600471 388.275200
   2837   2836   2842     1   109.8000471 387.438400
   2837   2836   2838     1   107.5800459 329.699200
   2838   2836   2842     1   109.8000471 387.438400
   2840   2839   2848     1   109.7800468 425.094400
   2840   2839   2841     1   108.4600466 328.025600
   2841   2839   2848     1   109.7800468 425.094400
   2843   2842   5728     1   109.7800468 425.094400
   2843   2842   2844     1   108.4600466 328.025600
   2844   2842   5728     1   109.7800468 425.094400
   2846   2845   5758     1   109.7800468 425.094400
   2846   2845   2847     1   108.4600466 328.025600
   2847   2845   5758     1   109.7800468 425.094400
   2850   2851   2852     1   108.0100461 406.684800
   2850   2851   2853     1   108.0100461 406.684800
   2850   2854   2855     1   108.0100461 406.684800
   2850   2854   2856     1   108.0100461 406.684800
   2850   2857   2858     1   108.0100461 406.684800
   2850   2857   2859     1   108.0100461 406.684800
   2851   2850   2879     1   110.1100470 384.091200
   2851   2863   2864     1   109.8000471 387.438400
   2851   2863   2865     1   109.8000471 387.438400
   2852   2851   2863     1   110.5600475 386.601600
   2852   2851   2853     1   109.7500473 328.025600
   2853   2851   2863     1   110.5600475 386.601600
   2854   2850   2879     1   110.1100470 384.091200
   2854   2866   2867     1   109.8000471 387.438400
   2854   2866   2868     1   109.8000471 387.438400
   2855   2854   2866     1   110.5600475 386.601600
   2855   2854   2856     1   109.7500473 328.025600
   2856   2854   2866     1   110.5600475 386.601600
   2857   2850   2879     1   110.1100470 384.091200
   2857   2860   2861     1   109.8000471 387.438400
   2857   2860   2862     1   109.8000471 387.438400
   2858   2857   2860     1   110.5600475 386.601600
   2858   2857   2859     1   109.7500473 328.025600
   2859   2857   2860     1   110.5600475 386.601600
   2860   2869   2870     1   109.5600471 388.275200
   2860   2869   2871     1   109.5600471 388.275200
   2861   2860   2869     1   109.8000471 387.438400
   2861   2860   2862     1   107.5800459 329.699200
   2862   2860   2869     1   109.8000471 387.438400
   2863   2875   2876     1   109.5600471 388.275200
   2863   2875   2877     1   109.5600471 388.275200
   2864   2863   2875     1   109.8000471 387.438400
   2864   2863   2865     1   107.5800459 329.699200
   2865   2863   2875     1   109.8000471 387.438400
   2866   2872   2873     1   109.5600471 388.275200
   2866   2872   2874     1   109.5600471 388.275200
   2867   2866   2872     1   109.8000471 387.438400
   2867   2866   2868     1   107.5800459 329.699200
   2868   2866   2872     1   109.8000471 387.438400
   2870   2869   2878     1   109.7800468 425.094400
   2870   2869   2871     1   108.4600466 328.025600
   2871   2869   2878     1   109.7800468 425.094400
   2873   2872   5788     1   109.7800468 425.094400
   2873   2872   2874     1   108.4600466 328.025600
   2874   2872   5788     1   109.7800468 425.094400
   2876   2875   5818     1   109.7800468 425.094400
   2876   2875   2877     1   108.4600466 328.025600
   2877   2875   5818     1   109.7800468 425.094400
   2880   2881   2882     1   108.0100461 406.684800
   2880   2881   2883     1   108.0100461 406.684800
   2880   2884   2885     1   108.0100461 406.684800
   2880   2884   2886     1   108.0100461 406.684800
   2880   2887   2888     1   108.0100461 406.684800
   2880   2887   2889     1   108.0100461 406.684800
   2881   2880   2909     1   110.1100470 384.091200
   2881   2893   2894     1   109.8000471 387.438400
   2881   2893   2895     1   109.8000471 387.438400
   2882   2881   2893     1   110.5600475 386.601600
   2882   2881   2883     1   109.7500473 328.025600
   2883   2881   2893     1   110.5600475 386.601600
   2884   2880   2909     1   110.1100470 384.091200
   2884   2896   2897     1   109.8000471 387.438400
   2884   2896   2898     1   109.8000471 387.438400
   2885   2884   2896     1   110.5600475 386.601600
   2885   2884   2886     1   109.7500473 328.025600
   2886   2884   2896     1   110.5600475 386.601600
   2887   2880   2909     1   110.1100470 384.091200
   2887   2890   2891     1   109.8000471 387.438400
   2887   2890   2892     1   109.8000471 387.438400
   2888   2887   2890     1   110.5600475 386.601600
   2888   2887   2889     1   109.7500473 328.025600
   2889   2887   2890     1   110.5600475 386.601600
   2890   2899   2900     1   109.5600471 388.275200
   2890   2899   2901     1   109.5600471 388.275200
   2891   2890   2899     1   109.8000471 387.438400
   2891   2890   2892     1   107.5800459 329.699200
   2892   2890   2899     1   109.8000471 387.438400
   2893   2905   2906     1   109.5600471 388.275200
   2893   2905   2907     1   109.5600471 388.275200
   2894   2893   2905     1   109.8000471 387.438400
   2894   2893   2895     1   107.5800459 329.699200
   2895   2893   2905     1   109.8000471 387.438400
   2896   2902   2903     1   109.5600471 388.275200
   2896   2902   2904     1   109.5600471 388.275200
   2897   2896   2902     1   109.8000471 387.438400
   2897   2896   2898     1   107.5800459 329.699200
   2898   2896   2902     1   109.8000471 387.438400
   2900   2899   2908     1   109.7800468 425.094400
   2900   2899   2901     1   108.4600466 328.025600
   2901   2899   2908     1   109.7800468 425.094400
   2903   2902   5848     1   109.7800468 425.094400
   2903   2902   2904     1   108.4600466 328.025600
   2904   2902   5848     1   109.7800468 425.094400
   2906   2905   5878     1   109.7800468 425.094400
   2906   2905   2907     1   108.4600466 328.025600
   2907   2905   5878     1   109.7800468 425.094400
   2910   2911   2912     1   108.0100461 406.684800
   2910   2911   2913     1   108.0100461 406.684800
   2910   2914   2915     1   108.0100461 406.684800
   2910   2914   2916     1   108.0100461 406.684800
   2910   2917   2918     1   108.0100461 406.684800
   2910   2917   2919     1   108.0100461 406.684800
   2911   2910   2939     1   110.1100470 384.091200
   2911   2923   2924     1   109.8000471 387.438400
   2911   2923   2925     1   109.8000471 387.438400
   2912   2911   2923     1   110.5600475 386.601600
   2912   2911   2913     1   109.7500473 328.025600
   2913   2911   2923     1   110.5600475 386.601600
   2914   2910   2939     1   110.1100470 384.091200
   2914   2926   2927     1   109.8000471 387.438400
   2914   2926   2928     1   109.8000471 387.438400
   2915   2914   2926     1   110.5600475 386.601600
   2915   2914   2916     1   109.7500473 328.025600
   2916   2914   2926     1   110.5600475 386.601600
   2917   2910   2939     1   110.1100470 384.091200
   2917   2920   2921     1   109.8000471 387.438400
   2917   2920   2922     1   109.8000471 387.438400
   2918   2917   2920     1   110.5600475 386.601600
   2918   2917   2919     1   109.7500473 328.025600
   2919   2917   2920     1   110.5600475 386.601600
   2920   2929   2930     1   109.5600471 388.275200
   2920   2929   2931     1   109.5600471 388.275200
   2921   2920   2929     1   109.8000471 387.438400
   2921   2920   2922     1   107.5800459 329.699200
   2922   2920   2929     1   109.8000471 387.438400
   2923   2935   2936     1   109.5600471 388.275200
   2923   2935   2937     1   109.5600471 388.275200
   2924   2923   2935     1   109.8000471 387.438400
   2924   2923   2925     1   107.5800459 329.699200
   2925   2923   2935     1   109.8000471 387.438400
   2926   2932   2933     1   109.5600471 388.275200
   2926   2932   2934     1   109.5600471 388.275200
   2927   2926   2932     1   109.8000471 387.438400
   2927   2926   2928     1   107.5800459 329.699200
   2928   2926   2932     1   109.8000471 387.438400
   2930   2929   2938     1   109.7800468 425.094400
   2930   2929   2931     1   108.4600466 328.025600
   2931   2929   2938     1   109.7800468 425.094400
   2933   2932   5908     1   109.7800468 425.094400
   2933   2932   2934     1   108.4600466 328.025600
   2934   2932   5908     1   109.7800468 425.094400
   2936   2935   5938     1   109.7800468 425.094400
   2936   2935   2937     1   108.4600466 328.025600
   2937   2935   5938     1   109.7800468 425.094400
   2940   2941   2942     1   108.0100461 406.684800
   2940   2941   2943     1   108.0100461 406.684800
   2940   2944   2945     1   108.0100461 406.684800
   2940   2944   2946     1   108.0100461 406.684800
   2940   2947   2948     1   108.0100461 406.684800
   2940   2947   2949     1   108.0100461 406.684800
   2941   2940   2969     1   110.1100470 384.091200
   2941   2953   2954     1   109.8000471 387.438400
   2941   2953   2955     1   109.8000471 387.438400
   2942   2941   2953     1   110.5600475 386.601600
   2942   2941   2943     1   109.7500473 328.025600
   2943   2941   2953     1   110.5600475 386.601600
   2944   2940   2969     1   110.1100470 384.091200
   2944   2956   2957     1   109.8000471 387.438400
   2944   2956   2958     1   109.8000471 387.438400
   2945   2944   2956     1   110.5600475 386.601600
   2945   2944   2946     1   109.7500473 328.025600
   2946   2944   2956     1   110.5600475 386.601600
   2947   2940   2969     1   110.1100470 384.091200
   2947   2950   2951     1   109.8000471 387.438400
   2947   2950   2952     1   109.8000471 387.438400
   2948   2947   2950     1   110.5600475 386.601600
   2948   2947   2949     1   109.7500473 328.025600
   2949   2947   2950     1   110.5600475 386.601600
   2950   2959   2960     1   109.5600471 388.275200
   2950   2959   2961     1   109.5600471 388.275200
   2951   2950   2959     1   109.8000471 387.438400
   2951   2950   2952     1   107.5800459 329.699200
   2952   2950   2959     1   109.8000471 387.438400
   2953   2965   2966     1   109.5600471 388.275200
   2953   2965   2967     1   109.5600471 388.275200
   2954   2953   2965     1   109.8000471 387.438400
   2954   2953   2955     1   107.5800459 329.699200
   2955   2953   2965     1   109.8000471 387.438400
   2956   2962   2963     1   109.5600471 388.275200
   2956   2962   2964     1   109.5600471 388.275200
   2957   2956   2962     1   109.8000471 387.438400
   2957   2956   2958     1   107.5800459 329.699200
   2958   2956   2962     1   109.8000471 387.438400
   2960   2959   2968     1   109.7800468 425.094400
   2960   2959   2961     1   108.4600466 328.025600
   2961   2959   2968     1   109.7800468 425.094400
   2963   2962   5968     1   109.7800468 425.094400
   2963   2962   2964     1   108.4600466 328.025600
   2964   2962   5968     1   109.7800468 425.094400
   2966   2965   5998     1   109.7800468 425.094400
   2966   2965   2967     1   108.4600466 328.025600
   2967   2965   5998     1   109.7800468 425.094400
   2970   2971   2972     1   108.0100461 406.684800
   2970   2971   2973     1   108.0100461 406.684800
   2970   2974   2975     1   108.0100461 406.684800
   2970   2974   2976     1   108.0100461 406.684800
   2970   2977   2978     1   108.0100461 406.684800
   2970   2977   2979     1   108.0100461 406.684800
   2971   2970   2999     1   110.1100470 384.091200
   2971   2983   2984     1   109.8000471 387.438400
   2971   2983   2985     1   109.8000471 387.438400
   2972   2971   2983     1   110.5600475 386.601600
   2972   2971   2973     1   109.7500473 328.025600
   2973   2971   2983     1   110.5600475 386.601600
   2974   2970   2999     1   110.1100470 384.091200
   2974   2986   2987     1   109.8000471 387.438400
   2974   2986   2988     1   109.8000471 387.438400
   2975   2974   2986     1   110.5600475 386.601600
   2975   2974   2976     1   109.7500473 328.025600
   2976   2974   2986     1   110.5600475 386.601600
   2977   2970   2999     1   110.1100470 384.091200
   2977   2980   2981     1   109.8000471 387.438400
   2977   2980   2982     1   109.8000471 387.438400
   2978   2977   2980     1   110.5600475 386.601600
   2978   2977   2979     1   109.7500473 328.025600
   2979   2977   2980     1   110.5600475 386.601600
   2980   2989   2990     1   109.5600471 388.275200
   2980   2989   2991     1   109.5600471 388.275200
   2981   2980   2989     1   109.8000471 387.438400
   2981   2980   2982     1   107.5800459 329.699200
   2982   2980   2989     1   109.8000471 387.438400
   2983   2995   2996     1   109.5600471 388.275200
   2983   2995   2997     1   109.5600471 388.275200
   2984   2983   2995     1   109.8000471 387.438400
   2984   2983   2985     1   107.5800459 329.699200
   2985   2983   2995     1   109.8000471 387.438400
   2986   2992   2993     1   109.5600471 388.275200
   2986   2992   2994     1   109.5600471 388.275200
   2987   2986   2992     1   109.8000471 387.438400
   2987   2986   2988     1   107.5800459 329.699200
   2988   2986   2992     1   109.8000471 387.438400
   2990   2989   2998     1   109.7800468 425.094400
   2990   2989   2991     1   108.4600466 328.025600
   2991   2989   2998     1   109.7800468 425.094400
   2993   2992   6028     1   109.7800468 425.094400
   2993   2992   2994     1   108.4600466 328.025600
   2994   2992   6028     1   109.7800468 425.094400
   2996   2995   6058     1   109.7800468 425.094400
   2996   2995   2997     1   108.4600466 328.025600
   2997   2995   6058     1   109.7800468 425.094400
   3000   3001   3002     1   108.0100461 406.684800
   3000   3001   3003     1   108.0100461 406.684800
   3000   3004   3005     1   108.0100461 406.684800
   3000   3004   3006     1   108.0100461 406.684800
   3000   3007   3008     1   108.0100461 406.684800
   3000   3007   3009     1   108.0100461 406.684800
   3001   3000   3029     1   110.1100470 384.091200
   3001   3013   3014     1   109.8000471 387.438400
   3001   3013   3015     1   109.8000471 387.438400
   3002   3001   3013     1   110.5600475 386.601600
   3002   3001   3003     1   109.7500473 328.025600
   3003   3001   3013     1   110.5600475 386.601600
   3004   3000   3029     1   110.1100470 384.091200
   3004   3016   3017     1   109.8000471 387.438400
   3004   3016   3018     1   109.8000471 387.438400
   3005   3004   3016     1   110.5600475 386.601600
   3005   3004   3006     1   109.7500473 328.025600
   3006   3004   3016     1   110.5600475 386.601600
   3007   3000   3029     1   110.1100470 384.091200
   3007   3010   3011     1   109.8000471 387.438400
   3007   3010   3012     1   109.8000471 387.438400
   3008   3007   3010     1   110.5600475 386.601600
   3008   3007   3009     1   109.7500473 328.025600
   3009   3007   3010     1   110.5600475 386.601600
   3010   3019   3020     1   109.5600471 388.275200
   3010   3019   3021     1   109.5600471 388.275200
   3011   3010   3019     1   109.8000471 387.438400
   3011   3010   3012     1   107.5800459 329.699200
   3012   3010   3019     1   109.8000471 387.438400
   3013   3025   3026     1   109.5600471 388.275200
   3013   3025   3027     1   109.5600471 388.275200
   3014   3013   3025     1   109.8000471 387.438400
   3014   3013   3015     1   107.5800459 329.699200
   3015   3013   3025     1   109.8000471 387.438400
   3016   3022   3023     1   109.5600471 388.275200
   3016   3022   3024     1   109.5600471 388.275200
   3017   3016   3022     1   109.8000471 387.438400
   3017   3016   3018     1   107.5800459 329.699200
   3018   3016   3022     1   109.8000471 387.438400
   3020   3019   3028     1   109.7800468 425.094400
   3020   3019   3021     1   108.4600466 328.025600
   3021   3019   3028     1   109.7800468 425.094400
   3023   3022   6088     1   109.7800468 425.094400
   3023   3022   3024     1   108.4600466 328.025600
   3024   3022   6088     1   109.7800468 425.094400
   3026   3025   6118     1   109.7800468 425.094400
   3026   3025   3027     1   108.4600466 328.025600
   3027   3025   6118     1   109.7800468 425.094400
   3030   3031   3032     1   108.0100461 406.684800
   3030   3031   3033     1   108.0100461 406.684800
   3030   3034   3035     1   108.0100461 406.684800
   3030   3034   3036     1   108.0100461 406.684800
   3030   3037   3038     1   108.0100461 406.684800
   3030   3037   3039     1   108.0100461 406.684800
   3031   3030   3059     1   110.1100470 384.091200
   3031   3043   3044     1   109.8000471 387.438400
   3031   3043   3045     1   109.8000471 387.438400
   3032   3031   3043     1   110.5600475 386.601600
   3032   3031   3033     1   109.7500473 328.025600
   3033   3031   3043     1   110.5600475 386.601600
   3034   3030   3059     1   110.1100470 384.091200
   3034   3046   3047     1   109.8000471 387.438400
   3034   3046   3048     1   109.8000471 387.438400
   3035   3034   3046     1   110.5600475 386.601600
   3035   3034   3036     1   109.7500473 328.025600
   3036   3034   3046     1   110.5600475 386.601600
   3037   3030   3059     1   110.1100470 384.091200
   3037   3040   3041     1   109.8000471 387.438400
   3037   3040   3042     1   109.8000471 387.438400
   3038   3037   3040     1   110.5600475 386.601600
   3038   3037   3039     1   109.7500473 328.025600
   3039   3037   3040     1   110.5600475 386.601600
   3040   3049   3050     1   109.5600471 388.275200
   3040   3049   3051     1   109.5600471 388.275200
   3041   3040   3049     1   109.8000471 387.438400
   3041   3040   3042     1   107.5800459 329.699200
   3042   3040   3049     1   109.8000471 387.438400
   3043   3055   3056     1   109.5600471 388.275200
   3043   3055   3057     1   109.5600471 388.275200
   3044   3043   3055     1   109.8000471 387.438400
   3044   3043   3045     1   107.5800459 329.699200
   3045   3043   3055     1   109.8000471 387.438400
   3046   3052   3053     1   109.5600471 388.275200
   3046   3052   3054     1   109.5600471 388.275200
   3047   3046   3052     1   109.8000471 387.438400
   3047   3046   3048     1   107.5800459 329.699200
   3048   3046   3052     1   109.8000471 387.438400
   3050   3049   3058     1   109.7800468 425.094400
   3050   3049   3051     1   108.4600466 328.025600
   3051   3049   3058     1   109.7800468 425.094400
   3053   3052   6148     1   109.7800468 425.094400
   3053   3052   3054     1   108.4600466 328.025600
   3054   3052   6148     1   109.7800468 425.094400
   3056   3055   6178     1   109.7800468 425.094400
   3056   3055   3057     1   108.4600466 328.025600
   3057   3055   6178     1   109.7800468 425.094400
   3060   3061   3062     1   108.0100461 406.684800
   3060   3061   3063     1   108.0100461 406.684800
   3060   3064   3065     1   108.0100461 406.684800
   3060   3064   3066     1   108.0100461 406.684800
   3060   3067   3068     1   108.0100461 406.684800
   3060   3067   3069     1   108.0100461 406.684800
   3061   3060   3089     1   110.1100470 384.091200
   3061   3073   3074     1   109.8000471 387.438400
   3061   3073   3075     1   109.8000471 387.438400
   3062   3061   3073     1   110.5600475 386.601600
   3062   3061   3063     1   109.7500473 328.025600
   3063   3061   3073     1   110.5600475 386.601600
   3064   3060   3089     1   110.1100470 384.091200
   3064   3076   3077     1   109.8000471 387.438400
   3064   3076   3078     1   109.8000471 387.438400
   3065   3064   3076     1   110.5600475 386.601600
   3065   3064   3066     1   109.7500473 328.025600
   3066   3064   3076     1   110.5600475 386.601600
   3067   3060   3089     1   110.1100470 384.091200
   3067   3070   3071     1   109.8000471 387.438400
   3067   3070   3072     1   109.8000471 387.438400
   3068   3067   3070     1   110.5600475 386.601600
   3068   3067   3069     1   109.7500473 328.025600
   3069   3067   3070     1   110.5600475 386.601600
   3070   3079   3080     1   109.5600471 388.275200
   3070   3079   3081     1   109.5600471 388.275200
   3071   3070   3079     1   109.8000471 387.438400
   3071   3070   3072     1   107.5800459 329.699200
   3072   3070   3079     1   109.8000471 387.438400
   3073   3085   3086     1   109.5600471 388.275200
   3073   3085   3087     1   109.5600471 388.275200
   3074   3073   3085     1   109.8000471 387.438400
   3074   3073   3075     1   107.5800459 329.699200
   3075   3073   3085     1   109.8000471 387.438400
   3076   3082   3083     1   109.5600471 388.275200
   3076   3082   3084     1   109.5600471 388.275200
   3077   3076   3082     1   109.8000471 387.438400
   3077   3076   3078     1   107.5800459 329.699200
   3078   3076   3082     1   109.8000471 387.438400
   3080   3079   3088     1   109.7800468 425.094400
   3080   3079   3081     1   108.4600466 328.025600
   3081   3079   3088     1   109.7800468 425.094400
   3083   3082   6208     1   109.7800468 425.094400
   3083   3082   3084     1   108.4600466 328.025600
   3084   3082   6208     1   109.7800468 425.094400
   3086   3085   6238     1   109.7800468 425.094400
   3086   3085   3087     1   108.4600466 328.025600
   3087   3085   6238     1   109.7800468 425.094400
   3090   3091   3092     1   108.0100461 406.684800
   3090   3091   3093     1   108.0100461 406.684800
   3090   3094   3095     1   108.0100461 406.684800
   3090   3094   3096     1   108.0100461 406.684800
   3090   3097   3098     1   108.0100461 406.684800
   3090   3097   3099     1   108.0100461 406.684800
   3091   3090   3119     1   110.1100470 384.091200
   3091   3103   3104     1   109.8000471 387.438400
   3091   3103   3105     1   109.8000471 387.438400
   3092   3091   3103     1   110.5600475 386.601600
   3092   3091   3093     1   109.7500473 328.025600
   3093   3091   3103     1   110.5600475 386.601600
   3094   3090   3119     1   110.1100470 384.091200
   3094   3106   3107     1   109.8000471 387.438400
   3094   3106   3108     1   109.8000471 387.438400
   3095   3094   3106     1   110.5600475 386.601600
   3095   3094   3096     1   109.7500473 328.025600
   3096   3094   3106     1   110.5600475 386.601600
   3097   3090   3119     1   110.1100470 384.091200
   3097   3100   3101     1   109.8000471 387.438400
   3097   3100   3102     1   109.8000471 387.438400
   3098   3097   3100     1   110.5600475 386.601600
   3098   3097   3099     1   109.7500473 328.025600
   3099   3097   3100     1   110.5600475 386.601600
   3100   3109   3110     1   109.5600471 388.275200
   3100   3109   3111     1   109.5600471 388.275200
   3101   3100   3109     1   109.8000471 387.438400
   3101   3100   3102     1   107.5800459 329.699200
   3102   3100   3109     1   109.8000471 387.438400
   3103   3115   3116     1   109.5600471 388.275200
   3103   3115   3117     1   109.5600471 388.275200
   3104   3103   3115     1   109.8000471 387.438400
   3104   3103   3105     1   107.5800459 329.699200
   3105   3103   3115     1   109.8000471 387.438400
   3106   3112   3113     1   109.5600471 388.275200
   3106   3112   3114     1   109.5600471 388.275200
   3107   3106   3112     1   109.8000471 387.438400
   3107   3106   3108     1   107.5800459 329.699200
   3108   3106   3112     1   109.8000471 387.438400
   3110   3109   3118     1   109.7800468 425.094400
   3110   3109   3111     1   108.4600466 328.025600
   3111   3109   3118     1   109.7800468 425.094400
   3113   3112   6268     1   109.7800468 425.094400
   3113   3112   3114     1   108.4600466 328.025600
   3114   3112   6268     1   109.7800468 425.094400
   3116   3115   6298     1   109.7800468 425.094400
   3116   3115   3117     1   108.4600466 328.025600
   3117   3115   6298     1   109.7800468 425.094400
   3120   3121   3122     1   108.0100461 406.684800
   3120   3121   3123     1   108.0100461 406.684800
   3120   3124   3125     1   108.0100461 406.684800
   3120   3124   3126     1   108.0100461 406.684800
   3120   3127   3128     1   108.0100461 406.684800
   3120   3127   3129     1   108.0100461 406.684800
   3121   3120   3149     1   110.1100470 384.091200
   3121   3133   3134     1   109.8000471 387.438400
   3121   3133   3135     1   109.8000471 387.438400
   3122   3121   3133     1   110.5600475 386.601600
   3122   3121   3123     1   109.7500473 328.025600
   3123   3121   3133     1   110.5600475 386.601600
   3124   3120   3149     1   110.1100470 384.091200
   3124   3136   3137     1   109.8000471 387.438400
   3124   3136   3138     1   109.8000471 387.438400
   3125   3124   3136     1   110.5600475 386.601600
   3125   3124   3126     1   109.7500473 328.025600
   3126   3124   3136     1   110.5600475 386.601600
   3127   3120   3149     1   110.1100470 384.091200
   3127   3130   3131     1   109.8000471 387.438400
   3127   3130   3132     1   109.8000471 387.438400
   3128   3127   3130     1   110.5600475 386.601600
   3128   3127   3129     1   109.7500473 328.025600
   3129   3127   3130     1   110.5600475 386.601600
   3130   3139   3140     1   109.5600471 388.275200
   3130   3139   3141     1   109.5600471 388.275200
   3131   3130   3139     1   109.8000471 387.438400
   3131   3130   3132     1   107.5800459 329.699200
   3132   3130   3139     1   109.8000471 387.438400
   3133   3145   3146     1   109.5600471 388.275200
   3133   3145   3147     1   109.5600471 388.275200
   3134   3133   3145     1   109.8000471 387.438400
   3134   3133   3135     1   107.5800459 329.699200
   3135   3133   3145     1   109.8000471 387.438400
   3136   3142   3143     1   109.5600471 388.275200
   3136   3142   3144     1   109.5600471 388.275200
   3137   3136   3142     1   109.8000471 387.438400
   3137   3136   3138     1   107.5800459 329.699200
   3138   3136   3142     1   109.8000471 387.438400
   3140   3139   3148     1   109.7800468 425.094400
   3140   3139   3141     1   108.4600466 328.025600
   3141   3139   3148     1   109.7800468 425.094400
   3143   3142   6328     1   109.7800468 425.094400
   3143   3142   3144     1   108.4600466 328.025600
   3144   3142   6328     1   109.7800468 425.094400
   3146   3145   6358     1   109.7800468 425.094400
   3146   3145   3147     1   108.4600466 328.025600
   3147   3145   6358     1   109.7800468 425.094400
   3150   3151   3152     1   108.0100461 406.684800
   3150   3151   3153     1   108.0100461 406.684800
   3150   3154   3155     1   108.0100461 406.684800
   3150   3154   3156     1   108.0100461 406.684800
   3150   3157   3158     1   108.0100461 406.684800
   3150   3157   3159     1   108.0100461 406.684800
   3151   3150   3179     1   110.1100470 384.091200
   3151   3163   3164     1   109.8000471 387.438400
   3151   3163   3165     1   109.8000471 387.438400
   3152   3151   3163     1   110.5600475 386.601600
   3152   3151   3153     1   109.7500473 328.025600
   3153   3151   3163     1   110.5600475 386.601600
   3154   3150   3179     1   110.1100470 384.091200
   3154   3166   3167     1   109.8000471 387.438400
   3154   3166   3168     1   109.8000471 387.438400
   3155   3154   3166     1   110.5600475 386.601600
   3155   3154   3156     1   109.7500473 328.025600
   3156   3154   3166     1   110.5600475 386.601600
   3157   3150   3179     1   110.1100470 384.091200
   3157   3160   3161     1   109.8000471 387.438400
   3157   3160   3162     1   109.8000471 387.438400
   3158   3157   3160     1   110.5600475 386.601600
   3158   3157   3159     1   109.7500473 328.025600
   3159   3157   3160     1   110.5600475 386.601600
   3160   3169   3170     1   109.5600471 388.275200
   3160   3169   3171     1   109.5600471 388.275200
   3161   3160   3169     1   109.8000471 387.438400
   3161   3160   3162     1   107.5800459 329.699200
   3162   3160   3169     1   109.8000471 387.438400
   3163   3175   3176     1   109.5600471 388.275200
   3163   3175   3177     1   109.5600471 388.275200
   3164   3163   3175     1   109.8000471 387.438400
   3164   3163   3165     1   107.5800459 329.699200
   3165   3163   3175     1   109.8000471 387.438400
   3166   3172   3173     1   109.5600471 388.275200
   3166   3172   3174     1   109.5600471 388.275200
   3167   3166   3172     1   109.8000471 387.438400
   3167   3166   3168     1   107.5800459 329.699200
   3168   3166   3172     1   109.8000471 387.438400
   3170   3169   3178     1   109.7800468 425.094400
   3170   3169   3171     1   108.4600466 328.025600
   3171   3169   3178     1   109.7800468 425.094400
   3173   3172   6388     1   109.7800468 425.094400
   3173   3172   3174     1   108.4600466 328.025600
   3174   3172   6388     1   109.7800468 425.094400
   3176   3175   6418     1   109.7800468 425.094400
   3176   3175   3177     1   108.4600466 328.025600
   3177   3175   6418     1   109.7800468 425.094400
   3180   3181   3182     1   108.0100461 406.684800
   3180   3181   3183     1   108.0100461 406.684800
   3180   3184   3185     1   108.0100461 406.684800
   3180   3184   3186     1   108.0100461 406.684800
   3180   3187   3188     1   108.0100461 406.684800
   3180   3187   3189     1   108.0100461 406.684800
   3181   3180   3209     1   110.1100470 384.091200
   3181   3193   3194     1   109.8000471 387.438400
   3181   3193   3195     1   109.8000471 387.438400
   3182   3181   3193     1   110.5600475 386.601600
   3182   3181   3183     1   109.7500473 328.025600
   3183   3181   3193     1   110.5600475 386.601600
   3184   3180   3209     1   110.1100470 384.091200
   3184   3196   3197     1   109.8000471 387.438400
   3184   3196   3198     1   109.8000471 387.438400
   3185   3184   3196     1   110.5600475 386.601600
   3185   3184   3186     1   109.7500473 328.025600
   3186   3184   3196     1   110.5600475 386.601600
   3187   3180   3209     1   110.1100470 384.091200
   3187   3190   3191     1   109.8000471 387.438400
   3187   3190   3192     1   109.8000471 387.438400
   3188   3187   3190     1   110.5600475 386.601600
   3188   3187   3189     1   109.7500473 328.025600
   3189   3187   3190     1   110.5600475 386.601600
   3190   3199   3200     1   109.5600471 388.275200
   3190   3199   3201     1   109.5600471 388.275200
   3191   3190   3199     1   109.8000471 387.438400
   3191   3190   3192     1   107.5800459 329.699200
   3192   3190   3199     1   109.8000471 387.438400
   3193   3205   3206     1   109.5600471 388.275200
   3193   3205   3207     1   109.5600471 388.275200
   3194   3193   3205     1   109.8000471 387.438400
   3194   3193   3195     1   107.5800459 329.699200
   3195   3193   3205     1   109.8000471 387.438400
   3196   3202   3203     1   109.5600471 388.275200
   3196   3202   3204     1   109.5600471 388.275200
   3197   3196   3202     1   109.8000471 387.438400
   3197   3196   3198     1   107.5800459 329.699200
   3198   3196   3202     1   109.8000471 387.438400
   3200   3199   3208     1   109.7800468 425.094400
   3200   3199   3201     1   108.4600466 328.025600
   3201   3199   3208     1   109.7800468 425.094400
   3203   3202   6448     1   109.7800468 425.094400
   3203   3202   3204     1   108.4600466 328.025600
   3204   3202   6448     1   109.7800468 425.094400
   3206   3205   6478     1   109.7800468 425.094400
   3206   3205   3207     1   108.4600466 328.025600
   3207   3205   6478     1   109.7800468 425.094400
   3210   3211   3212     1   108.0100461 406.684800
   3210   3211   3213     1   108.0100461 406.684800
   3210   3214   3215     1   108.0100461 406.684800
   3210   3214   3216     1   108.0100461 406.684800
   3210   3217   3218     1   108.0100461 406.684800
   3210   3217   3219     1   108.0100461 406.684800
   3211   3210   3239     1   110.1100470 384.091200
   3211   3223   3224     1   109.8000471 387.438400
   3211   3223   3225     1   109.8000471 387.438400
   3212   3211   3223     1   110.5600475 386.601600
   3212   3211   3213     1   109.7500473 328.025600
   3213   3211   3223     1   110.5600475 386.601600
   3214   3210   3239     1   110.1100470 384.091200
   3214   3226   3227     1   109.8000471 387.438400
   3214   3226   3228     1   109.8000471 387.438400
   3215   3214   3226     1   110.5600475 386.601600
   3215   3214   3216     1   109.7500473 328.025600
   3216   3214   3226     1   110.5600475 386.601600
   3217   3210   3239     1   110.1100470 384.091200
   3217   3220   3221     1   109.8000471 387.438400
   3217   3220   3222     1   109.8000471 387.438400
   3218   3217   3220     1   110.5600475 386.601600
   3218   3217   3219     1   109.7500473 328.025600
   3219   3217   3220     1   110.5600475 386.601600
   3220   3229   3230     1   109.5600471 388.275200
   3220   3229   3231     1   109.5600471 388.275200
   3221   3220   3229     1   109.8000471 387.438400
   3221   3220   3222     1   107.5800459 329.699200
   3222   3220   3229     1   109.8000471 387.438400
   3223   3235   3236     1   109.5600471 388.275200
   3223   3235   3237     1   109.5600471 388.275200
   3224   3223   3235     1   109.8000471 387.438400
   3224   3223   3225     1   107.5800459 329.699200
   3225   3223   3235     1   109.8000471 387.438400
   3226   3232   3233     1   109.5600471 388.275200
   3226   3232   3234     1   109.5600471 388.275200
   3227   3226   3232     1   109.8000471 387.438400
   3227   3226   3228     1   107.5800459 329.699200
   3228   3226   3232     1   109.8000471 387.438400
   3230   3229   3238     1   109.7800468 425.094400
   3230   3229   3231     1   108.4600466 328.025600
   3231   3229   3238     1   109.7800468 425.094400
   3233   3232   6508     1   109.7800468 425.094400
   3233   3232   3234     1   108.4600466 328.025600
   3234   3232   6508     1   109.7800468 425.094400
   3236   3235   6538     1   109.7800468 425.094400
   3236   3235   3237     1   108.4600466 328.025600
   3237   3235   6538     1   109.7800468 425.094400
   3240   3241   3242     1   108.0100461 406.684800
   3240   3241   3243     1   108.0100461 406.684800
   3240   3244   3245     1   108.0100461 406.684800
   3240   3244   3246     1   108.0100461 406.684800
   3240   3247   3248     1   108.0100461 406.684800
   3240   3247   3249     1   108.0100461 406.684800
   3241   3240   3269     1   110.1100470 384.091200
   3241   3253   3254     1   109.8000471 387.438400
   3241   3253   3255     1   109.8000471 387.438400
   3242   3241   3253     1   110.5600475 386.601600
   3242   3241   3243     1   109.7500473 328.025600
   3243   3241   3253     1   110.5600475 386.601600
   3244   3240   3269     1   110.1100470 384.091200
   3244   3256   3257     1   109.8000471 387.438400
   3244   3256   3258     1   109.8000471 387.438400
   3245   3244   3256     1   110.5600475 386.601600
   3245   3244   3246     1   109.7500473 328.025600
   3246   3244   3256     1   110.5600475 386.601600
   3247   3240   3269     1   110.1100470 384.091200
   3247   3250   3251     1   109.8000471 387.438400
   3247   3250   3252     1   109.8000471 387.438400
   3248   3247   3250     1   110.5600475 386.601600
   3248   3247   3249     1   109.7500473 328.025600
   3249   3247   3250     1   110.5600475 386.601600
   3250   3259   3260     1   109.5600471 388.275200
   3250   3259   3261     1   109.5600471 388.275200
   3251   3250   3259     1   109.8000471 387.438400
   3251   3250   3252     1   107.5800459 329.699200
   3252   3250   3259     1   109.8000471 387.438400
   3253   3265   3266     1   109.5600471 388.275200
   3253   3265   3267     1   109.5600471 388.275200
   3254   3253   3265     1   109.8000471 387.438400
   3254   3253   3255     1   107.5800459 329.699200
   3255   3253   3265     1   109.8000471 387.438400
   3256   3262   3263     1   109.5600471 388.275200
   3256   3262   3264     1   109.5600471 388.275200
   3257   3256   3262     1   109.8000471 387.438400
   3257   3256   3258     1   107.5800459 329.699200
   3258   3256   3262     1   109.8000471 387.438400
   3260   3259   3268     1   109.7800468 425.094400
   3260   3259   3261     1   108.4600466 328.025600
   3261   3259   3268     1   109.7800468 425.094400
   3263   3262   6568     1   109.7800468 425.094400
   3263   3262   3264     1   108.4600466 328.025600
   3264   3262   6568     1   109.7800468 425.094400
   3266   3265   6598     1   109.7800468 425.094400
   3266   3265   3267     1   108.4600466 328.025600
   3267   3265   6598     1   109.7800468 425.094400
   3270   3271   3272     1   108.0100461 406.684800
   3270   3271   3273     1   108.0100461 406.684800
   3270   3274   3275     1   108.0100461 406.684800
   3270   3274   3276     1   108.0100461 406.684800
   3270   3277   3278     1   108.0100461 406.684800
   3270   3277   3279     1   108.0100461 406.684800
   3271   3270   3299     1   110.1100470 384.091200
   3271   3283   3284     1   109.8000471 387.438400
   3271   3283   3285     1   109.8000471 387.438400
   3272   3271   3283     1   110.5600475 386.601600
   3272   3271   3273     1   109.7500473 328.025600
   3273   3271   3283     1   110.5600475 386.601600
   3274   3270   3299     1   110.1100470 384.091200
   3274   3286   3287     1   109.8000471 387.438400
   3274   3286   3288     1   109.8000471 387.438400
   3275   3274   3286     1   110.5600475 386.601600
   3275   3274   3276     1   109.7500473 328.025600
   3276   3274   3286     1   110.5600475 386.601600
   3277   3270   3299     1   110.1100470 384.091200
   3277   3280   3281     1   109.8000471 387.438400
   3277   3280   3282     1   109.8000471 387.438400
   3278   3277   3280     1   110.5600475 386.601600
   3278   3277   3279     1   109.7500473 328.025600
   3279   3277   3280     1   110.5600475 386.601600
   3280   3289   3290     1   109.5600471 388.275200
   3280   3289   3291     1   109.5600471 388.275200
   3281   3280   3289     1   109.8000471 387.438400
   3281   3280   3282     1   107.5800459 329.699200
   3282   3280   3289     1   109.8000471 387.438400
   3283   3295   3296     1   109.5600471 388.275200
   3283   3295   3297     1   109.5600471 388.275200
   3284   3283   3295     1   109.8000471 387.438400
   3284   3283   3285     1   107.5800459 329.699200
   3285   3283   3295     1   109.8000471 387.438400
   3286   3292   3293     1   109.5600471 388.275200
   3286   3292   3294     1   109.5600471 388.275200
   3287   3286   3292     1   109.8000471 387.438400
   3287   3286   3288     1   107.5800459 329.699200
   3288   3286   3292     1   109.8000471 387.438400
   3290   3289   3298     1   109.7800468 425.094400
   3290   3289   3291     1   108.4600466 328.025600
   3291   3289   3298     1   109.7800468 425.094400
   3293   3292   6628     1   109.7800468 425.094400
   3293   3292   3294     1   108.4600466 328.025600
   3294   3292   6628     1   109.7800468 425.094400
   3296   3295   6658     1   109.7800468 425.094400
   3296   3295   3297     1   108.4600466 328.025600
   3297   3295   6658     1   109.7800468 425.094400
   3300   3301   3302     1   108.0100461 406.684800
   3300   3301   3303     1   108.0100461 406.684800
   3300   3304   3305     1   108.0100461 406.684800
   3300   3304   3306     1   108.0100461 406.684800
   3300   3307   3308     1   108.0100461 406.684800
   3300   3307   3309     1   108.0100461 406.684800
   3301   3300   3329     1   110.1100470 384.091200
   3301   3313   3314     1   109.8000471 387.438400
   3301   3313   3315     1   109.8000471 387.438400
   3302   3301   3313     1   110.5600475 386.601600
   3302   3301   3303     1   109.7500473 328.025600
   3303   3301   3313     1   110.5600475 386.601600
   3304   3300   3329     1   110.1100470 384.091200
   3304   3316   3317     1   109.8000471 387.438400
   3304   3316   3318     1   109.8000471 387.438400
   3305   3304   3316     1   110.5600475 386.601600
   3305   3304   3306     1   109.7500473 328.025600
   3306   3304   3316     1   110.5600475 386.601600
   3307   3300   3329     1   110.1100470 384.091200
   3307   3310   3311     1   109.8000471 387.438400
   3307   3310   3312     1   109.8000471 387.438400
   3308   3307   3310     1   110.5600475 386.601600
   3308   3307   3309     1   109.7500473 328.025600
   3309   3307   3310     1   110.5600475 386.601600
   3310   3319   3320     1   109.5600471 388.275200
   3310   3319   3321     1   109.5600471 388.275200
   3311   3310   3319     1   109.8000471 387.438400
   3311   3310   3312     1   107.5800459 329.699200
   3312   3310   3319     1   109.8000471 387.438400
   3313   3325   3326     1   109.5600471 388.275200
   3313   3325   3327     1   109.5600471 388.275200
   3314   3313   3325     1   109.8000471 387.438400
   3314   3313   3315     1   107.5800459 329.699200
   3315   3313   3325     1   109.8000471 387.438400
   3316   3322   3323     1   109.5600471 388.275200
   3316   3322   3324     1   109.5600471 388.275200
   3317   3316   3322     1   109.8000471 387.438400
   3317   3316   3318     1   107.5800459 329.699200
   3318   3316   3322     1   109.8000471 387.438400
   3320   3319   3328     1   109.7800468 425.094400
   3320   3319   3321     1   108.4600466 328.025600
   3321   3319   3328     1   109.7800468 425.094400
   3323   3322   6688     1   109.7800468 425.094400
   3323   3322   3324     1   108.4600466 328.025600
   3324   3322   6688     1   109.7800468 425.094400
   3326   3325   6718     1   109.7800468 425.094400
   3326   3325   3327     1   108.4600466 328.025600
   3327   3325   6718     1   109.7800468 425.094400
   3330   3331   3332     1   108.0100461 406.684800
   3330   3331   3333     1   108.0100461 406.684800
   3330   3334   3335     1   108.0100461 406.684800
   3330   3334   3336     1   108.0100461 406.684800
   3330   3337   3338     1   108.0100461 406.684800
   3330   3337   3339     1   108.0100461 406.684800
   3331   3330   3359     1   110.1100470 384.091200
   3331   3343   3344     1   109.8000471 387.438400
   3331   3343   3345     1   109.8000471 387.438400
   3332   3331   3343     1   110.5600475 386.601600
   3332   3331   3333     1   109.7500473 328.025600
   3333   3331   3343     1   110.5600475 386.601600
   3334   3330   3359     1   110.1100470 384.091200
   3334   3346   3347     1   109.8000471 387.438400
   3334   3346   3348     1   109.8000471 387.438400
   3335   3334   3346     1   110.5600475 386.601600
   3335   3334   3336     1   109.7500473 328.025600
   3336   3334   3346     1   110.5600475 386.601600
   3337   3330   3359     1   110.1100470 384.091200
   3337   3340   3341     1   109.8000471 387.438400
   3337   3340   3342     1   109.8000471 387.438400
   3338   3337   3340     1   110.5600475 386.601600
   3338   3337   3339     1   109.7500473 328.025600
   3339   3337   3340     1   110.5600475 386.601600
   3340   3349   3350     1   109.5600471 388.275200
   3340   3349   3351     1   109.5600471 388.275200
   3341   3340   3349     1   109.8000471 387.438400
   3341   3340   3342     1   107.5800459 329.699200
   3342   3340   3349     1   109.8000471 387.438400
   3343   3355   3356     1   109.5600471 388.275200
   3343   3355   3357     1   109.5600471 388.275200
   3344   3343   3355     1   109.8000471 387.438400
   3344   3343   3345     1   107.5800459 329.699200
   3345   3343   3355     1   109.8000471 387.438400
   3346   3352   3353     1   109.5600471 388.275200
   3346   3352   3354     1   109.5600471 388.275200
   3347   3346   3352     1   109.8000471 387.438400
   3347   3346   3348     1   107.5800459 329.699200
   3348   3346   3352     1   109.8000471 387.438400
   3350   3349   3358     1   109.7800468 425.094400
   3350   3349   3351     1   108.4600466 328.025600
   3351   3349   3358     1   109.7800468 425.094400
   3353   3352   6748     1   109.7800468 425.094400
   3353   3352   3354     1   108.4600466 328.025600
   3354   3352   6748     1   109.7800468 425.094400
   3356   3355   6778     1   109.7800468 425.094400
   3356   3355   3357     1   108.4600466 328.025600
   3357   3355   6778     1   109.7800468 425.094400
   3360   3361   3362     1   108.0100461 406.684800
   3360   3361   3363     1   108.0100461 406.684800
   3360   3364   3365     1   108.0100461 406.684800
   3360   3364   3366     1   108.0100461 406.684800
   3360   3367   3368     1   108.0100461 406.684800
   3360   3367   3369     1   108.0100461 406.684800
   3361   3360   3389     1   110.1100470 384.091200
   3361   3373   3374     1   109.8000471 387.438400
   3361   3373   3375     1   109.8000471 387.438400
   3362   3361   3373     1   110.5600475 386.601600
   3362   3361   3363     1   109.7500473 328.025600
   3363   3361   3373     1   110.5600475 386.601600
   3364   3360   3389     1   110.1100470 384.091200
   3364   3376   3377     1   109.8000471 387.438400
   3364   3376   3378     1   109.8000471 387.438400
   3365   3364   3376     1   110.5600475 386.601600
   3365   3364   3366     1   109.7500473 328.025600
   3366   3364   3376     1   110.5600475 386.601600
   3367   3360   3389     1   110.1100470 384.091200
   3367   3370   3371     1   109.8000471 387.438400
   3367   3370   3372     1   109.8000471 387.438400
   3368   3367   3370     1   110.5600475 386.601600
   3368   3367   3369     1   109.7500473 328.025600
   3369   3367   3370     1   110.5600475 386.601600
   3370   3379   3380     1   109.5600471 388.275200
   3370   3379   3381     1   109.5600471 388.275200
   3371   3370   3379     1   109.8000471 387.438400
   3371   3370   3372     1   107.5800459 329.699200
   3372   3370   3379     1   109.8000471 387.438400
   3373   3385   3386     1   109.5600471 388.275200
   3373   3385   3387     1   109.5600471 388.275200
   3374   3373   3385     1   109.8000471 387.438400
   3374   3373   3375     1   107.5800459 329.699200
   3375   3373   3385     1   109.8000471 387.438400
   3376   3382   3383     1   109.5600471 388.275200
   3376   3382   3384     1   109.5600471 388.275200
   3377   3376   3382     1   109.8000471 387.438400
   3377   3376   3378     1   107.5800459 329.699200
   3378   3376   3382     1   109.8000471 387.438400
   3380   3379   3388     1   109.7800468 425.094400
   3380   3379   3381     1   108.4600466 328.025600
   3381   3379   3388     1   109.7800468 425.094400
   3383   3382   6808     1   109.7800468 425.094400
   3383   3382   3384     1   108.4600466 328.025600
   3384   3382   6808     1   109.7800468 425.094400
   3386   3385   6838     1   109.7800468 425.094400
   3386   3385   3387     1   108.4600466 328.025600
   3387   3385   6838     1   109.7800468 425.094400
   3390   3391   3392     1   108.0100461 406.684800
   3390   3391   3393     1   108.0100461 406.684800
   3390   3394   3395     1   108.0100461 406.684800
   3390   3394   3396     1   108.0100461 406.684800
   3390   3397   3398     1   108.0100461 406.684800
   3390   3397   3399     1   108.0100461 406.684800
   3391   3390   3419     1   110.1100470 384.091200
   3391   3403   3404     1   109.8000471 387.438400
   3391   3403   3405     1   109.8000471 387.438400
   3392   3391   3403     1   110.5600475 386.601600
   3392   3391   3393     1   109.7500473 328.025600
   3393   3391   3403     1   110.5600475 386.601600
   3394   3390   3419     1   110.1100470 384.091200
   3394   3406   3407     1   109.8000471 387.438400
   3394   3406   3408     1   109.8000471 387.438400
   3395   3394   3406     1   110.5600475 386.601600
   3395   3394   3396     1   109.7500473 328.025600
   3396   3394   3406     1   110.5600475 386.601600
   3397   3390   3419     1   110.1100470 384.091200
   3397   3400   3401     1   109.8000471 387.438400
   3397   3400   3402     1   109.8000471 387.438400
   3398   3397   3400     1   110.5600475 386.601600
   3398   3397   3399     1   109.7500473 328.025600
   3399   3397   3400     1   110.5600475 386.601600
   3400   3409   3410     1   109.5600471 388.275200
   3400   3409   3411     1   109.5600471 388.275200
   3401   3400   3409     1   109.8000471 387.438400
   3401   3400   3402     1   107.5800459 329.699200
   3402   3400   3409     1   109.8000471 387.438400
   3403   3415   3416     1   109.5600471 388.275200
   3403   3415   3417     1   109.5600471 388.275200
   3404   3403   3415     1   109.8000471 387.438400
   3404   3403   3405     1   107.5800459 329.699200
   3405   3403   3415     1   109.8000471 387.438400
   3406   3412   3413     1   109.5600471 388.275200
   3406   3412   3414     1   109.5600471 388.275200
   3407   3406   3412     1   109.8000471 387.438400
   3407   3406   3408     1   107.5800459 329.699200
   3408   3406   3412     1   109.8000471 387.438400
   3410   3409   3418     1   109.7800468 425.094400
   3410   3409   3411     1   108.4600466 328.025600
   3411   3409   3418     1   109.7800468 425.094400
   3413   3412   6868     1   109.7800468 425.094400
   3413   3412   3414     1   108.4600466 328.025600
   3414   3412   6868     1   109.7800468 425.094400
   3416   3415   6898     1   109.7800468 425.094400
   3416   3415   3417     1   108.4600466 328.025600
   3417   3415   6898     1   109.7800468 425.094400
   3420   3421   3422     1   108.0100461 406.684800
   3420   3421   3423     1   108.0100461 406.684800
   3420   3424   3425     1   108.0100461 406.684800
   3420   3424   3426     1   108.0100461 406.684800
   3420   3427   3428     1   108.0100461 406.684800
   3420   3427   3429     1   108.0100461 406.684800
   3421   3420   3449     1   110.1100470 384.091200
   3421   3433   3434     1   109.8000471 387.438400
   3421   3433   3435     1   109.8000471 387.438400
   3422   3421   3433     1   110.5600475 386.601600
   3422   3421   3423     1   109.7500473 328.025600
   3423   3421   3433     1   110.5600475 386.601600
   3424   3420   3449     1   110.1100470 384.091200
   3424   3436   3437     1   109.8000471 387.438400
   3424   3436   3438     1   109.8000471 387.438400
   3425   3424   3436     1   110.5600475 386.601600
   3425   3424   3426     1   109.7500473 328.025600
   3426   3424   3436     1   110.5600475 386.601600
   3427   3420   3449     1   110.1100470 384.091200
   3427   3430   3431     1   109.8000471 387.438400
   3427   3430   3432     1   109.8000471 387.438400
   3428   3427   3430     1   110.5600475 386.601600
   3428   3427   3429     1   109.7500473 328.025600
   3429   3427   3430     1   110.5600475 386.601600
   3430   3439   3440     1   109.5600471 388.275200
   3430   3439   3441     1   109.5600471 388.275200
   3431   3430   3439     1   109.8000471 387.438400
   3431   3430   3432     1   107.5800459 329.699200
   3432   3430   3439     1   109.8000471 387.438400
   3433   3445   3446     1   109.5600471 388.275200
   3433   3445   3447     1   109.5600471 388.275200
   3434   3433   3445     1   109.8000471 387.438400
   3434   3433   3435     1   107.5800459 329.699200
   3435   3433   3445     1   109.8000471 387.438400
   3436   3442   3443     1   109.5600471 388.275200
   3436   3442   3444     1   109.5600471 388.275200
   3437   3436   3442     1   109.8000471 387.438400
   3437   3436   3438     1   107.5800459 329.699200
   3438   3436   3442     1   109.8000471 387.438400
   3440   3439   3448     1   109.7800468 425.094400
   3440   3439   3441     1   108.4600466 328.025600
   3441   3439   3448     1   109.7800468 425.094400
   3443   3442   6928     1   109.7800468 425.094400
   3443   3442   3444     1   108.4600466 328.025600
   3444   3442   6928     1   109.7800468 425.094400
   3446   3445   6958     1   109.7800468 425.094400
   3446   3445   3447     1   108.4600466 328.025600
   3447   3445   6958     1   109.7800468 425.094400
   3450   3451   3452     1   108.0100461 406.684800
   3450   3451   3453     1   108.0100461 406.684800
   3450   3454   3455     1   108.0100461 406.684800
   3450   3454   3456     1   108.0100461 406.684800
   3450   3457   3458     1   108.0100461 406.684800
   3450   3457   3459     1   108.0100461 406.684800
   3451   3450   3479     1   110.1100470 384.091200
   3451   3463   3464     1   109.8000471 387.438400
   3451   3463   3465     1   109.8000471 387.438400
   3452   3451   3463     1   110.5600475 386.601600
   3452   3451   3453     1   109.7500473 328.025600
   3453   3451   3463     1   110.5600475 386.601600
   3454   3450   3479     1   110.1100470 384.091200
   3454   3466   3467     1   109.8000471 387.438400
   3454   3466   3468     1   109.8000471 387.438400
   3455   3454   3466     1   110.5600475 386.601600
   3455   3454   3456     1   109.7500473 328.025600
   3456   3454   3466     1   110.5600475 386.601600
   3457   3450   3479     1   110.1100470 384.091200
   3457   3460   3461     1   109.8000471 387.438400
   3457   3460   3462     1   109.8000471 387.438400
   3458   3457   3460     1   110.5600475 386.601600
   3458   3457   3459     1   109.7500473 328.025600
   3459   3457   3460     1   110.5600475 386.601600
   3460   3469   3470     1   109.5600471 388.275200
   3460   3469   3471     1   109.5600471 388.275200
   3461   3460   3469     1   109.8000471 387.438400
   3461   3460   3462     1   107.5800459 329.699200
   3462   3460   3469     1   109.8000471 387.438400
   3463   3475   3476     1   109.5600471 388.275200
   3463   3475   3477     1   109.5600471 388.275200
   3464   3463   3475     1   109.8000471 387.438400
   3464   3463   3465     1   107.5800459 329.699200
   3465   3463   3475     1   109.8000471 387.438400
   3466   3472   3473     1   109.5600471 388.275200
   3466   3472   3474     1   109.5600471 388.275200
   3467   3466   3472     1   109.8000471 387.438400
   3467   3466   3468     1   107.5800459 329.699200
   3468   3466   3472     1   109.8000471 387.438400
   3470   3469   3478     1   109.7800468 425.094400
   3470   3469   3471     1   108.4600466 328.025600
   3471   3469   3478     1   109.7800468 425.094400
   3473   3472   6988     1   109.7800468 425.094400
   3473   3472   3474     1   108.4600466 328.025600
   3474   3472   6988     1   109.7800468 425.094400
   3476   3475   7018     1   109.7800468 425.094400
   3476   3475   3477     1   108.4600466 328.025600
   3477   3475   7018     1   109.7800468 425.094400
   3480   3481   3482     1   108.0100461 406.684800
   3480   3481   3483     1   108.0100461 406.684800
   3480   3484   3485     1   108.0100461 406.684800
   3480   3484   3486     1   108.0100461 406.684800
   3480   3487   3488     1   108.0100461 406.684800
   3480   3487   3489     1   108.0100461 406.684800
   3481   3480   3509     1   110.1100470 384.091200
   3481   3493   3494     1   109.8000471 387.438400
   3481   3493   3495     1   109.8000471 387.438400
   3482   3481   3493     1   110.5600475 386.601600
   3482   3481   3483     1   109.7500473 328.025600
   3483   3481   3493     1   110.5600475 386.601600
   3484   3480   3509     1   110.1100470 384.091200
   3484   3496   3497     1   109.8000471 387.438400
   3484   3496   3498     1   109.8000471 387.438400
   3485   3484   3496     1   110.5600475 386.601600
   3485   3484   3486     1   109.7500473 328.025600
   3486   3484   3496     1   110.5600475 386.601600
   3487   3480   3509     1   110.1100470 384.091200
   3487   3490   3491     1   109.8000471 387.438400
   3487   3490   3492     1   109.8000471 387.438400
   3488   3487   3490     1   110.5600475 386.601600
   3488   3487   3489     1   109.7500473 328.025600
   3489   3487   3490     1   110.5600475 386.601600
   3490   3499   3500     1   109.5600471 388.275200
   3490   3499   3501     1   109.5600471 388.275200
   3491   3490   3499     1   109.8000471 387.438400
   3491   3490   3492     1   107.5800459 329.699200
   3492   3490   3499     1   109.8000471 387.438400
   3493   3505   3506     1   109.5600471 388.275200
   3493   3505   3507     1   109.5600471 388.275200
   3494   3493   3505     1   109.8000471 387.438400
   3494   3493   3495     1   107.5800459 329.699200
   3495   3493   3505     1   109.8000471 387.438400
   3496   3502   3503     1   109.5600471 388.275200
   3496   3502   3504     1   109.5600471 388.275200
   3497   3496   3502     1   109.8000471 387.438400
   3497   3496   3498     1   107.5800459 329.699200
   3498   3496   3502     1   109.8000471 387.438400
   3500   3499   3508     1   109.7800468 425.094400
   3500   3499   3501     1   108.4600466 328.025600
   3501   3499   3508     1   109.7800468 425.094400
   3503   3502   7048     1   109.7800468 425.094400
   3503   3502   3504     1   108.4600466 328.025600
   3504   3502   7048     1   109.7800468 425.094400
   3506   3505   7078     1   109.7800468 425.094400
   3506   3505   3507     1   108.4600466 328.025600
   3507   3505   7078     1   109.7800468 425.094400
   3510   3511   3512     1   108.0100461 406.684800
   3510   3511   3513     1   108.0100461 406.684800
   3510   3514   3515     1   108.0100461 406.684800
   3510   3514   3516     1   108.0100461 406.684800
   3510   3517   3518     1   108.0100461 406.684800
   3510   3517   3519     1   108.0100461 406.684800
   3511   3510   3539     1   110.1100470 384.091200
   3511   3523   3524     1   109.8000471 387.438400
   3511   3523   3525     1   109.8000471 387.438400
   3512   3511   3523     1   110.5600475 386.601600
   3512   3511   3513     1   109.7500473 328.025600
   3513   3511   3523     1   110.5600475 386.601600
   3514   3510   3539     1   110.1100470 384.091200
   3514   3526   3527     1   109.8000471 387.438400
   3514   3526   3528     1   109.8000471 387.438400
   3515   3514   3526     1   110.5600475 386.601600
   3515   3514   3516     1   109.7500473 328.025600
   3516   3514   3526     1   110.5600475 386.601600
   3517   3510   3539     1   110.1100470 384.091200
   3517   3520   3521     1   109.8000471 387.438400
   3517   3520   3522     1   109.8000471 387.438400
   3518   3517   3520     1   110.5600475 386.601600
   3518   3517   3519     1   109.7500473 328.025600
   3519   3517   3520     1   110.5600475 386.601600
   3520   3529   3530     1   109.5600471 388.275200
   3520   3529   3531     1   109.5600471 388.275200
   3521   3520   3529     1   109.8000471 387.438400
   3521   3520   3522     1   107.5800459 329.699200
   3522   3520   3529     1   109.8000471 387.438400
   3523   3535   3536     1   109.5600471 388.275200
   3523   3535   3537     1   109.5600471 388.275200
   3524   3523   3535     1   109.8000471 387.438400
   3524   3523   3525     1   107.5800459 329.699200
   3525   3523   3535     1   109.8000471 387.438400
   3526   3532   3533     1   109.5600471 388.275200
   3526   3532   3534     1   109.5600471 388.275200
   3527   3526   3532     1   109.8000471 387.438400
   3527   3526   3528     1   107.5800459 329.699200
   3528   3526   3532     1   109.8000471 387.438400
   3530   3529   3538     1   109.7800468 425.094400
   3530   3529   3531     1   108.4600466 328.025600
   3531   3529   3538     1   109.7800468 425.094400
   3533   3532   7108     1   109.7800468 425.094400
   3533   3532   3534     1   108.4600466 328.025600
   3534   3532   7108     1   109.7800468 425.094400
   3536   3535   7138     1   109.7800468 425.094400
   3536   3535   3537     1   108.4600466 328.025600
   3537   3535   7138     1   109.7800468 425.094400
   3540   3541   3542     1   108.0100461 406.684800
   3540   3541   3543     1   108.0100461 406.684800
   3540   3544   3545     1   108.0100461 406.684800
   3540   3544   3546     1   108.0100461 406.684800
   3540   3547   3548     1   108.0100461 406.684800
   3540   3547   3549     1   108.0100461 406.684800
   3541   3540   3569     1   110.1100470 384.091200
   3541   3553   3554     1   109.8000471 387.438400
   3541   3553   3555     1   109.8000471 387.438400
   3542   3541   3553     1   110.5600475 386.601600
   3542   3541   3543     1   109.7500473 328.025600
   3543   3541   3553     1   110.5600475 386.601600
   3544   3540   3569     1   110.1100470 384.091200
   3544   3556   3557     1   109.8000471 387.438400
   3544   3556   3558     1   109.8000471 387.438400
   3545   3544   3556     1   110.5600475 386.601600
   3545   3544   3546     1   109.7500473 328.025600
   3546   3544   3556     1   110.5600475 386.601600
   3547   3540   3569     1   110.1100470 384.091200
   3547   3550   3551     1   109.8000471 387.438400
   3547   3550   3552     1   109.8000471 387.438400
   3548   3547   3550     1   110.5600475 386.601600
   3548   3547   3549     1   109.7500473 328.025600
   3549   3547   3550     1   110.5600475 386.601600
   3550   3559   3560     1   109.5600471 388.275200
   3550   3559   3561     1   109.5600471 388.275200
   3551   3550   3559     1   109.8000471 387.438400
   3551   3550   3552     1   107.5800459 329.699200
   3552   3550   3559     1   109.8000471 387.438400
   3553   3565   3566     1   109.5600471 388.275200
   3553   3565   3567     1   109.5600471 388.275200
   3554   3553   3565     1   109.8000471 387.438400
   3554   3553   3555     1   107.5800459 329.699200
   3555   3553   3565     1   109.8000471 387.438400
   3556   3562   3563     1   109.5600471 388.275200
   3556   3562   3564     1   109.5600471 388.275200
   3557   3556   3562     1   109.8000471 387.438400
   3557   3556   3558     1   107.5800459 329.699200
   3558   3556   3562     1   109.8000471 387.438400
   3560   3559   3568     1   109.7800468 425.094400
   3560   3559   3561     1   108.4600466 328.025600
   3561   3559   3568     1   109.7800468 425.094400
   3563   3562   7168     1   109.7800468 425.094400
   3563   3562   3564     1   108.4600466 328.025600
   3564   3562   7168     1   109.7800468 425.094400
   3566   3565   7198     1   109.7800468 425.094400
   3566   3565   3567     1   108.4600466 328.025600
   3567   3565   7198     1   109.7800468 425.094400
   3570   3571   3572     1   108.0100461 406.684800
   3570   3571   3573     1   108.0100461 406.684800
   3570   3574   3575     1   108.0100461 406.684800
   3570   3574   3576     1   108.0100461 406.684800
   3570   3577   3578     1   108.0100461 406.684800
   3570   3577   3579     1   108.0100461 406.684800
   3571   3570   3599     1   110.1100470 384.091200
   3571   3583   3584     1   109.8000471 387.438400
   3571   3583   3585     1   109.8000471 387.438400
   3572   3571   3583     1   110.5600475 386.601600
   3572   3571   3573     1   109.7500473 328.025600
   3573   3571   3583     1   110.5600475 386.601600
   3574   3570   3599     1   110.1100470 384.091200
   3574   3586   3587     1   109.8000471 387.438400
   3574   3586   3588     1   109.8000471 387.438400
   3575   3574   3586     1   110.5600475 386.601600
   3575   3574   3576     1   109.7500473 328.025600
   3576   3574   3586     1   110.5600475 386.601600
   3577   3570   3599     1   110.1100470 384.091200
   3577   3580   3581     1   109.8000471 387.438400
   3577   3580   3582     1   109.8000471 387.438400
   3578   3577   3580     1   110.5600475 386.601600
   3578   3577   3579     1   109.7500473 328.025600
   3579   3577   3580     1   110.5600475 386.601600
   3580   3589   3590     1   109.5600471 388.275200
   3580   3589   3591     1   109.5600471 388.275200
   3581   3580   3589     1   109.8000471 387.438400
   3581   3580   3582     1   107.5800459 329.699200
   3582   3580   3589     1   109.8000471 387.438400
   3583   3595   3596     1   109.5600471 388.275200
   3583   3595   3597     1   109.5600471 388.275200
   3584   3583   3595     1   109.8000471 387.438400
   3584   3583   3585     1   107.5800459 329.699200
   3585   3583   3595     1   109.8000471 387.438400
   3586   3592   3593     1   109.5600471 388.275200
   3586   3592   3594     1   109.5600471 388.275200
   3587   3586   3592     1   109.8000471 387.438400
   3587   3586   3588     1   107.5800459 329.699200
   3588   3586   3592     1   109.8000471 387.438400
   3590   3589   3598     1   109.7800468 425.094400
   3590   3589   3591     1   108.4600466 328.025600
   3591   3589   3598     1   109.7800468 425.094400
   3593   3592   7228     1   109.7800468 425.094400
   3593   3592   3594     1   108.4600466 328.025600
   3594   3592   7228     1   109.7800468 425.094400
   3596   3595   7258     1   109.7800468 425.094400
   3596   3595   3597     1   108.4600466 328.025600
   3597   3595   7258     1   109.7800468 425.094400
   3600   3601   3602     1   108.0100461 406.684800
   3600   3601   3603     1   108.0100461 406.684800
   3600   3604   3605     1   108.0100461 406.684800
   3600   3604   3606     1   108.0100461 406.684800
   3600   3607   3608     1   108.0100461 406.684800
   3600   3607   3609     1   108.0100461 406.684800
   3601   3600   3629     1   110.1100470 384.091200
   3601   3613   3614     1   109.8000471 387.438400
   3601   3613   3615     1   109.8000471 387.438400
   3602   3601   3613     1   110.5600475 386.601600
   3602   3601   3603     1   109.7500473 328.025600
   3603   3601   3613     1   110.5600475 386.601600
   3604   3600   3629     1   110.1100470 384.091200
   3604   3616   3617     1   109.8000471 387.438400
   3604   3616   3618     1   109.8000471 387.438400
   3605   3604   3616     1   110.5600475 386.601600
   3605   3604   3606     1   109.7500473 328.025600
   3606   3604   3616     1   110.5600475 386.601600
   3607   3600   3629     1   110.1100470 384.091200
   3607   3610   3611     1   109.8000471 387.438400
   3607   3610   3612     1   109.8000471 387.438400
   3608   3607   3610     1   110.5600475 386.601600
   3608   3607   3609     1   109.7500473 328.025600
   3609   3607   3610     1   110.5600475 386.601600
   3610   3619   3620     1   109.5600471 388.275200
   3610   3619   3621     1   109.5600471 388.275200
   3611   3610   3619     1   109.8000471 387.438400
   3611   3610   3612     1   107.5800459 329.699200
   3612   3610   3619     1   109.8000471 387.438400
   3613   3625   3626     1   109.5600471 388.275200
   3613   3625   3627     1   109.5600471 388.275200
   3614   3613   3625     1   109.8000471 387.438400
   3614   3613   3615     1   107.5800459 329.699200
   3615   3613   3625     1   109.8000471 387.438400
   3616   3622   3623     1   109.5600471 388.275200
   3616   3622   3624     1   109.5600471 388.275200
   3617   3616   3622     1   109.8000471 387.438400
   3617   3616   3618     1   107.5800459 329.699200
   3618   3616   3622     1   109.8000471 387.438400
   3620   3619   3628     1   109.7800468 425.094400
   3620   3619   3621     1   108.4600466 328.025600
   3621   3619   3628     1   109.7800468 425.094400
   3623   3622   7288     1   109.7800468 425.094400
   3623   3622   3624     1   108.4600466 328.025600
   3624   3622   7288     1   109.7800468 425.094400
   3626   3625   7318     1   109.7800468 425.094400
   3626   3625   3627     1   108.4600466 328.025600
   3627   3625   7318     1   109.7800468 425.094400
   3630   3631   3632     1   108.0100461 406.684800
   3630   3631   3633     1   108.0100461 406.684800
   3630   3634   3635     1   108.0100461 406.684800
   3630   3634   3636     1   108.0100461 406.684800
   3630   3637   3638     1   108.0100461 406.684800
   3630   3637   3639     1   108.0100461 406.684800
   3631   3630   3659     1   110.1100470 384.091200
   3631   3643   3644     1   109.8000471 387.438400
   3631   3643   3645     1   109.8000471 387.438400
   3632   3631   3643     1   110.5600475 386.601600
   3632   3631   3633     1   109.7500473 328.025600
   3633   3631   3643     1   110.5600475 386.601600
   3634   3630   3659     1   110.1100470 384.091200
   3634   3646   3647     1   109.8000471 387.438400
   3634   3646   3648     1   109.8000471 387.438400
   3635   3634   3646     1   110.5600475 386.601600
   3635   3634   3636     1   109.7500473 328.025600
   3636   3634   3646     1   110.5600475 386.601600
   3637   3630   3659     1   110.1100470 384.091200
   3637   3640   3641     1   109.8000471 387.438400
   3637   3640   3642     1   109.8000471 387.438400
   3638   3637   3640     1   110.5600475 386.601600
   3638   3637   3639     1   109.7500473 328.025600
   3639   3637   3640     1   110.5600475 386.601600
   3640   3649   3650     1   109.5600471 388.275200
   3640   3649   3651     1   109.5600471 388.275200
   3641   3640   3649     1   109.8000471 387.438400
   3641   3640   3642     1   107.5800459 329.699200
   3642   3640   3649     1   109.8000471 387.438400
   3643   3655   3656     1   109.5600471 388.275200
   3643   3655   3657     1   109.5600471 388.275200
   3644   3643   3655     1   109.8000471 387.438400
   3644   3643   3645     1   107.5800459 329.699200
   3645   3643   3655     1   109.8000471 387.438400
   3646   3652   3653     1   109.5600471 388.275200
   3646   3652   3654     1   109.5600471 388.275200
   3647   3646   3652     1   109.8000471 387.438400
   3647   3646   3648     1   107.5800459 329.699200
   3648   3646   3652     1   109.8000471 387.438400
   3650   3649   3658     1   109.7800468 425.094400
   3650   3649   3651     1   108.4600466 328.025600
   3651   3649   3658     1   109.7800468 425.094400
   3653   3652   7348     1   109.7800468 425.094400
   3653   3652   3654     1   108.4600466 328.025600
   3654   3652   7348     1   109.7800468 425.094400
   3656   3655   7378     1   109.7800468 425.094400
   3656   3655   3657     1   108.4600466 328.025600
   3657   3655   7378     1   109.7800468 425.094400
   3660   3661   3662     1   108.0100461 406.684800
   3660   3661   3663     1   108.0100461 406.684800
   3660   3664   3665     1   108.0100461 406.684800
   3660   3664   3666     1   108.0100461 406.684800
   3660   3667   3668     1   108.0100461 406.684800
   3660   3667   3669     1   108.0100461 406.684800
   3661   3660   3689     1   110.1100470 384.091200
   3661   3673   3674     1   109.8000471 387.438400
   3661   3673   3675     1   109.8000471 387.438400
   3662   3661   3673     1   110.5600475 386.601600
   3662   3661   3663     1   109.7500473 328.025600
   3663   3661   3673     1   110.5600475 386.601600
   3664   3660   3689     1   110.1100470 384.091200
   3664   3676   3677     1   109.8000471 387.438400
   3664   3676   3678     1   109.8000471 387.438400
   3665   3664   3676     1   110.5600475 386.601600
   3665   3664   3666     1   109.7500473 328.025600
   3666   3664   3676     1   110.5600475 386.601600
   3667   3660   3689     1   110.1100470 384.091200
   3667   3670   3671     1   109.8000471 387.438400
   3667   3670   3672     1   109.8000471 387.438400
   3668   3667   3670     1   110.5600475 386.601600
   3668   3667   3669     1   109.7500473 328.025600
   3669   3667   3670     1   110.5600475 386.601600
   3670   3679   3680     1   109.5600471 388.275200
   3670   3679   3681     1   109.5600471 388.275200
   3671   3670   3679     1   109.8000471 387.438400
   3671   3670   3672     1   107.5800459 329.699200
   3672   3670   3679     1   109.8000471 387.438400
   3673   3685   3686     1   109.5600471 388.275200
   3673   3685   3687     1   109.5600471 388.275200
   3674   3673   3685     1   109.8000471 387.438400
   3674   3673   3675     1   107.5800459 329.699200
   3675   3673   3685     1   109.8000471 387.438400
   3676   3682   3683     1   109.5600471 388.275200
   3676   3682   3684     1   109.5600471 388.275200
   3677   3676   3682     1   109.8000471 387.438400
   3677   3676   3678     1   107.5800459 329.699200
   3678   3676   3682     1   109.8000471 387.438400
   3680   3679   3688     1   109.7800468 425.094400
   3680   3679   3681     1   108.4600466 328.025600
   3681   3679   3688     1   109.7800468 425.094400
   3683   3682   7408     1   109.7800468 425.094400
   3683   3682   3684     1   108.4600466 328.025600
   3684   3682   7408     1   109.7800468 425.094400
   3686   3685   7438     1   109.7800468 425.094400
   3686   3685   3687     1   108.4600466 328.025600
   3687   3685   7438     1   109.7800468 425.094400
   3690   3691   3692     1   108.0100461 406.684800
   3690   3691   3693     1   108.0100461 406.684800
   3690   3694   3695     1   108.0100461 406.684800
   3690   3694   3696     1   108.0100461 406.684800
   3690   3697   3698     1   108.0100461 406.684800
   3690   3697   3699     1   108.0100461 406.684800
   3691   3690   3719     1   110.1100470 384.091200
   3691   3703   3704     1   109.8000471 387.438400
   3691   3703   3705     1   109.8000471 387.438400
   3692   3691   3703     1   110.5600475 386.601600
   3692   3691   3693     1   109.7500473 328.025600
   3693   3691   3703     1   110.5600475 386.601600
   3694   3690   3719     1   110.1100470 384.091200
   3694   3706   3707     1   109.8000471 387.438400
   3694   3706   3708     1   109.8000471 387.438400
   3695   3694   3706     1   110.5600475 386.601600
   3695   3694   3696     1   109.7500473 328.025600
   3696   3694   3706     1   110.5600475 386.601600
   3697   3690   3719     1   110.1100470 384.091200
   3697   3700   3701     1   109.8000471 387.438400
   3697   3700   3702     1   109.8000471 387.438400
   3698   3697   3700     1   110.5600475 386.601600
   3698   3697   3699     1   109.7500473 328.025600
   3699   3697   3700     1   110.5600475 386.601600
   3700   3709   3710     1   109.5600471 388.275200
   3700   3709   3711     1   109.5600471 388.275200
   3701   3700   3709     1   109.8000471 387.438400
   3701   3700   3702     1   107.5800459 329.699200
   3702   3700   3709     1   109.8000471 387.438400
   3703   3715   3716     1   109.5600471 388.275200
   3703   3715   3717     1   109.5600471 388.275200
   3704   3703   3715     1   109.8000471 387.438400
   3704   3703   3705     1   107.5800459 329.699200
   3705   3703   3715     1   109.8000471 387.438400
   3706   3712   3713     1   109.5600471 388.275200
   3706   3712   3714     1   109.5600471 388.275200
   3707   3706   3712     1   109.8000471 387.438400
   3707   3706   3708     1   107.5800459 329.699200
   3708   3706   3712     1   109.8000471 387.438400
   3710   3709   3718     1   109.7800468 425.094400
   3710   3709   3711     1   108.4600466 328.025600
   3711   3709   3718     1   109.7800468 425.094400
   3713   3712   7468     1   109.7800468 425.094400
   3713   3712   3714     1   108.4600466 328.025600
   3714   3712   7468     1   109.7800468 425.094400
   3716   3715   7498     1   109.7800468 425.094400
   3716   3715   3717     1   108.4600466 328.025600
   3717   3715   7498     1   109.7800468 425.094400
   3720   3721   3722     1   108.0100461 406.684800
   3720   3721   3723     1   108.0100461 406.684800
   3720   3724   3725     1   108.0100461 406.684800
   3720   3724   3726     1   108.0100461 406.684800
   3720   3727   3728     1   108.0100461 406.684800
   3720   3727   3729     1   108.0100461 406.684800
   3721   3720   3749     1   110.1100470 384.091200
   3721   3733   3734     1   109.8000471 387.438400
   3721   3733   3735     1   109.8000471 387.438400
   3722   3721   3733     1   110.5600475 386.601600
   3722   3721   3723     1   109.7500473 328.025600
   3723   3721   3733     1   110.5600475 386.601600
   3724   3720   3749     1   110.1100470 384.091200
   3724   3736   3737     1   109.8000471 387.438400
   3724   3736   3738     1   109.8000471 387.438400
   3725   3724   3736     1   110.5600475 386.601600
   3725   3724   3726     1   109.7500473 328.025600
   3726   3724   3736     1   110.5600475 386.601600
   3727   3720   3749     1   110.1100470 384.091200
   3727   3730   3731     1   109.8000471 387.438400
   3727   3730   3732     1   109.8000471 387.438400
   3728   3727   3730     1   110.5600475 386.601600
   3728   3727   3729     1   109.7500473 328.025600
   3729   3727   3730     1   110.5600475 386.601600
   3730   3739   3740     1   109.5600471 388.275200
   3730   3739   3741     1   109.5600471 388.275200
   3731   3730   3739     1   109.8000471 387.438400
   3731   3730   3732     1   107.5800459 329.699200
   3732   3730   3739     1   109.8000471 387.438400
   3733   3745   3746     1   109.5600471 388.275200
   3733   3745   3747     1   109.5600471 388.275200
   3734   3733   3745     1   109.8000471 387.438400
   3734   3733   3735     1   107.5800459 329.699200
   3735   3733   3745     1   109.8000471 387.438400
   3736   3742   3743     1   109.5600471 388.275200
   3736   3742   3744     1   109.5600471 388.275200
   3737   3736   3742     1   109.8000471 387.438400
   3737   3736   3738     1   107.5800459 329.699200
   3738   3736   3742     1   109.8000471 387.438400
   3740   3739   3748     1   109.7800468 425.094400
   3740   3739   3741     1   108.4600466 328.025600
   3741   3739   3748     1   109.7800468 425.094400
   3743   3742   7528     1   109.7800468 425.094400
   3743   3742   3744     1   108.4600466 328.025600
   3744   3742   7528     1   109.7800468 425.094400
   3746   3745   7558     1   109.7800468 425.094400
   3746   3745   3747     1   108.4600466 328.025600
   3747   3745   7558     1   109.7800468 425.094400
   3750   3751   3752     1   108.0100461 406.684800
   3750   3751   3753     1   108.0100461 406.684800
   3750   3754   3755     1   108.0100461 406.684800
   3750   3754   3756     1   108.0100461 406.684800
   3750   3757   3758     1   108.0100461 406.684800
   3750   3757   3759     1   108.0100461 406.684800
   3751   3750   3779     1   110.1100470 384.091200
   3751   3763   3764     1   109.8000471 387.438400
   3751   3763   3765     1   109.8000471 387.438400
   3752   3751   3763     1   110.5600475 386.601600
   3752   3751   3753     1   109.7500473 328.025600
   3753   3751   3763     1   110.5600475 386.601600
   3754   3750   3779     1   110.1100470 384.091200
   3754   3766   3767     1   109.8000471 387.438400
   3754   3766   3768     1   109.8000471 387.438400
   3755   3754   3766     1   110.5600475 386.601600
   3755   3754   3756     1   109.7500473 328.025600
   3756   3754   3766     1   110.5600475 386.601600
   3757   3750   3779     1   110.1100470 384.091200
   3757   3760   3761     1   109.8000471 387.438400
   3757   3760   3762     1   109.8000471 387.438400
   3758   3757   3760     1   110.5600475 386.601600
   3758   3757   3759     1   109.7500473 328.025600
   3759   3757   3760     1   110.5600475 386.601600
   3760   3769   3770     1   109.5600471 388.275200
   3760   3769   3771     1   109.5600471 388.275200
   3761   3760   3769     1   109.8000471 387.438400
   3761   3760   3762     1   107.5800459 329.699200
   3762   3760   3769     1   109.8000471 387.438400
   3763   3775   3776     1   109.5600471 388.275200
   3763   3775   3777     1   109.5600471 388.275200
   3764   3763   3775     1   109.8000471 387.438400
   3764   3763   3765     1   107.5800459 329.699200
   3765   3763   3775     1   109.8000471 387.438400
   3766   3772   3773     1   109.5600471 388.275200
   3766   3772   3774     1   109.5600471 388.275200
   3767   3766   3772     1   109.8000471 387.438400
   3767   3766   3768     1   107.5800459 329.699200
   3768   3766   3772     1   109.8000471 387.438400
   3770   3769   3778     1   109.7800468 425.094400
   3770   3769   3771     1   108.4600466 328.025600
   3771   3769   3778     1   109.7800468 425.094400
   3773   3772   7588     1   109.7800468 425.094400
   3773   3772   3774     1   108.4600466 328.025600
   3774   3772   7588     1   109.7800468 425.094400
   3776   3775   7618     1   109.7800468 425.094400
   3776   3775   3777     1   108.4600466 328.025600
   3777   3775   7618     1   109.7800468 425.094400
   3780   3781   3782     1   108.0100461 406.684800
   3780   3781   3783     1   108.0100461 406.684800
   3780   3784   3785     1   108.0100461 406.684800
   3780   3784   3786     1   108.0100461 406.684800
   3780   3787   3788     1   108.0100461 406.684800
   3780   3787   3789     1   108.0100461 406.684800
   3781   3780   3809     1   110.1100470 384.091200
   3781   3793   3794     1   109.8000471 387.438400
   3781   3793   3795     1   109.8000471 387.438400
   3782   3781   3793     1   110.5600475 386.601600
   3782   3781   3783     1   109.7500473 328.025600
   3783   3781   3793     1   110.5600475 386.601600
   3784   3780   3809     1   110.1100470 384.091200
   3784   3796   3797     1   109.8000471 387.438400
   3784   3796   3798     1   109.8000471 387.438400
   3785   3784   3796     1   110.5600475 386.601600
   3785   3784   3786     1   109.7500473 328.025600
   3786   3784   3796     1   110.5600475 386.601600
   3787   3780   3809     1   110.1100470 384.091200
   3787   3790   3791     1   109.8000471 387.438400
   3787   3790   3792     1   109.8000471 387.438400
   3788   3787   3790     1   110.5600475 386.601600
   3788   3787   3789     1   109.7500473 328.025600
   3789   3787   3790     1   110.5600475 386.601600
   3790   3799   3800     1   109.5600471 388.275200
   3790   3799   3801     1   109.5600471 388.275200
   3791   3790   3799     1   109.8000471 387.438400
   3791   3790   3792     1   107.5800459 329.699200
   3792   3790   3799     1   109.8000471 387.438400
   3793   3805   3806     1   109.5600471 388.275200
   3793   3805   3807     1   109.5600471 388.275200
   3794   3793   3805     1   109.8000471 387.438400
   3794   3793   3795     1   107.5800459 329.699200
   3795   3793   3805     1   109.8000471 387.438400
   3796   3802   3803     1   109.5600471 388.275200
   3796   3802   3804     1   109.5600471 388.275200
   3797   3796   3802     1   109.8000471 387.438400
   3797   3796   3798     1   107.5800459 329.699200
   3798   3796   3802     1   109.8000471 387.438400
   3800   3799   3808     1   109.7800468 425.094400
   3800   3799   3801     1   108.4600466 328.025600
   3801   3799   3808     1   109.7800468 425.094400
   3803   3802   7648     1   109.7800468 425.094400
   3803   3802   3804     1   108.4600466 328.025600
   3804   3802   7648     1   109.7800468 425.094400
   3806   3805   7678     1   109.7800468 425.094400
   3806   3805   3807     1   108.4600466 328.025600
   3807   3805   7678     1   109.7800468 425.094400
   3810   3811   3812     1   108.0100461 406.684800
   3810   3811   3813     1   108.0100461 406.684800
   3810   3814   3815     1   108.0100461 406.684800
   3810   3814   3816     1   108.0100461 406.684800
   3810   3817   3818     1   108.0100461 406.684800
   3810   3817   3819     1   108.0100461 406.684800
   3811   3810   3839     1   110.1100470 384.091200
   3811   3823   3824     1   109.8000471 387.438400
   3811   3823   3825     1   109.8000471 387.438400
   3812   3811   3823     1   110.5600475 386.601600
   3812   3811   3813     1   109.7500473 328.025600
   3813   3811   3823     1   110.5600475 386.601600
   3814   3810   3839     1   110.1100470 384.091200
   3814   3826   3827     1   109.8000471 387.438400
   3814   3826   3828     1   109.8000471 387.438400
   3815   3814   3826     1   110.5600475 386.601600
   3815   3814   3816     1   109.7500473 328.025600
   3816   3814   3826     1   110.5600475 386.601600
   3817   3810   3839     1   110.1100470 384.091200
   3817   3820   3821     1   109.8000471 387.438400
   3817   3820   3822     1   109.8000471 387.438400
   3818   3817   3820     1   110.5600475 386.601600
   3818   3817   3819     1   109.7500473 328.025600
   3819   3817   3820     1   110.5600475 386.601600
   3820   3829   3830     1   109.5600471 388.275200
   3820   3829   3831     1   109.5600471 388.275200
   3821   3820   3829     1   109.8000471 387.438400
   3821   3820   3822     1   107.5800459 329.699200
   3822   3820   3829     1   109.8000471 387.438400
   3823   3835   3836     1   109.5600471 388.275200
   3823   3835   3837     1   109.5600471 388.275200
   3824   3823   3835     1   109.8000471 387.438400
   3824   3823   3825     1   107.5800459 329.699200
   3825   3823   3835     1   109.8000471 387.438400
   3826   3832   3833     1   109.5600471 388.275200
   3826   3832   3834     1   109.5600471 388.275200
   3827   3826   3832     1   109.8000471 387.438400
   3827   3826   3828     1   107.5800459 329.699200
   3828   3826   3832     1   109.8000471 387.438400
   3830   3829   3838     1   109.7800468 425.094400
   3830   3829   3831     1   108.4600466 328.025600
   3831   3829   3838     1   109.7800468 425.094400
   3833   3832   7708     1   109.7800468 425.094400
   3833   3832   3834     1   108.4600466 328.025600
   3834   3832   7708     1   109.7800468 425.094400
   3836   3835   7738     1   109.7800468 425.094400
   3836   3835   3837     1   108.4600466 328.025600
   3837   3835   7738     1   109.7800468 425.094400
   3840   3841   3842     1   108.0100461 406.684800
   3840   3841   3843     1   108.0100461 406.684800
   3840   3844   3845     1   108.0100461 406.684800
   3840   3844   3846     1   108.0100461 406.684800
   3840   3847   3848     1   108.0100461 406.684800
   3840   3847   3849     1   108.0100461 406.684800
   3841   3840   3869     1   110.1100470 384.091200
   3841   3853   3854     1   109.8000471 387.438400
   3841   3853   3855     1   109.8000471 387.438400
   3842   3841   3853     1   110.5600475 386.601600
   3842   3841   3843     1   109.7500473 328.025600
   3843   3841   3853     1   110.5600475 386.601600
   3844   3840   3869     1   110.1100470 384.091200
   3844   3856   3857     1   109.8000471 387.438400
   3844   3856   3858     1   109.8000471 387.438400
   3845   3844   3856     1   110.5600475 386.601600
   3845   3844   3846     1   109.7500473 328.025600
   3846   3844   3856     1   110.5600475 386.601600
   3847   3840   3869     1   110.1100470 384.091200
   3847   3850   3851     1   109.8000471 387.438400
   3847   3850   3852     1   109.8000471 387.438400
   3848   3847   3850     1   110.5600475 386.601600
   3848   3847   3849     1   109.7500473 328.025600
   3849   3847   3850     1   110.5600475 386.601600
   3850   3859   3860     1   109.5600471 388.275200
   3850   3859   3861     1   109.5600471 388.275200
   3851   3850   3859     1   109.8000471 387.438400
   3851   3850   3852     1   107.5800459 329.699200
   3852   3850   3859     1   109.8000471 387.438400
   3853   3865   3866     1   109.5600471 388.275200
   3853   3865   3867     1   109.5600471 388.275200
   3854   3853   3865     1   109.8000471 387.438400
   3854   3853   3855     1   107.5800459 329.699200
   3855   3853   3865     1   109.8000471 387.438400
   3856   3862   3863     1   109.5600471 388.275200
   3856   3862   3864     1   109.5600471 388.275200
   3857   3856   3862     1   109.8000471 387.438400
   3857   3856   3858     1   107.5800459 329.699200
   3858   3856   3862     1   109.8000471 387.438400
   3860   3859   3868     1   109.7800468 425.094400
   3860   3859   3861     1   108.4600466 328.025600
   3861   3859   3868     1   109.7800468 425.094400
   3863   3862   7768     1   109.7800468 425.094400
   3863   3862   3864     1   108.4600466 328.025600
   3864   3862   7768     1   109.7800468 425.094400
   3866   3865   7798     1   109.7800468 425.094400
   3866   3865   3867     1   108.4600466 328.025600
   3867   3865   7798     1   109.7800468 425.094400
   3870   3871   3872     1   108.0100461 406.684800
   3870   3871   3873     1   108.0100461 406.684800
   3870   3874   3875     1   108.0100461 406.684800
   3870   3874   3876     1   108.0100461 406.684800
   3870   3877   3878     1   108.0100461 406.684800
   3870   3877   3879     1   108.0100461 406.684800
   3871   3870   3899     1   110.1100470 384.091200
   3871   3883   3884     1   109.8000471 387.438400
   3871   3883   3885     1   109.8000471 387.438400
   3872   3871   3883     1   110.5600475 386.601600
   3872   3871   3873     1   109.7500473 328.025600
   3873   3871   3883     1   110.5600475 386.601600
   3874   3870   3899     1   110.1100470 384.091200
   3874   3886   3887     1   109.8000471 387.438400
   3874   3886   3888     1   109.8000471 387.438400
   3875   3874   3886     1   110.5600475 386.601600
   3875   3874   3876     1   109.7500473 328.025600
   3876   3874   3886     1   110.5600475 386.601600
   3877   3870   3899     1   110.1100470 384.091200
   3877   3880   3881     1   109.8000471 387.438400
   3877   3880   3882     1   109.8000471 387.438400
   3878   3877   3880     1   110.5600475 386.601600
   3878   3877   3879     1   109.7500473 328.025600
   3879   3877   3880     1   110.5600475 386.601600
   3880   3889   3890     1   109.5600471 388.275200
   3880   3889   3891     1   109.5600471 388.275200
   3881   3880   3889     1   109.8000471 387.438400
   3881   3880   3882     1   107.5800459 329.699200
   3882   3880   3889     1   109.8000471 387.438400
   3883   3895   3896     1   109.5600471 388.275200
   3883   3895   3897     1   109.5600471 388.275200
   3884   3883   3895     1   109.8000471 387.438400
   3884   3883   3885     1   107.5800459 329.699200
   3885   3883   3895     1   109.8000471 387.438400
   3886   3892   3893     1   109.5600471 388.275200
   3886   3892   3894     1   109.5600471 388.275200
   3887   3886   3892     1   109.8000471 387.438400
   3887   3886   3888     1   107.5800459 329.699200
   3888   3886   3892     1   109.8000471 387.438400
   3890   3889   3898     1   109.7800468 425.094400
   3890   3889   3891     1   108.4600466 328.025600
   3891   3889   3898     1   109.7800468 425.094400
   3893   3892   7828     1   109.7800468 425.094400
   3893   3892   3894     1   108.4600466 328.025600
   3894   3892   7828     1   109.7800468 425.094400
   3896   3895   7858     1   109.7800468 425.094400
   3896   3895   3897     1   108.4600466 328.025600
   3897   3895   7858     1   109.7800468 425.094400
   3900   3901   3902     1   108.0100461 406.684800
   3900   3901   3903     1   108.0100461 406.684800
   3900   3904   3905     1   108.0100461 406.684800
   3900   3904   3906     1   108.0100461 406.684800
   3900   3907   3908     1   108.0100461 406.684800
   3900   3907   3909     1   108.0100461 406.684800
   3901   3900   3929     1   110.1100470 384.091200
   3901   3913   3914     1   109.8000471 387.438400
   3901   3913   3915     1   109.8000471 387.438400
   3902   3901   3913     1   110.5600475 386.601600
   3902   3901   3903     1   109.7500473 328.025600
   3903   3901   3913     1   110.5600475 386.601600
   3904   3900   3929     1   110.1100470 384.091200
   3904   3916   3917     1   109.8000471 387.438400
   3904   3916   3918     1   109.8000471 387.438400
   3905   3904   3916     1   110.5600475 386.601600
   3905   3904   3906     1   109.7500473 328.025600
   3906   3904   3916     1   110.5600475 386.601600
   3907   3900   3929     1   110.1100470 384.091200
   3907   3910   3911     1   109.8000471 387.438400
   3907   3910   3912     1   109.8000471 387.438400
   3908   3907   3910     1   110.5600475 386.601600
   3908   3907   3909     1   109.7500473 328.025600
   3909   3907   3910     1   110.5600475 386.601600
   3910   3919   3920     1   109.5600471 388.275200
   3910   3919   3921     1   109.5600471 388.275200
   3911   3910   3919     1   109.8000471 387.438400
   3911   3910   3912     1   107.5800459 329.699200
   3912   3910   3919     1   109.8000471 387.438400
   3913   3925   3926     1   109.5600471 388.275200
   3913   3925   3927     1   109.5600471 388.275200
   3914   3913   3925     1   109.8000471 387.438400
   3914   3913   3915     1   107.5800459 329.699200
   3915   3913   3925     1   109.8000471 387.438400
   3916   3922   3923     1   109.5600471 388.275200
   3916   3922   3924     1   109.5600471 388.275200
   3917   3916   3922     1   109.8000471 387.438400
   3917   3916   3918     1   107.5800459 329.699200
   3918   3916   3922     1   109.8000471 387.438400
   3920   3919   3928     1   109.7800468 425.094400
   3920   3919   3921     1   108.4600466 328.025600
   3921   3919   3928     1   109.7800468 425.094400
   3923   3922   7888     1   109.7800468 425.094400
   3923   3922   3924     1   108.4600466 328.025600
   3924   3922   7888     1   109.7800468 425.094400
   3926   3925   7918     1   109.7800468 425.094400
   3926   3925   3927     1   108.4600466 328.025600
   3927   3925   7918     1   109.7800468 425.094400
   3930   3931   3932     1   108.0100461 406.684800
   3930   3931   3933     1   108.0100461 406.684800
   3930   3934   3935     1   108.0100461 406.684800
   3930   3934   3936     1   108.0100461 406.684800
   3930   3937   3938     1   108.0100461 406.684800
   3930   3937   3939     1   108.0100461 406.684800
   3931   3930   3959     1   110.1100470 384.091200
   3931   3943   3944     1   109.8000471 387.438400
   3931   3943   3945     1   109.8000471 387.438400
   3932   3931   3943     1   110.5600475 386.601600
   3932   3931   3933     1   109.7500473 328.025600
   3933   3931   3943     1   110.5600475 386.601600
   3934   3930   3959     1   110.1100470 384.091200
   3934   3946   3947     1   109.8000471 387.438400
   3934   3946   3948     1   109.8000471 387.438400
   3935   3934   3946     1   110.5600475 386.601600
   3935   3934   3936     1   109.7500473 328.025600
   3936   3934   3946     1   110.5600475 386.601600
   3937   3930   3959     1   110.1100470 384.091200
   3937   3940   3941     1   109.8000471 387.438400
   3937   3940   3942     1   109.8000471 387.438400
   3938   3937   3940     1   110.5600475 386.601600
   3938   3937   3939     1   109.7500473 328.025600
   3939   3937   3940     1   110.5600475 386.601600
   3940   3949   3950     1   109.5600471 388.275200
   3940   3949   3951     1   109.5600471 388.275200
   3941   3940   3949     1   109.8000471 387.438400
   3941   3940   3942     1   107.5800459 329.699200
   3942   3940   3949     1   109.8000471 387.438400
   3943   3955   3956     1   109.5600471 388.275200
   3943   3955   3957     1   109.5600471 388.275200
   3944   3943   3955     1   109.8000471 387.438400
   3944   3943   3945     1   107.5800459 329.699200
   3945   3943   3955     1   109.8000471 387.438400
   3946   3952   3953     1   109.5600471 388.275200
   3946   3952   3954     1   109.5600471 388.275200
   3947   3946   3952     1   109.8000471 387.438400
   3947   3946   3948     1   107.5800459 329.699200
   3948   3946   3952     1   109.8000471 387.438400
   3950   3949   3958     1   109.7800468 425.094400
   3950   3949   3951     1   108.4600466 328.025600
   3951   3949   3958     1   109.7800468 425.094400
   3953   3952   7948     1   109.7800468 425.094400
   3953   3952   3954     1   108.4600466 328.025600
   3954   3952   7948     1   109.7800468 425.094400
   3956   3955   7978     1   109.7800468 425.094400
   3956   3955   3957     1   108.4600466 328.025600
   3957   3955   7978     1   109.7800468 425.094400
   3960   3961   3962     1   108.0100461 406.684800
   3960   3961   3963     1   108.0100461 406.684800
   3960   3964   3965     1   108.0100461 406.684800
   3960   3964   3966     1   108.0100461 406.684800
   3960   3967   3968     1   108.0100461 406.684800
   3960   3967   3969     1   108.0100461 406.684800
   3961   3960   3989     1   110.1100470 384.091200
   3961   3973   3974     1   109.8000471 387.438400
   3961   3973   3975     1   109.8000471 387.438400
   3962   3961   3973     1   110.5600475 386.601600
   3962   3961   3963     1   109.7500473 328.025600
   3963   3961   3973     1   110.5600475 386.601600
   3964   3960   3989     1   110.1100470 384.091200
   3964   3976   3977     1   109.8000471 387.438400
   3964   3976   3978     1   109.8000471 387.438400
   3965   3964   3976     1   110.5600475 386.601600
   3965   3964   3966     1   109.7500473 328.025600
   3966   3964   3976     1   110.5600475 386.601600
   3967   3960   3989     1   110.1100470 384.091200
   3967   3970   3971     1   109.8000471 387.438400
   3967   3970   3972     1   109.8000471 387.438400
   3968   3967   3970     1   110.5600475 386.601600
   3968   3967   3969     1   109.7500473 328.025600
   3969   3967   3970     1   110.5600475 386.601600
   3970   3979   3980     1   109.5600471 388.275200
   3970   3979   3981     1   109.5600471 388.275200
   3971   3970   3979     1   109.8000471 387.438400
   3971   3970   3972     1   107.5800459 329.699200
   3972   3970   3979     1   109.8000471 387.438400
   3973   3985   3986     1   109.5600471 388.275200
   3973   3985   3987     1   109.5600471 388.275200
   3974   3973   3985     1   109.8000471 387.438400
   3974   3973   3975     1   107.5800459 329.699200
   3975   3973   3985     1   109.8000471 387.438400
   3976   3982   3983     1   109.5600471 388.275200
   3976   3982   3984     1   109.5600471 388.275200
   3977   3976   3982     1   109.8000471 387.438400
   3977   3976   3978     1   107.5800459 329.699200
   3978   3976   3982     1   109.8000471 387.438400
   3980   3979   3988     1   109.7800468 425.094400
   3980   3979   3981     1   108.4600466 328.025600
   3981   3979   3988     1   109.7800468 425.094400
   3983   3982   8008     1   109.7800468 425.094400
   3983   3982   3984     1   108.4600466 328.025600
   3984   3982   8008     1   109.7800468 425.094400
   3986   3985   8038     1   109.7800468 425.094400
   3986   3985   3987     1   108.4600466 328.025600
   3987   3985   8038     1   109.7800468 425.094400
   3990   3991   3992     1   108.0100461 406.684800
   3990   3991   3993     1   108.0100461 406.684800
   3990   3994   3995     1   108.0100461 406.684800
   3990   3994   3996     1   108.0100461 406.684800
   3990   3997   3998     1   108.0100461 406.684800
   3990   3997   3999     1   108.0100461 406.684800
   3991   3990   4019     1   110.1100470 384.091200
   3991   4003   4004     1   109.8000471 387.438400
   3991   4003   4005     1   109.8000471 387.438400
   3992   3991   4003     1   110.5600475 386.601600
   3992   3991   3993     1   109.7500473 328.025600
   3993   3991   4003     1   110.5600475 386.601600
   3994   3990   4019     1   110.1100470 384.091200
   3994   4006   4007     1   109.8000471 387.438400
   3994   4006   4008     1   109.8000471 387.438400
   3995   3994   4006     1   110.5600475 386.601600
   3995   3994   3996     1   109.7500473 328.025600
   3996   3994   4006     1   110.5600475 386.601600
   3997   3990   4019     1   110.1100470 384.091200
   3997   4000   4001     1   109.8000471 387.438400
   3997   4000   4002     1   109.8000471 387.438400
   3998   3997   4000     1   110.5600475 386.601600
   3998   3997   3999     1   109.7500473 328.025600
   3999   3997   4000     1   110.5600475 386.601600
   4000   4009   4010     1   109.5600471 388.275200
   4000   4009   4011     1   109.5600471 388.275200
   4001   4000   4009     1   109.8000471 387.438400
   4001   4000   4002     1   107.5800459 329.699200
   4002   4000   4009     1   109.8000471 387.438400
   4003   4015   4016     1   109.5600471 388.275200
   4003   4015   4017     1   109.5600471 388.275200
   4004   4003   4015     1   109.8000471 387.438400
   4004   4003   4005     1   107.5800459 329.699200
   4005   4003   4015     1   109.8000471 387.438400
   4006   4012   4013     1   109.5600471 388.275200
   4006   4012   4014     1   109.5600471 388.275200
   4007   4006   4012     1   109.8000471 387.438400
   4007   4006   4008     1   107.5800459 329.699200
   4008   4006   4012     1   109.8000471 387.438400
   4010   4009   4018     1   109.7800468 425.094400
   4010   4009   4011     1   108.4600466 328.025600
   4011   4009   4018     1   109.7800468 425.094400
   4013   4012   8068     1   109.7800468 425.094400
   4013   4012   4014     1   108.4600466 328.025600
   4014   4012   8068     1   109.7800468 425.094400
   4016   4015   8098     1   109.7800468 425.094400
   4016   4015   4017     1   108.4600466 328.025600
   4017   4015   8098     1   109.7800468 425.094400
   4020   4021   4022     1   108.0100461 406.684800
   4020   4021   4023     1   108.0100461 406.684800
   4020   4024   4025     1   108.0100461 406.684800
   4020   4024   4026     1   108.0100461 406.684800
   4020   4027   4028     1   108.0100461 406.684800
   4020   4027   4029     1   108.0100461 406.684800
   4021   4020   4049     1   110.1100470 384.091200
   4021   4033   4034     1   109.8000471 387.438400
   4021   4033   4035     1   109.8000471 387.438400
   4022   4021   4033     1   110.5600475 386.601600
   4022   4021   4023     1   109.7500473 328.025600
   4023   4021   4033     1   110.5600475 386.601600
   4024   4020   4049     1   110.1100470 384.091200
   4024   4036   4037     1   109.8000471 387.438400
   4024   4036   4038     1   109.8000471 387.438400
   4025   4024   4036     1   110.5600475 386.601600
   4025   4024   4026     1   109.7500473 328.025600
   4026   4024   4036     1   110.5600475 386.601600
   4027   4020   4049     1   110.1100470 384.091200
   4027   4030   4031     1   109.8000471 387.438400
   4027   4030   4032     1   109.8000471 387.438400
   4028   4027   4030     1   110.5600475 386.601600
   4028   4027   4029     1   109.7500473 328.025600
   4029   4027   4030     1   110.5600475 386.601600
   4030   4039   4040     1   109.5600471 388.275200
   4030   4039   4041     1   109.5600471 388.275200
   4031   4030   4039     1   109.8000471 387.438400
   4031   4030   4032     1   107.5800459 329.699200
   4032   4030   4039     1   109.8000471 387.438400
   4033   4045   4046     1   109.5600471 388.275200
   4033   4045   4047     1   109.5600471 388.275200
   4034   4033   4045     1   109.8000471 387.438400
   4034   4033   4035     1   107.5800459 329.699200
   4035   4033   4045     1   109.8000471 387.438400
   4036   4042   4043     1   109.5600471 388.275200
   4036   4042   4044     1   109.5600471 388.275200
   4037   4036   4042     1   109.8000471 387.438400
   4037   4036   4038     1   107.5800459 329.699200
   4038   4036   4042     1   109.8000471 387.438400
   4040   4039   4048     1   109.7800468 425.094400
   4040   4039   4041     1   108.4600466 328.025600
   4041   4039   4048     1   109.7800468 425.094400
   4043   4042   8128     1   109.7800468 425.094400
   4043   4042   4044     1   108.4600466 328.025600
   4044   4042   8128     1   109.7800468 425.094400
   4046   4045   8158     1   109.7800468 425.094400
   4046   4045   4047     1   108.4600466 328.025600
   4047   4045   8158     1   109.7800468 425.094400
   4050   4051   4052     1   108.0100461 406.684800
   4050   4051   4053     1   108.0100461 406.684800
   4050   4054   4055     1   108.0100461 406.684800
   4050   4054   4056     1   108.0100461 406.684800
   4050   4057   4058     1   108.0100461 406.684800
   4050   4057   4059     1   108.0100461 406.684800
   4051   4050   4079     1   110.1100470 384.091200
   4051   4063   4064     1   109.8000471 387.438400
   4051   4063   4065     1   109.8000471 387.438400
   4052   4051   4063     1   110.5600475 386.601600
   4052   4051   4053     1   109.7500473 328.025600
   4053   4051   4063     1   110.5600475 386.601600
   4054   4050   4079     1   110.1100470 384.091200
   4054   4066   4067     1   109.8000471 387.438400
   4054   4066   4068     1   109.8000471 387.438400
   4055   4054   4066     1   110.5600475 386.601600
   4055   4054   4056     1   109.7500473 328.025600
   4056   4054   4066     1   110.5600475 386.601600
   4057   4050   4079     1   110.1100470 384.091200
   4057   4060   4061     1   109.8000471 387.438400
   4057   4060   4062     1   109.8000471 387.438400
   4058   4057   4060     1   110.5600475 386.601600
   4058   4057   4059     1   109.7500473 328.025600
   4059   4057   4060     1   110.5600475 386.601600
   4060   4069   4070     1   109.5600471 388.275200
   4060   4069   4071     1   109.5600471 388.275200
   4061   4060   4069     1   109.8000471 387.438400
   4061   4060   4062     1   107.5800459 329.699200
   4062   4060   4069     1   109.8000471 387.438400
   4063   4075   4076     1   109.5600471 388.275200
   4063   4075   4077     1   109.5600471 388.275200
   4064   4063   4075     1   109.8000471 387.438400
   4064   4063   4065     1   107.5800459 329.699200
   4065   4063   4075     1   109.8000471 387.438400
   4066   4072   4073     1   109.5600471 388.275200
   4066   4072   4074     1   109.5600471 388.275200
   4067   4066   4072     1   109.8000471 387.438400
   4067   4066   4068     1   107.5800459 329.699200
   4068   4066   4072     1   109.8000471 387.438400
   4070   4069   4078     1   109.7800468 425.094400
   4070   4069   4071     1   108.4600466 328.025600
   4071   4069   4078     1   109.7800468 425.094400
   4073   4072   8188     1   109.7800468 425.094400
   4073   4072   4074     1   108.4600466 328.025600
   4074   4072   8188     1   109.7800468 425.094400
   4076   4075   8218     1   109.7800468 425.094400
   4076   4075   4077     1   108.4600466 328.025600
   4077   4075   8218     1   109.7800468 425.094400
   4080   4081   4082     1   108.0100461 406.684800
   4080   4081   4083     1   108.0100461 406.684800
   4080   4084   4085     1   108.0100461 406.684800
   4080   4084   4086     1   108.0100461 406.684800
   4080   4087   4088     1   108.0100461 406.684800
   4080   4087   4089     1   108.0100461 406.684800
   4081   4080   4109     1   110.1100470 384.091200
   4081   4093   4094     1   109.8000471 387.438400
   4081   4093   4095     1   109.8000471 387.438400
   4082   4081   4093     1   110.5600475 386.601600
   4082   4081   4083     1   109.7500473 328.025600
   4083   4081   4093     1   110.5600475 386.601600
   4084   4080   4109     1   110.1100470 384.091200
   4084   4096   4097     1   109.8000471 387.438400
   4084   4096   4098     1   109.8000471 387.438400
   4085   4084   4096     1   110.5600475 386.601600
   4085   4084   4086     1   109.7500473 328.025600
   4086   4084   4096     1   110.5600475 386.601600
   4087   4080   4109     1   110.1100470 384.091200
   4087   4090   4091     1   109.8000471 387.438400
   4087   4090   4092     1   109.8000471 387.438400
   4088   4087   4090     1   110.5600475 386.601600
   4088   4087   4089     1   109.7500473 328.025600
   4089   4087   4090     1   110.5600475 386.601600
   4090   4099   4100     1   109.5600471 388.275200
   4090   4099   4101     1   109.5600471 388.275200
   4091   4090   4099     1   109.8000471 387.438400
   4091   4090   4092     1   107.5800459 329.699200
   4092   4090   4099     1   109.8000471 387.438400
   4093   4105   4106     1   109.5600471 388.275200
   4093   4105   4107     1   109.5600471 388.275200
   4094   4093   4105     1   109.8000471 387.438400
   4094   4093   4095     1   107.5800459 329.699200
   4095   4093   4105     1   109.8000471 387.438400
   4096   4102   4103     1   109.5600471 388.275200
   4096   4102   4104     1   109.5600471 388.275200
   4097   4096   4102     1   109.8000471 387.438400
   4097   4096   4098     1   107.5800459 329.699200
   4098   4096   4102     1   109.8000471 387.438400
   4100   4099   4108     1   109.7800468 425.094400
   4100   4099   4101     1   108.4600466 328.025600
   4101   4099   4108     1   109.7800468 425.094400
   4103   4102   8248     1   109.7800468 425.094400
   4103   4102   4104     1   108.4600466 328.025600
   4104   4102   8248     1   109.7800468 425.094400
   4106   4105   8278     1   109.7800468 425.094400
   4106   4105   4107     1   108.4600466 328.025600
   4107   4105   8278     1   109.7800468 425.094400
   4110   4111   4112     1   108.0100461 406.684800
   4110   4111   4113     1   108.0100461 406.684800
   4110   4114   4115     1   108.0100461 406.684800
   4110   4114   4116     1   108.0100461 406.684800
   4110   4117   4118     1   108.0100461 406.684800
   4110   4117   4119     1   108.0100461 406.684800
   4111   4110   4139     1   110.1100470 384.091200
   4111   4123   4124     1   109.8000471 387.438400
   4111   4123   4125     1   109.8000471 387.438400
   4112   4111   4123     1   110.5600475 386.601600
   4112   4111   4113     1   109.7500473 328.025600
   4113   4111   4123     1   110.5600475 386.601600
   4114   4110   4139     1   110.1100470 384.091200
   4114   4126   4127     1   109.8000471 387.438400
   4114   4126   4128     1   109.8000471 387.438400
   4115   4114   4126     1   110.5600475 386.601600
   4115   4114   4116     1   109.7500473 328.025600
   4116   4114   4126     1   110.5600475 386.601600
   4117   4110   4139     1   110.1100470 384.091200
   4117   4120   4121     1   109.8000471 387.438400
   4117   4120   4122     1   109.8000471 387.438400
   4118   4117   4120     1   110.5600475 386.601600
   4118   4117   4119     1   109.7500473 328.025600
   4119   4117   4120     1   110.5600475 386.601600
   4120   4129   4130     1   109.5600471 388.275200
   4120   4129   4131     1   109.5600471 388.275200
   4121   4120   4129     1   109.8000471 387.438400
   4121   4120   4122     1   107.5800459 329.699200
   4122   4120   4129     1   109.8000471 387.438400
   4123   4135   4136     1   109.5600471 388.275200
   4123   4135   4137     1   109.5600471 388.275200
   4124   4123   4135     1   109.8000471 387.438400
   4124   4123   4125     1   107.5800459 329.699200
   4125   4123   4135     1   109.8000471 387.438400
   4126   4132   4133     1   109.5600471 388.275200
   4126   4132   4134     1   109.5600471 388.275200
   4127   4126   4132     1   109.8000471 387.438400
   4127   4126   4128     1   107.5800459 329.699200
   4128   4126   4132     1   109.8000471 387.438400
   4130   4129   4138     1   109.7800468 425.094400
   4130   4129   4131     1   108.4600466 328.025600
   4131   4129   4138     1   109.7800468 425.094400
   4133   4132   8308     1   109.7800468 425.094400
   4133   4132   4134     1   108.4600466 328.025600
   4134   4132   8308     1   109.7800468 425.094400
   4136   4135   8338     1   109.7800468 425.094400
   4136   4135   4137     1   108.4600466 328.025600
   4137   4135   8338     1   109.7800468 425.094400
   4140   4141   4142     1   108.0100461 406.684800
   4140   4141   4143     1   108.0100461 406.684800
   4140   4144   4145     1   108.0100461 406.684800
   4140   4144   4146     1   108.0100461 406.684800
   4140   4147   4148     1   108.0100461 406.684800
   4140   4147   4149     1   108.0100461 406.684800
   4141   4140   4169     1   110.1100470 384.091200
   4141   4153   4154     1   109.8000471 387.438400
   4141   4153   4155     1   109.8000471 387.438400
   4142   4141   4153     1   110.5600475 386.601600
   4142   4141   4143     1   109.7500473 328.025600
   4143   4141   4153     1   110.5600475 386.601600
   4144   4140   4169     1   110.1100470 384.091200
   4144   4156   4157     1   109.8000471 387.438400
   4144   4156   4158     1   109.8000471 387.438400
   4145   4144   4156     1   110.5600475 386.601600
   4145   4144   4146     1   109.7500473 328.025600
   4146   4144   4156     1   110.5600475 386.601600
   4147   4140   4169     1   110.1100470 384.091200
   4147   4150   4151     1   109.8000471 387.438400
   4147   4150   4152     1   109.8000471 387.438400
   4148   4147   4150     1   110.5600475 386.601600
   4148   4147   4149     1   109.7500473 328.025600
   4149   4147   4150     1   110.5600475 386.601600
   4150   4159   4160     1   109.5600471 388.275200
   4150   4159   4161     1   109.5600471 388.275200
   4151   4150   4159     1   109.8000471 387.438400
   4151   4150   4152     1   107.5800459 329.699200
   4152   4150   4159     1   109.8000471 387.438400
   4153   4165   4166     1   109.5600471 388.275200
   4153   4165   4167     1   109.5600471 388.275200
   4154   4153   4165     1   109.8000471 387.438400
   4154   4153   4155     1   107.5800459 329.699200
   4155   4153   4165     1   109.8000471 387.438400
   4156   4162   4163     1   109.5600471 388.275200
   4156   4162   4164     1   109.5600471 388.275200
   4157   4156   4162     1   109.8000471 387.438400
   4157   4156   4158     1   107.5800459 329.699200
   4158   4156   4162     1   109.8000471 387.438400
   4160   4159   4168     1   109.7800468 425.094400
   4160   4159   4161     1   108.4600466 328.025600
   4161   4159   4168     1   109.7800468 425.094400
   4163   4162   8368     1   109.7800468 425.094400
   4163   4162   4164     1   108.4600466 328.025600
   4164   4162   8368     1   109.7800468 425.094400
   4166   4165   8398     1   109.7800468 425.094400
   4166   4165   4167     1   108.4600466 328.025600
   4167   4165   8398     1   109.7800468 425.094400
   4170   4171   4172     1   108.0100461 406.684800
   4170   4171   4173     1   108.0100461 406.684800
   4170   4174   4175     1   108.0100461 406.684800
   4170   4174   4176     1   108.0100461 406.684800
   4170   4177   4178     1   108.0100461 406.684800
   4170   4177   4179     1   108.0100461 406.684800
   4171   4170   4199     1   110.1100470 384.091200
   4171   4183   4184     1   109.8000471 387.438400
   4171   4183   4185     1   109.8000471 387.438400
   4172   4171   4183     1   110.5600475 386.601600
   4172   4171   4173     1   109.7500473 328.025600
   4173   4171   4183     1   110.5600475 386.601600
   4174   4170   4199     1   110.1100470 384.091200
   4174   4186   4187     1   109.8000471 387.438400
   4174   4186   4188     1   109.8000471 387.438400
   4175   4174   4186     1   110.5600475 386.601600
   4175   4174   4176     1   109.7500473 328.025600
   4176   4174   4186     1   110.5600475 386.601600
   4177   4170   4199     1   110.1100470 384.091200
   4177   4180   4181     1   109.8000471 387.438400
   4177   4180   4182     1   109.8000471 387.438400
   4178   4177   4180     1   110.5600475 386.601600
   4178   4177   4179     1   109.7500473 328.025600
   4179   4177   4180     1   110.5600475 386.601600
   4180   4189   4190     1   109.5600471 388.275200
   4180   4189   4191     1   109.5600471 388.275200
   4181   4180   4189     1   109.8000471 387.438400
   4181   4180   4182     1   107.5800459 329.699200
   4182   4180   4189     1   109.8000471 387.438400
   4183   4195   4196     1   109.5600471 388.275200
   4183   4195   4197     1   109.5600471 388.275200
   4184   4183   4195     1   109.8000471 387.438400
   4184   4183   4185     1   107.5800459 329.699200
   4185   4183   4195     1   109.8000471 387.438400
   4186   4192   4193     1   109.5600471 388.275200
   4186   4192   4194     1   109.5600471 388.275200
   4187   4186   4192     1   109.8000471 387.438400
   4187   4186   4188     1   107.5800459 329.699200
   4188   4186   4192     1   109.8000471 387.438400
   4190   4189   4198     1   109.7800468 425.094400
   4190   4189   4191     1   108.4600466 328.025600
   4191   4189   4198     1   109.7800468 425.094400
   4193   4192   8428     1   109.7800468 425.094400
   4193   4192   4194     1   108.4600466 328.025600
   4194   4192   8428     1   109.7800468 425.094400
   4196   4195   8458     1   109.7800468 425.094400
   4196   4195   4197     1   108.4600466 328.025600
   4197   4195   8458     1   109.7800468 425.094400
   4200   4201   4202     1   108.0100461 406.684800
   4200   4201   4203     1   108.0100461 406.684800
   4200   4204   4205     1   108.0100461 406.684800
   4200   4204   4206     1   108.0100461 406.684800
   4200   4207   4208     1   108.0100461 406.684800
   4200   4207   4209     1   108.0100461 406.684800
   4201   4200   4229     1   110.1100470 384.091200
   4201   4213   4214     1   109.8000471 387.438400
   4201   4213   4215     1   109.8000471 387.438400
   4202   4201   4213     1   110.5600475 386.601600
   4202   4201   4203     1   109.7500473 328.025600
   4203   4201   4213     1   110.5600475 386.601600
   4204   4200   4229     1   110.1100470 384.091200
   4204   4216   4217     1   109.8000471 387.438400
   4204   4216   4218     1   109.8000471 387.438400
   4205   4204   4216     1   110.5600475 386.601600
   4205   4204   4206     1   109.7500473 328.025600
   4206   4204   4216     1   110.5600475 386.601600
   4207   4200   4229     1   110.1100470 384.091200
   4207   4210   4211     1   109.8000471 387.438400
   4207   4210   4212     1   109.8000471 387.438400
   4208   4207   4210     1   110.5600475 386.601600
   4208   4207   4209     1   109.7500473 328.025600
   4209   4207   4210     1   110.5600475 386.601600
   4210   4219   4220     1   109.5600471 388.275200
   4210   4219   4221     1   109.5600471 388.275200
   4211   4210   4219     1   109.8000471 387.438400
   4211   4210   4212     1   107.5800459 329.699200
   4212   4210   4219     1   109.8000471 387.438400
   4213   4225   4226     1   109.5600471 388.275200
   4213   4225   4227     1   109.5600471 388.275200
   4214   4213   4225     1   109.8000471 387.438400
   4214   4213   4215     1   107.5800459 329.699200
   4215   4213   4225     1   109.8000471 387.438400
   4216   4222   4223     1   109.5600471 388.275200
   4216   4222   4224     1   109.5600471 388.275200
   4217   4216   4222     1   109.8000471 387.438400
   4217   4216   4218     1   107.5800459 329.699200
   4218   4216   4222     1   109.8000471 387.438400
   4220   4219   4228     1   109.7800468 425.094400
   4220   4219   4221     1   108.4600466 328.025600
   4221   4219   4228     1   109.7800468 425.094400
   4223   4222   8488     1   109.7800468 425.094400
   4223   4222   4224     1   108.4600466 328.025600
   4224   4222   8488     1   109.7800468 425.094400
   4226   4225   8518     1   109.7800468 425.094400
   4226   4225   4227     1   108.4600466 328.025600
   4227   4225   8518     1   109.7800468 425.094400
   4230   4231   4232     1   108.0100461 406.684800
   4230   4231   4233     1   108.0100461 406.684800
   4230   4234   4235     1   108.0100461 406.684800
   4230   4234   4236     1   108.0100461 406.684800
   4230   4237   4238     1   108.0100461 406.684800
   4230   4237   4239     1   108.0100461 406.684800
   4231   4230   4259     1   110.1100470 384.091200
   4231   4243   4244     1   109.8000471 387.438400
   4231   4243   4245     1   109.8000471 387.438400
   4232   4231   4243     1   110.5600475 386.601600
   4232   4231   4233     1   109.7500473 328.025600
   4233   4231   4243     1   110.5600475 386.601600
   4234   4230   4259     1   110.1100470 384.091200
   4234   4246   4247     1   109.8000471 387.438400
   4234   4246   4248     1   109.8000471 387.438400
   4235   4234   4246     1   110.5600475 386.601600
   4235   4234   4236     1   109.7500473 328.025600
   4236   4234   4246     1   110.5600475 386.601600
   4237   4230   4259     1   110.1100470 384.091200
   4237   4240   4241     1   109.8000471 387.438400
   4237   4240   4242     1   109.8000471 387.438400
   4238   4237   4240     1   110.5600475 386.601600
   4238   4237   4239     1   109.7500473 328.025600
   4239   4237   4240     1   110.5600475 386.601600
   4240   4249   4250     1   109.5600471 388.275200
   4240   4249   4251     1   109.5600471 388.275200
   4241   4240   4249     1   109.8000471 387.438400
   4241   4240   4242     1   107.5800459 329.699200
   4242   4240   4249     1   109.8000471 387.438400
   4243   4255   4256     1   109.5600471 388.275200
   4243   4255   4257     1   109.5600471 388.275200
   4244   4243   4255     1   109.8000471 387.438400
   4244   4243   4245     1   107.5800459 329.699200
   4245   4243   4255     1   109.8000471 387.438400
   4246   4252   4253     1   109.5600471 388.275200
   4246   4252   4254     1   109.5600471 388.275200
   4247   4246   4252     1   109.8000471 387.438400
   4247   4246   4248     1   107.5800459 329.699200
   4248   4246   4252     1   109.8000471 387.438400
   4250   4249   4258     1   109.7800468 425.094400
   4250   4249   4251     1   108.4600466 328.025600
   4251   4249   4258     1   109.7800468 425.094400
   4253   4252   8548     1   109.7800468 425.094400
   4253   4252   4254     1   108.4600466 328.025600
   4254   4252   8548     1   109.7800468 425.094400
   4256   4255   8578     1   109.7800468 425.094400
   4256   4255   4257     1   108.4600466 328.025600
   4257   4255   8578     1   109.7800468 425.094400
   4260   4261   4262     1   108.0100461 406.684800
   4260   4261   4263     1   108.0100461 406.684800
   4260   4264   4265     1   108.0100461 406.684800
   4260   4264   4266     1   108.0100461 406.684800
   4260   4267   4268     1   108.0100461 406.684800
   4260   4267   4269     1   108.0100461 406.684800
   4261   4260   4289     1   110.1100470 384.091200
   4261   4273   4274     1   109.8000471 387.438400
   4261   4273   4275     1   109.8000471 387.438400
   4262   4261   4273     1   110.5600475 386.601600
   4262   4261   4263     1   109.7500473 328.025600
   4263   4261   4273     1   110.5600475 386.601600
   4264   4260   4289     1   110.1100470 384.091200
   4264   4276   4277     1   109.8000471 387.438400
   4264   4276   4278     1   109.8000471 387.438400
   4265   4264   4276     1   110.5600475 386.601600
   4265   4264   4266     1   109.7500473 328.025600
   4266   4264   4276     1   110.5600475 386.601600
   4267   4260   4289     1   110.1100470 384.091200
   4267   4270   4271     1   109.8000471 387.438400
   4267   4270   4272     1   109.8000471 387.438400
   4268   4267   4270     1   110.5600475 386.601600
   4268   4267   4269     1   109.7500473 328.025600
   4269   4267   4270     1   110.5600475 386.601600
   4270   4279   4280     1   109.5600471 388.275200
   4270   4279   4281     1   109.5600471 388.275200
   4271   4270   4279     1   109.8000471 387.438400
   4271   4270   4272     1   107.5800459 329.699200
   4272   4270   4279     1   109.8000471 387.438400
   4273   4285   4286     1   109.5600471 388.275200
   4273   4285   4287     1   109.5600471 388.275200
   4274   4273   4285     1   109.8000471 387.438400
   4274   4273   4275     1   107.5800459 329.699200
   4275   4273   4285     1   109.8000471 387.438400
   4276   4282   4283     1   109.5600471 388.275200
   4276   4282   4284     1   109.5600471 388.275200
   4277   4276   4282     1   109.8000471 387.438400
   4277   4276   4278     1   107.5800459 329.699200
   4278   4276   4282     1   109.8000471 387.438400
   4280   4279   4288     1   109.7800468 425.094400
   4280   4279   4281     1   108.4600466 328.025600
   4281   4279   4288     1   109.7800468 425.094400
   4283   4282   8608     1   109.7800468 425.094400
   4283   4282   4284     1   108.4600466 328.025600
   4284   4282   8608     1   109.7800468 425.094400
   4286   4285   8638     1   109.7800468 425.094400
   4286   4285   4287     1   108.4600466 328.025600
   4287   4285   8638     1   109.7800468 425.094400
   4290   4291   4292     1   108.0100461 406.684800
   4290   4291   4293     1   108.0100461 406.684800
   4290   4294   4295     1   108.0100461 406.684800
   4290   4294   4296     1   108.0100461 406.684800
   4290   4297   4298     1   108.0100461 406.684800
   4290   4297   4299     1   108.0100461 406.684800
   4291   4290   4319     1   110.1100470 384.091200
   4291   4303   4304     1   109.8000471 387.438400
   4291   4303   4305     1   109.8000471 387.438400
   4292   4291   4303     1   110.5600475 386.601600
   4292   4291   4293     1   109.7500473 328.025600
   4293   4291   4303     1   110.5600475 386.601600
   4294   4290   4319     1   110.1100470 384.091200
   4294   4306   4307     1   109.8000471 387.438400
   4294   4306   4308     1   109.8000471 387.438400
   4295   4294   4306     1   110.5600475 386.601600
   4295   4294   4296     1   109.7500473 328.025600
   4296   4294   4306     1   110.5600475 386.601600
   4297   4290   4319     1   110.1100470 384.091200
   4297   4300   4301     1   109.8000471 387.438400
   4297   4300   4302     1   109.8000471 387.438400
   4298   4297   4300     1   110.5600475 386.601600
   4298   4297   4299     1   109.7500473 328.025600
   4299   4297   4300     1   110.5600475 386.601600
   4300   4309   4310     1   109.5600471 388.275200
   4300   4309   4311     1   109.5600471 388.275200
   4301   4300   4309     1   109.8000471 387.438400
   4301   4300   4302     1   107.5800459 329.699200
   4302   4300   4309     1   109.8000471 387.438400
   4303   4315   4316     1   109.5600471 388.275200
   4303   4315   4317     1   109.5600471 388.275200
   4304   4303   4315     1   109.8000471 387.438400
   4304   4303   4305     1   107.5800459 329.699200
   4305   4303   4315     1   109.8000471 387.438400
   4306   4312   4313     1   109.5600471 388.275200
   4306   4312   4314     1   109.5600471 388.275200
   4307   4306   4312     1   109.8000471 387.438400
   4307   4306   4308     1   107.5800459 329.699200
   4308   4306   4312     1   109.8000471 387.438400
   4310   4309   4318     1   109.7800468 425.094400
   4310   4309   4311     1   108.4600466 328.025600
   4311   4309   4318     1   109.7800468 425.094400
   4313   4312   8668     1   109.7800468 425.094400
   4313   4312   4314     1   108.4600466 328.025600
   4314   4312   8668     1   109.7800468 425.094400
   4316   4315   8698     1   109.7800468 425.094400
   4316   4315   4317     1   108.4600466 328.025600
   4317   4315   8698     1   109.7800468 425.094400
   4320   4321   4322     1   108.0100461 406.684800
   4320   4321   4323     1   108.0100461 406.684800
   4320   4324   4325     1   108.0100461 406.684800
   4320   4324   4326     1   108.0100461 406.684800
   4320   4327   4328     1   108.0100461 406.684800
   4320   4327   4329     1   108.0100461 406.684800
   4321   4320   4349     1   110.1100470 384.091200
   4321   4333   4334     1   109.8000471 387.438400
   4321   4333   4335     1   109.8000471 387.438400
   4322   4321   4333     1   110.5600475 386.601600
   4322   4321   4323     1   109.7500473 328.025600
   4323   4321   4333     1   110.5600475 386.601600
   4324   4320   4349     1   110.1100470 384.091200
   4324   4336   4337     1   109.8000471 387.438400
   4324   4336   4338     1   109.8000471 387.438400
   4325   4324   4336     1   110.5600475 386.601600
   4325   4324   4326     1   109.7500473 328.025600
   4326   4324   4336     1   110.5600475 386.601600
   4327   4320   4349     1   110.1100470 384.091200
   4327   4330   4331     1   109.8000471 387.438400
   4327   4330   4332     1   109.8000471 387.438400
   4328   4327   4330     1   110.5600475 386.601600
   4328   4327   4329     1   109.7500473 328.025600
   4329   4327   4330     1   110.5600475 386.601600
   4330   4339   4340     1   109.5600471 388.275200
   4330   4339   4341     1   109.5600471 388.275200
   4331   4330   4339     1   109.8000471 387.438400
   4331   4330   4332     1   107.5800459 329.699200
   4332   4330   4339     1   109.8000471 387.438400
   4333   4345   4346     1   109.5600471 388.275200
   4333   4345   4347     1   109.5600471 388.275200
   4334   4333   4345     1   109.8000471 387.438400
   4334   4333   4335     1   107.5800459 329.699200
   4335   4333   4345     1   109.8000471 387.438400
   4336   4342   4343     1   109.5600471 388.275200
   4336   4342   4344     1   109.5600471 388.275200
   4337   4336   4342     1   109.8000471 387.438400
   4337   4336   4338     1   107.5800459 329.699200
   4338   4336   4342     1   109.8000471 387.438400
   4340   4339   4348     1   109.7800468 425.094400
   4340   4339   4341     1   108.4600466 328.025600
   4341   4339   4348     1   109.7800468 425.094400
   4343   4342   8728     1   109.7800468 425.094400
   4343   4342   4344     1   108.4600466 328.025600
   4344   4342   8728     1   109.7800468 425.094400
   4346   4345   8758     1   109.7800468 425.094400
   4346   4345   4347     1   108.4600466 328.025600
   4347   4345   8758     1   109.7800468 425.094400
   4350   4351   4352     1   108.0100461 406.684800
   4350   4351   4353     1   108.0100461 406.684800
   4350   4354   4355     1   108.0100461 406.684800
   4350   4354   4356     1   108.0100461 406.684800
   4350   4357   4358     1   108.0100461 406.684800
   4350   4357   4359     1   108.0100461 406.684800
   4351   4350   4379     1   110.1100470 384.091200
   4351   4363   4364     1   109.8000471 387.438400
   4351   4363   4365     1   109.8000471 387.438400
   4352   4351   4363     1   110.5600475 386.601600
   4352   4351   4353     1   109.7500473 328.025600
   4353   4351   4363     1   110.5600475 386.601600
   4354   4350   4379     1   110.1100470 384.091200
   4354   4366   4367     1   109.8000471 387.438400
   4354   4366   4368     1   109.8000471 387.438400
   4355   4354   4366     1   110.5600475 386.601600
   4355   4354   4356     1   109.7500473 328.025600
   4356   4354   4366     1   110.5600475 386.601600
   4357   4350   4379     1   110.1100470 384.091200
   4357   4360   4361     1   109.8000471 387.438400
   4357   4360   4362     1   109.8000471 387.438400
   4358   4357   4360     1   110.5600475 386.601600
   4358   4357   4359     1   109.7500473 328.025600
   4359   4357   4360     1   110.5600475 386.601600
   4360   4369   4370     1   109.5600471 388.275200
   4360   4369   4371     1   109.5600471 388.275200
   4361   4360   4369     1   109.8000471 387.438400
   4361   4360   4362     1   107.5800459 329.699200
   4362   4360   4369     1   109.8000471 387.438400
   4363   4375   4376     1   109.5600471 388.275200
   4363   4375   4377     1   109.5600471 388.275200
   4364   4363   4375     1   109.8000471 387.438400
   4364   4363   4365     1   107.5800459 329.699200
   4365   4363   4375     1   109.8000471 387.438400
   4366   4372   4373     1   109.5600471 388.275200
   4366   4372   4374     1   109.5600471 388.275200
   4367   4366   4372     1   109.8000471 387.438400
   4367   4366   4368     1   107.5800459 329.699200
   4368   4366   4372     1   109.8000471 387.438400
   4370   4369   4378     1   109.7800468 425.094400
   4370   4369   4371     1   108.4600466 328.025600
   4371   4369   4378     1   109.7800468 425.094400
   4373   4372   8788     1   109.7800468 425.094400
   4373   4372   4374     1   108.4600466 328.025600
   4374   4372   8788     1   109.7800468 425.094400
   4376   4375   8818     1   109.7800468 425.094400
   4376   4375   4377     1   108.4600466 328.025600
   4377   4375   8818     1   109.7800468 425.094400
   4380   4381   4382     1   108.0100461 406.684800
   4380   4381   4383     1   108.0100461 406.684800
   4380   4384   4385     1   108.0100461 406.684800
   4380   4384   4386     1   108.0100461 406.684800
   4380   4387   4388     1   108.0100461 406.684800
   4380   4387   4389     1   108.0100461 406.684800
   4381   4380   4409     1   110.1100470 384.091200
   4381   4393   4394     1   109.8000471 387.438400
   4381   4393   4395     1   109.8000471 387.438400
   4382   4381   4393     1   110.5600475 386.601600
   4382   4381   4383     1   109.7500473 328.025600
   4383   4381   4393     1   110.5600475 386.601600
   4384   4380   4409     1   110.1100470 384.091200
   4384   4396   4397     1   109.8000471 387.438400
   4384   4396   4398     1   109.8000471 387.438400
   4385   4384   4396     1   110.5600475 386.601600
   4385   4384   4386     1   109.7500473 328.025600
   4386   4384   4396     1   110.5600475 386.601600
   4387   4380   4409     1   110.1100470 384.091200
   4387   4390   4391     1   109.8000471 387.438400
   4387   4390   4392     1   109.8000471 387.438400
   4388   4387   4390     1   110.5600475 386.601600
   4388   4387   4389     1   109.7500473 328.025600
   4389   4387   4390     1   110.5600475 386.601600
   4390   4399   4400     1   109.5600471 388.275200
   4390   4399   4401     1   109.5600471 388.275200
   4391   4390   4399     1   109.8000471 387.438400
   4391   4390   4392     1   107.5800459 329.699200
   4392   4390   4399     1   109.8000471 387.438400
   4393   4405   4406     1   109.5600471 388.275200
   4393   4405   4407     1   109.5600471 388.275200
   4394   4393   4405     1   109.8000471 387.438400
   4394   4393   4395     1   107.5800459 329.699200
   4395   4393   4405     1   109.8000471 387.438400
   4396   4402   4403     1   109.5600471 388.275200
   4396   4402   4404     1   109.5600471 388.275200
   4397   4396   4402     1   109.8000471 387.438400
   4397   4396   4398     1   107.5800459 329.699200
   4398   4396   4402     1   109.8000471 387.438400
   4400   4399   4408     1   109.7800468 425.094400
   4400   4399   4401     1   108.4600466 328.025600
   4401   4399   4408     1   109.7800468 425.094400
   4403   4402   8848     1   109.7800468 425.094400
   4403   4402   4404     1   108.4600466 328.025600
   4404   4402   8848     1   109.7800468 425.094400
   4406   4405   8878     1   109.7800468 425.094400
   4406   4405   4407     1   108.4600466 328.025600
   4407   4405   8878     1   109.7800468 425.094400
   4410   4411   4412     1   108.0100461 406.684800
   4410   4411   4413     1   108.0100461 406.684800
   4410   4414   4415     1   108.0100461 406.684800
   4410   4414   4416     1   108.0100461 406.684800
   4410   4417   4418     1   108.0100461 406.684800
   4410   4417   4419     1   108.0100461 406.684800
   4411   4410   4439     1   110.1100470 384.091200
   4411   4423   4424     1   109.8000471 387.438400
   4411   4423   4425     1   109.8000471 387.438400
   4412   4411   4423     1   110.5600475 386.601600
   4412   4411   4413     1   109.7500473 328.025600
   4413   4411   4423     1   110.5600475 386.601600
   4414   4410   4439     1   110.1100470 384.091200
   4414   4426   4427     1   109.8000471 387.438400
   4414   4426   4428     1   109.8000471 387.438400
   4415   4414   4426     1   110.5600475 386.601600
   4415   4414   4416     1   109.7500473 328.025600
   4416   4414   4426     1   110.5600475 386.601600
   4417   4410   4439     1   110.1100470 384.091200
   4417   4420   4421     1   109.8000471 387.438400
   4417   4420   4422     1   109.8000471 387.438400
   4418   4417   4420     1   110.5600475 386.601600
   4418   4417   4419     1   109.7500473 328.025600
   4419   4417   4420     1   110.5600475 386.601600
   4420   4429   4430     1   109.5600471 388.275200
   4420   4429   4431     1   109.5600471 388.275200
   4421   4420   4429     1   109.8000471 387.438400
   4421   4420   4422     1   107.5800459 329.699200
   4422   4420   4429     1   109.8000471 387.438400
   4423   4435   4436     1   109.5600471 388.275200
   4423   4435   4437     1   109.5600471 388.275200
   4424   4423   4435     1   109.8000471 387.438400
   4424   4423   4425     1   107.5800459 329.699200
   4425   4423   4435     1   109.8000471 387.438400
   4426   4432   4433     1   109.5600471 388.275200
   4426   4432   4434     1   109.5600471 388.275200
   4427   4426   4432     1   109.8000471 387.438400
   4427   4426   4428     1   107.5800459 329.699200
   4428   4426   4432     1   109.8000471 387.438400
   4430   4429   4438     1   109.7800468 425.094400
   4430   4429   4431     1   108.4600466 328.025600
   4431   4429   4438     1   109.7800468 425.094400
   4433   4432   8908     1   109.7800468 425.094400
   4433   4432   4434     1   108.4600466 328.025600
   4434   4432   8908     1   109.7800468 425.094400
   4436   4435   8938     1   109.7800468 425.094400
   4436   4435   4437     1   108.4600466 328.025600
   4437   4435   8938     1   109.7800468 425.094400
   4440   4441   4442     1   108.0100461 406.684800
   4440   4441   4443     1   108.0100461 406.684800
   4440   4444   4445     1   108.0100461 406.684800
   4440   4444   4446     1   108.0100461 406.684800
   4440   4447   4448     1   108.0100461 406.684800
   4440   4447   4449     1   108.0100461 406.684800
   4441   4440   4469     1   110.1100470 384.091200
   4441   4453   4454     1   109.8000471 387.438400
   4441   4453   4455     1   109.8000471 387.438400
   4442   4441   4453     1   110.5600475 386.601600
   4442   4441   4443     1   109.7500473 328.025600
   4443   4441   4453     1   110.5600475 386.601600
   4444   4440   4469     1   110.1100470 384.091200
   4444   4456   4457     1   109.8000471 387.438400
   4444   4456   4458     1   109.8000471 387.438400
   4445   4444   4456     1   110.5600475 386.601600
   4445   4444   4446     1   109.7500473 328.025600
   4446   4444   4456     1   110.5600475 386.601600
   4447   4440   4469     1   110.1100470 384.091200
   4447   4450   4451     1   109.8000471 387.438400
   4447   4450   4452     1   109.8000471 387.438400
   4448   4447   4450     1   110.5600475 386.601600
   4448   4447   4449     1   109.7500473 328.025600
   4449   4447   4450     1   110.5600475 386.601600
   4450   4459   4460     1   109.5600471 388.275200
   4450   4459   4461     1   109.5600471 388.275200
   4451   4450   4459     1   109.8000471 387.438400
   4451   4450   4452     1   107.5800459 329.699200
   4452   4450   4459     1   109.8000471 387.438400
   4453   4465   4466     1   109.5600471 388.275200
   4453   4465   4467     1   109.5600471 388.275200
   4454   4453   4465     1   109.8000471 387.438400
   4454   4453   4455     1   107.5800459 329.699200
   4455   4453   4465     1   109.8000471 387.438400
   4456   4462   4463     1   109.5600471 388.275200
   4456   4462   4464     1   109.5600471 388.275200
   4457   4456   4462     1   109.8000471 387.438400
   4457   4456   4458     1   107.5800459 329.699200
   4458   4456   4462     1   109.8000471 387.438400
   4460   4459   4468     1   109.7800468 425.094400
   4460   4459   4461     1   108.4600466 328.025600
   4461   4459   4468     1   109.7800468 425.094400
   4463   4462   8968     1   109.7800468 425.094400
   4463   4462   4464     1   108.4600466 328.025600
   4464   4462   8968     1   109.7800468 425.094400
   4466   4465   8998     1   109.7800468 425.094400
   4466   4465   4467     1   108.4600466 328.025600
   4467   4465   8998     1   109.7800468 425.094400
   4470   4471   4472     1   108.0100461 406.684800
   4470   4471   4473     1   108.0100461 406.684800
   4470   4474   4475     1   108.0100461 406.684800
   4470   4474   4476     1   108.0100461 406.684800
   4470   4477   4478     1   108.0100461 406.684800
   4470   4477   4479     1   108.0100461 406.684800
   4471   4470   4499     1   110.1100470 384.091200
   4471   4483   4484     1   109.8000471 387.438400
   4471   4483   4485     1   109.8000471 387.438400
   4472   4471   4483     1   110.5600475 386.601600
   4472   4471   4473     1   109.7500473 328.025600
   4473   4471   4483     1   110.5600475 386.601600
   4474   4470   4499     1   110.1100470 384.091200
   4474   4486   4487     1   109.8000471 387.438400
   4474   4486   4488     1   109.8000471 387.438400
   4475   4474   4486     1   110.5600475 386.601600
   4475   4474   4476     1   109.7500473 328.025600
   4476   4474   4486     1   110.5600475 386.601600
   4477   4470   4499     1   110.1100470 384.091200
   4477   4480   4481     1   109.8000471 387.438400
   4477   4480   4482     1   109.8000471 387.438400
   4478   4477   4480     1   110.5600475 386.601600
   4478   4477   4479     1   109.7500473 328.025600
   4479   4477   4480     1   110.5600475 386.601600
   4480   4489   4490     1   109.5600471 388.275200
   4480   4489   4491     1   109.5600471 388.275200
   4481   4480   4489     1   109.8000471 387.438400
   4481   4480   4482     1   107.5800459 329.699200
   4482   4480   4489     1   109.8000471 387.438400
   4483   4495   4496     1   109.5600471 388.275200
   4483   4495   4497     1   109.5600471 388.275200
   4484   4483   4495     1   109.8000471 387.438400
   4484   4483   4485     1   107.5800459 329.699200
   4485   4483   4495     1   109.8000471 387.438400
   4486   4492   4493     1   109.5600471 388.275200
   4486   4492   4494     1   109.5600471 388.275200
   4487   4486   4492     1   109.8000471 387.438400
   4487   4486   4488     1   107.5800459 329.699200
   4488   4486   4492     1   109.8000471 387.438400
   4490   4489   4498     1   109.7800468 425.094400
   4490   4489   4491     1   108.4600466 328.025600
   4491   4489   4498     1   109.7800468 425.094400
   4493   4492   9028     1   109.7800468 425.094400
   4493   4492   4494     1   108.4600466 328.025600
   4494   4492   9028     1   109.7800468 425.094400
   4496   4495   9058     1   109.7800468 425.094400
   4496   4495   4497     1   108.4600466 328.025600
   4497   4495   9058     1   109.7800468 425.094400
   4500   4501   4502     1   108.0100461 406.684800
   4500   4501   4503     1   108.0100461 406.684800
   4500   4504   4505     1   108.0100461 406.684800
   4500   4504   4506     1   108.0100461 406.684800
   4500   4507   4508     1   108.0100461 406.684800
   4500   4507   4509     1   108.0100461 406.684800
   4501   4500   4529     1   110.1100470 384.091200
   4501   4513   4514     1   109.8000471 387.438400
   4501   4513   4515     1   109.8000471 387.438400
   4502   4501   4513     1   110.5600475 386.601600
   4502   4501   4503     1   109.7500473 328.025600
   4503   4501   4513     1   110.5600475 386.601600
   4504   4500   4529     1   110.1100470 384.091200
   4504   4516   4517     1   109.8000471 387.438400
   4504   4516   4518     1   109.8000471 387.438400
   4505   4504   4516     1   110.5600475 386.601600
   4505   4504   4506     1   109.7500473 328.025600
   4506   4504   4516     1   110.5600475 386.601600
   4507   4500   4529     1   110.1100470 384.091200
   4507   4510   4511     1   109.8000471 387.438400
   4507   4510   4512     1   109.8000471 387.438400
   4508   4507   4510     1   110.5600475 386.601600
   4508   4507   4509     1   109.7500473 328.025600
   4509   4507   4510     1   110.5600475 386.601600
   4510   4519   4520     1   109.5600471 388.275200
   4510   4519   4521     1   109.5600471 388.275200
   4511   4510   4519     1   109.8000471 387.438400
   4511   4510   4512     1   107.5800459 329.699200
   4512   4510   4519     1   109.8000471 387.438400
   4513   4525   4526     1   109.5600471 388.275200
   4513   4525   4527     1   109.5600471 388.275200
   4514   4513   4525     1   109.8000471 387.438400
   4514   4513   4515     1   107.5800459 329.699200
   4515   4513   4525     1   109.8000471 387.438400
   4516   4522   4523     1   109.5600471 388.275200
   4516   4522   4524     1   109.5600471 388.275200
   4517   4516   4522     1   109.8000471 387.438400
   4517   4516   4518     1   107.5800459 329.699200
   4518   4516   4522     1   109.8000471 387.438400
   4520   4519   4528     1   109.7800468 425.094400
   4520   4519   4521     1   108.4600466 328.025600
   4521   4519   4528     1   109.7800468 425.094400
   4523   4522   9088     1   109.7800468 425.094400
   4523   4522   4524     1   108.4600466 328.025600
   4524   4522   9088     1   109.7800468 425.094400
   4526   4525   9118     1   109.7800468 425.094400
   4526   4525   4527     1   108.4600466 328.025600
   4527   4525   9118     1   109.7800468 425.094400
   4530   4531   4532     1   108.0100461 406.684800
   4530   4531   4533     1   108.0100461 406.684800
   4530   4534   4535     1   108.0100461 406.684800
   4530   4534   4536     1   108.0100461 406.684800
   4530   4537   4538     1   108.0100461 406.684800
   4530   4537   4539     1   108.0100461 406.684800
   4531   4530   4559     1   110.1100470 384.091200
   4531   4543   4544     1   109.8000471 387.438400
   4531   4543   4545     1   109.8000471 387.438400
   4532   4531   4543     1   110.5600475 386.601600
   4532   4531   4533     1   109.7500473 328.025600
   4533   4531   4543     1   110.5600475 386.601600
   4534   4530   4559     1   110.1100470 384.091200
   4534   4546   4547     1   109.8000471 387.438400
   4534   4546   4548     1   109.8000471 387.438400
   4535   4534   4546     1   110.5600475 386.601600
   4535   4534   4536     1   109.7500473 328.025600
   4536   4534   4546     1   110.5600475 386.601600
   4537   4530   4559     1   110.1100470 384.091200
   4537   4540   4541     1   109.8000471 387.438400
   4537   4540   4542     1   109.8000471 387.438400
   4538   4537   4540     1   110.5600475 386.601600
   4538   4537   4539     1   109.7500473 328.025600
   4539   4537   4540     1   110.5600475 386.601600
   4540   4549   4550     1   109.5600471 388.275200
   4540   4549   4551     1   109.5600471 388.275200
   4541   4540   4549     1   109.8000471 387.438400
   4541   4540   4542     1   107.5800459 329.699200
   4542   4540   4549     1   109.8000471 387.438400
   4543   4555   4556     1   109.5600471 388.275200
   4543   4555   4557     1   109.5600471 388.275200
   4544   4543   4555     1   109.8000471 387.438400
   4544   4543   4545     1   107.5800459 329.699200
   4545   4543   4555     1   109.8000471 387.438400
   4546   4552   4553     1   109.5600471 388.275200
   4546   4552   4554     1   109.5600471 388.275200
   4547   4546   4552     1   109.8000471 387.438400
   4547   4546   4548     1   107.5800459 329.699200
   4548   4546   4552     1   109.8000471 387.438400
   4550   4549   4558     1   109.7800468 425.094400
   4550   4549   4551     1   108.4600466 328.025600
   4551   4549   4558     1   109.7800468 425.094400
   4553   4552   9148     1   109.7800468 425.094400
   4553   4552   4554     1   108.4600466 328.025600
   4554   4552   9148     1   109.7800468 425.094400
   4556   4555   9178     1   109.7800468 425.094400
   4556   4555   4557     1   108.4600466 328.025600
   4557   4555   9178     1   109.7800468 425.094400
   4560   4561   4562     1   108.0100461 406.684800
   4560   4561   4563     1   108.0100461 406.684800
   4560   4564   4565     1   108.0100461 406.684800
   4560   4564   4566     1   108.0100461 406.684800
   4560   4567   4568     1   108.0100461 406.684800
   4560   4567   4569     1   108.0100461 406.684800
   4561   4560   4589     1   110.1100470 384.091200
   4561   4573   4574     1   109.8000471 387.438400
   4561   4573   4575     1   109.8000471 387.438400
   4562   4561   4573     1   110.5600475 386.601600
   4562   4561   4563     1   109.7500473 328.025600
   4563   4561   4573     1   110.5600475 386.601600
   4564   4560   4589     1   110.1100470 384.091200
   4564   4576   4577     1   109.8000471 387.438400
   4564   4576   4578     1   109.8000471 387.438400
   4565   4564   4576     1   110.5600475 386.601600
   4565   4564   4566     1   109.7500473 328.025600
   4566   4564   4576     1   110.5600475 386.601600
   4567   4560   4589     1   110.1100470 384.091200
   4567   4570   4571     1   109.8000471 387.438400
   4567   4570   4572     1   109.8000471 387.438400
   4568   4567   4570     1   110.5600475 386.601600
   4568   4567   4569     1   109.7500473 328.025600
   4569   4567   4570     1   110.5600475 386.601600
   4570   4579   4580     1   109.5600471 388.275200
   4570   4579   4581     1   109.5600471 388.275200
   4571   4570   4579     1   109.8000471 387.438400
   4571   4570   4572     1   107.5800459 329.699200
   4572   4570   4579     1   109.8000471 387.438400
   4573   4585   4586     1   109.5600471 388.275200
   4573   4585   4587     1   109.5600471 388.275200
   4574   4573   4585     1   109.8000471 387.438400
   4574   4573   4575     1   107.5800459 329.699200
   4575   4573   4585     1   109.8000471 387.438400
   4576   4582   4583     1   109.5600471 388.275200
   4576   4582   4584     1   109.5600471 388.275200
   4577   4576   4582     1   109.8000471 387.438400
   4577   4576   4578     1   107.5800459 329.699200
   4578   4576   4582     1   109.8000471 387.438400
   4580   4579   4588     1   109.7800468 425.094400
   4580   4579   4581     1   108.4600466 328.025600
   4581   4579   4588     1   109.7800468 425.094400
   4583   4582   9208     1   109.7800468 425.094400
   4583   4582   4584     1   108.4600466 328.025600
   4584   4582   9208     1   109.7800468 425.094400
   4586   4585   9238     1   109.7800468 425.094400
   4586   4585   4587     1   108.4600466 328.025600
   4587   4585   9238     1   109.7800468 425.094400
   4590   4591   4592     1   108.0100461 406.684800
   4590   4591   4593     1   108.0100461 406.684800
   4590   4594   4595     1   108.0100461 406.684800
   4590   4594   4596     1   108.0100461 406.684800
   4590   4597   4598     1   108.0100461 406.684800
   4590   4597   4599     1   108.0100461 406.684800
   4591   4590   4619     1   110.1100470 384.091200
   4591   4603   4604     1   109.8000471 387.438400
   4591   4603   4605     1   109.8000471 387.438400
   4592   4591   4603     1   110.5600475 386.601600
   4592   4591   4593     1   109.7500473 328.025600
   4593   4591   4603     1   110.5600475 386.601600
   4594   4590   4619     1   110.1100470 384.091200
   4594   4606   4607     1   109.8000471 387.438400
   4594   4606   4608     1   109.8000471 387.438400
   4595   4594   4606     1   110.5600475 386.601600
   4595   4594   4596     1   109.7500473 328.025600
   4596   4594   4606     1   110.5600475 386.601600
   4597   4590   4619     1   110.1100470 384.091200
   4597   4600   4601     1   109.8000471 387.438400
   4597   4600   4602     1   109.8000471 387.438400
   4598   4597   4600     1   110.5600475 386.601600
   4598   4597   4599     1   109.7500473 328.025600
   4599   4597   4600     1   110.5600475 386.601600
   4600   4609   4610     1   109.5600471 388.275200
   4600   4609   4611     1   109.5600471 388.275200
   4601   4600   4609     1   109.8000471 387.438400
   4601   4600   4602     1   107.5800459 329.699200
   4602   4600   4609     1   109.8000471 387.438400
   4603   4615   4616     1   109.5600471 388.275200
   4603   4615   4617     1   109.5600471 388.275200
   4604   4603   4615     1   109.8000471 387.438400
   4604   4603   4605     1   107.5800459 329.699200
   4605   4603   4615     1   109.8000471 387.438400
   4606   4612   4613     1   109.5600471 388.275200
   4606   4612   4614     1   109.5600471 388.275200
   4607   4606   4612     1   109.8000471 387.438400
   4607   4606   4608     1   107.5800459 329.699200
   4608   4606   4612     1   109.8000471 387.438400
   4610   4609   4618     1   109.7800468 425.094400
   4610   4609   4611     1   108.4600466 328.025600
   4611   4609   4618     1   109.7800468 425.094400
   4613   4612   9268     1   109.7800468 425.094400
   4613   4612   4614     1   108.4600466 328.025600
   4614   4612   9268     1   109.7800468 425.094400
   4616   4615   9298     1   109.7800468 425.094400
   4616   4615   4617     1   108.4600466 328.025600
   4617   4615   9298     1   109.7800468 425.094400
   4620   4621   4622     1   108.0100461 406.684800
   4620   4621   4623     1   108.0100461 406.684800
   4620   4624   4625     1   108.0100461 406.684800
   4620   4624   4626     1   108.0100461 406.684800
   4620   4627   4628     1   108.0100461 406.684800
   4620   4627   4629     1   108.0100461 406.684800
   4621   4620   4649     1   110.1100470 384.091200
   4621   4633   4634     1   109.8000471 387.438400
   4621   4633   4635     1   109.8000471 387.438400
   4622   4621   4633     1   110.5600475 386.601600
   4622   4621   4623     1   109.7500473 328.025600
   4623   4621   4633     1   110.5600475 386.601600
   4624   4620   4649     1   110.1100470 384.091200
   4624   4636   4637     1   109.8000471 387.438400
   4624   4636   4638     1   109.8000471 387.438400
   4625   4624   4636     1   110.5600475 386.601600
   4625   4624   4626     1   109.7500473 328.025600
   4626   4624   4636     1   110.5600475 386.601600
   4627   4620   4649     1   110.1100470 384.091200
   4627   4630   4631     1   109.8000471 387.438400
   4627   4630   4632     1   109.8000471 387.438400
   4628   4627   4630     1   110.5600475 386.601600
   4628   4627   4629     1   109.7500473 328.025600
   4629   4627   4630     1   110.5600475 386.601600
   4630   4639   4640     1   109.5600471 388.275200
   4630   4639   4641     1   109.5600471 388.275200
   4631   4630   4639     1   109.8000471 387.438400
   4631   4630   4632     1   107.5800459 329.699200
   4632   4630   4639     1   109.8000471 387.438400
   4633   4645   4646     1   109.5600471 388.275200
   4633   4645   4647     1   109.5600471 388.275200
   4634   4633   4645     1   109.8000471 387.438400
   4634   4633   4635     1   107.5800459 329.699200
   4635   4633   4645     1   109.8000471 387.438400
   4636   4642   4643     1   109.5600471 388.275200
   4636   4642   4644     1   109.5600471 388.275200
   4637   4636   4642     1   109.8000471 387.438400
   4637   4636   4638     1   107.5800459 329.699200
   4638   4636   4642     1   109.8000471 387.438400
   4640   4639   4648     1   109.7800468 425.094400
   4640   4639   4641     1   108.4600466 328.025600
   4641   4639   4648     1   109.7800468 425.094400
   4643   4642   9328     1   109.7800468 425.094400
   4643   4642   4644     1   108.4600466 328.025600
   4644   4642   9328     1   109.7800468 425.094400
   4646   4645   9358     1   109.7800468 425.094400
   4646   4645   4647     1   108.4600466 328.025600
   4647   4645   9358     1   109.7800468 425.094400
   4650   4651   4652     1   108.0100461 406.684800
   4650   4651   4653     1   108.0100461 406.684800
   4650   4654   4655     1   108.0100461 406.684800
   4650   4654   4656     1   108.0100461 406.684800
   4650   4657   4658     1   108.0100461 406.684800
   4650   4657   4659     1   108.0100461 406.684800
   4651   4650   4679     1   110.1100470 384.091200
   4651   4663   4664     1   109.8000471 387.438400
   4651   4663   4665     1   109.8000471 387.438400
   4652   4651   4663     1   110.5600475 386.601600
   4652   4651   4653     1   109.7500473 328.025600
   4653   4651   4663     1   110.5600475 386.601600
   4654   4650   4679     1   110.1100470 384.091200
   4654   4666   4667     1   109.8000471 387.438400
   4654   4666   4668     1   109.8000471 387.438400
   4655   4654   4666     1   110.5600475 386.601600
   4655   4654   4656     1   109.7500473 328.025600
   4656   4654   4666     1   110.5600475 386.601600
   4657   4650   4679     1   110.1100470 384.091200
   4657   4660   4661     1   109.8000471 387.438400
   4657   4660   4662     1   109.8000471 387.438400
   4658   4657   4660     1   110.5600475 386.601600
   4658   4657   4659     1   109.7500473 328.025600
   4659   4657   4660     1   110.5600475 386.601600
   4660   4669   4670     1   109.5600471 388.275200
   4660   4669   4671     1   109.5600471 388.275200
   4661   4660   4669     1   109.8000471 387.438400
   4661   4660   4662     1   107.5800459 329.699200
   4662   4660   4669     1   109.8000471 387.438400
   4663   4675   4676     1   109.5600471 388.275200
   4663   4675   4677     1   109.5600471 388.275200
   4664   4663   4675     1   109.8000471 387.438400
   4664   4663   4665     1   107.5800459 329.699200
   4665   4663   4675     1   109.8000471 387.438400
   4666   4672   4673     1   109.5600471 388.275200
   4666   4672   4674     1   109.5600471 388.275200
   4667   4666   4672     1   109.8000471 387.438400
   4667   4666   4668     1   107.5800459 329.699200
   4668   4666   4672     1   109.8000471 387.438400
   4670   4669   4678     1   109.7800468 425.094400
   4670   4669   4671     1   108.4600466 328.025600
   4671   4669   4678     1   109.7800468 425.094400
   4673   4672   9388     1   109.7800468 425.094400
   4673   4672   4674     1   108.4600466 328.025600
   4674   4672   9388     1   109.7800468 425.094400
   4676   4675   9418     1   109.7800468 425.094400
   4676   4675   4677     1   108.4600466 328.025600
   4677   4675   9418     1   109.7800468 425.094400
   4680   4681   4682     1   108.0100461 406.684800
   4680   4681   4683     1   108.0100461 406.684800
   4680   4684   4685     1   108.0100461 406.684800
   4680   4684   4686     1   108.0100461 406.684800
   4680   4687   4688     1   108.0100461 406.684800
   4680   4687   4689     1   108.0100461 406.684800
   4681   4680   4709     1   110.1100470 384.091200
   4681   4693   4694     1   109.8000471 387.438400
   4681   4693   4695     1   109.8000471 387.438400
   4682   4681   4693     1   110.5600475 386.601600
   4682   4681   4683     1   109.7500473 328.025600
   4683   4681   4693     1   110.5600475 386.601600
   4684   4680   4709     1   110.1100470 384.091200
   4684   4696   4697     1   109.8000471 387.438400
   4684   4696   4698     1   109.8000471 387.438400
   4685   4684   4696     1   110.5600475 386.601600
   4685   4684   4686     1   109.7500473 328.025600
   4686   4684   4696     1   110.5600475 386.601600
   4687   4680   4709     1   110.1100470 384.091200
   4687   4690   4691     1   109.8000471 387.438400
   4687   4690   4692     1   109.8000471 387.438400
   4688   4687   4690     1   110.5600475 386.601600
   4688   4687   4689     1   109.7500473 328.025600
   4689   4687   4690     1   110.5600475 386.601600
   4690   4699   4700     1   109.5600471 388.275200
   4690   4699   4701     1   109.5600471 388.275200
   4691   4690   4699     1   109.8000471 387.438400
   4691   4690   4692     1   107.5800459 329.699200
   4692   4690   4699     1   109.8000471 387.438400
   4693   4705   4706     1   109.5600471 388.275200
   4693   4705   4707     1   109.5600471 388.275200
   4694   4693   4705     1   109.8000471 387.438400
   4694   4693   4695     1   107.5800459 329.699200
   4695   4693   4705     1   109.8000471 387.438400
   4696   4702   4703     1   109.5600471 388.275200
   4696   4702   4704     1   109.5600471 388.275200
   4697   4696   4702     1   109.8000471 387.438400
   4697   4696   4698     1   107.5800459 329.699200
   4698   4696   4702     1   109.8000471 387.438400
   4700   4699   4708     1   109.7800468 425.094400
   4700   4699   4701     1   108.4600466 328.025600
   4701   4699   4708     1   109.7800468 425.094400
   4703   4702   9448     1   109.7800468 425.094400
   4703   4702   4704     1   108.4600466 328.025600
   4704   4702   9448     1   109.7800468 425.094400
   4706   4705   9478     1   109.7800468 425.094400
   4706   4705   4707     1   108.4600466 328.025600
   4707   4705   9478     1   109.7800468 425.094400
   4710   4711   4712     1   108.0100461 406.684800
   4710   4711   4713     1   108.0100461 406.684800
   4710   4714   4715     1   108.0100461 406.684800
   4710   4714   4716     1   108.0100461 406.684800
   4710   4717   4718     1   108.0100461 406.684800
   4710   4717   4719     1   108.0100461 406.684800
   4711   4710   4739     1   110.1100470 384.091200
   4711   4723   4724     1   109.8000471 387.438400
   4711   4723   4725     1   109.8000471 387.438400
   4712   4711   4723     1   110.5600475 386.601600
   4712   4711   4713     1   109.7500473 328.025600
   4713   4711   4723     1   110.5600475 386.601600
   4714   4710   4739     1   110.1100470 384.091200
   4714   4726   4727     1   109.8000471 387.438400
   4714   4726   4728     1   109.8000471 387.438400
   4715   4714   4726     1   110.5600475 386.601600
   4715   4714   4716     1   109.7500473 328.025600
   4716   4714   4726     1   110.5600475 386.601600
   4717   4710   4739     1   110.1100470 384.091200
   4717   4720   4721     1   109.8000471 387.438400
   4717   4720   4722     1   109.8000471 387.438400
   4718   4717   4720     1   110.5600475 386.601600
   4718   4717   4719     1   109.7500473 328.025600
   4719   4717   4720     1   110.5600475 386.601600
   4720   4729   4730     1   109.5600471 388.275200
   4720   4729   4731     1   109.5600471 388.275200
   4721   4720   4729     1   109.8000471 387.438400
   4721   4720   4722     1   107.5800459 329.699200
   4722   4720   4729     1   109.8000471 387.438400
   4723   4735   4736     1   109.5600471 388.275200
   4723   4735   4737     1   109.5600471 388.275200
   4724   4723   4735     1   109.8000471 387.438400
   4724   4723   4725     1   107.5800459 329.699200
   4725   4723   4735     1   109.8000471 387.438400
   4726   4732   4733     1   109.5600471 388.275200
   4726   4732   4734     1   109.5600471 388.275200
   4727   4726   4732     1   109.8000471 387.438400
   4727   4726   4728     1   107.5800459 329.699200
   4728   4726   4732     1   109.8000471 387.438400
   4730   4729   4738     1   109.7800468 425.094400
   4730   4729   4731     1   108.4600466 328.025600
   4731   4729   4738     1   109.7800468 425.094400
   4733   4732   9508     1   109.7800468 425.094400
   4733   4732   4734     1   108.4600466 328.025600
   4734   4732   9508     1   109.7800468 425.094400
   4736   4735   9538     1   109.7800468 425.094400
   4736   4735   4737     1   108.4600466 328.025600
   4737   4735   9538     1   109.7800468 425.094400
   4740   4741   4742     1   108.0100461 406.684800
   4740   4741   4743     1   108.0100461 406.684800
   4740   4744   4745     1   108.0100461 406.684800
   4740   4744   4746     1   108.0100461 406.684800
   4740   4747   4748     1   108.0100461 406.684800
   4740   4747   4749     1   108.0100461 406.684800
   4741   4740   4769     1   110.1100470 384.091200
   4741   4753   4754     1   109.8000471 387.438400
   4741   4753   4755     1   109.8000471 387.438400
   4742   4741   4753     1   110.5600475 386.601600
   4742   4741   4743     1   109.7500473 328.025600
   4743   4741   4753     1   110.5600475 386.601600
   4744   4740   4769     1   110.1100470 384.091200
   4744   4756   4757     1   109.8000471 387.438400
   4744   4756   4758     1   109.8000471 387.438400
   4745   4744   4756     1   110.5600475 386.601600
   4745   4744   4746     1   109.7500473 328.025600
   4746   4744   4756     1   110.5600475 386.601600
   4747   4740   4769     1   110.1100470 384.091200
   4747   4750   4751     1   109.8000471 387.438400
   4747   4750   4752     1   109.8000471 387.438400
   4748   4747   4750     1   110.5600475 386.601600
   4748   4747   4749     1   109.7500473 328.025600
   4749   4747   4750     1   110.5600475 386.601600
   4750   4759   4760     1   109.5600471 388.275200
   4750   4759   4761     1   109.5600471 388.275200
   4751   4750   4759     1   109.8000471 387.438400
   4751   4750   4752     1   107.5800459 329.699200
   4752   4750   4759     1   109.8000471 387.438400
   4753   4765   4766     1   109.5600471 388.275200
   4753   4765   4767     1   109.5600471 388.275200
   4754   4753   4765     1   109.8000471 387.438400
   4754   4753   4755     1   107.5800459 329.699200
   4755   4753   4765     1   109.8000471 387.438400
   4756   4762   4763     1   109.5600471 388.275200
   4756   4762   4764     1   109.5600471 388.275200
   4757   4756   4762     1   109.8000471 387.438400
   4757   4756   4758     1   107.5800459 329.699200
   4758   4756   4762     1   109.8000471 387.438400
   4760   4759   4768     1   109.7800468 425.094400
   4760   4759   4761     1   108.4600466 328.025600
   4761   4759   4768     1   109.7800468 425.094400
   4763   4762   9568     1   109.7800468 425.094400
   4763   4762   4764     1   108.4600466 328.025600
   4764   4762   9568     1   109.7800468 425.094400
   4766   4765   9598     1   109.7800468 425.094400
   4766   4765   4767     1   108.4600466 328.025600
   4767   4765   9598     1   109.7800468 425.094400
   4770   4771   4772     1   108.0100461 406.684800
   4770   4771   4773     1   108.0100461 406.684800
   4770   4774   4775     1   108.0100461 406.684800
   4770   4774   4776     1   108.0100461 406.684800
   4770   4777   4778     1   108.0100461 406.684800
   4770   4777   4779     1   108.0100461 406.684800
   4771   4770   4799     1   110.1100470 384.091200
   4771   4783   4784     1   109.8000471 387.438400
   4771   4783   4785     1   109.8000471 387.438400
   4772   4771   4783     1   110.5600475 386.601600
   4772   4771   4773     1   109.7500473 328.025600
   4773   4771   4783     1   110.5600475 386.601600
   4774   4770   4799     1   110.1100470 384.091200
   4774   4786   4787     1   109.8000471 387.438400
   4774   4786   4788     1   109.8000471 387.438400
   4775   4774   4786     1   110.5600475 386.601600
   4775   4774   4776     1   109.7500473 328.025600
   4776   4774   4786     1   110.5600475 386.601600
   4777   4770   4799     1   110.1100470 384.091200
   4777   4780   4781     1   109.8000471 387.438400
   4777   4780   4782     1   109.8000471 387.438400
   4778   4777   4780     1   110.5600475 386.601600
   4778   4777   4779     1   109.7500473 328.025600
   4779   4777   4780     1   110.5600475 386.601600
   4780   4789   4790     1   109.5600471 388.275200
   4780   4789   4791     1   109.5600471 388.275200
   4781   4780   4789     1   109.8000471 387.438400
   4781   4780   4782     1   107.5800459 329.699200
   4782   4780   4789     1   109.8000471 387.438400
   4783   4795   4796     1   109.5600471 388.275200
   4783   4795   4797     1   109.5600471 388.275200
   4784   4783   4795     1   109.8000471 387.438400
   4784   4783   4785     1   107.5800459 329.699200
   4785   4783   4795     1   109.8000471 387.438400
   4786   4792   4793     1   109.5600471 388.275200
   4786   4792   4794     1   109.5600471 388.275200
   4787   4786   4792     1   109.8000471 387.438400
   4787   4786   4788     1   107.5800459 329.699200
   4788   4786   4792     1   109.8000471 387.438400
   4790   4789   4798     1   109.7800468 425.094400
   4790   4789   4791     1   108.4600466 328.025600
   4791   4789   4798     1   109.7800468 425.094400
   4793   4792   9628     1   109.7800468 425.094400
   4793   4792   4794     1   108.4600466 328.025600
   4794   4792   9628     1   109.7800468 425.094400
   4796   4795   9658     1   109.7800468 425.094400
   4796   4795   4797     1   108.4600466 328.025600
   4797   4795   9658     1   109.7800468 425.094400
   4800   4801   4802     1   108.0100461 406.684800
   4800   4801   4803     1   108.0100461 406.684800
   4800   4804   4805     1   108.0100461 406.684800
   4800   4804   4806     1   108.0100461 406.684800
   4800   4807   4808     1   108.0100461 406.684800
   4800   4807   4809     1   108.0100461 406.684800
   4801   4800   4829     1   110.1100470 384.091200
   4801   4813   4814     1   109.8000471 387.438400
   4801   4813   4815     1   109.8000471 387.438400
   4802   4801   4813     1   110.5600475 386.601600
   4802   4801   4803     1   109.7500473 328.025600
   4803   4801   4813     1   110.5600475 386.601600
   4804   4800   4829     1   110.1100470 384.091200
   4804   4816   4817     1   109.8000471 387.438400
   4804   4816   4818     1   109.8000471 387.438400
   4805   4804   4816     1   110.5600475 386.601600
   4805   4804   4806     1   109.7500473 328.025600
   4806   4804   4816     1   110.5600475 386.601600
   4807   4800   4829     1   110.1100470 384.091200
   4807   4810   4811     1   109.8000471 387.438400
   4807   4810   4812     1   109.8000471 387.438400
   4808   4807   4810     1   110.5600475 386.601600
   4808   4807   4809     1   109.7500473 328.025600
   4809   4807   4810     1   110.5600475 386.601600
   4810   4819   4820     1   109.5600471 388.275200
   4810   4819   4821     1   109.5600471 388.275200
   4811   4810   4819     1   109.8000471 387.438400
   4811   4810   4812     1   107.5800459 329.699200
   4812   4810   4819     1   109.8000471 387.438400
   4813   4825   4826     1   109.5600471 388.275200
   4813   4825   4827     1   109.5600471 388.275200
   4814   4813   4825     1   109.8000471 387.438400
   4814   4813   4815     1   107.5800459 329.699200
   4815   4813   4825     1   109.8000471 387.438400
   4816   4822   4823     1   109.5600471 388.275200
   4816   4822   4824     1   109.5600471 388.275200
   4817   4816   4822     1   109.8000471 387.438400
   4817   4816   4818     1   107.5800459 329.699200
   4818   4816   4822     1   109.8000471 387.438400
   4820   4819   4828     1   109.7800468 425.094400
   4820   4819   4821     1   108.4600466 328.025600
   4821   4819   4828     1   109.7800468 425.094400
   4823   4822   9688     1   109.7800468 425.094400
   4823   4822   4824     1   108.4600466 328.025600
   4824   4822   9688     1   109.7800468 425.094400
   4826   4825   9718     1   109.7800468 425.094400
   4826   4825   4827     1   108.4600466 328.025600
   4827   4825   9718     1   109.7800468 425.094400
   4830   4831   4832     1   108.0100461 406.684800
   4830   4831   4833     1   108.0100461 406.684800
   4830   4834   4835     1   108.0100461 406.684800
   4830   4834   4836     1   108.0100461 406.684800
   4830   4837   4838     1   108.0100461 406.684800
   4830   4837   4839     1   108.0100461 406.684800
   4831   4830   4859     1   110.1100470 384.091200
   4831   4843   4844     1   109.8000471 387.438400
   4831   4843   4845     1   109.8000471 387.438400
   4832   4831   4843     1   110.5600475 386.601600
   4832   4831   4833     1   109.7500473 328.025600
   4833   4831   4843     1   110.5600475 386.601600
   4834   4830   4859     1   110.1100470 384.091200
   4834   4846   4847     1   109.8000471 387.438400
   4834   4846   4848     1   109.8000471 387.438400
   4835   4834   4846     1   110.5600475 386.601600
   4835   4834   4836     1   109.7500473 328.025600
   4836   4834   4846     1   110.5600475 386.601600
   4837   4830   4859     1   110.1100470 384.091200
   4837   4840   4841     1   109.8000471 387.438400
   4837   4840   4842     1   109.8000471 387.438400
   4838   4837   4840     1   110.5600475 386.601600
   4838   4837   4839     1   109.7500473 328.025600
   4839   4837   4840     1   110.5600475 386.601600
   4840   4849   4850     1   109.5600471 388.275200
   4840   4849   4851     1   109.5600471 388.275200
   4841   4840   4849     1   109.8000471 387.438400
   4841   4840   4842     1   107.5800459 329.699200
   4842   4840   4849     1   109.8000471 387.438400
   4843   4855   4856     1   109.5600471 388.275200
   4843   4855   4857     1   109.5600471 388.275200
   4844   4843   4855     1   109.8000471 387.438400
   4844   4843   4845     1   107.5800459 329.699200
   4845   4843   4855     1   109.8000471 387.438400
   4846   4852   4853     1   109.5600471 388.275200
   4846   4852   4854     1   109.5600471 388.275200
   4847   4846   4852     1   109.8000471 387.438400
   4847   4846   4848     1   107.5800459 329.699200
   4848   4846   4852     1   109.8000471 387.438400
   4850   4849   4858     1   109.7800468 425.094400
   4850   4849   4851     1   108.4600466 328.025600
   4851   4849   4858     1   109.7800468 425.094400
   4853   4852   9748     1   109.7800468 425.094400
   4853   4852   4854     1   108.4600466 328.025600
   4854   4852   9748     1   109.7800468 425.094400
   4856   4855   9778     1   109.7800468 425.094400
   4856   4855   4857     1   108.4600466 328.025600
   4857   4855   9778     1   109.7800468 425.094400
   4860   4861   4862     1   108.0100461 406.684800
   4860   4861   4863     1   108.0100461 406.684800
   4860   4864   4865     1   108.0100461 406.684800
   4860   4864   4866     1   108.0100461 406.684800
   4860   4867   4868     1   108.0100461 406.684800
   4860   4867   4869     1   108.0100461 406.684800
   4861   4860   4889     1   110.1100470 384.091200
   4861   4873   4874     1   109.8000471 387.438400
   4861   4873   4875     1   109.8000471 387.438400
   4862   4861   4873     1   110.5600475 386.601600
   4862   4861   4863     1   109.7500473 328.025600
   4863   4861   4873     1   110.5600475 386.601600
   4864   4860   4889     1   110.1100470 384.091200
   4864   4876   4877     1   109.8000471 387.438400
   4864   4876   4878     1   109.8000471 387.438400
   4865   4864   4876     1   110.5600475 386.601600
   4865   4864   4866     1   109.7500473 328.025600
   4866   4864   4876     1   110.5600475 386.601600
   4867   4860   4889     1   110.1100470 384.091200
   4867   4870   4871     1   109.8000471 387.438400
   4867   4870   4872     1   109.8000471 387.438400
   4868   4867   4870     1   110.5600475 386.601600
   4868   4867   4869     1   109.7500473 328.025600
   4869   4867   4870     1   110.5600475 386.601600
   4870   4879   4880     1   109.5600471 388.275200
   4870   4879   4881     1   109.5600471 388.275200
   4871   4870   4879     1   109.8000471 387.438400
   4871   4870   4872     1   107.5800459 329.699200
   4872   4870   4879     1   109.8000471 387.438400
   4873   4885   4886     1   109.5600471 388.275200
   4873   4885   4887     1   109.5600471 388.275200
   4874   4873   4885     1   109.8000471 387.438400
   4874   4873   4875     1   107.5800459 329.699200
   4875   4873   4885     1   109.8000471 387.438400
   4876   4882   4883     1   109.5600471 388.275200
   4876   4882   4884     1   109.5600471 388.275200
   4877   4876   4882     1   109.8000471 387.438400
   4877   4876   4878     1   107.5800459 329.699200
   4878   4876   4882     1   109.8000471 387.438400
   4880   4879   4888     1   109.7800468 425.094400
   4880   4879   4881     1   108.4600466 328.025600
   4881   4879   4888     1   109.7800468 425.094400
   4883   4882   9808     1   109.7800468 425.094400
   4883   4882   4884     1   108.4600466 328.025600
   4884   4882   9808     1   109.7800468 425.094400
   4886   4885   9838     1   109.7800468 425.094400
   4886   4885   4887     1   108.4600466 328.025600
   4887   4885   9838     1   109.7800468 425.094400
   4890   4891   4892     1   108.0100461 406.684800
   4890   4891   4893     1   108.0100461 406.684800
   4890   4894   4895     1   108.0100461 406.684800
   4890   4894   4896     1   108.0100461 406.684800
   4890   4897   4898     1   108.0100461 406.684800
   4890   4897   4899     1   108.0100461 406.684800
   4891   4890   4919     1   110.1100470 384.091200
   4891   4903   4904     1   109.8000471 387.438400
   4891   4903   4905     1   109.8000471 387.438400
   4892   4891   4903     1   110.5600475 386.601600
   4892   4891   4893     1   109.7500473 328.025600
   4893   4891   4903     1   110.5600475 386.601600
   4894   4890   4919     1   110.1100470 384.091200
   4894   4906   4907     1   109.8000471 387.438400
   4894   4906   4908     1   109.8000471 387.438400
   4895   4894   4906     1   110.5600475 386.601600
   4895   4894   4896     1   109.7500473 328.025600
   4896   4894   4906     1   110.5600475 386.601600
   4897   4890   4919     1   110.1100470 384.091200
   4897   4900   4901     1   109.8000471 387.438400
   4897   4900   4902     1   109.8000471 387.438400
   4898   4897   4900     1   110.5600475 386.601600
   4898   4897   4899     1   109.7500473 328.025600
   4899   4897   4900     1   110.5600475 386.601600
   4900   4909   4910     1   109.5600471 388.275200
   4900   4909   4911     1   109.5600471 388.275200
   4901   4900   4909     1   109.8000471 387.438400
   4901   4900   4902     1   107.5800459 329.699200
   4902   4900   4909     1   109.8000471 387.438400
   4903   4915   4916     1   109.5600471 388.275200
   4903   4915   4917     1   109.5600471 388.275200
   4904   4903   4915     1   109.8000471 387.438400
   4904   4903   4905     1   107.5800459 329.699200
   4905   4903   4915     1   109.8000471 387.438400
   4906   4912   4913     1   109.5600471 388.275200
   4906   4912   4914     1   109.5600471 388.275200
   4907   4906   4912     1   109.8000471 387.438400
   4907   4906   4908     1   107.5800459 329.699200
   4908   4906   4912     1   109.8000471 387.438400
   4910   4909   4918     1   109.7800468 425.094400
   4910   4909   4911     1   108.4600466 328.025600
   4911   4909   4918     1   109.7800468 425.094400
   4913   4912   9868     1   109.7800468 425.094400
   4913   4912   4914     1   108.4600466 328.025600
   4914   4912   9868     1   109.7800468 425.094400
   4916   4915   9898     1   109.7800468 425.094400
   4916   4915   4917     1   108.4600466 328.025600
   4917   4915   9898     1   109.7800468 425.094400
   4920   4921   4922     1   108.0100461 406.684800
   4920   4921   4923     1   108.0100461 406.684800
   4920   4924   4925     1   108.0100461 406.684800
   4920   4924   4926     1   108.0100461 406.684800
   4920   4927   4928     1   108.0100461 406.684800
   4920   4927   4929     1   108.0100461 406.684800
   4921   4920   4949     1   110.1100470 384.091200
   4921   4933   4934     1   109.8000471 387.438400
   4921   4933   4935     1   109.8000471 387.438400
   4922   4921   4933     1   110.5600475 386.601600
   4922   4921   4923     1   109.7500473 328.025600
   4923   4921   4933     1   110.5600475 386.601600
   4924   4920   4949     1   110.1100470 384.091200
   4924   4936   4937     1   109.8000471 387.438400
   4924   4936   4938     1   109.8000471 387.438400
   4925   4924   4936     1   110.5600475 386.601600
   4925   4924   4926     1   109.7500473 328.025600
   4926   4924   4936     1   110.5600475 386.601600
   4927   4920   4949     1   110.1100470 384.091200
   4927   4930   4931     1   109.8000471 387.438400
   4927   4930   4932     1   109.8000471 387.438400
   4928   4927   4930     1   110.5600475 386.601600
   4928   4927   4929     1   109.7500473 328.025600
   4929   4927   4930     1   110.5600475 386.601600
   4930   4939   4940     1   109.5600471 388.275200
   4930   4939   4941     1   109.5600471 388.275200
   4931   4930   4939     1   109.8000471 387.438400
   4931   4930   4932     1   107.5800459 329.699200
   4932   4930   4939     1   109.8000471 387.438400
   4933   4945   4946     1   109.5600471 388.275200
   4933   4945   4947     1   109.5600471 388.275200
   4934   4933   4945     1   109.8000471 387.438400
   4934   4933   4935     1   107.5800459 329.699200
   4935   4933   4945     1   109.8000471 387.438400
   4936   4942   4943     1   109.5600471 388.275200
   4936   4942   4944     1   109.5600471 388.275200
   4937   4936   4942     1   109.8000471 387.438400
   4937   4936   4938     1   107.5800459 329.699200
   4938   4936   4942     1   109.8000471 387.438400
   4940   4939   4948     1   109.7800468 425.094400
   4940   4939   4941     1   108.4600466 328.025600
   4941   4939   4948     1   109.7800468 425.094400
   4943   4942   9928     1   109.7800468 425.094400
   4943   4942   4944     1   108.4600466 328.025600
   4944   4942   9928     1   109.7800468 425.094400
   4946   4945   9958     1   109.7800468 425.094400
   4946   4945   4947     1   108.4600466 328.025600
   4947   4945   9958     1   109.7800468 425.094400
   4950   4951   4952     1   108.0100461 406.684800
   4950   4951   4953     1   108.0100461 406.684800
   4950   4954   4955     1   108.0100461 406.684800
   4950   4954   4956     1   108.0100461 406.684800
   4950   4957   4958     1   108.0100461 406.684800
   4950   4957   4959     1   108.0100461 406.684800
   4951   4950   4979     1   110.1100470 384.091200
   4951   4963   4964     1   109.8000471 387.438400
   4951   4963   4965     1   109.8000471 387.438400
   4952   4951   4963     1   110.5600475 386.601600
   4952   4951   4953     1   109.7500473 328.025600
   4953   4951   4963     1   110.5600475 386.601600
   4954   4950   4979     1   110.1100470 384.091200
   4954   4966   4967     1   109.8000471 387.438400
   4954   4966   4968     1   109.8000471 387.438400
   4955   4954   4966     1   110.5600475 386.601600
   4955   4954   4956     1   109.7500473 328.025600
   4956   4954   4966     1   110.5600475 386.601600
   4957   4950   4979     1   110.1100470 384.091200
   4957   4960   4961     1   109.8000471 387.438400
   4957   4960   4962     1   109.8000471 387.438400
   4958   4957   4960     1   110.5600475 386.601600
   4958   4957   4959     1   109.7500473 328.025600
   4959   4957   4960     1   110.5600475 386.601600
   4960   4969   4970     1   109.5600471 388.275200
   4960   4969   4971     1   109.5600471 388.275200
   4961   4960   4969     1   109.8000471 387.438400
   4961   4960   4962     1   107.5800459 329.699200
   4962   4960   4969     1   109.8000471 387.438400
   4963   4975   4976     1   109.5600471 388.275200
   4963   4975   4977     1   109.5600471 388.275200
   4964   4963   4975     1   109.8000471 387.438400
   4964   4963   4965     1   107.5800459 329.699200
   4965   4963   4975     1   109.8000471 387.438400
   4966   4972   4973     1   109.5600471 388.275200
   4966   4972   4974     1   109.5600471 388.275200
   4967   4966   4972     1   109.8000471 387.438400
   4967   4966   4968     1   107.5800459 329.699200
   4968   4966   4972     1   109.8000471 387.438400
   4970   4969   4978     1   109.7800468 425.094400
   4970   4969   4971     1   108.4600466 328.025600
   4971   4969   4978     1   109.7800468 425.094400
   4973   4972   9988     1   109.7800468 425.094400
   4973   4972   4974     1   108.4600466 328.025600
   4974   4972   9988     1   109.7800468 425.094400
   4976   4975  10018     1   109.7800468 425.094400
   4976   4975   4977     1   108.4600466 328.025600
   4977   4975  10018     1   109.7800468 425.094400
   4980   4981   4982     1   108.0100461 406.684800
   4980   4981   4983     1   108.0100461 406.684800
   4980   4984   4985     1   108.0100461 406.684800
   4980   4984   4986     1   108.0100461 406.684800
   4980   4987   4988     1   108.0100461 406.684800
   4980   4987   4989     1   108.0100461 406.684800
   4981   4980   5009     1   110.1100470 384.091200
   4981   4993   4994     1   109.8000471 387.438400
   4981   4993   4995     1   109.8000471 387.438400
   4982   4981   4993     1   110.5600475 386.601600
   4982   4981   4983     1   109.7500473 328.025600
   4983   4981   4993     1   110.5600475 386.601600
   4984   4980   5009     1   110.1100470 384.091200
   4984   4996   4997     1   109.8000471 387.438400
   4984   4996   4998     1   109.8000471 387.438400
   4985   4984   4996     1   110.5600475 386.601600
   4985   4984   4986     1   109.7500473 328.025600
   4986   4984   4996     1   110.5600475 386.601600
   4987   4980   5009     1   110.1100470 384.091200
   4987   4990   4991     1   109.8000471 387.438400
   4987   4990   4992     1   109.8000471 387.438400
   4988   4987   4990     1   110.5600475 386.601600
   4988   4987   4989     1   109.7500473 328.025600
   4989   4987   4990     1   110.5600475 386.601600
   4990   4999   5000     1   109.5600471 388.275200
   4990   4999   5001     1   109.5600471 388.275200
   4991   4990   4999     1   109.8000471 387.438400
   4991   4990   4992     1   107.5800459 329.699200
   4992   4990   4999     1   109.8000471 387.438400
   4993   5005   5006     1   109.5600471 388.275200
   4993   5005   5007     1   109.5600471 388.275200
   4994   4993   5005     1   109.8000471 387.438400
   4994   4993   4995     1   107.5800459 329.699200
   4995   4993   5005     1   109.8000471 387.438400
   4996   5002   5003     1   109.5600471 388.275200
   4996   5002   5004     1   109.5600471 388.275200
   4997   4996   5002     1   109.8000471 387.438400
   4997   4996   4998     1   107.5800459 329.699200
   4998   4996   5002     1   109.8000471 387.438400
   5000   4999   5008     1   109.7800468 425.094400
   5000   4999   5001     1   108.4600466 328.025600
   5001   4999   5008     1   109.7800468 425.094400
   5003   5002  10048     1   109.7800468 425.094400
   5003   5002   5004     1   108.4600466 328.025600
   5004   5002  10048     1   109.7800468 425.094400
   5006   5005  10078     1   109.7800468 425.094400
   5006   5005   5007     1   108.4600466 328.025600
   5007   5005  10078     1   109.7800468 425.094400
   5010   5011   5012     1   108.0100461 406.684800
   5010   5011   5013     1   108.0100461 406.684800
   5010   5014   5015     1   108.0100461 406.684800
   5010   5014   5016     1   108.0100461 406.684800
   5010   5017   5018     1   108.0100461 406.684800
   5010   5017   5019     1   108.0100461 406.684800
   5011   5010   5039     1   110.1100470 384.091200
   5011   5023   5024     1   109.8000471 387.438400
   5011   5023   5025     1   109.8000471 387.438400
   5012   5011   5023     1   110.5600475 386.601600
   5012   5011   5013     1   109.7500473 328.025600
   5013   5011   5023     1   110.5600475 386.601600
   5014   5010   5039     1   110.1100470 384.091200
   5014   5026   5027     1   109.8000471 387.438400
   5014   5026   5028     1   109.8000471 387.438400
   5015   5014   5026     1   110.5600475 386.601600
   5015   5014   5016     1   109.7500473 328.025600
   5016   5014   5026     1   110.5600475 386.601600
   5017   5010   5039     1   110.1100470 384.091200
   5017   5020   5021     1   109.8000471 387.438400
   5017   5020   5022     1   109.8000471 387.438400
   5018   5017   5020     1   110.5600475 386.601600
   5018   5017   5019     1   109.7500473 328.025600
   5019   5017   5020     1   110.5600475 386.601600
   5020   5029   5030     1   109.5600471 388.275200
   5020   5029   5031     1   109.5600471 388.275200
   5021   5020   5029     1   109.8000471 387.438400
   5021   5020   5022     1   107.5800459 329.699200
   5022   5020   5029     1   109.8000471 387.438400
   5023   5035   5036     1   109.5600471 388.275200
   5023   5035   5037     1   109.5600471 388.275200
   5024   5023   5035     1   109.8000471 387.438400
   5024   5023   5025     1   107.5800459 329.699200
   5025   5023   5035     1   109.8000471 387.438400
   5026   5032   5033     1   109.5600471 388.275200
   5026   5032   5034     1   109.5600471 388.275200
   5027   5026   5032     1   109.8000471 387.438400
   5027   5026   5028     1   107.5800459 329.699200
   5028   5026   5032     1   109.8000471 387.438400
   5030   5029   5038     1   109.7800468 425.094400
   5030   5029   5031     1   108.4600466 328.025600
   5031   5029   5038     1   109.7800468 425.094400
   5033   5032  10108     1   109.7800468 425.094400
   5033   5032   5034     1   108.4600466 328.025600
   5034   5032  10108     1   109.7800468 425.094400
   5036   5035  10138     1   109.7800468 425.094400
   5036   5035   5037     1   108.4600466 328.025600
   5037   5035  10138     1   109.7800468 425.094400
   5040   5041   5042     1   108.0100461 406.684800
   5040   5041   5043     1   108.0100461 406.684800
   5040   5044   5045     1   108.0100461 406.684800
   5040   5044   5046     1   108.0100461 406.684800
   5040   5047   5048     1   108.0100461 406.684800
   5040   5047   5049     1   108.0100461 406.684800
   5041   5040   5069     1   110.1100470 384.091200
   5041   5053   5054     1   109.8000471 387.438400
   5041   5053   5055     1   109.8000471 387.438400
   5042   5041   5053     1   110.5600475 386.601600
   5042   5041   5043     1   109.7500473 328.025600
   5043   5041   5053     1   110.5600475 386.601600
   5044   5040   5069     1   110.1100470 384.091200
   5044   5056   5057     1   109.8000471 387.438400
   5044   5056   5058     1   109.8000471 387.438400
   5045   5044   5056     1   110.5600475 386.601600
   5045   5044   5046     1   109.7500473 328.025600
   5046   5044   5056     1   110.5600475 386.601600
   5047   5040   5069     1   110.1100470 384.091200
   5047   5050   5051     1   109.8000471 387.438400
   5047   5050   5052     1   109.8000471 387.438400
   5048   5047   5050     1   110.5600475 386.601600
   5048   5047   5049     1   109.7500473 328.025600
   5049   5047   5050     1   110.5600475 386.601600
   5050   5059   5060     1   109.5600471 388.275200
   5050   5059   5061     1   109.5600471 388.275200
   5051   5050   5059     1   109.8000471 387.438400
   5051   5050   5052     1   107.5800459 329.699200
   5052   5050   5059     1   109.8000471 387.438400
   5053   5065   5066     1   109.5600471 388.275200
   5053   5065   5067     1   109.5600471 388.275200
   5054   5053   5065     1   109.8000471 387.438400
   5054   5053   5055     1   107.5800459 329.699200
   5055   5053   5065     1   109.8000471 387.438400
   5056   5062   5063     1   109.5600471 388.275200
   5056   5062   5064     1   109.5600471 388.275200
   5057   5056   5062     1   109.8000471 387.438400
   5057   5056   5058     1   107.5800459 329.699200
   5058   5056   5062     1   109.8000471 387.438400
   5060   5059   5068     1   109.7800468 425.094400
   5060   5059   5061     1   108.4600466 328.025600
   5061   5059   5068     1   109.7800468 425.094400
   5063   5062  10168     1   109.7800468 425.094400
   5063   5062   5064     1   108.4600466 328.025600
   5064   5062  10168     1   109.7800468 425.094400
   5066   5065  10198     1   109.7800468 425.094400
   5066   5065   5067     1   108.4600466 328.025600
   5067   5065  10198     1   109.7800468 425.094400
   5070   5071   5072     1   108.0100461 406.684800
   5070   5071   5073     1   108.0100461 406.684800
   5070   5074   5075     1   108.0100461 406.684800
   5070   5074   5076     1   108.0100461 406.684800
   5070   5077   5078     1   108.0100461 406.684800
   5070   5077   5079     1   108.0100461 406.684800
   5071   5070   5099     1   110.1100470 384.091200
   5071   5083   5084     1   109.8000471 387.438400
   5071   5083   5085     1   109.8000471 387.438400
   5072   5071   5083     1   110.5600475 386.601600
   5072   5071   5073     1   109.7500473 328.025600
   5073   5071   5083     1   110.5600475 386.601600
   5074   5070   5099     1   110.1100470 384.091200
   5074   5086   5087     1   109.8000471 387.438400
   5074   5086   5088     1   109.8000471 387.438400
   5075   5074   5086     1   110.5600475 386.601600
   5075   5074   5076     1   109.7500473 328.025600
   5076   5074   5086     1   110.5600475 386.601600
   5077   5070   5099     1   110.1100470 384.091200
   5077   5080   5081     1   109.8000471 387.438400
   5077   5080   5082     1   109.8000471 387.438400
   5078   5077   5080     1   110.5600475 386.601600
   5078   5077   5079     1   109.7500473 328.025600
   5079   5077   5080     1   110.5600475 386.601600
   5080   5089   5090     1   109.5600471 388.275200
   5080   5089   5091     1   109.5600471 388.275200
   5081   5080   5089     1   109.8000471 387.438400
   5081   5080   5082     1   107.5800459 329.699200
   5082   5080   5089     1   109.8000471 387.438400
   5083   5095   5096     1   109.5600471 388.275200
   5083   5095   5097     1   109.5600471 388.275200
   5084   5083   5095     1   109.8000471 387.438400
   5084   5083   5085     1   107.5800459 329.699200
   5085   5083   5095     1   109.8000471 387.438400
   5086   5092   5093     1   109.5600471 388.275200
   5086   5092   5094     1   109.5600471 388.275200
   5087   5086   5092     1   109.8000471 387.438400
   5087   5086   5088     1   107.5800459 329.699200
   5088   5086   5092     1   109.8000471 387.438400
   5090   5089   5098     1   109.7800468 425.094400
   5090   5089   5091     1   108.4600466 328.025600
   5091   5089   5098     1   109.7800468 425.094400
   5093   5092  10228     1   109.7800468 425.094400
   5093   5092   5094     1   108.4600466 328.025600
   5094   5092  10228     1   109.7800468 425.094400
   5096   5095  10258     1   109.7800468 425.094400
   5096   5095   5097     1   108.4600466 328.025600
   5097   5095  10258     1   109.7800468 425.094400
   5100   5101   5102     1   108.0100461 406.684800
   5100   5101   5103     1   108.0100461 406.684800
   5100   5104   5105     1   108.0100461 406.684800
   5100   5104   5106     1   108.0100461 406.684800
   5100   5107   5108     1   108.0100461 406.684800
   5100   5107   5109     1   108.0100461 406.684800
   5101   5100   5129     1   110.1100470 384.091200
   5101   5113   5114     1   109.8000471 387.438400
   5101   5113   5115     1   109.8000471 387.438400
   5102   5101   5113     1   110.5600475 386.601600
   5102   5101   5103     1   109.7500473 328.025600
   5103   5101   5113     1   110.5600475 386.601600
   5104   5100   5129     1   110.1100470 384.091200
   5104   5116   5117     1   109.8000471 387.438400
   5104   5116   5118     1   109.8000471 387.438400
   5105   5104   5116     1   110.5600475 386.601600
   5105   5104   5106     1   109.7500473 328.025600
   5106   5104   5116     1   110.5600475 386.601600
   5107   5100   5129     1   110.1100470 384.091200
   5107   5110   5111     1   109.8000471 387.438400
   5107   5110   5112     1   109.8000471 387.438400
   5108   5107   5110     1   110.5600475 386.601600
   5108   5107   5109     1   109.7500473 328.025600
   5109   5107   5110     1   110.5600475 386.601600
   5110   5119   5120     1   109.5600471 388.275200
   5110   5119   5121     1   109.5600471 388.275200
   5111   5110   5119     1   109.8000471 387.438400
   5111   5110   5112     1   107.5800459 329.699200
   5112   5110   5119     1   109.8000471 387.438400
   5113   5125   5126     1   109.5600471 388.275200
   5113   5125   5127     1   109.5600471 388.275200
   5114   5113   5125     1   109.8000471 387.438400
   5114   5113   5115     1   107.5800459 329.699200
   5115   5113   5125     1   109.8000471 387.438400
   5116   5122   5123     1   109.5600471 388.275200
   5116   5122   5124     1   109.5600471 388.275200
   5117   5116   5122     1   109.8000471 387.438400
   5117   5116   5118     1   107.5800459 329.699200
   5118   5116   5122     1   109.8000471 387.438400
   5120   5119   5128     1   109.7800468 425.094400
   5120   5119   5121     1   108.4600466 328.025600
   5121   5119   5128     1   109.7800468 425.094400
   5123   5122  10288     1   109.7800468 425.094400
   5123   5122   5124     1   108.4600466 328.025600
   5124   5122  10288     1   109.7800468 425.094400
   5126   5125  10318     1   109.7800468 425.094400
   5126   5125   5127     1   108.4600466 328.025600
   5127   5125  10318     1   109.7800468 425.094400
   5130   5131   5132     1   108.0100461 406.684800
   5130   5131   5133     1   108.0100461 406.684800
   5130   5134   5135     1   108.0100461 406.684800
   5130   5134   5136     1   108.0100461 406.684800
   5130   5137   5138     1   108.0100461 406.684800
   5130   5137   5139     1   108.0100461 406.684800
   5131   5130   5159     1   110.1100470 384.091200
   5131   5143   5144     1   109.8000471 387.438400
   5131   5143   5145     1   109.8000471 387.438400
   5132   5131   5143     1   110.5600475 386.601600
   5132   5131   5133     1   109.7500473 328.025600
   5133   5131   5143     1   110.5600475 386.601600
   5134   5130   5159     1   110.1100470 384.091200
   5134   5146   5147     1   109.8000471 387.438400
   5134   5146   5148     1   109.8000471 387.438400
   5135   5134   5146     1   110.5600475 386.601600
   5135   5134   5136     1   109.7500473 328.025600
   5136   5134   5146     1   110.5600475 386.601600
   5137   5130   5159     1   110.1100470 384.091200
   5137   5140   5141     1   109.8000471 387.438400
   5137   5140   5142     1   109.8000471 387.438400
   5138   5137   5140     1   110.5600475 386.601600
   5138   5137   5139     1   109.7500473 328.025600
   5139   5137   5140     1   110.5600475 386.601600
   5140   5149   5150     1   109.5600471 388.275200
   5140   5149   5151     1   109.5600471 388.275200
   5141   5140   5149     1   109.8000471 387.438400
   5141   5140   5142     1   107.5800459 329.699200
   5142   5140   5149     1   109.8000471 387.438400
   5143   5155   5156     1   109.5600471 388.275200
   5143   5155   5157     1   109.5600471 388.275200
   5144   5143   5155     1   109.8000471 387.438400
   5144   5143   5145     1   107.5800459 329.699200
   5145   5143   5155     1   109.8000471 387.438400
   5146   5152   5153     1   109.5600471 388.275200
   5146   5152   5154     1   109.5600471 388.275200
   5147   5146   5152     1   109.8000471 387.438400
   5147   5146   5148     1   107.5800459 329.699200
   5148   5146   5152     1   109.8000471 387.438400
   5150   5149   5158     1   109.7800468 425.094400
   5150   5149   5151     1   108.4600466 328.025600
   5151   5149   5158     1   109.7800468 425.094400
   5153   5152  10348     1   109.7800468 425.094400
   5153   5152   5154     1   108.4600466 328.025600
   5154   5152  10348     1   109.7800468 425.094400
   5156   5155  10378     1   109.7800468 425.094400
   5156   5155   5157     1   108.4600466 328.025600
   5157   5155  10378     1   109.7800468 425.094400
   5160   5161   5162     1   108.0100461 406.684800
   5160   5161   5163     1   108.0100461 406.684800
   5160   5164   5165     1   108.0100461 406.684800
   5160   5164   5166     1   108.0100461 406.684800
   5160   5167   5168     1   108.0100461 406.684800
   5160   5167   5169     1   108.0100461 406.684800
   5161   5160   5189     1   110.1100470 384.091200
   5161   5173   5174     1   109.8000471 387.438400
   5161   5173   5175     1   109.8000471 387.438400
   5162   5161   5173     1   110.5600475 386.601600
   5162   5161   5163     1   109.7500473 328.025600
   5163   5161   5173     1   110.5600475 386.601600
   5164   5160   5189     1   110.1100470 384.091200
   5164   5176   5177     1   109.8000471 387.438400
   5164   5176   5178     1   109.8000471 387.438400
   5165   5164   5176     1   110.5600475 386.601600
   5165   5164   5166     1   109.7500473 328.025600
   5166   5164   5176     1   110.5600475 386.601600
   5167   5160   5189     1   110.1100470 384.091200
   5167   5170   5171     1   109.8000471 387.438400
   5167   5170   5172     1   109.8000471 387.438400
   5168   5167   5170     1   110.5600475 386.601600
   5168   5167   5169     1   109.7500473 328.025600
   5169   5167   5170     1   110.5600475 386.601600
   5170   5179   5180     1   109.5600471 388.275200
   5170   5179   5181     1   109.5600471 388.275200
   5171   5170   5179     1   109.8000471 387.438400
   5171   5170   5172     1   107.5800459 329.699200
   5172   5170   5179     1   109.8000471 387.438400
   5173   5185   5186     1   109.5600471 388.275200
   5173   5185   5187     1   109.5600471 388.275200
   5174   5173   5185     1   109.8000471 387.438400
   5174   5173   5175     1   107.5800459 329.699200
   5175   5173   5185     1   109.8000471 387.438400
   5176   5182   5183     1   109.5600471 388.275200
   5176   5182   5184     1   109.5600471 388.275200
   5177   5176   5182     1   109.8000471 387.438400
   5177   5176   5178     1   107.5800459 329.699200
   5178   5176   5182     1   109.8000471 387.438400
   5180   5179   5188     1   109.7800468 425.094400
   5180   5179   5181     1   108.4600466 328.025600
   5181   5179   5188     1   109.7800468 425.094400
   5183   5182  10408     1   109.7800468 425.094400
   5183   5182   5184     1   108.4600466 328.025600
   5184   5182  10408     1   109.7800468 425.094400
   5186   5185  10438     1   109.7800468 425.094400
   5186   5185   5187     1   108.4600466 328.025600
   5187   5185  10438     1   109.7800468 425.094400
   5190   5191   5192     1   108.0100461 406.684800
   5190   5191   5193     1   108.0100461 406.684800
   5190   5194   5195     1   108.0100461 406.684800
   5190   5194   5196     1   108.0100461 406.684800
   5190   5197   5198     1   108.0100461 406.684800
   5190   5197   5199     1   108.0100461 406.684800
   5191   5190   5219     1   110.1100470 384.091200
   5191   5203   5204     1   109.8000471 387.438400
   5191   5203   5205     1   109.8000471 387.438400
   5192   5191   5203     1   110.5600475 386.601600
   5192   5191   5193     1   109.7500473 328.025600
   5193   5191   5203     1   110.5600475 386.601600
   5194   5190   5219     1   110.1100470 384.091200
   5194   5206   5207     1   109.8000471 387.438400
   5194   5206   5208     1   109.8000471 387.438400
   5195   5194   5206     1   110.5600475 386.601600
   5195   5194   5196     1   109.7500473 328.025600
   5196   5194   5206     1   110.5600475 386.601600
   5197   5190   5219     1   110.1100470 384.091200
   5197   5200   5201     1   109.8000471 387.438400
   5197   5200   5202     1   109.8000471 387.438400
   5198   5197   5200     1   110.5600475 386.601600
   5198   5197   5199     1   109.7500473 328.025600
   5199   5197   5200     1   110.5600475 386.601600
   5200   5209   5210     1   109.5600471 388.275200
   5200   5209   5211     1   109.5600471 388.275200
   5201   5200   5209     1   109.8000471 387.438400
   5201   5200   5202     1   107.5800459 329.699200
   5202   5200   5209     1   109.8000471 387.438400
   5203   5215   5216     1   109.5600471 388.275200
   5203   5215   5217     1   109.5600471 388.275200
   5204   5203   5215     1   109.8000471 387.438400
   5204   5203   5205     1   107.5800459 329.699200
   5205   5203   5215     1   109.8000471 387.438400
   5206   5212   5213     1   109.5600471 388.275200
   5206   5212   5214     1   109.5600471 388.275200
   5207   5206   5212     1   109.8000471 387.438400
   5207   5206   5208     1   107.5800459 329.699200
   5208   5206   5212     1   109.8000471 387.438400
   5210   5209   5218     1   109.7800468 425.094400
   5210   5209   5211     1   108.4600466 328.025600
   5211   5209   5218     1   109.7800468 425.094400
   5213   5212  10468     1   109.7800468 425.094400
   5213   5212   5214     1   108.4600466 328.025600
   5214   5212  10468     1   109.7800468 425.094400
   5216   5215  10498     1   109.7800468 425.094400
   5216   5215   5217     1   108.4600466 328.025600
   5217   5215  10498     1   109.7800468 425.094400
   5220   5221   5222     1   108.0100461 406.684800
   5220   5221   5223     1   108.0100461 406.684800
   5220   5224   5225     1   108.0100461 406.684800
   5220   5224   5226     1   108.0100461 406.684800
   5220   5227   5228     1   108.0100461 406.684800
   5220   5227   5229     1   108.0100461 406.684800
   5221   5220   5249     1   110.1100470 384.091200
   5221   5233   5234     1   109.8000471 387.438400
   5221   5233   5235     1   109.8000471 387.438400
   5222   5221   5233     1   110.5600475 386.601600
   5222   5221   5223     1   109.7500473 328.025600
   5223   5221   5233     1   110.5600475 386.601600
   5224   5220   5249     1   110.1100470 384.091200
   5224   5236   5237     1   109.8000471 387.438400
   5224   5236   5238     1   109.8000471 387.438400
   5225   5224   5236     1   110.5600475 386.601600
   5225   5224   5226     1   109.7500473 328.025600
   5226   5224   5236     1   110.5600475 386.601600
   5227   5220   5249     1   110.1100470 384.091200
   5227   5230   5231     1   109.8000471 387.438400
   5227   5230   5232     1   109.8000471 387.438400
   5228   5227   5230     1   110.5600475 386.601600
   5228   5227   5229     1   109.7500473 328.025600
   5229   5227   5230     1   110.5600475 386.601600
   5230   5239   5240     1   109.5600471 388.275200
   5230   5239   5241     1   109.5600471 388.275200
   5231   5230   5239     1   109.8000471 387.438400
   5231   5230   5232     1   107.5800459 329.699200
   5232   5230   5239     1   109.8000471 387.438400
   5233   5245   5246     1   109.5600471 388.275200
   5233   5245   5247     1   109.5600471 388.275200
   5234   5233   5245     1   109.8000471 387.438400
   5234   5233   5235     1   107.5800459 329.699200
   5235   5233   5245     1   109.8000471 387.438400
   5236   5242   5243     1   109.5600471 388.275200
   5236   5242   5244     1   109.5600471 388.275200
   5237   5236   5242     1   109.8000471 387.438400
   5237   5236   5238     1   107.5800459 329.699200
   5238   5236   5242     1   109.8000471 387.438400
   5240   5239   5248     1   109.7800468 425.094400
   5240   5239   5241     1   108.4600466 328.025600
   5241   5239   5248     1   109.7800468 425.094400
   5243   5242  10528     1   109.7800468 425.094400
   5243   5242   5244     1   108.4600466 328.025600
   5244   5242  10528     1   109.7800468 425.094400
   5246   5245  10558     1   109.7800468 425.094400
   5246   5245   5247     1   108.4600466 328.025600
   5247   5245  10558     1   109.7800468 425.094400
   5250   5251   5252     1   108.0100461 406.684800
   5250   5251   5253     1   108.0100461 406.684800
   5250   5254   5255     1   108.0100461 406.684800
   5250   5254   5256     1   108.0100461 406.684800
   5250   5257   5258     1   108.0100461 406.684800
   5250   5257   5259     1   108.0100461 406.684800
   5251   5250   5279     1   110.1100470 384.091200
   5251   5263   5264     1   109.8000471 387.438400
   5251   5263   5265     1   109.8000471 387.438400
   5252   5251   5263     1   110.5600475 386.601600
   5252   5251   5253     1   109.7500473 328.025600
   5253   5251   5263     1   110.5600475 386.601600
   5254   5250   5279     1   110.1100470 384.091200
   5254   5266   5267     1   109.8000471 387.438400
   5254   5266   5268     1   109.8000471 387.438400
   5255   5254   5266     1   110.5600475 386.601600
   5255   5254   5256     1   109.7500473 328.025600
   5256   5254   5266     1   110.5600475 386.601600
   5257   5250   5279     1   110.1100470 384.091200
   5257   5260   5261     1   109.8000471 387.438400
   5257   5260   5262     1   109.8000471 387.438400
   5258   5257   5260     1   110.5600475 386.601600
   5258   5257   5259     1   109.7500473 328.025600
   5259   5257   5260     1   110.5600475 386.601600
   5260   5269   5270     1   109.5600471 388.275200
   5260   5269   5271     1   109.5600471 388.275200
   5261   5260   5269     1   109.8000471 387.438400
   5261   5260   5262     1   107.5800459 329.699200
   5262   5260   5269     1   109.8000471 387.438400
   5263   5275   5276     1   109.5600471 388.275200
   5263   5275   5277     1   109.5600471 388.275200
   5264   5263   5275     1   109.8000471 387.438400
   5264   5263   5265     1   107.5800459 329.699200
   5265   5263   5275     1   109.8000471 387.438400
   5266   5272   5273     1   109.5600471 388.275200
   5266   5272   5274     1   109.5600471 388.275200
   5267   5266   5272     1   109.8000471 387.438400
   5267   5266   5268     1   107.5800459 329.699200
   5268   5266   5272     1   109.8000471 387.438400
   5270   5269   5278     1   109.7800468 425.094400
   5270   5269   5271     1   108.4600466 328.025600
   5271   5269   5278     1   109.7800468 425.094400
   5273   5272  10588     1   109.7800468 425.094400
   5273   5272   5274     1   108.4600466 328.025600
   5274   5272  10588     1   109.7800468 425.094400
   5276   5275  10618     1   109.7800468 425.094400
   5276   5275   5277     1   108.4600466 328.025600
   5277   5275  10618     1   109.7800468 425.094400
   5280   5281   5282     1   108.0100461 406.684800
   5280   5281   5283     1   108.0100461 406.684800
   5280   5284   5285     1   108.0100461 406.684800
   5280   5284   5286     1   108.0100461 406.684800
   5280   5287   5288     1   108.0100461 406.684800
   5280   5287   5289     1   108.0100461 406.684800
   5281   5280   5309     1   110.1100470 384.091200
   5281   5293   5294     1   109.8000471 387.438400
   5281   5293   5295     1   109.8000471 387.438400
   5282   5281   5293     1   110.5600475 386.601600
   5282   5281   5283     1   109.7500473 328.025600
   5283   5281   5293     1   110.5600475 386.601600
   5284   5280   5309     1   110.1100470 384.091200
   5284   5296   5297     1   109.8000471 387.438400
   5284   5296   5298     1   109.8000471 387.438400
   5285   5284   5296     1   110.5600475 386.601600
   5285   5284   5286     1   109.7500473 328.025600
   5286   5284   5296     1   110.5600475 386.601600
   5287   5280   5309     1   110.1100470 384.091200
   5287   5290   5291     1   109.8000471 387.438400
   5287   5290   5292     1   109.8000471 387.438400
   5288   5287   5290     1   110.5600475 386.601600
   5288   5287   5289     1   109.7500473 328.025600
   5289   5287   5290     1   110.5600475 386.601600
   5290   5299   5300     1   109.5600471 388.275200
   5290   5299   5301     1   109.5600471 388.275200
   5291   5290   5299     1   109.8000471 387.438400
   5291   5290   5292     1   107.5800459 329.699200
   5292   5290   5299     1   109.8000471 387.438400
   5293   5305   5306     1   109.5600471 388.275200
   5293   5305   5307     1   109.5600471 388.275200
   5294   5293   5305     1   109.8000471 387.438400
   5294   5293   5295     1   107.5800459 329.699200
   5295   5293   5305     1   109.8000471 387.438400
   5296   5302   5303     1   109.5600471 388.275200
   5296   5302   5304     1   109.5600471 388.275200
   5297   5296   5302     1   109.8000471 387.438400
   5297   5296   5298     1   107.5800459 329.699200
   5298   5296   5302     1   109.8000471 387.438400
   5300   5299   5308     1   109.7800468 425.094400
   5300   5299   5301     1   108.4600466 328.025600
   5301   5299   5308     1   109.7800468 425.094400
   5303   5302  10648     1   109.7800468 425.094400
   5303   5302   5304     1   108.4600466 328.025600
   5304   5302  10648     1   109.7800468 425.094400
   5306   5305  10678     1   109.7800468 425.094400
   5306   5305   5307     1   108.4600466 328.025600
   5307   5305  10678     1   109.7800468 425.094400
   5310   5311   5312     1   108.0100461 406.684800
   5310   5311   5313     1   108.0100461 406.684800
   5310   5314   5315     1   108.0100461 406.684800
   5310   5314   5316     1   108.0100461 406.684800
   5310   5317   5318     1   108.0100461 406.684800
   5310   5317   5319     1   108.0100461 406.684800
   5311   5310   5339     1   110.1100470 384.091200
   5311   5323   5324     1   109.8000471 387.438400
   5311   5323   5325     1   109.8000471 387.438400
   5312   5311   5323     1   110.5600475 386.601600
   5312   5311   5313     1   109.7500473 328.025600
   5313   5311   5323     1   110.5600475 386.601600
   5314   5310   5339     1   110.1100470 384.091200
   5314   5326   5327     1   109.8000471 387.438400
   5314   5326   5328     1   109.8000471 387.438400
   5315   5314   5326     1   110.5600475 386.601600
   5315   5314   5316     1   109.7500473 328.025600
   5316   5314   5326     1   110.5600475 386.601600
   5317   5310   5339     1   110.1100470 384.091200
   5317   5320   5321     1   109.8000471 387.438400
   5317   5320   5322     1   109.8000471 387.438400
   5318   5317   5320     1   110.5600475 386.601600
   5318   5317   5319     1   109.7500473 328.025600
   5319   5317   5320     1   110.5600475 386.601600
   5320   5329   5330     1   109.5600471 388.275200
   5320   5329   5331     1   109.5600471 388.275200
   5321   5320   5329     1   109.8000471 387.438400
   5321   5320   5322     1   107.5800459 329.699200
   5322   5320   5329     1   109.8000471 387.438400
   5323   5335   5336     1   109.5600471 388.275200
   5323   5335   5337     1   109.5600471 388.275200
   5324   5323   5335     1   109.8000471 387.438400
   5324   5323   5325     1   107.5800459 329.699200
   5325   5323   5335     1   109.8000471 387.438400
   5326   5332   5333     1   109.5600471 388.275200
   5326   5332   5334     1   109.5600471 388.275200
   5327   5326   5332     1   109.8000471 387.438400
   5327   5326   5328     1   107.5800459 329.699200
   5328   5326   5332     1   109.8000471 387.438400
   5330   5329   5338     1   109.7800468 425.094400
   5330   5329   5331     1   108.4600466 328.025600
   5331   5329   5338     1   109.7800468 425.094400
   5333   5332  10708     1   109.7800468 425.094400
   5333   5332   5334     1   108.4600466 328.025600
   5334   5332  10708     1   109.7800468 425.094400
   5336   5335  10738     1   109.7800468 425.094400
   5336   5335   5337     1   108.4600466 328.025600
   5337   5335  10738     1   109.7800468 425.094400
   5340   5341   5342     1   108.0100461 406.684800
   5340   5341   5343     1   108.0100461 406.684800
   5340   5344   5345     1   108.0100461 406.684800
   5340   5344   5346     1   108.0100461 406.684800
   5340   5347   5348     1   108.0100461 406.684800
   5340   5347   5349     1   108.0100461 406.684800
   5341   5340   5369     1   110.1100470 384.091200
   5341   5353   5354     1   109.8000471 387.438400
   5341   5353   5355     1   109.8000471 387.438400
   5342   5341   5353     1   110.5600475 386.601600
   5342   5341   5343     1   109.7500473 328.025600
   5343   5341   5353     1   110.5600475 386.601600
   5344   5340   5369     1   110.1100470 384.091200
   5344   5356   5357     1   109.8000471 387.438400
   5344   5356   5358     1   109.8000471 387.438400
   5345   5344   5356     1   110.5600475 386.601600
   5345   5344   5346     1   109.7500473 328.025600
   5346   5344   5356     1   110.5600475 386.601600
   5347   5340   5369     1   110.1100470 384.091200
   5347   5350   5351     1   109.8000471 387.438400
   5347   5350   5352     1   109.8000471 387.438400
   5348   5347   5350     1   110.5600475 386.601600
   5348   5347   5349     1   109.7500473 328.025600
   5349   5347   5350     1   110.5600475 386.601600
   5350   5359   5360     1   109.5600471 388.275200
   5350   5359   5361     1   109.5600471 388.275200
   5351   5350   5359     1   109.8000471 387.438400
   5351   5350   5352     1   107.5800459 329.699200
   5352   5350   5359     1   109.8000471 387.438400
   5353   5365   5366     1   109.5600471 388.275200
   5353   5365   5367     1   109.5600471 388.275200
   5354   5353   5365     1   109.8000471 387.438400
   5354   5353   5355     1   107.5800459 329.699200
   5355   5353   5365     1   109.8000471 387.438400
   5356   5362   5363     1   109.5600471 388.275200
   5356   5362   5364     1   109.5600471 388.275200
   5357   5356   5362     1   109.8000471 387.438400
   5357   5356   5358     1   107.5800459 329.699200
   5358   5356   5362     1   109.8000471 387.438400
   5360   5359   5368     1   109.7800468 425.094400
   5360   5359   5361     1   108.4600466 328.025600
   5361   5359   5368     1   109.7800468 425.094400
   5363   5362  10768     1   109.7800468 425.094400
   5363   5362   5364     1   108.4600466 328.025600
   5364   5362  10768     1   109.7800468 425.094400
   5366   5365  10798     1   109.7800468 425.094400
   5366   5365   5367     1   108.4600466 328.025600
   5367   5365  10798     1   109.7800468 425.094400
   5370   5371   5372     1   108.0100461 406.684800
   5370   5371   5373     1   108.0100461 406.684800
   5370   5374   5375     1   108.0100461 406.684800
   5370   5374   5376     1   108.0100461 406.684800
   5370   5377   5378     1   108.0100461 406.684800
   5370   5377   5379     1   108.0100461 406.684800
   5371   5370   5399     1   110.1100470 384.091200
   5371   5383   5384     1   109.8000471 387.438400
   5371   5383   5385     1   109.8000471 387.438400
   5372   5371   5383     1   110.5600475 386.601600
   5372   5371   5373     1   109.7500473 328.025600
   5373   5371   5383     1   110.5600475 386.601600
   5374   5370   5399     1   110.1100470 384.091200
   5374   5386   5387     1   109.8000471 387.438400
   5374   5386   5388     1   109.8000471 387.438400
   5375   5374   5386     1   110.5600475 386.601600
   5375   5374   5376     1   109.7500473 328.025600
   5376   5374   5386     1   110.5600475 386.601600
   5377   5370   5399     1   110.1100470 384.091200
   5377   5380   5381     1   109.8000471 387.438400
   5377   5380   5382     1   109.8000471 387.438400
   5378   5377   5380     1   110.5600475 386.601600
   5378   5377   5379     1   109.7500473 328.025600
   5379   5377   5380     1   110.5600475 386.601600
   5380   5389   5390     1   109.5600471 388.275200
   5380   5389   5391     1   109.5600471 388.275200
   5381   5380   5389     1   109.8000471 387.438400
   5381   5380   5382     1   107.5800459 329.699200
   5382   5380   5389     1   109.8000471 387.438400
   5383   5395   5396     1   109.5600471 388.275200
   5383   5395   5397     1   109.5600471 388.275200
   5384   5383   5395     1   109.8000471 387.438400
   5384   5383   5385     1   107.5800459 329.699200
   5385   5383   5395     1   109.8000471 387.438400
   5386   5392   5393     1   109.5600471 388.275200
   5386   5392   5394     1   109.5600471 388.275200
   5387   5386   5392     1   109.8000471 387.438400
   5387   5386   5388     1   107.5800459 329.699200
   5388   5386   5392     1   109.8000471 387.438400
   5390   5389   5398     1   109.7800468 425.094400
   5390   5389   5391     1   108.4600466 328.025600
   5391   5389   5398     1   109.7800468 425.094400
   5393   5392  10828     1   109.7800468 425.094400
   5393   5392   5394     1   108.4600466 328.025600
   5394   5392  10828     1   109.7800468 425.094400
   5396   5395  10858     1   109.7800468 425.094400
   5396   5395   5397     1   108.4600466 328.025600
   5397   5395  10858     1   109.7800468 425.094400
   5400   5401   5402     1   108.0100461 406.684800
   5400   5401   5403     1   108.0100461 406.684800
   5400   5404   5405     1   108.0100461 406.684800
   5400   5404   5406     1   108.0100461 406.684800
   5400   5407   5408     1   108.0100461 406.684800
   5400   5407   5409     1   108.0100461 406.684800
   5401   5400   5429     1   110.1100470 384.091200
   5401   5413   5414     1   109.8000471 387.438400
   5401   5413   5415     1   109.8000471 387.438400
   5402   5401   5413     1   110.5600475 386.601600
   5402   5401   5403     1   109.7500473 328.025600
   5403   5401   5413     1   110.5600475 386.601600
   5404   5400   5429     1   110.1100470 384.091200
   5404   5416   5417     1   109.8000471 387.438400
   5404   5416   5418     1   109.8000471 387.438400
   5405   5404   5416     1   110.5600475 386.601600
   5405   5404   5406     1   109.7500473 328.025600
   5406   5404   5416     1   110.5600475 386.601600
   5407   5400   5429     1   110.1100470 384.091200
   5407   5410   5411     1   109.8000471 387.438400
   5407   5410   5412     1   109.8000471 387.438400
   5408   5407   5410     1   110.5600475 386.601600
   5408   5407   5409     1   109.7500473 328.025600
   5409   5407   5410     1   110.5600475 386.601600
   5410   5419   5420     1   109.5600471 388.275200
   5410   5419   5421     1   109.5600471 388.275200
   5411   5410   5419     1   109.8000471 387.438400
   5411   5410   5412     1   107.5800459 329.699200
   5412   5410   5419     1   109.8000471 387.438400
   5413   5425   5426     1   109.5600471 388.275200
   5413   5425   5427     1   109.5600471 388.275200
   5414   5413   5425     1   109.8000471 387.438400
   5414   5413   5415     1   107.5800459 329.699200
   5415   5413   5425     1   109.8000471 387.438400
   5416   5422   5423     1   109.5600471 388.275200
   5416   5422   5424     1   109.5600471 388.275200
   5417   5416   5422     1   109.8000471 387.438400
   5417   5416   5418     1   107.5800459 329.699200
   5418   5416   5422     1   109.8000471 387.438400
   5420   5419   5428     1   109.7800468 425.094400
   5420   5419   5421     1   108.4600466 328.025600
   5421   5419   5428     1   109.7800468 425.094400
   5423   5422  10888     1   109.7800468 425.094400
   5423   5422   5424     1   108.4600466 328.025600
   5424   5422  10888     1   109.7800468 425.094400
   5426   5425  10918     1   109.7800468 425.094400
   5426   5425   5427     1   108.4600466 328.025600
   5427   5425  10918     1   109.7800468 425.094400
   5430   5431   5432     1   108.0100461 406.684800
   5430   5431   5433     1   108.0100461 406.684800
   5430   5434   5435     1   108.0100461 406.684800
   5430   5434   5436     1   108.0100461 406.684800
   5430   5437   5438     1   108.0100461 406.684800
   5430   5437   5439     1   108.0100461 406.684800
   5431   5430   5459     1   110.1100470 384.091200
   5431   5443   5444     1   109.8000471 387.438400
   5431   5443   5445     1   109.8000471 387.438400
   5432   5431   5443     1   110.5600475 386.601600
   5432   5431   5433     1   109.7500473 328.025600
   5433   5431   5443     1   110.5600475 386.601600
   5434   5430   5459     1   110.1100470 384.091200
   5434   5446   5447     1   109.8000471 387.438400
   5434   5446   5448     1   109.8000471 387.438400
   5435   5434   5446     1   110.5600475 386.601600
   5435   5434   5436     1   109.7500473 328.025600
   5436   5434   5446     1   110.5600475 386.601600
   5437   5430   5459     1   110.1100470 384.091200
   5437   5440   5441     1   109.8000471 387.438400
   5437   5440   5442     1   109.8000471 387.438400
   5438   5437   5440     1   110.5600475 386.601600
   5438   5437   5439     1   109.7500473 328.025600
   5439   5437   5440     1   110.5600475 386.601600
   5440   5449   5450     1   109.5600471 388.275200
   5440   5449   5451     1   109.5600471 388.275200
   5441   5440   5449     1   109.8000471 387.438400
   5441   5440   5442     1   107.5800459 329.699200
   5442   5440   5449     1   109.8000471 387.438400
   5443   5455   5456     1   109.5600471 388.275200
   5443   5455   5457     1   109.5600471 388.275200
   5444   5443   5455     1   109.8000471 387.438400
   5444   5443   5445     1   107.5800459 329.699200
   5445   5443   5455     1   109.8000471 387.438400
   5446   5452   5453     1   109.5600471 388.275200
   5446   5452   5454     1   109.5600471 388.275200
   5447   5446   5452     1   109.8000471 387.438400
   5447   5446   5448     1   107.5800459 329.699200
   5448   5446   5452     1   109.8000471 387.438400
   5450   5449   5458     1   109.7800468 425.094400
   5450   5449   5451     1   108.4600466 328.025600
   5451   5449   5458     1   109.7800468 425.094400
   5453   5452  10948     1   109.7800468 425.094400
   5453   5452   5454     1   108.4600466 328.025600
   5454   5452  10948     1   109.7800468 425.094400
   5456   5455  10978     1   109.7800468 425.094400
   5456   5455   5457     1   108.4600466 328.025600
   5457   5455  10978     1   109.7800468 425.094400
   5460   5461   5462     1   108.0100461 406.684800
   5460   5461   5463     1   108.0100461 406.684800
   5460   5464   5465     1   108.0100461 406.684800
   5460   5464   5466     1   108.0100461 406.684800
   5460   5467   5468     1   108.0100461 406.684800
   5460   5467   5469     1   108.0100461 406.684800
   5461   5460   5489     1   110.1100470 384.091200
   5461   5473   5474     1   109.8000471 387.438400
   5461   5473   5475     1   109.8000471 387.438400
   5462   5461   5473     1   110.5600475 386.601600
   5462   5461   5463     1   109.7500473 328.025600
   5463   5461   5473     1   110.5600475 386.601600
   5464   5460   5489     1   110.1100470 384.091200
   5464   5476   5477     1   109.8000471 387.438400
   5464   5476   5478     1   109.8000471 387.438400
   5465   5464   5476     1   110.5600475 386.601600
   5465   5464   5466     1   109.7500473 328.025600
   5466   5464   5476     1   110.5600475 386.601600
   5467   5460   5489     1   110.1100470 384.091200
   5467   5470   5471     1   109.8000471 387.438400
   5467   5470   5472     1   109.8000471 387.438400
   5468   5467   5470     1   110.5600475 386.601600
   5468   5467   5469     1   109.7500473 328.025600
   5469   5467   5470     1   110.5600475 386.601600
   5470   5479   5480     1   109.5600471 388.275200
   5470   5479   5481     1   109.5600471 388.275200
   5471   5470   5479     1   109.8000471 387.438400
   5471   5470   5472     1   107.5800459 329.699200
   5472   5470   5479     1   109.8000471 387.438400
   5473   5485   5486     1   109.5600471 388.275200
   5473   5485   5487     1   109.5600471 388.275200
   5474   5473   5485     1   109.8000471 387.438400
   5474   5473   5475     1   107.5800459 329.699200
   5475   5473   5485     1   109.8000471 387.438400
   5476   5482   5483     1   109.5600471 388.275200
   5476   5482   5484     1   109.5600471 388.275200
   5477   5476   5482     1   109.8000471 387.438400
   5477   5476   5478     1   107.5800459 329.699200
   5478   5476   5482     1   109.8000471 387.438400
   5480   5479   5488     1   109.7800468 425.094400
   5480   5479   5481     1   108.4600466 328.025600
   5481   5479   5488     1   109.7800468 425.094400
   5483   5482  11008     1   109.7800468 425.094400
   5483   5482   5484     1   108.4600466 328.025600
   5484   5482  11008     1   109.7800468 425.094400
   5486   5485  11038     1   109.7800468 425.094400
   5486   5485   5487     1   108.4600466 328.025600
   5487   5485  11038     1   109.7800468 425.094400
   5490   5491   5492     1   108.0100461 406.684800
   5490   5491   5493     1   108.0100461 406.684800
   5490   5494   5495     1   108.0100461 406.684800
   5490   5494   5496     1   108.0100461 406.684800
   5490   5497   5498     1   108.0100461 406.684800
   5490   5497   5499     1   108.0100461 406.684800
   5491   5490   5519     1   110.1100470 384.091200
   5491   5503   5504     1   109.8000471 387.438400
   5491   5503   5505     1   109.8000471 387.438400
   5492   5491   5503     1   110.5600475 386.601600
   5492   5491   5493     1   109.7500473 328.025600
   5493   5491   5503     1   110.5600475 386.601600
   5494   5490   5519     1   110.1100470 384.091200
   5494   5506   5507     1   109.8000471 387.438400
   5494   5506   5508     1   109.8000471 387.438400
   5495   5494   5506     1   110.5600475 386.601600
   5495   5494   5496     1   109.7500473 328.025600
   5496   5494   5506     1   110.5600475 386.601600
   5497   5490   5519     1   110.1100470 384.091200
   5497   5500   5501     1   109.8000471 387.438400
   5497   5500   5502     1   109.8000471 387.438400
   5498   5497   5500     1   110.5600475 386.601600
   5498   5497   5499     1   109.7500473 328.025600
   5499   5497   5500     1   110.5600475 386.601600
   5500   5509   5510     1   109.5600471 388.275200
   5500   5509   5511     1   109.5600471 388.275200
   5501   5500   5509     1   109.8000471 387.438400
   5501   5500   5502     1   107.5800459 329.699200
   5502   5500   5509     1   109.8000471 387.438400
   5503   5515   5516     1   109.5600471 388.275200
   5503   5515   5517     1   109.5600471 388.275200
   5504   5503   5515     1   109.8000471 387.438400
   5504   5503   5505     1   107.5800459 329.699200
   5505   5503   5515     1   109.8000471 387.438400
   5506   5512   5513     1   109.5600471 388.275200
   5506   5512   5514     1   109.5600471 388.275200
   5507   5506   5512     1   109.8000471 387.438400
   5507   5506   5508     1   107.5800459 329.699200
   5508   5506   5512     1   109.8000471 387.438400
   5510   5509   5518     1   109.7800468 425.094400
   5510   5509   5511     1   108.4600466 328.025600
   5511   5509   5518     1   109.7800468 425.094400
   5513   5512  11068     1   109.7800468 425.094400
   5513   5512   5514     1   108.4600466 328.025600
   5514   5512  11068     1   109.7800468 425.094400
   5516   5515  11098     1   109.7800468 425.094400
   5516   5515   5517     1   108.4600466 328.025600
   5517   5515  11098     1   109.7800468 425.094400
   5520   5521   5522     1   108.0100461 406.684800
   5520   5521   5523     1   108.0100461 406.684800
   5520   5524   5525     1   108.0100461 406.684800
   5520   5524   5526     1   108.0100461 406.684800
   5520   5527   5528     1   108.0100461 406.684800
   5520   5527   5529     1   108.0100461 406.684800
   5521   5520   5549     1   110.1100470 384.091200
   5521   5533   5534     1   109.8000471 387.438400
   5521   5533   5535     1   109.8000471 387.438400
   5522   5521   5533     1   110.5600475 386.601600
   5522   5521   5523     1   109.7500473 328.025600
   5523   5521   5533     1   110.5600475 386.601600
   5524   5520   5549     1   110.1100470 384.091200
   5524   5536   5537     1   109.8000471 387.438400
   5524   5536   5538     1   109.8000471 387.438400
   5525   5524   5536     1   110.5600475 386.601600
   5525   5524   5526     1   109.7500473 328.025600
   5526   5524   5536     1   110.5600475 386.601600
   5527   5520   5549     1   110.1100470 384.091200
   5527   5530   5531     1   109.8000471 387.438400
   5527   5530   5532     1   109.8000471 387.438400
   5528   5527   5530     1   110.5600475 386.601600
   5528   5527   5529     1   109.7500473 328.025600
   5529   5527   5530     1   110.5600475 386.601600
   5530   5539   5540     1   109.5600471 388.275200
   5530   5539   5541     1   109.5600471 388.275200
   5531   5530   5539     1   109.8000471 387.438400
   5531   5530   5532     1   107.5800459 329.699200
   5532   5530   5539     1   109.8000471 387.438400
   5533   5545   5546     1   109.5600471 388.275200
   5533   5545   5547     1   109.5600471 388.275200
   5534   5533   5545     1   109.8000471 387.438400
   5534   5533   5535     1   107.5800459 329.699200
   5535   5533   5545     1   109.8000471 387.438400
   5536   5542   5543     1   109.5600471 388.275200
   5536   5542   5544     1   109.5600471 388.275200
   5537   5536   5542     1   109.8000471 387.438400
   5537   5536   5538     1   107.5800459 329.699200
   5538   5536   5542     1   109.8000471 387.438400
   5540   5539   5548     1   109.7800468 425.094400
   5540   5539   5541     1   108.4600466 328.025600
   5541   5539   5548     1   109.7800468 425.094400
   5543   5542  11128     1   109.7800468 425.094400
   5543   5542   5544     1   108.4600466 328.025600
   5544   5542  11128     1   109.7800468 425.094400
   5546   5545  11158     1   109.7800468 425.094400
   5546   5545   5547     1   108.4600466 328.025600
   5547   5545  11158     1   109.7800468 425.094400
   5550   5551   5552     1   108.0100461 406.684800
   5550   5551   5553     1   108.0100461 406.684800
   5550   5554   5555     1   108.0100461 406.684800
   5550   5554   5556     1   108.0100461 406.684800
   5550   5557   5558     1   108.0100461 406.684800
   5550   5557   5559     1   108.0100461 406.684800
   5551   5550   5579     1   110.1100470 384.091200
   5551   5563   5564     1   109.8000471 387.438400
   5551   5563   5565     1   109.8000471 387.438400
   5552   5551   5563     1   110.5600475 386.601600
   5552   5551   5553     1   109.7500473 328.025600
   5553   5551   5563     1   110.5600475 386.601600
   5554   5550   5579     1   110.1100470 384.091200
   5554   5566   5567     1   109.8000471 387.438400
   5554   5566   5568     1   109.8000471 387.438400
   5555   5554   5566     1   110.5600475 386.601600
   5555   5554   5556     1   109.7500473 328.025600
   5556   5554   5566     1   110.5600475 386.601600
   5557   5550   5579     1   110.1100470 384.091200
   5557   5560   5561     1   109.8000471 387.438400
   5557   5560   5562     1   109.8000471 387.438400
   5558   5557   5560     1   110.5600475 386.601600
   5558   5557   5559     1   109.7500473 328.025600
   5559   5557   5560     1   110.5600475 386.601600
   5560   5569   5570     1   109.5600471 388.275200
   5560   5569   5571     1   109.5600471 388.275200
   5561   5560   5569     1   109.8000471 387.438400
   5561   5560   5562     1   107.5800459 329.699200
   5562   5560   5569     1   109.8000471 387.438400
   5563   5575   5576     1   109.5600471 388.275200
   5563   5575   5577     1   109.5600471 388.275200
   5564   5563   5575     1   109.8000471 387.438400
   5564   5563   5565     1   107.5800459 329.699200
   5565   5563   5575     1   109.8000471 387.438400
   5566   5572   5573     1   109.5600471 388.275200
   5566   5572   5574     1   109.5600471 388.275200
   5567   5566   5572     1   109.8000471 387.438400
   5567   5566   5568     1   107.5800459 329.699200
   5568   5566   5572     1   109.8000471 387.438400
   5570   5569   5578     1   109.7800468 425.094400
   5570   5569   5571     1   108.4600466 328.025600
   5571   5569   5578     1   109.7800468 425.094400
   5573   5572  11188     1   109.7800468 425.094400
   5573   5572   5574     1   108.4600466 328.025600
   5574   5572  11188     1   109.7800468 425.094400
   5576   5575  11218     1   109.7800468 425.094400
   5576   5575   5577     1   108.4600466 328.025600
   5577   5575  11218     1   109.7800468 425.094400
   5580   5581   5582     1   108.0100461 406.684800
   5580   5581   5583     1   108.0100461 406.684800
   5580   5584   5585     1   108.0100461 406.684800
   5580   5584   5586     1   108.0100461 406.684800
   5580   5587   5588     1   108.0100461 406.684800
   5580   5587   5589     1   108.0100461 406.684800
   5581   5580   5609     1   110.1100470 384.091200
   5581   5593   5594     1   109.8000471 387.438400
   5581   5593   5595     1   109.8000471 387.438400
   5582   5581   5593     1   110.5600475 386.601600
   5582   5581   5583     1   109.7500473 328.025600
   5583   5581   5593     1   110.5600475 386.601600
   5584   5580   5609     1   110.1100470 384.091200
   5584   5596   5597     1   109.8000471 387.438400
   5584   5596   5598     1   109.8000471 387.438400
   5585   5584   5596     1   110.5600475 386.601600
   5585   5584   5586     1   109.7500473 328.025600
   5586   5584   5596     1   110.5600475 386.601600
   5587   5580   5609     1   110.1100470 384.091200
   5587   5590   5591     1   109.8000471 387.438400
   5587   5590   5592     1   109.8000471 387.438400
   5588   5587   5590     1   110.5600475 386.601600
   5588   5587   5589     1   109.7500473 328.025600
   5589   5587   5590     1   110.5600475 386.601600
   5590   5599   5600     1   109.5600471 388.275200
   5590   5599   5601     1   109.5600471 388.275200
   5591   5590   5599     1   109.8000471 387.438400
   5591   5590   5592     1   107.5800459 329.699200
   5592   5590   5599     1   109.8000471 387.438400
   5593   5605   5606     1   109.5600471 388.275200
   5593   5605   5607     1   109.5600471 388.275200
   5594   5593   5605     1   109.8000471 387.438400
   5594   5593   5595     1   107.5800459 329.699200
   5595   5593   5605     1   109.8000471 387.438400
   5596   5602   5603     1   109.5600471 388.275200
   5596   5602   5604     1   109.5600471 388.275200
   5597   5596   5602     1   109.8000471 387.438400
   5597   5596   5598     1   107.5800459 329.699200
   5598   5596   5602     1   109.8000471 387.438400
   5600   5599   5608     1   109.7800468 425.094400
   5600   5599   5601     1   108.4600466 328.025600
   5601   5599   5608     1   109.7800468 425.094400
   5603   5602  11248     1   109.7800468 425.094400
   5603   5602   5604     1   108.4600466 328.025600
   5604   5602  11248     1   109.7800468 425.094400
   5606   5605  11278     1   109.7800468 425.094400
   5606   5605   5607     1   108.4600466 328.025600
   5607   5605  11278     1   109.7800468 425.094400
   5610   5611   5612     1   108.0100461 406.684800
   5610   5611   5613     1   108.0100461 406.684800
   5610   5614   5615     1   108.0100461 406.684800
   5610   5614   5616     1   108.0100461 406.684800
   5610   5617   5618     1   108.0100461 406.684800
   5610   5617   5619     1   108.0100461 406.684800
   5611   5610   5639     1   110.1100470 384.091200
   5611   5623   5624     1   109.8000471 387.438400
   5611   5623   5625     1   109.8000471 387.438400
   5612   5611   5623     1   110.5600475 386.601600
   5612   5611   5613     1   109.7500473 328.025600
   5613   5611   5623     1   110.5600475 386.601600
   5614   5610   5639     1   110.1100470 384.091200
   5614   5626   5627     1   109.8000471 387.438400
   5614   5626   5628     1   109.8000471 387.438400
   5615   5614   5626     1   110.5600475 386.601600
   5615   5614   5616     1   109.7500473 328.025600
   5616   5614   5626     1   110.5600475 386.601600
   5617   5610   5639     1   110.1100470 384.091200
   5617   5620   5621     1   109.8000471 387.438400
   5617   5620   5622     1   109.8000471 387.438400
   5618   5617   5620     1   110.5600475 386.601600
   5618   5617   5619     1   109.7500473 328.025600
   5619   5617   5620     1   110.5600475 386.601600
   5620   5629   5630     1   109.5600471 388.275200
   5620   5629   5631     1   109.5600471 388.275200
   5621   5620   5629     1   109.8000471 387.438400
   5621   5620   5622     1   107.5800459 329.699200
   5622   5620   5629     1   109.8000471 387.438400
   5623   5635   5636     1   109.5600471 388.275200
   5623   5635   5637     1   109.5600471 388.275200
   5624   5623   5635     1   109.8000471 387.438400
   5624   5623   5625     1   107.5800459 329.699200
   5625   5623   5635     1   109.8000471 387.438400
   5626   5632   5633     1   109.5600471 388.275200
   5626   5632   5634     1   109.5600471 388.275200
   5627   5626   5632     1   109.8000471 387.438400
   5627   5626   5628     1   107.5800459 329.699200
   5628   5626   5632     1   109.8000471 387.438400
   5630   5629   5638     1   109.7800468 425.094400
   5630   5629   5631     1   108.4600466 328.025600
   5631   5629   5638     1   109.7800468 425.094400
   5633   5632  11308     1   109.7800468 425.094400
   5633   5632   5634     1   108.4600466 328.025600
   5634   5632  11308     1   109.7800468 425.094400
   5636   5635  11338     1   109.7800468 425.094400
   5636   5635   5637     1   108.4600466 328.025600
   5637   5635  11338     1   109.7800468 425.094400
   5640   5641   5642     1   108.0100461 406.684800
   5640   5641   5643     1   108.0100461 406.684800
   5640   5644   5645     1   108.0100461 406.684800
   5640   5644   5646     1   108.0100461 406.684800
   5640   5647   5648     1   108.0100461 406.684800
   5640   5647   5649     1   108.0100461 406.684800
   5641   5640   5669     1   110.1100470 384.091200
   5641   5653   5654     1   109.8000471 387.438400
   5641   5653   5655     1   109.8000471 387.438400
   5642   5641   5653     1   110.5600475 386.601600
   5642   5641   5643     1   109.7500473 328.025600
   5643   5641   5653     1   110.5600475 386.601600
   5644   5640   5669     1   110.1100470 384.091200
   5644   5656   5657     1   109.8000471 387.438400
   5644   5656   5658     1   109.8000471 387.438400
   5645   5644   5656     1   110.5600475 386.601600
   5645   5644   5646     1   109.7500473 328.025600
   5646   5644   5656     1   110.5600475 386.601600
   5647   5640   5669     1   110.1100470 384.091200
   5647   5650   5651     1   109.8000471 387.438400
   5647   5650   5652     1   109.8000471 387.438400
   5648   5647   5650     1   110.5600475 386.601600
   5648   5647   5649     1   109.7500473 328.025600
   5649   5647   5650     1   110.5600475 386.601600
   5650   5659   5660     1   109.5600471 388.275200
   5650   5659   5661     1   109.5600471 388.275200
   5651   5650   5659     1   109.8000471 387.438400
   5651   5650   5652     1   107.5800459 329.699200
   5652   5650   5659     1   109.8000471 387.438400
   5653   5665   5666     1   109.5600471 388.275200
   5653   5665   5667     1   109.5600471 388.275200
   5654   5653   5665     1   109.8000471 387.438400
   5654   5653   5655     1   107.5800459 329.699200
   5655   5653   5665     1   109.8000471 387.438400
   5656   5662   5663     1   109.5600471 388.275200
   5656   5662   5664     1   109.5600471 388.275200
   5657   5656   5662     1   109.8000471 387.438400
   5657   5656   5658     1   107.5800459 329.699200
   5658   5656   5662     1   109.8000471 387.438400
   5660   5659   5668     1   109.7800468 425.094400
   5660   5659   5661     1   108.4600466 328.025600
   5661   5659   5668     1   109.7800468 425.094400
   5663   5662  11368     1   109.7800468 425.094400
   5663   5662   5664     1   108.4600466 328.025600
   5664   5662  11368     1   109.7800468 425.094400
   5666   5665  11398     1   109.7800468 425.094400
   5666   5665   5667     1   108.4600466 328.025600
   5667   5665  11398     1   109.7800468 425.094400
   5670   5671   5672     1   108.0100461 406.684800
   5670   5671   5673     1   108.0100461 406.684800
   5670   5674   5675     1   108.0100461 406.684800
   5670   5674   5676     1   108.0100461 406.684800
   5670   5677   5678     1   108.0100461 406.684800
   5670   5677   5679     1   108.0100461 406.684800
   5671   5670   5699     1   110.1100470 384.091200
   5671   5683   5684     1   109.8000471 387.438400
   5671   5683   5685     1   109.8000471 387.438400
   5672   5671   5683     1   110.5600475 386.601600
   5672   5671   5673     1   109.7500473 328.025600
   5673   5671   5683     1   110.5600475 386.601600
   5674   5670   5699     1   110.1100470 384.091200
   5674   5686   5687     1   109.8000471 387.438400
   5674   5686   5688     1   109.8000471 387.438400
   5675   5674   5686     1   110.5600475 386.601600
   5675   5674   5676     1   109.7500473 328.025600
   5676   5674   5686     1   110.5600475 386.601600
   5677   5670   5699     1   110.1100470 384.091200
   5677   5680   5681     1   109.8000471 387.438400
   5677   5680   5682     1   109.8000471 387.438400
   5678   5677   5680     1   110.5600475 386.601600
   5678   5677   5679     1   109.7500473 328.025600
   5679   5677   5680     1   110.5600475 386.601600
   5680   5689   5690     1   109.5600471 388.275200
   5680   5689   5691     1   109.5600471 388.275200
   5681   5680   5689     1   109.8000471 387.438400
   5681   5680   5682     1   107.5800459 329.699200
   5682   5680   5689     1   109.8000471 387.438400
   5683   5695   5696     1   109.5600471 388.275200
   5683   5695   5697     1   109.5600471 388.275200
   5684   5683   5695     1   109.8000471 387.438400
   5684   5683   5685     1   107.5800459 329.699200
   5685   5683   5695     1   109.8000471 387.438400
   5686   5692   5693     1   109.5600471 388.275200
   5686   5692   5694     1   109.5600471 388.275200
   5687   5686   5692     1   109.8000471 387.438400
   5687   5686   5688     1   107.5800459 329.699200
   5688   5686   5692     1   109.8000471 387.438400
   5690   5689   5698     1   109.7800468 425.094400
   5690   5689   5691     1   108.4600466 328.025600
   5691   5689   5698     1   109.7800468 425.094400
   5693   5692  11428     1   109.7800468 425.094400
   5693   5692   5694     1   108.4600466 328.025600
   5694   5692  11428     1   109.7800468 425.094400
   5696   5695  11458     1   109.7800468 425.094400
   5696   5695   5697     1   108.4600466 328.025600
   5697   5695  11458     1   109.7800468 425.094400
   5700   5701   5702     1   108.0100461 406.684800
   5700   5701   5703     1   108.0100461 406.684800
   5700   5704   5705     1   108.0100461 406.684800
   5700   5704   5706     1   108.0100461 406.684800
   5700   5707   5708     1   108.0100461 406.684800
   5700   5707   5709     1   108.0100461 406.684800
   5701   5700   5729     1   110.1100470 384.091200
   5701   5713   5714     1   109.8000471 387.438400
   5701   5713   5715     1   109.8000471 387.438400
   5702   5701   5713     1   110.5600475 386.601600
   5702   5701   5703     1   109.7500473 328.025600
   5703   5701   5713     1   110.5600475 386.601600
   5704   5700   5729     1   110.1100470 384.091200
   5704   5716   5717     1   109.8000471 387.438400
   5704   5716   5718     1   109.8000471 387.438400
   5705   5704   5716     1   110.5600475 386.601600
   5705   5704   5706     1   109.7500473 328.025600
   5706   5704   5716     1   110.5600475 386.601600
   5707   5700   5729     1   110.1100470 384.091200
   5707   5710   5711     1   109.8000471 387.438400
   5707   5710   5712     1   109.8000471 387.438400
   5708   5707   5710     1   110.5600475 386.601600
   5708   5707   5709     1   109.7500473 328.025600
   5709   5707   5710     1   110.5600475 386.601600
   5710   5719   5720     1   109.5600471 388.275200
   5710   5719   5721     1   109.5600471 388.275200
   5711   5710   5719     1   109.8000471 387.438400
   5711   5710   5712     1   107.5800459 329.699200
   5712   5710   5719     1   109.8000471 387.438400
   5713   5725   5726     1   109.5600471 388.275200
   5713   5725   5727     1   109.5600471 388.275200
   5714   5713   5725     1   109.8000471 387.438400
   5714   5713   5715     1   107.5800459 329.699200
   5715   5713   5725     1   109.8000471 387.438400
   5716   5722   5723     1   109.5600471 388.275200
   5716   5722   5724     1   109.5600471 388.275200
   5717   5716   5722     1   109.8000471 387.438400
   5717   5716   5718     1   107.5800459 329.699200
   5718   5716   5722     1   109.8000471 387.438400
   5720   5719   5728     1   109.7800468 425.094400
   5720   5719   5721     1   108.4600466 328.025600
   5721   5719   5728     1   109.7800468 425.094400
   5723   5722  11470     1   109.7800468 425.094400
   5723   5722   5724     1   108.4600466 328.025600
   5724   5722  11470     1   109.7800468 425.094400
   5726   5725  11493     1   109.7800468 425.094400
   5726   5725   5727     1   108.4600466 328.025600
   5727   5725  11493     1   109.7800468 425.094400
   5730   5731   5732     1   108.0100461 406.684800
   5730   5731   5733     1   108.0100461 406.684800
   5730   5734   5735     1   108.0100461 406.684800
   5730   5734   5736     1   108.0100461 406.684800
   5730   5737   5738     1   108.0100461 406.684800
   5730   5737   5739     1   108.0100461 406.684800
   5731   5730   5759     1   110.1100470 384.091200
   5731   5743   5744     1   109.8000471 387.438400
   5731   5743   5745     1   109.8000471 387.438400
   5732   5731   5743     1   110.5600475 386.601600
   5732   5731   5733     1   109.7500473 328.025600
   5733   5731   5743     1   110.5600475 386.601600
   5734   5730   5759     1   110.1100470 384.091200
   5734   5746   5747     1   109.8000471 387.438400
   5734   5746   5748     1   109.8000471 387.438400
   5735   5734   5746     1   110.5600475 386.601600
   5735   5734   5736     1   109.7500473 328.025600
   5736   5734   5746     1   110.5600475 386.601600
   5737   5730   5759     1   110.1100470 384.091200
   5737   5740   5741     1   109.8000471 387.438400
   5737   5740   5742     1   109.8000471 387.438400
   5738   5737   5740     1   110.5600475 386.601600
   5738   5737   5739     1   109.7500473 328.025600
   5739   5737   5740     1   110.5600475 386.601600
   5740   5749   5750     1   109.5600471 388.275200
   5740   5749   5751     1   109.5600471 388.275200
   5741   5740   5749     1   109.8000471 387.438400
   5741   5740   5742     1   107.5800459 329.699200
   5742   5740   5749     1   109.8000471 387.438400
   5743   5755   5756     1   109.5600471 388.275200
   5743   5755   5757     1   109.5600471 388.275200
   5744   5743   5755     1   109.8000471 387.438400
   5744   5743   5745     1   107.5800459 329.699200
   5745   5743   5755     1   109.8000471 387.438400
   5746   5752   5753     1   109.5600471 388.275200
   5746   5752   5754     1   109.5600471 388.275200
   5747   5746   5752     1   109.8000471 387.438400
   5747   5746   5748     1   107.5800459 329.699200
   5748   5746   5752     1   109.8000471 387.438400
   5750   5749   5758     1   109.7800468 425.094400
   5750   5749   5751     1   108.4600466 328.025600
   5751   5749   5758     1   109.7800468 425.094400
   5753   5752  11516     1   109.7800468 425.094400
   5753   5752   5754     1   108.4600466 328.025600
   5754   5752  11516     1   109.7800468 425.094400
   5756   5755  11539     1   109.7800468 425.094400
   5756   5755   5757     1   108.4600466 328.025600
   5757   5755  11539     1   109.7800468 425.094400
   5760   5761   5762     1   108.0100461 406.684800
   5760   5761   5763     1   108.0100461 406.684800
   5760   5764   5765     1   108.0100461 406.684800
   5760   5764   5766     1   108.0100461 406.684800
   5760   5767   5768     1   108.0100461 406.684800
   5760   5767   5769     1   108.0100461 406.684800
   5761   5760   5789     1   110.1100470 384.091200
   5761   5773   5774     1   109.8000471 387.438400
   5761   5773   5775     1   109.8000471 387.438400
   5762   5761   5773     1   110.5600475 386.601600
   5762   5761   5763     1   109.7500473 328.025600
   5763   5761   5773     1   110.5600475 386.601600
   5764   5760   5789     1   110.1100470 384.091200
   5764   5776   5777     1   109.8000471 387.438400
   5764   5776   5778     1   109.8000471 387.438400
   5765   5764   5776     1   110.5600475 386.601600
   5765   5764   5766     1   109.7500473 328.025600
   5766   5764   5776     1   110.5600475 386.601600
   5767   5760   5789     1   110.1100470 384.091200
   5767   5770   5771     1   109.8000471 387.438400
   5767   5770   5772     1   109.8000471 387.438400
   5768   5767   5770     1   110.5600475 386.601600
   5768   5767   5769     1   109.7500473 328.025600
   5769   5767   5770     1   110.5600475 386.601600
   5770   5779   5780     1   109.5600471 388.275200
   5770   5779   5781     1   109.5600471 388.275200
   5771   5770   5779     1   109.8000471 387.438400
   5771   5770   5772     1   107.5800459 329.699200
   5772   5770   5779     1   109.8000471 387.438400
   5773   5785   5786     1   109.5600471 388.275200
   5773   5785   5787     1   109.5600471 388.275200
   5774   5773   5785     1   109.8000471 387.438400
   5774   5773   5775     1   107.5800459 329.699200
   5775   5773   5785     1   109.8000471 387.438400
   5776   5782   5783     1   109.5600471 388.275200
   5776   5782   5784     1   109.5600471 388.275200
   5777   5776   5782     1   109.8000471 387.438400
   5777   5776   5778     1   107.5800459 329.699200
   5778   5776   5782     1   109.8000471 387.438400
   5780   5779   5788     1   109.7800468 425.094400
   5780   5779   5781     1   108.4600466 328.025600
   5781   5779   5788     1   109.7800468 425.094400
   5783   5782  11562     1   109.7800468 425.094400
   5783   5782   5784     1   108.4600466 328.025600
   5784   5782  11562     1   109.7800468 425.094400
   5786   5785  11585     1   109.7800468 425.094400
   5786   5785   5787     1   108.4600466 328.025600
   5787   5785  11585     1   109.7800468 425.094400
   5790   5791   5792     1   108.0100461 406.684800
   5790   5791   5793     1   108.0100461 406.684800
   5790   5794   5795     1   108.0100461 406.684800
   5790   5794   5796     1   108.0100461 406.684800
   5790   5797   5798     1   108.0100461 406.684800
   5790   5797   5799     1   108.0100461 406.684800
   5791   5790   5819     1   110.1100470 384.091200
   5791   5803   5804     1   109.8000471 387.438400
   5791   5803   5805     1   109.8000471 387.438400
   5792   5791   5803     1   110.5600475 386.601600
   5792   5791   5793     1   109.7500473 328.025600
   5793   5791   5803     1   110.5600475 386.601600
   5794   5790   5819     1   110.1100470 384.091200
   5794   5806   5807     1   109.8000471 387.438400
   5794   5806   5808     1   109.8000471 387.438400
   5795   5794   5806     1   110.5600475 386.601600
   5795   5794   5796     1   109.7500473 328.025600
   5796   5794   5806     1   110.5600475 386.601600
   5797   5790   5819     1   110.1100470 384.091200
   5797   5800   5801     1   109.8000471 387.438400
   5797   5800   5802     1   109.8000471 387.438400
   5798   5797   5800     1   110.5600475 386.601600
   5798   5797   5799     1   109.7500473 328.025600
   5799   5797   5800     1   110.5600475 386.601600
   5800   5809   5810     1   109.5600471 388.275200
   5800   5809   5811     1   109.5600471 388.275200
   5801   5800   5809     1   109.8000471 387.438400
   5801   5800   5802     1   107.5800459 329.699200
   5802   5800   5809     1   109.8000471 387.438400
   5803   5815   5816     1   109.5600471 388.275200
   5803   5815   5817     1   109.5600471 388.275200
   5804   5803   5815     1   109.8000471 387.438400
   5804   5803   5805     1   107.5800459 329.699200
   5805   5803   5815     1   109.8000471 387.438400
   5806   5812   5813     1   109.5600471 388.275200
   5806   5812   5814     1   109.5600471 388.275200
   5807   5806   5812     1   109.8000471 387.438400
   5807   5806   5808     1   107.5800459 329.699200
   5808   5806   5812     1   109.8000471 387.438400
   5810   5809   5818     1   109.7800468 425.094400
   5810   5809   5811     1   108.4600466 328.025600
   5811   5809   5818     1   109.7800468 425.094400
   5813   5812  11608     1   109.7800468 425.094400
   5813   5812   5814     1   108.4600466 328.025600
   5814   5812  11608     1   109.7800468 425.094400
   5816   5815  11631     1   109.7800468 425.094400
   5816   5815   5817     1   108.4600466 328.025600
   5817   5815  11631     1   109.7800468 425.094400
   5820   5821   5822     1   108.0100461 406.684800
   5820   5821   5823     1   108.0100461 406.684800
   5820   5824   5825     1   108.0100461 406.684800
   5820   5824   5826     1   108.0100461 406.684800
   5820   5827   5828     1   108.0100461 406.684800
   5820   5827   5829     1   108.0100461 406.684800
   5821   5820   5849     1   110.1100470 384.091200
   5821   5833   5834     1   109.8000471 387.438400
   5821   5833   5835     1   109.8000471 387.438400
   5822   5821   5833     1   110.5600475 386.601600
   5822   5821   5823     1   109.7500473 328.025600
   5823   5821   5833     1   110.5600475 386.601600
   5824   5820   5849     1   110.1100470 384.091200
   5824   5836   5837     1   109.8000471 387.438400
   5824   5836   5838     1   109.8000471 387.438400
   5825   5824   5836     1   110.5600475 386.601600
   5825   5824   5826     1   109.7500473 328.025600
   5826   5824   5836     1   110.5600475 386.601600
   5827   5820   5849     1   110.1100470 384.091200
   5827   5830   5831     1   109.8000471 387.438400
   5827   5830   5832     1   109.8000471 387.438400
   5828   5827   5830     1   110.5600475 386.601600
   5828   5827   5829     1   109.7500473 328.025600
   5829   5827   5830     1   110.5600475 386.601600
   5830   5839   5840     1   109.5600471 388.275200
   5830   5839   5841     1   109.5600471 388.275200
   5831   5830   5839     1   109.8000471 387.438400
   5831   5830   5832     1   107.5800459 329.699200
   5832   5830   5839     1   109.8000471 387.438400
   5833   5845   5846     1   109.5600471 388.275200
   5833   5845   5847     1   109.5600471 388.275200
   5834   5833   5845     1   109.8000471 387.438400
   5834   5833   5835     1   107.5800459 329.699200
   5835   5833   5845     1   109.8000471 387.438400
   5836   5842   5843     1   109.5600471 388.275200
   5836   5842   5844     1   109.5600471 388.275200
   5837   5836   5842     1   109.8000471 387.438400
   5837   5836   5838     1   107.5800459 329.699200
   5838   5836   5842     1   109.8000471 387.438400
   5840   5839   5848     1   109.7800468 425.094400
   5840   5839   5841     1   108.4600466 328.025600
   5841   5839   5848     1   109.7800468 425.094400
   5843   5842  11654     1   109.7800468 425.094400
   5843   5842   5844     1   108.4600466 328.025600
   5844   5842  11654     1   109.7800468 425.094400
   5846   5845  11677     1   109.7800468 425.094400
   5846   5845   5847     1   108.4600466 328.025600
   5847   5845  11677     1   109.7800468 425.094400
   5850   5851   5852     1   108.0100461 406.684800
   5850   5851   5853     1   108.0100461 406.684800
   5850   5854   5855     1   108.0100461 406.684800
   5850   5854   5856     1   108.0100461 406.684800
   5850   5857   5858     1   108.0100461 406.684800
   5850   5857   5859     1   108.0100461 406.684800
   5851   5850   5879     1   110.1100470 384.091200
   5851   5863   5864     1   109.8000471 387.438400
   5851   5863   5865     1   109.8000471 387.438400
   5852   5851   5863     1   110.5600475 386.601600
   5852   5851   5853     1   109.7500473 328.025600
   5853   5851   5863     1   110.5600475 386.601600
   5854   5850   5879     1   110.1100470 384.091200
   5854   5866   5867     1   109.8000471 387.438400
   5854   5866   5868     1   109.8000471 387.438400
   5855   5854   5866     1   110.5600475 386.601600
   5855   5854   5856     1   109.7500473 328.025600
   5856   5854   5866     1   110.5600475 386.601600
   5857   5850   5879     1   110.1100470 384.091200
   5857   5860   5861     1   109.8000471 387.438400
   5857   5860   5862     1   109.8000471 387.438400
   5858   5857   5860     1   110.5600475 386.601600
   5858   5857   5859     1   109.7500473 328.025600
   5859   5857   5860     1   110.5600475 386.601600
   5860   5869   5870     1   109.5600471 388.275200
   5860   5869   5871     1   109.5600471 388.275200
   5861   5860   5869     1   109.8000471 387.438400
   5861   5860   5862     1   107.5800459 329.699200
   5862   5860   5869     1   109.8000471 387.438400
   5863   5875   5876     1   109.5600471 388.275200
   5863   5875   5877     1   109.5600471 388.275200
   5864   5863   5875     1   109.8000471 387.438400
   5864   5863   5865     1   107.5800459 329.699200
   5865   5863   5875     1   109.8000471 387.438400
   5866   5872   5873     1   109.5600471 388.275200
   5866   5872   5874     1   109.5600471 388.275200
   5867   5866   5872     1   109.8000471 387.438400
   5867   5866   5868     1   107.5800459 329.699200
   5868   5866   5872     1   109.8000471 387.438400
   5870   5869   5878     1   109.7800468 425.094400
   5870   5869   5871     1   108.4600466 328.025600
   5871   5869   5878     1   109.7800468 425.094400
   5873   5872  11700     1   109.7800468 425.094400
   5873   5872   5874     1   108.4600466 328.025600
   5874   5872  11700     1   109.7800468 425.094400
   5876   5875  11723     1   109.7800468 425.094400
   5876   5875   5877     1   108.4600466 328.025600
   5877   5875  11723     1   109.7800468 425.094400
   5880   5881   5882     1   108.0100461 406.684800
   5880   5881   5883     1   108.0100461 406.684800
   5880   5884   5885     1   108.0100461 406.684800
   5880   5884   5886     1   108.0100461 406.684800
   5880   5887   5888     1   108.0100461 406.684800
   5880   5887   5889     1   108.0100461 406.684800
   5881   5880   5909     1   110.1100470 384.091200
   5881   5893   5894     1   109.8000471 387.438400
   5881   5893   5895     1   109.8000471 387.438400
   5882   5881   5893     1   110.5600475 386.601600
   5882   5881   5883     1   109.7500473 328.025600
   5883   5881   5893     1   110.5600475 386.601600
   5884   5880   5909     1   110.1100470 384.091200
   5884   5896   5897     1   109.8000471 387.438400
   5884   5896   5898     1   109.8000471 387.438400
   5885   5884   5896     1   110.5600475 386.601600
   5885   5884   5886     1   109.7500473 328.025600
   5886   5884   5896     1   110.5600475 386.601600
   5887   5880   5909     1   110.1100470 384.091200
   5887   5890   5891     1   109.8000471 387.438400
   5887   5890   5892     1   109.8000471 387.438400
   5888   5887   5890     1   110.5600475 386.601600
   5888   5887   5889     1   109.7500473 328.025600
   5889   5887   5890     1   110.5600475 386.601600
   5890   5899   5900     1   109.5600471 388.275200
   5890   5899   5901     1   109.5600471 388.275200
   5891   5890   5899     1   109.8000471 387.438400
   5891   5890   5892     1   107.5800459 329.699200
   5892   5890   5899     1   109.8000471 387.438400
   5893   5905   5906     1   109.5600471 388.275200
   5893   5905   5907     1   109.5600471 388.275200
   5894   5893   5905     1   109.8000471 387.438400
   5894   5893   5895     1   107.5800459 329.699200
   5895   5893   5905     1   109.8000471 387.438400
   5896   5902   5903     1   109.5600471 388.275200
   5896   5902   5904     1   109.5600471 388.275200
   5897   5896   5902     1   109.8000471 387.438400
   5897   5896   5898     1   107.5800459 329.699200
   5898   5896   5902     1   109.8000471 387.438400
   5900   5899   5908     1   109.7800468 425.094400
   5900   5899   5901     1   108.4600466 328.025600
   5901   5899   5908     1   109.7800468 425.094400
   5903   5902  11746     1   109.7800468 425.094400
   5903   5902   5904     1   108.4600466 328.025600
   5904   5902  11746     1   109.7800468 425.094400
   5906   5905  11769     1   109.7800468 425.094400
   5906   5905   5907     1   108.4600466 328.025600
   5907   5905  11769     1   109.7800468 425.094400
   5910   5911   5912     1   108.0100461 406.684800
   5910   5911   5913     1   108.0100461 406.684800
   5910   5914   5915     1   108.0100461 406.684800
   5910   5914   5916     1   108.0100461 406.684800
   5910   5917   5918     1   108.0100461 406.684800
   5910   5917   5919     1   108.0100461 406.684800
   5911   5910   5939     1   110.1100470 384.091200
   5911   5923   5924     1   109.8000471 387.438400
   5911   5923   5925     1   109.8000471 387.438400
   5912   5911   5923     1   110.5600475 386.601600
   5912   5911   5913     1   109.7500473 328.025600
   5913   5911   5923     1   110.5600475 386.601600
   5914   5910   5939     1   110.1100470 384.091200
   5914   5926   5927     1   109.8000471 387.438400
   5914   5926   5928     1   109.8000471 387.438400
   5915   5914   5926     1   110.5600475 386.601600
   5915   5914   5916     1   109.7500473 328.025600
   5916   5914   5926     1   110.5600475 386.601600
   5917   5910   5939     1   110.1100470 384.091200
   5917   5920   5921     1   109.8000471 387.438400
   5917   5920   5922     1   109.8000471 387.438400
   5918   5917   5920     1   110.5600475 386.601600
   5918   5917   5919     1   109.7500473 328.025600
   5919   5917   5920     1   110.5600475 386.601600
   5920   5929   5930     1   109.5600471 388.275200
   5920   5929   5931     1   109.5600471 388.275200
   5921   5920   5929     1   109.8000471 387.438400
   5921   5920   5922     1   107.5800459 329.699200
   5922   5920   5929     1   109.8000471 387.438400
   5923   5935   5936     1   109.5600471 388.275200
   5923   5935   5937     1   109.5600471 388.275200
   5924   5923   5935     1   109.8000471 387.438400
   5924   5923   5925     1   107.5800459 329.699200
   5925   5923   5935     1   109.8000471 387.438400
   5926   5932   5933     1   109.5600471 388.275200
   5926   5932   5934     1   109.5600471 388.275200
   5927   5926   5932     1   109.8000471 387.438400
   5927   5926   5928     1   107.5800459 329.699200
   5928   5926   5932     1   109.8000471 387.438400
   5930   5929   5938     1   109.7800468 425.094400
   5930   5929   5931     1   108.4600466 328.025600
   5931   5929   5938     1   109.7800468 425.094400
   5933   5932  11792     1   109.7800468 425.094400
   5933   5932   5934     1   108.4600466 328.025600
   5934   5932  11792     1   109.7800468 425.094400
   5936   5935  11815     1   109.7800468 425.094400
   5936   5935   5937     1   108.4600466 328.025600
   5937   5935  11815     1   109.7800468 425.094400
   5940   5941   5942     1   108.0100461 406.684800
   5940   5941   5943     1   108.0100461 406.684800
   5940   5944   5945     1   108.0100461 406.684800
   5940   5944   5946     1   108.0100461 406.684800
   5940   5947   5948     1   108.0100461 406.684800
   5940   5947   5949     1   108.0100461 406.684800
   5941   5940   5969     1   110.1100470 384.091200
   5941   5953   5954     1   109.8000471 387.438400
   5941   5953   5955     1   109.8000471 387.438400
   5942   5941   5953     1   110.5600475 386.601600
   5942   5941   5943     1   109.7500473 328.025600
   5943   5941   5953     1   110.5600475 386.601600
   5944   5940   5969     1   110.1100470 384.091200
   5944   5956   5957     1   109.8000471 387.438400
   5944   5956   5958     1   109.8000471 387.438400
   5945   5944   5956     1   110.5600475 386.601600
   5945   5944   5946     1   109.7500473 328.025600
   5946   5944   5956     1   110.5600475 386.601600
   5947   5940   5969     1   110.1100470 384.091200
   5947   5950   5951     1   109.8000471 387.438400
   5947   5950   5952     1   109.8000471 387.438400
   5948   5947   5950     1   110.5600475 386.601600
   5948   5947   5949     1   109.7500473 328.025600
   5949   5947   5950     1   110.5600475 386.601600
   5950   5959   5960     1   109.5600471 388.275200
   5950   5959   5961     1   109.5600471 388.275200
   5951   5950   5959     1   109.8000471 387.438400
   5951   5950   5952     1   107.5800459 329.699200
   5952   5950   5959     1   109.8000471 387.438400
   5953   5965   5966     1   109.5600471 388.275200
   5953   5965   5967     1   109.5600471 388.275200
   5954   5953   5965     1   109.8000471 387.438400
   5954   5953   5955     1   107.5800459 329.699200
   5955   5953   5965     1   109.8000471 387.438400
   5956   5962   5963     1   109.5600471 388.275200
   5956   5962   5964     1   109.5600471 388.275200
   5957   5956   5962     1   109.8000471 387.438400
   5957   5956   5958     1   107.5800459 329.699200
   5958   5956   5962     1   109.8000471 387.438400
   5960   5959   5968     1   109.7800468 425.094400
   5960   5959   5961     1   108.4600466 328.025600
   5961   5959   5968     1   109.7800468 425.094400
   5963   5962  11838     1   109.7800468 425.094400
   5963   5962   5964     1   108.4600466 328.025600
   5964   5962  11838     1   109.7800468 425.094400
   5966   5965  11861     1   109.7800468 425.094400
   5966   5965   5967     1   108.4600466 328.025600
   5967   5965  11861     1   109.7800468 425.094400
   5970   5971   5972     1   108.0100461 406.684800
   5970   5971   5973     1   108.0100461 406.684800
   5970   5974   5975     1   108.0100461 406.684800
   5970   5974   5976     1   108.0100461 406.684800
   5970   5977   5978     1   108.0100461 406.684800
   5970   5977   5979     1   108.0100461 406.684800
   5971   5970   5999     1   110.1100470 384.091200
   5971   5983   5984     1   109.8000471 387.438400
   5971   5983   5985     1   109.8000471 387.438400
   5972   5971   5983     1   110.5600475 386.601600
   5972   5971   5973     1   109.7500473 328.025600
   5973   5971   5983     1   110.5600475 386.601600
   5974   5970   5999     1   110.1100470 384.091200
   5974   5986   5987     1   109.8000471 387.438400
   5974   5986   5988     1   109.8000471 387.438400
   5975   5974   5986     1   110.5600475 386.601600
   5975   5974   5976     1   109.7500473 328.025600
   5976   5974   5986     1   110.5600475 386.601600
   5977   5970   5999     1   110.1100470 384.091200
   5977   5980   5981     1   109.8000471 387.438400
   5977   5980   5982     1   109.8000471 387.438400
   5978   5977   5980     1   110.5600475 386.601600
   5978   5977   5979     1   109.7500473 328.025600
   5979   5977   5980     1   110.5600475 386.601600
   5980   5989   5990     1   109.5600471 388.275200
   5980   5989   5991     1   109.5600471 388.275200
   5981   5980   5989     1   109.8000471 387.438400
   5981   5980   5982     1   107.5800459 329.699200
   5982   5980   5989     1   109.8000471 387.438400
   5983   5995   5996     1   109.5600471 388.275200
   5983   5995   5997     1   109.5600471 388.275200
   5984   5983   5995     1   109.8000471 387.438400
   5984   5983   5985     1   107.5800459 329.699200
   5985   5983   5995     1   109.8000471 387.438400
   5986   5992   5993     1   109.5600471 388.275200
   5986   5992   5994     1   109.5600471 388.275200
   5987   5986   5992     1   109.8000471 387.438400
   5987   5986   5988     1   107.5800459 329.699200
   5988   5986   5992     1   109.8000471 387.438400
   5990   5989   5998     1   109.7800468 425.094400
   5990   5989   5991     1   108.4600466 328.025600
   5991   5989   5998     1   109.7800468 425.094400
   5993   5992  11884     1   109.7800468 425.094400
   5993   5992   5994     1   108.4600466 328.025600
   5994   5992  11884     1   109.7800468 425.094400
   5996   5995  11907     1   109.7800468 425.094400
   5996   5995   5997     1   108.4600466 328.025600
   5997   5995  11907     1   109.7800468 425.094400
   6000   6001   6002     1   108.0100461 406.684800
   6000   6001   6003     1   108.0100461 406.684800
   6000   6004   6005     1   108.0100461 406.684800
   6000   6004   6006     1   108.0100461 406.684800
   6000   6007   6008     1   108.0100461 406.684800
   6000   6007   6009     1   108.0100461 406.684800
   6001   6000   6029     1   110.1100470 384.091200
   6001   6013   6014     1   109.8000471 387.438400
   6001   6013   6015     1   109.8000471 387.438400
   6002   6001   6013     1   110.5600475 386.601600
   6002   6001   6003     1   109.7500473 328.025600
   6003   6001   6013     1   110.5600475 386.601600
   6004   6000   6029     1   110.1100470 384.091200
   6004   6016   6017     1   109.8000471 387.438400
   6004   6016   6018     1   109.8000471 387.438400
   6005   6004   6016     1   110.5600475 386.601600
   6005   6004   6006     1   109.7500473 328.025600
   6006   6004   6016     1   110.5600475 386.601600
   6007   6000   6029     1   110.1100470 384.091200
   6007   6010   6011     1   109.8000471 387.438400
   6007   6010   6012     1   109.8000471 387.438400
   6008   6007   6010     1   110.5600475 386.601600
   6008   6007   6009     1   109.7500473 328.025600
   6009   6007   6010     1   110.5600475 386.601600
   6010   6019   6020     1   109.5600471 388.275200
   6010   6019   6021     1   109.5600471 388.275200
   6011   6010   6019     1   109.8000471 387.438400
   6011   6010   6012     1   107.5800459 329.699200
   6012   6010   6019     1   109.8000471 387.438400
   6013   6025   6026     1   109.5600471 388.275200
   6013   6025   6027     1   109.5600471 388.275200
   6014   6013   6025     1   109.8000471 387.438400
   6014   6013   6015     1   107.5800459 329.699200
   6015   6013   6025     1   109.8000471 387.438400
   6016   6022   6023     1   109.5600471 388.275200
   6016   6022   6024     1   109.5600471 388.275200
   6017   6016   6022     1   109.8000471 387.438400
   6017   6016   6018     1   107.5800459 329.699200
   6018   6016   6022     1   109.8000471 387.438400
   6020   6019   6028     1   109.7800468 425.094400
   6020   6019   6021     1   108.4600466 328.025600
   6021   6019   6028     1   109.7800468 425.094400
   6023   6022  11930     1   109.7800468 425.094400
   6023   6022   6024     1   108.4600466 328.025600
   6024   6022  11930     1   109.7800468 425.094400
   6026   6025  11953     1   109.7800468 425.094400
   6026   6025   6027     1   108.4600466 328.025600
   6027   6025  11953     1   109.7800468 425.094400
   6030   6031   6032     1   108.0100461 406.684800
   6030   6031   6033     1   108.0100461 406.684800
   6030   6034   6035     1   108.0100461 406.684800
   6030   6034   6036     1   108.0100461 406.684800
   6030   6037   6038     1   108.0100461 406.684800
   6030   6037   6039     1   108.0100461 406.684800
   6031   6030   6059     1   110.1100470 384.091200
   6031   6043   6044     1   109.8000471 387.438400
   6031   6043   6045     1   109.8000471 387.438400
   6032   6031   6043     1   110.5600475 386.601600
   6032   6031   6033     1   109.7500473 328.025600
   6033   6031   6043     1   110.5600475 386.601600
   6034   6030   6059     1   110.1100470 384.091200
   6034   6046   6047     1   109.8000471 387.438400
   6034   6046   6048     1   109.8000471 387.438400
   6035   6034   6046     1   110.5600475 386.601600
   6035   6034   6036     1   109.7500473 328.025600
   6036   6034   6046     1   110.5600475 386.601600
   6037   6030   6059     1   110.1100470 384.091200
   6037   6040   6041     1   109.8000471 387.438400
   6037   6040   6042     1   109.8000471 387.438400
   6038   6037   6040     1   110.5600475 386.601600
   6038   6037   6039     1   109.7500473 328.025600
   6039   6037   6040     1   110.5600475 386.601600
   6040   6049   6050     1   109.5600471 388.275200
   6040   6049   6051     1   109.5600471 388.275200
   6041   6040   6049     1   109.8000471 387.438400
   6041   6040   6042     1   107.5800459 329.699200
   6042   6040   6049     1   109.8000471 387.438400
   6043   6055   6056     1   109.5600471 388.275200
   6043   6055   6057     1   109.5600471 388.275200
   6044   6043   6055     1   109.8000471 387.438400
   6044   6043   6045     1   107.5800459 329.699200
   6045   6043   6055     1   109.8000471 387.438400
   6046   6052   6053     1   109.5600471 388.275200
   6046   6052   6054     1   109.5600471 388.275200
   6047   6046   6052     1   109.8000471 387.438400
   6047   6046   6048     1   107.5800459 329.699200
   6048   6046   6052     1   109.8000471 387.438400
   6050   6049   6058     1   109.7800468 425.094400
   6050   6049   6051     1   108.4600466 328.025600
   6051   6049   6058     1   109.7800468 425.094400
   6053   6052  11976     1   109.7800468 425.094400
   6053   6052   6054     1   108.4600466 328.025600
   6054   6052  11976     1   109.7800468 425.094400
   6056   6055  11999     1   109.7800468 425.094400
   6056   6055   6057     1   108.4600466 328.025600
   6057   6055  11999     1   109.7800468 425.094400
   6060   6061   6062     1   108.0100461 406.684800
   6060   6061   6063     1   108.0100461 406.684800
   6060   6064   6065     1   108.0100461 406.684800
   6060   6064   6066     1   108.0100461 406.684800
   6060   6067   6068     1   108.0100461 406.684800
   6060   6067   6069     1   108.0100461 406.684800
   6061   6060   6089     1   110.1100470 384.091200
   6061   6073   6074     1   109.8000471 387.438400
   6061   6073   6075     1   109.8000471 387.438400
   6062   6061   6073     1   110.5600475 386.601600
   6062   6061   6063     1   109.7500473 328.025600
   6063   6061   6073     1   110.5600475 386.601600
   6064   6060   6089     1   110.1100470 384.091200
   6064   6076   6077     1   109.8000471 387.438400
   6064   6076   6078     1   109.8000471 387.438400
   6065   6064   6076     1   110.5600475 386.601600
   6065   6064   6066     1   109.7500473 328.025600
   6066   6064   6076     1   110.5600475 386.601600
   6067   6060   6089     1   110.1100470 384.091200
   6067   6070   6071     1   109.8000471 387.438400
   6067   6070   6072     1   109.8000471 387.438400
   6068   6067   6070     1   110.5600475 386.601600
   6068   6067   6069     1   109.7500473 328.025600
   6069   6067   6070     1   110.5600475 386.601600
   6070   6079   6080     1   109.5600471 388.275200
   6070   6079   6081     1   109.5600471 388.275200
   6071   6070   6079     1   109.8000471 387.438400
   6071   6070   6072     1   107.5800459 329.699200
   6072   6070   6079     1   109.8000471 387.438400
   6073   6085   6086     1   109.5600471 388.275200
   6073   6085   6087     1   109.5600471 388.275200
   6074   6073   6085     1   109.8000471 387.438400
   6074   6073   6075     1   107.5800459 329.699200
   6075   6073   6085     1   109.8000471 387.438400
   6076   6082   6083     1   109.5600471 388.275200
   6076   6082   6084     1   109.5600471 388.275200
   6077   6076   6082     1   109.8000471 387.438400
   6077   6076   6078     1   107.5800459 329.699200
   6078   6076   6082     1   109.8000471 387.438400
   6080   6079   6088     1   109.7800468 425.094400
   6080   6079   6081     1   108.4600466 328.025600
   6081   6079   6088     1   109.7800468 425.094400
   6083   6082  12022     1   109.7800468 425.094400
   6083   6082   6084     1   108.4600466 328.025600
   6084   6082  12022     1   109.7800468 425.094400
   6086   6085  12045     1   109.7800468 425.094400
   6086   6085   6087     1   108.4600466 328.025600
   6087   6085  12045     1   109.7800468 425.094400
   6090   6091   6092     1   108.0100461 406.684800
   6090   6091   6093     1   108.0100461 406.684800
   6090   6094   6095     1   108.0100461 406.684800
   6090   6094   6096     1   108.0100461 406.684800
   6090   6097   6098     1   108.0100461 406.684800
   6090   6097   6099     1   108.0100461 406.684800
   6091   6090   6119     1   110.1100470 384.091200
   6091   6103   6104     1   109.8000471 387.438400
   6091   6103   6105     1   109.8000471 387.438400
   6092   6091   6103     1   110.5600475 386.601600
   6092   6091   6093     1   109.7500473 328.025600
   6093   6091   6103     1   110.5600475 386.601600
   6094   6090   6119     1   110.1100470 384.091200
   6094   6106   6107     1   109.8000471 387.438400
   6094   6106   6108     1   109.8000471 387.438400
   6095   6094   6106     1   110.5600475 386.601600
   6095   6094   6096     1   109.7500473 328.025600
   6096   6094   6106     1   110.5600475 386.601600
   6097   6090   6119     1   110.1100470 384.091200
   6097   6100   6101     1   109.8000471 387.438400
   6097   6100   6102     1   109.8000471 387.438400
   6098   6097   6100     1   110.5600475 386.601600
   6098   6097   6099     1   109.7500473 328.025600
   6099   6097   6100     1   110.5600475 386.601600
   6100   6109   6110     1   109.5600471 388.275200
   6100   6109   6111     1   109.5600471 388.275200
   6101   6100   6109     1   109.8000471 387.438400
   6101   6100   6102     1   107.5800459 329.699200
   6102   6100   6109     1   109.8000471 387.438400
   6103   6115   6116     1   109.5600471 388.275200
   6103   6115   6117     1   109.5600471 388.275200
   6104   6103   6115     1   109.8000471 387.438400
   6104   6103   6105     1   107.5800459 329.699200
   6105   6103   6115     1   109.8000471 387.438400
   6106   6112   6113     1   109.5600471 388.275200
   6106   6112   6114     1   109.5600471 388.275200
   6107   6106   6112     1   109.8000471 387.438400
   6107   6106   6108     1   107.5800459 329.699200
   6108   6106   6112     1   109.8000471 387.438400
   6110   6109   6118     1   109.7800468 425.094400
   6110   6109   6111     1   108.4600466 328.025600
   6111   6109   6118     1   109.7800468 425.094400
   6113   6112  12068     1   109.7800468 425.094400
   6113   6112   6114     1   108.4600466 328.025600
   6114   6112  12068     1   109.7800468 425.094400
   6116   6115  12091     1   109.7800468 425.094400
   6116   6115   6117     1   108.4600466 328.025600
   6117   6115  12091     1   109.7800468 425.094400
   6120   6121   6122     1   108.0100461 406.684800
   6120   6121   6123     1   108.0100461 406.684800
   6120   6124   6125     1   108.0100461 406.684800
   6120   6124   6126     1   108.0100461 406.684800
   6120   6127   6128     1   108.0100461 406.684800
   6120   6127   6129     1   108.0100461 406.684800
   6121   6120   6149     1   110.1100470 384.091200
   6121   6133   6134     1   109.8000471 387.438400
   6121   6133   6135     1   109.8000471 387.438400
   6122   6121   6133     1   110.5600475 386.601600
   6122   6121   6123     1   109.7500473 328.025600
   6123   6121   6133     1   110.5600475 386.601600
   6124   6120   6149     1   110.1100470 384.091200
   6124   6136   6137     1   109.8000471 387.438400
   6124   6136   6138     1   109.8000471 387.438400
   6125   6124   6136     1   110.5600475 386.601600
   6125   6124   6126     1   109.7500473 328.025600
   6126   6124   6136     1   110.5600475 386.601600
   6127   6120   6149     1   110.1100470 384.091200
   6127   6130   6131     1   109.8000471 387.438400
   6127   6130   6132     1   109.8000471 387.438400
   6128   6127   6130     1   110.5600475 386.601600
   6128   6127   6129     1   109.7500473 328.025600
   6129   6127   6130     1   110.5600475 386.601600
   6130   6139   6140     1   109.5600471 388.275200
   6130   6139   6141     1   109.5600471 388.275200
   6131   6130   6139     1   109.8000471 387.438400
   6131   6130   6132     1   107.5800459 329.699200
   6132   6130   6139     1   109.8000471 387.438400
   6133   6145   6146     1   109.5600471 388.275200
   6133   6145   6147     1   109.5600471 388.275200
   6134   6133   6145     1   109.8000471 387.438400
   6134   6133   6135     1   107.5800459 329.699200
   6135   6133   6145     1   109.8000471 387.438400
   6136   6142   6143     1   109.5600471 388.275200
   6136   6142   6144     1   109.5600471 388.275200
   6137   6136   6142     1   109.8000471 387.438400
   6137   6136   6138     1   107.5800459 329.699200
   6138   6136   6142     1   109.8000471 387.438400
   6140   6139   6148     1   109.7800468 425.094400
   6140   6139   6141     1   108.4600466 328.025600
   6141   6139   6148     1   109.7800468 425.094400
   6143   6142  12114     1   109.7800468 425.094400
   6143   6142   6144     1   108.4600466 328.025600
   6144   6142  12114     1   109.7800468 425.094400
   6146   6145  12137     1   109.7800468 425.094400
   6146   6145   6147     1   108.4600466 328.025600
   6147   6145  12137     1   109.7800468 425.094400
   6150   6151   6152     1   108.0100461 406.684800
   6150   6151   6153     1   108.0100461 406.684800
   6150   6154   6155     1   108.0100461 406.684800
   6150   6154   6156     1   108.0100461 406.684800
   6150   6157   6158     1   108.0100461 406.684800
   6150   6157   6159     1   108.0100461 406.684800
   6151   6150   6179     1   110.1100470 384.091200
   6151   6163   6164     1   109.8000471 387.438400
   6151   6163   6165     1   109.8000471 387.438400
   6152   6151   6163     1   110.5600475 386.601600
   6152   6151   6153     1   109.7500473 328.025600
   6153   6151   6163     1   110.5600475 386.601600
   6154   6150   6179     1   110.1100470 384.091200
   6154   6166   6167     1   109.8000471 387.438400
   6154   6166   6168     1   109.8000471 387.438400
   6155   6154   6166     1   110.5600475 386.601600
   6155   6154   6156     1   109.7500473 328.025600
   6156   6154   6166     1   110.5600475 386.601600
   6157   6150   6179     1   110.1100470 384.091200
   6157   6160   6161     1   109.8000471 387.438400
   6157   6160   6162     1   109.8000471 387.438400
   6158   6157   6160     1   110.5600475 386.601600
   6158   6157   6159     1   109.7500473 328.025600
   6159   6157   6160     1   110.5600475 386.601600
   6160   6169   6170     1   109.5600471 388.275200
   6160   6169   6171     1   109.5600471 388.275200
   6161   6160   6169     1   109.8000471 387.438400
   6161   6160   6162     1   107.5800459 329.699200
   6162   6160   6169     1   109.8000471 387.438400
   6163   6175   6176     1   109.5600471 388.275200
   6163   6175   6177     1   109.5600471 388.275200
   6164   6163   6175     1   109.8000471 387.438400
   6164   6163   6165     1   107.5800459 329.699200
   6165   6163   6175     1   109.8000471 387.438400
   6166   6172   6173     1   109.5600471 388.275200
   6166   6172   6174     1   109.5600471 388.275200
   6167   6166   6172     1   109.8000471 387.438400
   6167   6166   6168     1   107.5800459 329.699200
   6168   6166   6172     1   109.8000471 387.438400
   6170   6169   6178     1   109.7800468 425.094400
   6170   6169   6171     1   108.4600466 328.025600
   6171   6169   6178     1   109.7800468 425.094400
   6173   6172  12160     1   109.7800468 425.094400
   6173   6172   6174     1   108.4600466 328.025600
   6174   6172  12160     1   109.7800468 425.094400
   6176   6175  12183     1   109.7800468 425.094400
   6176   6175   6177     1   108.4600466 328.025600
   6177   6175  12183     1   109.7800468 425.094400
   6180   6181   6182     1   108.0100461 406.684800
   6180   6181   6183     1   108.0100461 406.684800
   6180   6184   6185     1   108.0100461 406.684800
   6180   6184   6186     1   108.0100461 406.684800
   6180   6187   6188     1   108.0100461 406.684800
   6180   6187   6189     1   108.0100461 406.684800
   6181   6180   6209     1   110.1100470 384.091200
   6181   6193   6194     1   109.8000471 387.438400
   6181   6193   6195     1   109.8000471 387.438400
   6182   6181   6193     1   110.5600475 386.601600
   6182   6181   6183     1   109.7500473 328.025600
   6183   6181   6193     1   110.5600475 386.601600
   6184   6180   6209     1   110.1100470 384.091200
   6184   6196   6197     1   109.8000471 387.438400
   6184   6196   6198     1   109.8000471 387.438400
   6185   6184   6196     1   110.5600475 386.601600
   6185   6184   6186     1   109.7500473 328.025600
   6186   6184   6196     1   110.5600475 386.601600
   6187   6180   6209     1   110.1100470 384.091200
   6187   6190   6191     1   109.8000471 387.438400
   6187   6190   6192     1   109.8000471 387.438400
   6188   6187   6190     1   110.5600475 386.601600
   6188   6187   6189     1   109.7500473 328.025600
   6189   6187   6190     1   110.5600475 386.601600
   6190   6199   6200     1   109.5600471 388.275200
   6190   6199   6201     1   109.5600471 388.275200
   6191   6190   6199     1   109.8000471 387.438400
   6191   6190   6192     1   107.5800459 329.699200
   6192   6190   6199     1   109.8000471 387.438400
   6193   6205   6206     1   109.5600471 388.275200
   6193   6205   6207     1   109.5600471 388.275200
   6194   6193   6205     1   109.8000471 387.438400
   6194   6193   6195     1   107.5800459 329.699200
   6195   6193   6205     1   109.8000471 387.438400
   6196   6202   6203     1   109.5600471 388.275200
   6196   6202   6204     1   109.5600471 388.275200
   6197   6196   6202     1   109.8000471 387.438400
   6197   6196   6198     1   107.5800459 329.699200
   6198   6196   6202     1   109.8000471 387.438400
   6200   6199   6208     1   109.7800468 425.094400
   6200   6199   6201     1   108.4600466 328.025600
   6201   6199   6208     1   109.7800468 425.094400
   6203   6202  12206     1   109.7800468 425.094400
   6203   6202   6204     1   108.4600466 328.025600
   6204   6202  12206     1   109.7800468 425.094400
   6206   6205  12229     1   109.7800468 425.094400
   6206   6205   6207     1   108.4600466 328.025600
   6207   6205  12229     1   109.7800468 425.094400
   6210   6211   6212     1   108.0100461 406.684800
   6210   6211   6213     1   108.0100461 406.684800
   6210   6214   6215     1   108.0100461 406.684800
   6210   6214   6216     1   108.0100461 406.684800
   6210   6217   6218     1   108.0100461 406.684800
   6210   6217   6219     1   108.0100461 406.684800
   6211   6210   6239     1   110.1100470 384.091200
   6211   6223   6224     1   109.8000471 387.438400
   6211   6223   6225     1   109.8000471 387.438400
   6212   6211   6223     1   110.5600475 386.601600
   6212   6211   6213     1   109.7500473 328.025600
   6213   6211   6223     1   110.5600475 386.601600
   6214   6210   6239     1   110.1100470 384.091200
   6214   6226   6227     1   109.8000471 387.438400
   6214   6226   6228     1   109.8000471 387.438400
   6215   6214   6226     1   110.5600475 386.601600
   6215   6214   6216     1   109.7500473 328.025600
   6216   6214   6226     1   110.5600475 386.601600
   6217   6210   6239     1   110.1100470 384.091200
   6217   6220   6221     1   109.8000471 387.438400
   6217   6220   6222     1   109.8000471 387.438400
   6218   6217   6220     1   110.5600475 386.601600
   6218   6217   6219     1   109.7500473 328.025600
   6219   6217   6220     1   110.5600475 386.601600
   6220   6229   6230     1   109.5600471 388.275200
   6220   6229   6231     1   109.5600471 388.275200
   6221   6220   6229     1   109.8000471 387.438400
   6221   6220   6222     1   107.5800459 329.699200
   6222   6220   6229     1   109.8000471 387.438400
   6223   6235   6236     1   109.5600471 388.275200
   6223   6235   6237     1   109.5600471 388.275200
   6224   6223   6235     1   109.8000471 387.438400
   6224   6223   6225     1   107.5800459 329.699200
   6225   6223   6235     1   109.8000471 387.438400
   6226   6232   6233     1   109.5600471 388.275200
   6226   6232   6234     1   109.5600471 388.275200
   6227   6226   6232     1   109.8000471 387.438400
   6227   6226   6228     1   107.5800459 329.699200
   6228   6226   6232     1   109.8000471 387.438400
   6230   6229   6238     1   109.7800468 425.094400
   6230   6229   6231     1   108.4600466 328.025600
   6231   6229   6238     1   109.7800468 425.094400
   6233   6232  12252     1   109.7800468 425.094400
   6233   6232   6234     1   108.4600466 328.025600
   6234   6232  12252     1   109.7800468 425.094400
   6236   6235  12275     1   109.7800468 425.094400
   6236   6235   6237     1   108.4600466 328.025600
   6237   6235  12275     1   109.7800468 425.094400
   6240   6241   6242     1   108.0100461 406.684800
   6240   6241   6243     1   108.0100461 406.684800
   6240   6244   6245     1   108.0100461 406.684800
   6240   6244   6246     1   108.0100461 406.684800
   6240   6247   6248     1   108.0100461 406.684800
   6240   6247   6249     1   108.0100461 406.684800
   6241   6240   6269     1   110.1100470 384.091200
   6241   6253   6254     1   109.8000471 387.438400
   6241   6253   6255     1   109.8000471 387.438400
   6242   6241   6253     1   110.5600475 386.601600
   6242   6241   6243     1   109.7500473 328.025600
   6243   6241   6253     1   110.5600475 386.601600
   6244   6240   6269     1   110.1100470 384.091200
   6244   6256   6257     1   109.8000471 387.438400
   6244   6256   6258     1   109.8000471 387.438400
   6245   6244   6256     1   110.5600475 386.601600
   6245   6244   6246     1   109.7500473 328.025600
   6246   6244   6256     1   110.5600475 386.601600
   6247   6240   6269     1   110.1100470 384.091200
   6247   6250   6251     1   109.8000471 387.438400
   6247   6250   6252     1   109.8000471 387.438400
   6248   6247   6250     1   110.5600475 386.601600
   6248   6247   6249     1   109.7500473 328.025600
   6249   6247   6250     1   110.5600475 386.601600
   6250   6259   6260     1   109.5600471 388.275200
   6250   6259   6261     1   109.5600471 388.275200
   6251   6250   6259     1   109.8000471 387.438400
   6251   6250   6252     1   107.5800459 329.699200
   6252   6250   6259     1   109.8000471 387.438400
   6253   6265   6266     1   109.5600471 388.275200
   6253   6265   6267     1   109.5600471 388.275200
   6254   6253   6265     1   109.8000471 387.438400
   6254   6253   6255     1   107.5800459 329.699200
   6255   6253   6265     1   109.8000471 387.438400
   6256   6262   6263     1   109.5600471 388.275200
   6256   6262   6264     1   109.5600471 388.275200
   6257   6256   6262     1   109.8000471 387.438400
   6257   6256   6258     1   107.5800459 329.699200
   6258   6256   6262     1   109.8000471 387.438400
   6260   6259   6268     1   109.7800468 425.094400
   6260   6259   6261     1   108.4600466 328.025600
   6261   6259   6268     1   109.7800468 425.094400
   6263   6262  12298     1   109.7800468 425.094400
   6263   6262   6264     1   108.4600466 328.025600
   6264   6262  12298     1   109.7800468 425.094400
   6266   6265  12321     1   109.7800468 425.094400
   6266   6265   6267     1   108.4600466 328.025600
   6267   6265  12321     1   109.7800468 425.094400
   6270   6271   6272     1   108.0100461 406.684800
   6270   6271   6273     1   108.0100461 406.684800
   6270   6274   6275     1   108.0100461 406.684800
   6270   6274   6276     1   108.0100461 406.684800
   6270   6277   6278     1   108.0100461 406.684800
   6270   6277   6279     1   108.0100461 406.684800
   6271   6270   6299     1   110.1100470 384.091200
   6271   6283   6284     1   109.8000471 387.438400
   6271   6283   6285     1   109.8000471 387.438400
   6272   6271   6283     1   110.5600475 386.601600
   6272   6271   6273     1   109.7500473 328.025600
   6273   6271   6283     1   110.5600475 386.601600
   6274   6270   6299     1   110.1100470 384.091200
   6274   6286   6287     1   109.8000471 387.438400
   6274   6286   6288     1   109.8000471 387.438400
   6275   6274   6286     1   110.5600475 386.601600
   6275   6274   6276     1   109.7500473 328.025600
   6276   6274   6286     1   110.5600475 386.601600
   6277   6270   6299     1   110.1100470 384.091200
   6277   6280   6281     1   109.8000471 387.438400
   6277   6280   6282     1   109.8000471 387.438400
   6278   6277   6280     1   110.5600475 386.601600
   6278   6277   6279     1   109.7500473 328.025600
   6279   6277   6280     1   110.5600475 386.601600
   6280   6289   6290     1   109.5600471 388.275200
   6280   6289   6291     1   109.5600471 388.275200
   6281   6280   6289     1   109.8000471 387.438400
   6281   6280   6282     1   107.5800459 329.699200
   6282   6280   6289     1   109.8000471 387.438400
   6283   6295   6296     1   109.5600471 388.275200
   6283   6295   6297     1   109.5600471 388.275200
   6284   6283   6295     1   109.8000471 387.438400
   6284   6283   6285     1   107.5800459 329.699200
   6285   6283   6295     1   109.8000471 387.438400
   6286   6292   6293     1   109.5600471 388.275200
   6286   6292   6294     1   109.5600471 388.275200
   6287   6286   6292     1   109.8000471 387.438400
   6287   6286   6288     1   107.5800459 329.699200
   6288   6286   6292     1   109.8000471 387.438400
   6290   6289   6298     1   109.7800468 425.094400
   6290   6289   6291     1   108.4600466 328.025600
   6291   6289   6298     1   109.7800468 425.094400
   6293   6292  12344     1   109.7800468 425.094400
   6293   6292   6294     1   108.4600466 328.025600
   6294   6292  12344     1   109.7800468 425.094400
   6296   6295  12367     1   109.7800468 425.094400
   6296   6295   6297     1   108.4600466 328.025600
   6297   6295  12367     1   109.7800468 425.094400
   6300   6301   6302     1   108.0100461 406.684800
   6300   6301   6303     1   108.0100461 406.684800
   6300   6304   6305     1   108.0100461 406.684800
   6300   6304   6306     1   108.0100461 406.684800
   6300   6307   6308     1   108.0100461 406.684800
   6300   6307   6309     1   108.0100461 406.684800
   6301   6300   6329     1   110.1100470 384.091200
   6301   6313   6314     1   109.8000471 387.438400
   6301   6313   6315     1   109.8000471 387.438400
   6302   6301   6313     1   110.5600475 386.601600
   6302   6301   6303     1   109.7500473 328.025600
   6303   6301   6313     1   110.5600475 386.601600
   6304   6300   6329     1   110.1100470 384.091200
   6304   6316   6317     1   109.8000471 387.438400
   6304   6316   6318     1   109.8000471 387.438400
   6305   6304   6316     1   110.5600475 386.601600
   6305   6304   6306     1   109.7500473 328.025600
   6306   6304   6316     1   110.5600475 386.601600
   6307   6300   6329     1   110.1100470 384.091200
   6307   6310   6311     1   109.8000471 387.438400
   6307   6310   6312     1   109.8000471 387.438400
   6308   6307   6310     1   110.5600475 386.601600
   6308   6307   6309     1   109.7500473 328.025600
   6309   6307   6310     1   110.5600475 386.601600
   6310   6319   6320     1   109.5600471 388.275200
   6310   6319   6321     1   109.5600471 388.275200
   6311   6310   6319     1   109.8000471 387.438400
   6311   6310   6312     1   107.5800459 329.699200
   6312   6310   6319     1   109.8000471 387.438400
   6313   6325   6326     1   109.5600471 388.275200
   6313   6325   6327     1   109.5600471 388.275200
   6314   6313   6325     1   109.8000471 387.438400
   6314   6313   6315     1   107.5800459 329.699200
   6315   6313   6325     1   109.8000471 387.438400
   6316   6322   6323     1   109.5600471 388.275200
   6316   6322   6324     1   109.5600471 388.275200
   6317   6316   6322     1   109.8000471 387.438400
   6317   6316   6318     1   107.5800459 329.699200
   6318   6316   6322     1   109.8000471 387.438400
   6320   6319   6328     1   109.7800468 425.094400
   6320   6319   6321     1   108.4600466 328.025600
   6321   6319   6328     1   109.7800468 425.094400
   6323   6322  12390     1   109.7800468 425.094400
   6323   6322   6324     1   108.4600466 328.025600
   6324   6322  12390     1   109.7800468 425.094400
   6326   6325  12413     1   109.7800468 425.094400
   6326   6325   6327     1   108.4600466 328.025600
   6327   6325  12413     1   109.7800468 425.094400
   6330   6331   6332     1   108.0100461 406.684800
   6330   6331   6333     1   108.0100461 406.684800
   6330   6334   6335     1   108.0100461 406.684800
   6330   6334   6336     1   108.0100461 406.684800
   6330   6337   6338     1   108.0100461 406.684800
   6330   6337   6339     1   108.0100461 406.684800
   6331   6330   6359     1   110.1100470 384.091200
   6331   6343   6344     1   109.8000471 387.438400
   6331   6343   6345     1   109.8000471 387.438400
   6332   6331   6343     1   110.5600475 386.601600
   6332   6331   6333     1   109.7500473 328.025600
   6333   6331   6343     1   110.5600475 386.601600
   6334   6330   6359     1   110.1100470 384.091200
   6334   6346   6347     1   109.8000471 387.438400
   6334   6346   6348     1   109.8000471 387.438400
   6335   6334   6346     1   110.5600475 386.601600
   6335   6334   6336     1   109.7500473 328.025600
   6336   6334   6346     1   110.5600475 386.601600
   6337   6330   6359     1   110.1100470 384.091200
   6337   6340   6341     1   109.8000471 387.438400
   6337   6340   6342     1   109.8000471 387.438400
   6338   6337   6340     1   110.5600475 386.601600
   6338   6337   6339     1   109.7500473 328.025600
   6339   6337   6340     1   110.5600475 386.601600
   6340   6349   6350     1   109.5600471 388.275200
   6340   6349   6351     1   109.5600471 388.275200
   6341   6340   6349     1   109.8000471 387.438400
   6341   6340   6342     1   107.5800459 329.699200
   6342   6340   6349     1   109.8000471 387.438400
   6343   6355   6356     1   109.5600471 388.275200
   6343   6355   6357     1   109.5600471 388.275200
   6344   6343   6355     1   109.8000471 387.438400
   6344   6343   6345     1   107.5800459 329.699200
   6345   6343   6355     1   109.8000471 387.438400
   6346   6352   6353     1   109.5600471 388.275200
   6346   6352   6354     1   109.5600471 388.275200
   6347   6346   6352     1   109.8000471 387.438400
   6347   6346   6348     1   107.5800459 329.699200
   6348   6346   6352     1   109.8000471 387.438400
   6350   6349   6358     1   109.7800468 425.094400
   6350   6349   6351     1   108.4600466 328.025600
   6351   6349   6358     1   109.7800468 425.094400
   6353   6352  12436     1   109.7800468 425.094400
   6353   6352   6354     1   108.4600466 328.025600
   6354   6352  12436     1   109.7800468 425.094400
   6356   6355  12459     1   109.7800468 425.094400
   6356   6355   6357     1   108.4600466 328.025600
   6357   6355  12459     1   109.7800468 425.094400
   6360   6361   6362     1   108.0100461 406.684800
   6360   6361   6363     1   108.0100461 406.684800
   6360   6364   6365     1   108.0100461 406.684800
   6360   6364   6366     1   108.0100461 406.684800
   6360   6367   6368     1   108.0100461 406.684800
   6360   6367   6369     1   108.0100461 406.684800
   6361   6360   6389     1   110.1100470 384.091200
   6361   6373   6374     1   109.8000471 387.438400
   6361   6373   6375     1   109.8000471 387.438400
   6362   6361   6373     1   110.5600475 386.601600
   6362   6361   6363     1   109.7500473 328.025600
   6363   6361   6373     1   110.5600475 386.601600
   6364   6360   6389     1   110.1100470 384.091200
   6364   6376   6377     1   109.8000471 387.438400
   6364   6376   6378     1   109.8000471 387.438400
   6365   6364   6376     1   110.5600475 386.601600
   6365   6364   6366     1   109.7500473 328.025600
   6366   6364   6376     1   110.5600475 386.601600
   6367   6360   6389     1   110.1100470 384.091200
   6367   6370   6371     1   109.8000471 387.438400
   6367   6370   6372     1   109.8000471 387.438400
   6368   6367   6370     1   110.5600475 386.601600
   6368   6367   6369     1   109.7500473 328.025600
   6369   6367   6370     1   110.5600475 386.601600
   6370   6379   6380     1   109.5600471 388.275200
   6370   6379   6381     1   109.5600471 388.275200
   6371   6370   6379     1   109.8000471 387.438400
   6371   6370   6372     1   107.5800459 329.699200
   6372   6370   6379     1   109.8000471 387.438400
   6373   6385   6386     1   109.5600471 388.275200
   6373   6385   6387     1   109.5600471 388.275200
   6374   6373   6385     1   109.8000471 387.438400
   6374   6373   6375     1   107.5800459 329.699200
   6375   6373   6385     1   109.8000471 387.438400
   6376   6382   6383     1   109.5600471 388.275200
   6376   6382   6384     1   109.5600471 388.275200
   6377   6376   6382     1   109.8000471 387.438400
   6377   6376   6378     1   107.5800459 329.699200
   6378   6376   6382     1   109.8000471 387.438400
   6380   6379   6388     1   109.7800468 425.094400
   6380   6379   6381     1   108.4600466 328.025600
   6381   6379   6388     1   109.7800468 425.094400
   6383   6382  12482     1   109.7800468 425.094400
   6383   6382   6384     1   108.4600466 328.025600
   6384   6382  12482     1   109.7800468 425.094400
   6386   6385  12505     1   109.7800468 425.094400
   6386   6385   6387     1   108.4600466 328.025600
   6387   6385  12505     1   109.7800468 425.094400
   6390   6391   6392     1   108.0100461 406.684800
   6390   6391   6393     1   108.0100461 406.684800
   6390   6394   6395     1   108.0100461 406.684800
   6390   6394   6396     1   108.0100461 406.684800
   6390   6397   6398     1   108.0100461 406.684800
   6390   6397   6399     1   108.0100461 406.684800
   6391   6390   6419     1   110.1100470 384.091200
   6391   6403   6404     1   109.8000471 387.438400
   6391   6403   6405     1   109.8000471 387.438400
   6392   6391   6403     1   110.5600475 386.601600
   6392   6391   6393     1   109.7500473 328.025600
   6393   6391   6403     1   110.5600475 386.601600
   6394   6390   6419     1   110.1100470 384.091200
   6394   6406   6407     1   109.8000471 387.438400
   6394   6406   6408     1   109.8000471 387.438400
   6395   6394   6406     1   110.5600475 386.601600
   6395   6394   6396     1   109.7500473 328.025600
   6396   6394   6406     1   110.5600475 386.601600
   6397   6390   6419     1   110.1100470 384.091200
   6397   6400   6401     1   109.8000471 387.438400
   6397   6400   6402     1   109.8000471 387.438400
   6398   6397   6400     1   110.5600475 386.601600
   6398   6397   6399     1   109.7500473 328.025600
   6399   6397   6400     1   110.5600475 386.601600
   6400   6409   6410     1   109.5600471 388.275200
   6400   6409   6411     1   109.5600471 388.275200
   6401   6400   6409     1   109.8000471 387.438400
   6401   6400   6402     1   107.5800459 329.699200
   6402   6400   6409     1   109.8000471 387.438400
   6403   6415   6416     1   109.5600471 388.275200
   6403   6415   6417     1   109.5600471 388.275200
   6404   6403   6415     1   109.8000471 387.438400
   6404   6403   6405     1   107.5800459 329.699200
   6405   6403   6415     1   109.8000471 387.438400
   6406   6412   6413     1   109.5600471 388.275200
   6406   6412   6414     1   109.5600471 388.275200
   6407   6406   6412     1   109.8000471 387.438400
   6407   6406   6408     1   107.5800459 329.699200
   6408   6406   6412     1   109.8000471 387.438400
   6410   6409   6418     1   109.7800468 425.094400
   6410   6409   6411     1   108.4600466 328.025600
   6411   6409   6418     1   109.7800468 425.094400
   6413   6412  12528     1   109.7800468 425.094400
   6413   6412   6414     1   108.4600466 328.025600
   6414   6412  12528     1   109.7800468 425.094400
   6416   6415  12551     1   109.7800468 425.094400
   6416   6415   6417     1   108.4600466 328.025600
   6417   6415  12551     1   109.7800468 425.094400
   6420   6421   6422     1   108.0100461 406.684800
   6420   6421   6423     1   108.0100461 406.684800
   6420   6424   6425     1   108.0100461 406.684800
   6420   6424   6426     1   108.0100461 406.684800
   6420   6427   6428     1   108.0100461 406.684800
   6420   6427   6429     1   108.0100461 406.684800
   6421   6420   6449     1   110.1100470 384.091200
   6421   6433   6434     1   109.8000471 387.438400
   6421   6433   6435     1   109.8000471 387.438400
   6422   6421   6433     1   110.5600475 386.601600
   6422   6421   6423     1   109.7500473 328.025600
   6423   6421   6433     1   110.5600475 386.601600
   6424   6420   6449     1   110.1100470 384.091200
   6424   6436   6437     1   109.8000471 387.438400
   6424   6436   6438     1   109.8000471 387.438400
   6425   6424   6436     1   110.5600475 386.601600
   6425   6424   6426     1   109.7500473 328.025600
   6426   6424   6436     1   110.5600475 386.601600
   6427   6420   6449     1   110.1100470 384.091200
   6427   6430   6431     1   109.8000471 387.438400
   6427   6430   6432     1   109.8000471 387.438400
   6428   6427   6430     1   110.5600475 386.601600
   6428   6427   6429     1   109.7500473 328.025600
   6429   6427   6430     1   110.5600475 386.601600
   6430   6439   6440     1   109.5600471 388.275200
   6430   6439   6441     1   109.5600471 388.275200
   6431   6430   6439     1   109.8000471 387.438400
   6431   6430   6432     1   107.5800459 329.699200
   6432   6430   6439     1   109.8000471 387.438400
   6433   6445   6446     1   109.5600471 388.275200
   6433   6445   6447     1   109.5600471 388.275200
   6434   6433   6445     1   109.8000471 387.438400
   6434   6433   6435     1   107.5800459 329.699200
   6435   6433   6445     1   109.8000471 387.438400
   6436   6442   6443     1   109.5600471 388.275200
   6436   6442   6444     1   109.5600471 388.275200
   6437   6436   6442     1   109.8000471 387.438400
   6437   6436   6438     1   107.5800459 329.699200
   6438   6436   6442     1   109.8000471 387.438400
   6440   6439   6448     1   109.7800468 425.094400
   6440   6439   6441     1   108.4600466 328.025600
   6441   6439   6448     1   109.7800468 425.094400
   6443   6442  12574     1   109.7800468 425.094400
   6443   6442   6444     1   108.4600466 328.025600
   6444   6442  12574     1   109.7800468 425.094400
   6446   6445  12597     1   109.7800468 425.094400
   6446   6445   6447     1   108.4600466 328.025600
   6447   6445  12597     1   109.7800468 425.094400
   6450   6451   6452     1   108.0100461 406.684800
   6450   6451   6453     1   108.0100461 406.684800
   6450   6454   6455     1   108.0100461 406.684800
   6450   6454   6456     1   108.0100461 406.684800
   6450   6457   6458     1   108.0100461 406.684800
   6450   6457   6459     1   108.0100461 406.684800
   6451   6450   6479     1   110.1100470 384.091200
   6451   6463   6464     1   109.8000471 387.438400
   6451   6463   6465     1   109.8000471 387.438400
   6452   6451   6463     1   110.5600475 386.601600
   6452   6451   6453     1   109.7500473 328.025600
   6453   6451   6463     1   110.5600475 386.601600
   6454   6450   6479     1   110.1100470 384.091200
   6454   6466   6467     1   109.8000471 387.438400
   6454   6466   6468     1   109.8000471 387.438400
   6455   6454   6466     1   110.5600475 386.601600
   6455   6454   6456     1   109.7500473 328.025600
   6456   6454   6466     1   110.5600475 386.601600
   6457   6450   6479     1   110.1100470 384.091200
   6457   6460   6461     1   109.8000471 387.438400
   6457   6460   6462     1   109.8000471 387.438400
   6458   6457   6460     1   110.5600475 386.601600
   6458   6457   6459     1   109.7500473 328.025600
   6459   6457   6460     1   110.5600475 386.601600
   6460   6469   6470     1   109.5600471 388.275200
   6460   6469   6471     1   109.5600471 388.275200
   6461   6460   6469     1   109.8000471 387.438400
   6461   6460   6462     1   107.5800459 329.699200
   6462   6460   6469     1   109.8000471 387.438400
   6463   6475   6476     1   109.5600471 388.275200
   6463   6475   6477     1   109.5600471 388.275200
   6464   6463   6475     1   109.8000471 387.438400
   6464   6463   6465     1   107.5800459 329.699200
   6465   6463   6475     1   109.8000471 387.438400
   6466   6472   6473     1   109.5600471 388.275200
   6466   6472   6474     1   109.5600471 388.275200
   6467   6466   6472     1   109.8000471 387.438400
   6467   6466   6468     1   107.5800459 329.699200
   6468   6466   6472     1   109.8000471 387.438400
   6470   6469   6478     1   109.7800468 425.094400
   6470   6469   6471     1   108.4600466 328.025600
   6471   6469   6478     1   109.7800468 425.094400
   6473   6472  12620     1   109.7800468 425.094400
   6473   6472   6474     1   108.4600466 328.025600
   6474   6472  12620     1   109.7800468 425.094400
   6476   6475  12643     1   109.7800468 425.094400
   6476   6475   6477     1   108.4600466 328.025600
   6477   6475  12643     1   109.7800468 425.094400
   6480   6481   6482     1   108.0100461 406.684800
   6480   6481   6483     1   108.0100461 406.684800
   6480   6484   6485     1   108.0100461 406.684800
   6480   6484   6486     1   108.0100461 406.684800
   6480   6487   6488     1   108.0100461 406.684800
   6480   6487   6489     1   108.0100461 406.684800
   6481   6480   6509     1   110.1100470 384.091200
   6481   6493   6494     1   109.8000471 387.438400
   6481   6493   6495     1   109.8000471 387.438400
   6482   6481   6493     1   110.5600475 386.601600
   6482   6481   6483     1   109.7500473 328.025600
   6483   6481   6493     1   110.5600475 386.601600
   6484   6480   6509     1   110.1100470 384.091200
   6484   6496   6497     1   109.8000471 387.438400
   6484   6496   6498     1   109.8000471 387.438400
   6485   6484   6496     1   110.5600475 386.601600
   6485   6484   6486     1   109.7500473 328.025600
   6486   6484   6496     1   110.5600475 386.601600
   6487   6480   6509     1   110.1100470 384.091200
   6487   6490   6491     1   109.8000471 387.438400
   6487   6490   6492     1   109.8000471 387.438400
   6488   6487   6490     1   110.5600475 386.601600
   6488   6487   6489     1   109.7500473 328.025600
   6489   6487   6490     1   110.5600475 386.601600
   6490   6499   6500     1   109.5600471 388.275200
   6490   6499   6501     1   109.5600471 388.275200
   6491   6490   6499     1   109.8000471 387.438400
   6491   6490   6492     1   107.5800459 329.699200
   6492   6490   6499     1   109.8000471 387.438400
   6493   6505   6506     1   109.5600471 388.275200
   6493   6505   6507     1   109.5600471 388.275200
   6494   6493   6505     1   109.8000471 387.438400
   6494   6493   6495     1   107.5800459 329.699200
   6495   6493   6505     1   109.8000471 387.438400
   6496   6502   6503     1   109.5600471 388.275200
   6496   6502   6504     1   109.5600471 388.275200
   6497   6496   6502     1   109.8000471 387.438400
   6497   6496   6498     1   107.5800459 329.699200
   6498   6496   6502     1   109.8000471 387.438400
   6500   6499   6508     1   109.7800468 425.094400
   6500   6499   6501     1   108.4600466 328.025600
   6501   6499   6508     1   109.7800468 425.094400
   6503   6502  12666     1   109.7800468 425.094400
   6503   6502   6504     1   108.4600466 328.025600
   6504   6502  12666     1   109.7800468 425.094400
   6506   6505  12689     1   109.7800468 425.094400
   6506   6505   6507     1   108.4600466 328.025600
   6507   6505  12689     1   109.7800468 425.094400
   6510   6511   6512     1   108.0100461 406.684800
   6510   6511   6513     1   108.0100461 406.684800
   6510   6514   6515     1   108.0100461 406.684800
   6510   6514   6516     1   108.0100461 406.684800
   6510   6517   6518     1   108.0100461 406.684800
   6510   6517   6519     1   108.0100461 406.684800
   6511   6510   6539     1   110.1100470 384.091200
   6511   6523   6524     1   109.8000471 387.438400
   6511   6523   6525     1   109.8000471 387.438400
   6512   6511   6523     1   110.5600475 386.601600
   6512   6511   6513     1   109.7500473 328.025600
   6513   6511   6523     1   110.5600475 386.601600
   6514   6510   6539     1   110.1100470 384.091200
   6514   6526   6527     1   109.8000471 387.438400
   6514   6526   6528     1   109.8000471 387.438400
   6515   6514   6526     1   110.5600475 386.601600
   6515   6514   6516     1   109.7500473 328.025600
   6516   6514   6526     1   110.5600475 386.601600
   6517   6510   6539     1   110.1100470 384.091200
   6517   6520   6521     1   109.8000471 387.438400
   6517   6520   6522     1   109.8000471 387.438400
   6518   6517   6520     1   110.5600475 386.601600
   6518   6517   6519     1   109.7500473 328.025600
   6519   6517   6520     1   110.5600475 386.601600
   6520   6529   6530     1   109.5600471 388.275200
   6520   6529   6531     1   109.5600471 388.275200
   6521   6520   6529     1   109.8000471 387.438400
   6521   6520   6522     1   107.5800459 329.699200
   6522   6520   6529     1   109.8000471 387.438400
   6523   6535   6536     1   109.5600471 388.275200
   6523   6535   6537     1   109.5600471 388.275200
   6524   6523   6535     1   109.8000471 387.438400
   6524   6523   6525     1   107.5800459 329.699200
   6525   6523   6535     1   109.8000471 387.438400
   6526   6532   6533     1   109.5600471 388.275200
   6526   6532   6534     1   109.5600471 388.275200
   6527   6526   6532     1   109.8000471 387.438400
   6527   6526   6528     1   107.5800459 329.699200
   6528   6526   6532     1   109.8000471 387.438400
   6530   6529   6538     1   109.7800468 425.094400
   6530   6529   6531     1   108.4600466 328.025600
   6531   6529   6538     1   109.7800468 425.094400
   6533   6532  12712     1   109.7800468 425.094400
   6533   6532   6534     1   108.4600466 328.025600
   6534   6532  12712     1   109.7800468 425.094400
   6536   6535  12735     1   109.7800468 425.094400
   6536   6535   6537     1   108.4600466 328.025600
   6537   6535  12735     1   109.7800468 425.094400
   6540   6541   6542     1   108.0100461 406.684800
   6540   6541   6543     1   108.0100461 406.684800
   6540   6544   6545     1   108.0100461 406.684800
   6540   6544   6546     1   108.0100461 406.684800
   6540   6547   6548     1   108.0100461 406.684800
   6540   6547   6549     1   108.0100461 406.684800
   6541   6540   6569     1   110.1100470 384.091200
   6541   6553   6554     1   109.8000471 387.438400
   6541   6553   6555     1   109.8000471 387.438400
   6542   6541   6553     1   110.5600475 386.601600
   6542   6541   6543     1   109.7500473 328.025600
   6543   6541   6553     1   110.5600475 386.601600
   6544   6540   6569     1   110.1100470 384.091200
   6544   6556   6557     1   109.8000471 387.438400
   6544   6556   6558     1   109.8000471 387.438400
   6545   6544   6556     1   110.5600475 386.601600
   6545   6544   6546     1   109.7500473 328.025600
   6546   6544   6556     1   110.5600475 386.601600
   6547   6540   6569     1   110.1100470 384.091200
   6547   6550   6551     1   109.8000471 387.438400
   6547   6550   6552     1   109.8000471 387.438400
   6548   6547   6550     1   110.5600475 386.601600
   6548   6547   6549     1   109.7500473 328.025600
   6549   6547   6550     1   110.5600475 386.601600
   6550   6559   6560     1   109.5600471 388.275200
   6550   6559   6561     1   109.5600471 388.275200
   6551   6550   6559     1   109.8000471 387.438400
   6551   6550   6552     1   107.5800459 329.699200
   6552   6550   6559     1   109.8000471 387.438400
   6553   6565   6566     1   109.5600471 388.275200
   6553   6565   6567     1   109.5600471 388.275200
   6554   6553   6565     1   109.8000471 387.438400
   6554   6553   6555     1   107.5800459 329.699200
   6555   6553   6565     1   109.8000471 387.438400
   6556   6562   6563     1   109.5600471 388.275200
   6556   6562   6564     1   109.5600471 388.275200
   6557   6556   6562     1   109.8000471 387.438400
   6557   6556   6558     1   107.5800459 329.699200
   6558   6556   6562     1   109.8000471 387.438400
   6560   6559   6568     1   109.7800468 425.094400
   6560   6559   6561     1   108.4600466 328.025600
   6561   6559   6568     1   109.7800468 425.094400
   6563   6562  12758     1   109.7800468 425.094400
   6563   6562   6564     1   108.4600466 328.025600
   6564   6562  12758     1   109.7800468 425.094400
   6566   6565  12781     1   109.7800468 425.094400
   6566   6565   6567     1   108.4600466 328.025600
   6567   6565  12781     1   109.7800468 425.094400
   6570   6571   6572     1   108.0100461 406.684800
   6570   6571   6573     1   108.0100461 406.684800
   6570   6574   6575     1   108.0100461 406.684800
   6570   6574   6576     1   108.0100461 406.684800
   6570   6577   6578     1   108.0100461 406.684800
   6570   6577   6579     1   108.0100461 406.684800
   6571   6570   6599     1   110.1100470 384.091200
   6571   6583   6584     1   109.8000471 387.438400
   6571   6583   6585     1   109.8000471 387.438400
   6572   6571   6583     1   110.5600475 386.601600
   6572   6571   6573     1   109.7500473 328.025600
   6573   6571   6583     1   110.5600475 386.601600
   6574   6570   6599     1   110.1100470 384.091200
   6574   6586   6587     1   109.8000471 387.438400
   6574   6586   6588     1   109.8000471 387.438400
   6575   6574   6586     1   110.5600475 386.601600
   6575   6574   6576     1   109.7500473 328.025600
   6576   6574   6586     1   110.5600475 386.601600
   6577   6570   6599     1   110.1100470 384.091200
   6577   6580   6581     1   109.8000471 387.438400
   6577   6580   6582     1   109.8000471 387.438400
   6578   6577   6580     1   110.5600475 386.601600
   6578   6577   6579     1   109.7500473 328.025600
   6579   6577   6580     1   110.5600475 386.601600
   6580   6589   6590     1   109.5600471 388.275200
   6580   6589   6591     1   109.5600471 388.275200
   6581   6580   6589     1   109.8000471 387.438400
   6581   6580   6582     1   107.5800459 329.699200
   6582   6580   6589     1   109.8000471 387.438400
   6583   6595   6596     1   109.5600471 388.275200
   6583   6595   6597     1   109.5600471 388.275200
   6584   6583   6595     1   109.8000471 387.438400
   6584   6583   6585     1   107.5800459 329.699200
   6585   6583   6595     1   109.8000471 387.438400
   6586   6592   6593     1   109.5600471 388.275200
   6586   6592   6594     1   109.5600471 388.275200
   6587   6586   6592     1   109.8000471 387.438400
   6587   6586   6588     1   107.5800459 329.699200
   6588   6586   6592     1   109.8000471 387.438400
   6590   6589   6598     1   109.7800468 425.094400
   6590   6589   6591     1   108.4600466 328.025600
   6591   6589   6598     1   109.7800468 425.094400
   6593   6592  12804     1   109.7800468 425.094400
   6593   6592   6594     1   108.4600466 328.025600
   6594   6592  12804     1   109.7800468 425.094400
   6596   6595  12827     1   109.7800468 425.094400
   6596   6595   6597     1   108.4600466 328.025600
   6597   6595  12827     1   109.7800468 425.094400
   6600   6601   6602     1   108.0100461 406.684800
   6600   6601   6603     1   108.0100461 406.684800
   6600   6604   6605     1   108.0100461 406.684800
   6600   6604   6606     1   108.0100461 406.684800
   6600   6607   6608     1   108.0100461 406.684800
   6600   6607   6609     1   108.0100461 406.684800
   6601   6600   6629     1   110.1100470 384.091200
   6601   6613   6614     1   109.8000471 387.438400
   6601   6613   6615     1   109.8000471 387.438400
   6602   6601   6613     1   110.5600475 386.601600
   6602   6601   6603     1   109.7500473 328.025600
   6603   6601   6613     1   110.5600475 386.601600
   6604   6600   6629     1   110.1100470 384.091200
   6604   6616   6617     1   109.8000471 387.438400
   6604   6616   6618     1   109.8000471 387.438400
   6605   6604   6616     1   110.5600475 386.601600
   6605   6604   6606     1   109.7500473 328.025600
   6606   6604   6616     1   110.5600475 386.601600
   6607   6600   6629     1   110.1100470 384.091200
   6607   6610   6611     1   109.8000471 387.438400
   6607   6610   6612     1   109.8000471 387.438400
   6608   6607   6610     1   110.5600475 386.601600
   6608   6607   6609     1   109.7500473 328.025600
   6609   6607   6610     1   110.5600475 386.601600
   6610   6619   6620     1   109.5600471 388.275200
   6610   6619   6621     1   109.5600471 388.275200
   6611   6610   6619     1   109.8000471 387.438400
   6611   6610   6612     1   107.5800459 329.699200
   6612   6610   6619     1   109.8000471 387.438400
   6613   6625   6626     1   109.5600471 388.275200
   6613   6625   6627     1   109.5600471 388.275200
   6614   6613   6625     1   109.8000471 387.438400
   6614   6613   6615     1   107.5800459 329.699200
   6615   6613   6625     1   109.8000471 387.438400
   6616   6622   6623     1   109.5600471 388.275200
   6616   6622   6624     1   109.5600471 388.275200
   6617   6616   6622     1   109.8000471 387.438400
   6617   6616   6618     1   107.5800459 329.699200
   6618   6616   6622     1   109.8000471 387.438400
   6620   6619   6628     1   109.7800468 425.094400
   6620   6619   6621     1   108.4600466 328.025600
   6621   6619   6628     1   109.7800468 425.094400
   6623   6622  12850     1   109.7800468 425.094400
   6623   6622   6624     1   108.4600466 328.025600
   6624   6622  12850     1   109.7800468 425.094400
   6626   6625  12873     1   109.7800468 425.094400
   6626   6625   6627     1   108.4600466 328.025600
   6627   6625  12873     1   109.7800468 425.094400
   6630   6631   6632     1   108.0100461 406.684800
   6630   6631   6633     1   108.0100461 406.684800
   6630   6634   6635     1   108.0100461 406.684800
   6630   6634   6636     1   108.0100461 406.684800
   6630   6637   6638     1   108.0100461 406.684800
   6630   6637   6639     1   108.0100461 406.684800
   6631   6630   6659     1   110.1100470 384.091200
   6631   6643   6644     1   109.8000471 387.438400
   6631   6643   6645     1   109.8000471 387.438400
   6632   6631   6643     1   110.5600475 386.601600
   6632   6631   6633     1   109.7500473 328.025600
   6633   6631   6643     1   110.5600475 386.601600
   6634   6630   6659     1   110.1100470 384.091200
   6634   6646   6647     1   109.8000471 387.438400
   6634   6646   6648     1   109.8000471 387.438400
   6635   6634   6646     1   110.5600475 386.601600
   6635   6634   6636     1   109.7500473 328.025600
   6636   6634   6646     1   110.5600475 386.601600
   6637   6630   6659     1   110.1100470 384.091200
   6637   6640   6641     1   109.8000471 387.438400
   6637   6640   6642     1   109.8000471 387.438400
   6638   6637   6640     1   110.5600475 386.601600
   6638   6637   6639     1   109.7500473 328.025600
   6639   6637   6640     1   110.5600475 386.601600
   6640   6649   6650     1   109.5600471 388.275200
   6640   6649   6651     1   109.5600471 388.275200
   6641   6640   6649     1   109.8000471 387.438400
   6641   6640   6642     1   107.5800459 329.699200
   6642   6640   6649     1   109.8000471 387.438400
   6643   6655   6656     1   109.5600471 388.275200
   6643   6655   6657     1   109.5600471 388.275200
   6644   6643   6655     1   109.8000471 387.438400
   6644   6643   6645     1   107.5800459 329.699200
   6645   6643   6655     1   109.8000471 387.438400
   6646   6652   6653     1   109.5600471 388.275200
   6646   6652   6654     1   109.5600471 388.275200
   6647   6646   6652     1   109.8000471 387.438400
   6647   6646   6648     1   107.5800459 329.699200
   6648   6646   6652     1   109.8000471 387.438400
   6650   6649   6658     1   109.7800468 425.094400
   6650   6649   6651     1   108.4600466 328.025600
   6651   6649   6658     1   109.7800468 425.094400
   6653   6652  12896     1   109.7800468 425.094400
   6653   6652   6654     1   108.4600466 328.025600
   6654   6652  12896     1   109.7800468 425.094400
   6656   6655  12919     1   109.7800468 425.094400
   6656   6655   6657     1   108.4600466 328.025600
   6657   6655  12919     1   109.7800468 425.094400
   6660   6661   6662     1   108.0100461 406.684800
   6660   6661   6663     1   108.0100461 406.684800
   6660   6664   6665     1   108.0100461 406.684800
   6660   6664   6666     1   108.0100461 406.684800
   6660   6667   6668     1   108.0100461 406.684800
   6660   6667   6669     1   108.0100461 406.684800
   6661   6660   6689     1   110.1100470 384.091200
   6661   6673   6674     1   109.8000471 387.438400
   6661   6673   6675     1   109.8000471 387.438400
   6662   6661   6673     1   110.5600475 386.601600
   6662   6661   6663     1   109.7500473 328.025600
   6663   6661   6673     1   110.5600475 386.601600
   6664   6660   6689     1   110.1100470 384.091200
   6664   6676   6677     1   109.8000471 387.438400
   6664   6676   6678     1   109.8000471 387.438400
   6665   6664   6676     1   110.5600475 386.601600
   6665   6664   6666     1   109.7500473 328.025600
   6666   6664   6676     1   110.5600475 386.601600
   6667   6660   6689     1   110.1100470 384.091200
   6667   6670   6671     1   109.8000471 387.438400
   6667   6670   6672     1   109.8000471 387.438400
   6668   6667   6670     1   110.5600475 386.601600
   6668   6667   6669     1   109.7500473 328.025600
   6669   6667   6670     1   110.5600475 386.601600
   6670   6679   6680     1   109.5600471 388.275200
   6670   6679   6681     1   109.5600471 388.275200
   6671   6670   6679     1   109.8000471 387.438400
   6671   6670   6672     1   107.5800459 329.699200
   6672   6670   6679     1   109.8000471 387.438400
   6673   6685   6686     1   109.5600471 388.275200
   6673   6685   6687     1   109.5600471 388.275200
   6674   6673   6685     1   109.8000471 387.438400
   6674   6673   6675     1   107.5800459 329.699200
   6675   6673   6685     1   109.8000471 387.438400
   6676   6682   6683     1   109.5600471 388.275200
   6676   6682   6684     1   109.5600471 388.275200
   6677   6676   6682     1   109.8000471 387.438400
   6677   6676   6678     1   107.5800459 329.699200
   6678   6676   6682     1   109.8000471 387.438400
   6680   6679   6688     1   109.7800468 425.094400
   6680   6679   6681     1   108.4600466 328.025600
   6681   6679   6688     1   109.7800468 425.094400
   6683   6682  12942     1   109.7800468 425.094400
   6683   6682   6684     1   108.4600466 328.025600
   6684   6682  12942     1   109.7800468 425.094400
   6686   6685  12965     1   109.7800468 425.094400
   6686   6685   6687     1   108.4600466 328.025600
   6687   6685  12965     1   109.7800468 425.094400
   6690   6691   6692     1   108.0100461 406.684800
   6690   6691   6693     1   108.0100461 406.684800
   6690   6694   6695     1   108.0100461 406.684800
   6690   6694   6696     1   108.0100461 406.684800
   6690   6697   6698     1   108.0100461 406.684800
   6690   6697   6699     1   108.0100461 406.684800
   6691   6690   6719     1   110.1100470 384.091200
   6691   6703   6704     1   109.8000471 387.438400
   6691   6703   6705     1   109.8000471 387.438400
   6692   6691   6703     1   110.5600475 386.601600
   6692   6691   6693     1   109.7500473 328.025600
   6693   6691   6703     1   110.5600475 386.601600
   6694   6690   6719     1   110.1100470 384.091200
   6694   6706   6707     1   109.8000471 387.438400
   6694   6706   6708     1   109.8000471 387.438400
   6695   6694   6706     1   110.5600475 386.601600
   6695   6694   6696     1   109.7500473 328.025600
   6696   6694   6706     1   110.5600475 386.601600
   6697   6690   6719     1   110.1100470 384.091200
   6697   6700   6701     1   109.8000471 387.438400
   6697   6700   6702     1   109.8000471 387.438400
   6698   6697   6700     1   110.5600475 386.601600
   6698   6697   6699     1   109.7500473 328.025600
   6699   6697   6700     1   110.5600475 386.601600
   6700   6709   6710     1   109.5600471 388.275200
   6700   6709   6711     1   109.5600471 388.275200
   6701   6700   6709     1   109.8000471 387.438400
   6701   6700   6702     1   107.5800459 329.699200
   6702   6700   6709     1   109.8000471 387.438400
   6703   6715   6716     1   109.5600471 388.275200
   6703   6715   6717     1   109.5600471 388.275200
   6704   6703   6715     1   109.8000471 387.438400
   6704   6703   6705     1   107.5800459 329.699200
   6705   6703   6715     1   109.8000471 387.438400
   6706   6712   6713     1   109.5600471 388.275200
   6706   6712   6714     1   109.5600471 388.275200
   6707   6706   6712     1   109.8000471 387.438400
   6707   6706   6708     1   107.5800459 329.699200
   6708   6706   6712     1   109.8000471 387.438400
   6710   6709   6718     1   109.7800468 425.094400
   6710   6709   6711     1   108.4600466 328.025600
   6711   6709   6718     1   109.7800468 425.094400
   6713   6712  12988     1   109.7800468 425.094400
   6713   6712   6714     1   108.4600466 328.025600
   6714   6712  12988     1   109.7800468 425.094400
   6716   6715  13011     1   109.7800468 425.094400
   6716   6715   6717     1   108.4600466 328.025600
   6717   6715  13011     1   109.7800468 425.094400
   6720   6721   6722     1   108.0100461 406.684800
   6720   6721   6723     1   108.0100461 406.684800
   6720   6724   6725     1   108.0100461 406.684800
   6720   6724   6726     1   108.0100461 406.684800
   6720   6727   6728     1   108.0100461 406.684800
   6720   6727   6729     1   108.0100461 406.684800
   6721   6720   6749     1   110.1100470 384.091200
   6721   6733   6734     1   109.8000471 387.438400
   6721   6733   6735     1   109.8000471 387.438400
   6722   6721   6733     1   110.5600475 386.601600
   6722   6721   6723     1   109.7500473 328.025600
   6723   6721   6733     1   110.5600475 386.601600
   6724   6720   6749     1   110.1100470 384.091200
   6724   6736   6737     1   109.8000471 387.438400
   6724   6736   6738     1   109.8000471 387.438400
   6725   6724   6736     1   110.5600475 386.601600
   6725   6724   6726     1   109.7500473 328.025600
   6726   6724   6736     1   110.5600475 386.601600
   6727   6720   6749     1   110.1100470 384.091200
   6727   6730   6731     1   109.8000471 387.438400
   6727   6730   6732     1   109.8000471 387.438400
   6728   6727   6730     1   110.5600475 386.601600
   6728   6727   6729     1   109.7500473 328.025600
   6729   6727   6730     1   110.5600475 386.601600
   6730   6739   6740     1   109.5600471 388.275200
   6730   6739   6741     1   109.5600471 388.275200
   6731   6730   6739     1   109.8000471 387.438400
   6731   6730   6732     1   107.5800459 329.699200
   6732   6730   6739     1   109.8000471 387.438400
   6733   6745   6746     1   109.5600471 388.275200
   6733   6745   6747     1   109.5600471 388.275200
   6734   6733   6745     1   109.8000471 387.438400
   6734   6733   6735     1   107.5800459 329.699200
   6735   6733   6745     1   109.8000471 387.438400
   6736   6742   6743     1   109.5600471 388.275200
   6736   6742   6744     1   109.5600471 388.275200
   6737   6736   6742     1   109.8000471 387.438400
   6737   6736   6738     1   107.5800459 329.699200
   6738   6736   6742     1   109.8000471 387.438400
   6740   6739   6748     1   109.7800468 425.094400
   6740   6739   6741     1   108.4600466 328.025600
   6741   6739   6748     1   109.7800468 425.094400
   6743   6742  13034     1   109.7800468 425.094400
   6743   6742   6744     1   108.4600466 328.025600
   6744   6742  13034     1   109.7800468 425.094400
   6746   6745  13057     1   109.7800468 425.094400
   6746   6745   6747     1   108.4600466 328.025600
   6747   6745  13057     1   109.7800468 425.094400
   6750   6751   6752     1   108.0100461 406.684800
   6750   6751   6753     1   108.0100461 406.684800
   6750   6754   6755     1   108.0100461 406.684800
   6750   6754   6756     1   108.0100461 406.684800
   6750   6757   6758     1   108.0100461 406.684800
   6750   6757   6759     1   108.0100461 406.684800
   6751   6750   6779     1   110.1100470 384.091200
   6751   6763   6764     1   109.8000471 387.438400
   6751   6763   6765     1   109.8000471 387.438400
   6752   6751   6763     1   110.5600475 386.601600
   6752   6751   6753     1   109.7500473 328.025600
   6753   6751   6763     1   110.5600475 386.601600
   6754   6750   6779     1   110.1100470 384.091200
   6754   6766   6767     1   109.8000471 387.438400
   6754   6766   6768     1   109.8000471 387.438400
   6755   6754   6766     1   110.5600475 386.601600
   6755   6754   6756     1   109.7500473 328.025600
   6756   6754   6766     1   110.5600475 386.601600
   6757   6750   6779     1   110.1100470 384.091200
   6757   6760   6761     1   109.8000471 387.438400
   6757   6760   6762     1   109.8000471 387.438400
   6758   6757   6760     1   110.5600475 386.601600
   6758   6757   6759     1   109.7500473 328.025600
   6759   6757   6760     1   110.5600475 386.601600
   6760   6769   6770     1   109.5600471 388.275200
   6760   6769   6771     1   109.5600471 388.275200
   6761   6760   6769     1   109.8000471 387.438400
   6761   6760   6762     1   107.5800459 329.699200
   6762   6760   6769     1   109.8000471 387.438400
   6763   6775   6776     1   109.5600471 388.275200
   6763   6775   6777     1   109.5600471 388.275200
   6764   6763   6775     1   109.8000471 387.438400
   6764   6763   6765     1   107.5800459 329.699200
   6765   6763   6775     1   109.8000471 387.438400
   6766   6772   6773     1   109.5600471 388.275200
   6766   6772   6774     1   109.5600471 388.275200
   6767   6766   6772     1   109.8000471 387.438400
   6767   6766   6768     1   107.5800459 329.699200
   6768   6766   6772     1   109.8000471 387.438400
   6770   6769   6778     1   109.7800468 425.094400
   6770   6769   6771     1   108.4600466 328.025600
   6771   6769   6778     1   109.7800468 425.094400
   6773   6772  13080     1   109.7800468 425.094400
   6773   6772   6774     1   108.4600466 328.025600
   6774   6772  13080     1   109.7800468 425.094400
   6776   6775  13103     1   109.7800468 425.094400
   6776   6775   6777     1   108.4600466 328.025600
   6777   6775  13103     1   109.7800468 425.094400
   6780   6781   6782     1   108.0100461 406.684800
   6780   6781   6783     1   108.0100461 406.684800
   6780   6784   6785     1   108.0100461 406.684800
   6780   6784   6786     1   108.0100461 406.684800
   6780   6787   6788     1   108.0100461 406.684800
   6780   6787   6789     1   108.0100461 406.684800
   6781   6780   6809     1   110.1100470 384.091200
   6781   6793   6794     1   109.8000471 387.438400
   6781   6793   6795     1   109.8000471 387.438400
   6782   6781   6793     1   110.5600475 386.601600
   6782   6781   6783     1   109.7500473 328.025600
   6783   6781   6793     1   110.5600475 386.601600
   6784   6780   6809     1   110.1100470 384.091200
   6784   6796   6797     1   109.8000471 387.438400
   6784   6796   6798     1   109.8000471 387.438400
   6785   6784   6796     1   110.5600475 386.601600
   6785   6784   6786     1   109.7500473 328.025600
   6786   6784   6796     1   110.5600475 386.601600
   6787   6780   6809     1   110.1100470 384.091200
   6787   6790   6791     1   109.8000471 387.438400
   6787   6790   6792     1   109.8000471 387.438400
   6788   6787   6790     1   110.5600475 386.601600
   6788   6787   6789     1   109.7500473 328.025600
   6789   6787   6790     1   110.5600475 386.601600
   6790   6799   6800     1   109.5600471 388.275200
   6790   6799   6801     1   109.5600471 388.275200
   6791   6790   6799     1   109.8000471 387.438400
   6791   6790   6792     1   107.5800459 329.699200
   6792   6790   6799     1   109.8000471 387.438400
   6793   6805   6806     1   109.5600471 388.275200
   6793   6805   6807     1   109.5600471 388.275200
   6794   6793   6805     1   109.8000471 387.438400
   6794   6793   6795     1   107.5800459 329.699200
   6795   6793   6805     1   109.8000471 387.438400
   6796   6802   6803     1   109.5600471 388.275200
   6796   6802   6804     1   109.5600471 388.275200
   6797   6796   6802     1   109.8000471 387.438400
   6797   6796   6798     1   107.5800459 329.699200
   6798   6796   6802     1   109.8000471 387.438400
   6800   6799   6808     1   109.7800468 425.094400
   6800   6799   6801     1   108.4600466 328.025600
   6801   6799   6808     1   109.7800468 425.094400
   6803   6802  13126     1   109.7800468 425.094400
   6803   6802   6804     1   108.4600466 328.025600
   6804   6802  13126     1   109.7800468 425.094400
   6806   6805  13149     1   109.7800468 425.094400
   6806   6805   6807     1   108.4600466 328.025600
   6807   6805  13149     1   109.7800468 425.094400
   6810   6811   6812     1   108.0100461 406.684800
   6810   6811   6813     1   108.0100461 406.684800
   6810   6814   6815     1   108.0100461 406.684800
   6810   6814   6816     1   108.0100461 406.684800
   6810   6817   6818     1   108.0100461 406.684800
   6810   6817   6819     1   108.0100461 406.684800
   6811   6810   6839     1   110.1100470 384.091200
   6811   6823   6824     1   109.8000471 387.438400
   6811   6823   6825     1   109.8000471 387.438400
   6812   6811   6823     1   110.5600475 386.601600
   6812   6811   6813     1   109.7500473 328.025600
   6813   6811   6823     1   110.5600475 386.601600
   6814   6810   6839     1   110.1100470 384.091200
   6814   6826   6827     1   109.8000471 387.438400
   6814   6826   6828     1   109.8000471 387.438400
   6815   6814   6826     1   110.5600475 386.601600
   6815   6814   6816     1   109.7500473 328.025600
   6816   6814   6826     1   110.5600475 386.601600
   6817   6810   6839     1   110.1100470 384.091200
   6817   6820   6821     1   109.8000471 387.438400
   6817   6820   6822     1   109.8000471 387.438400
   6818   6817   6820     1   110.5600475 386.601600
   6818   6817   6819     1   109.7500473 328.025600
   6819   6817   6820     1   110.5600475 386.601600
   6820   6829   6830     1   109.5600471 388.275200
   6820   6829   6831     1   109.5600471 388.275200
   6821   6820   6829     1   109.8000471 387.438400
   6821   6820   6822     1   107.5800459 329.699200
   6822   6820   6829     1   109.8000471 387.438400
   6823   6835   6836     1   109.5600471 388.275200
   6823   6835   6837     1   109.5600471 388.275200
   6824   6823   6835     1   109.8000471 387.438400
   6824   6823   6825     1   107.5800459 329.699200
   6825   6823   6835     1   109.8000471 387.438400
   6826   6832   6833     1   109.5600471 388.275200
   6826   6832   6834     1   109.5600471 388.275200
   6827   6826   6832     1   109.8000471 387.438400
   6827   6826   6828     1   107.5800459 329.699200
   6828   6826   6832     1   109.8000471 387.438400
   6830   6829   6838     1   109.7800468 425.094400
   6830   6829   6831     1   108.4600466 328.025600
   6831   6829   6838     1   109.7800468 425.094400
   6833   6832  13172     1   109.7800468 425.094400
   6833   6832   6834     1   108.4600466 328.025600
   6834   6832  13172     1   109.7800468 425.094400
   6836   6835  13195     1   109.7800468 425.094400
   6836   6835   6837     1   108.4600466 328.025600
   6837   6835  13195     1   109.7800468 425.094400
   6840   6841   6842     1   108.0100461 406.684800
   6840   6841   6843     1   108.0100461 406.684800
   6840   6844   6845     1   108.0100461 406.684800
   6840   6844   6846     1   108.0100461 406.684800
   6840   6847   6848     1   108.0100461 406.684800
   6840   6847   6849     1   108.0100461 406.684800
   6841   6840   6869     1   110.1100470 384.091200
   6841   6853   6854     1   109.8000471 387.438400
   6841   6853   6855     1   109.8000471 387.438400
   6842   6841   6853     1   110.5600475 386.601600
   6842   6841   6843     1   109.7500473 328.025600
   6843   6841   6853     1   110.5600475 386.601600
   6844   6840   6869     1   110.1100470 384.091200
   6844   6856   6857     1   109.8000471 387.438400
   6844   6856   6858     1   109.8000471 387.438400
   6845   6844   6856     1   110.5600475 386.601600
   6845   6844   6846     1   109.7500473 328.025600
   6846   6844   6856     1   110.5600475 386.601600
   6847   6840   6869     1   110.1100470 384.091200
   6847   6850   6851     1   109.8000471 387.438400
   6847   6850   6852     1   109.8000471 387.438400
   6848   6847   6850     1   110.5600475 386.601600
   6848   6847   6849     1   109.7500473 328.025600
   6849   6847   6850     1   110.5600475 386.601600
   6850   6859   6860     1   109.5600471 388.275200
   6850   6859   6861     1   109.5600471 388.275200
   6851   6850   6859     1   109.8000471 387.438400
   6851   6850   6852     1   107.5800459 329.699200
   6852   6850   6859     1   109.8000471 387.438400
   6853   6865   6866     1   109.5600471 388.275200
   6853   6865   6867     1   109.5600471 388.275200
   6854   6853   6865     1   109.8000471 387.438400
   6854   6853   6855     1   107.5800459 329.699200
   6855   6853   6865     1   109.8000471 387.438400
   6856   6862   6863     1   109.5600471 388.275200
   6856   6862   6864     1   109.5600471 388.275200
   6857   6856   6862     1   109.8000471 387.438400
   6857   6856   6858     1   107.5800459 329.699200
   6858   6856   6862     1   109.8000471 387.438400
   6860   6859   6868     1   109.7800468 425.094400
   6860   6859   6861     1   108.4600466 328.025600
   6861   6859   6868     1   109.7800468 425.094400
   6863   6862  13218     1   109.7800468 425.094400
   6863   6862   6864     1   108.4600466 328.025600
   6864   6862  13218     1   109.7800468 425.094400
   6866   6865  13241     1   109.7800468 425.094400
   6866   6865   6867     1   108.4600466 328.025600
   6867   6865  13241     1   109.7800468 425.094400
   6870   6871   6872     1   108.0100461 406.684800
   6870   6871   6873     1   108.0100461 406.684800
   6870   6874   6875     1   108.0100461 406.684800
   6870   6874   6876     1   108.0100461 406.684800
   6870   6877   6878     1   108.0100461 406.684800
   6870   6877   6879     1   108.0100461 406.684800
   6871   6870   6899     1   110.1100470 384.091200
   6871   6883   6884     1   109.8000471 387.438400
   6871   6883   6885     1   109.8000471 387.438400
   6872   6871   6883     1   110.5600475 386.601600
   6872   6871   6873     1   109.7500473 328.025600
   6873   6871   6883     1   110.5600475 386.601600
   6874   6870   6899     1   110.1100470 384.091200
   6874   6886   6887     1   109.8000471 387.438400
   6874   6886   6888     1   109.8000471 387.438400
   6875   6874   6886     1   110.5600475 386.601600
   6875   6874   6876     1   109.7500473 328.025600
   6876   6874   6886     1   110.5600475 386.601600
   6877   6870   6899     1   110.1100470 384.091200
   6877   6880   6881     1   109.8000471 387.438400
   6877   6880   6882     1   109.8000471 387.438400
   6878   6877   6880     1   110.5600475 386.601600
   6878   6877   6879     1   109.7500473 328.025600
   6879   6877   6880     1   110.5600475 386.601600
   6880   6889   6890     1   109.5600471 388.275200
   6880   6889   6891     1   109.5600471 388.275200
   6881   6880   6889     1   109.8000471 387.438400
   6881   6880   6882     1   107.5800459 329.699200
   6882   6880   6889     1   109.8000471 387.438400
   6883   6895   6896     1   109.5600471 388.275200
   6883   6895   6897     1   109.5600471 388.275200
   6884   6883   6895     1   109.8000471 387.438400
   6884   6883   6885     1   107.5800459 329.699200
   6885   6883   6895     1   109.8000471 387.438400
   6886   6892   6893     1   109.5600471 388.275200
   6886   6892   6894     1   109.5600471 388.275200
   6887   6886   6892     1   109.8000471 387.438400
   6887   6886   6888     1   107.5800459 329.699200
   6888   6886   6892     1   109.8000471 387.438400
   6890   6889   6898     1   109.7800468 425.094400
   6890   6889   6891     1   108.4600466 328.025600
   6891   6889   6898     1   109.7800468 425.094400
   6893   6892  13264     1   109.7800468 425.094400
   6893   6892   6894     1   108.4600466 328.025600
   6894   6892  13264     1   109.7800468 425.094400
   6896   6895  13287     1   109.7800468 425.094400
   6896   6895   6897     1   108.4600466 328.025600
   6897   6895  13287     1   109.7800468 425.094400
   6900   6901   6902     1   108.0100461 406.684800
   6900   6901   6903     1   108.0100461 406.684800
   6900   6904   6905     1   108.0100461 406.684800
   6900   6904   6906     1   108.0100461 406.684800
   6900   6907   6908     1   108.0100461 406.684800
   6900   6907   6909     1   108.0100461 406.684800
   6901   6900   6929     1   110.1100470 384.091200
   6901   6913   6914     1   109.8000471 387.438400
   6901   6913   6915     1   109.8000471 387.438400
   6902   6901   6913     1   110.5600475 386.601600
   6902   6901   6903     1   109.7500473 328.025600
   6903   6901   6913     1   110.5600475 386.601600
   6904   6900   6929     1   110.1100470 384.091200
   6904   6916   6917     1   109.8000471 387.438400
   6904   6916   6918     1   109.8000471 387.438400
   6905   6904   6916     1   110.5600475 386.601600
   6905   6904   6906     1   109.7500473 328.025600
   6906   6904   6916     1   110.5600475 386.601600
   6907   6900   6929     1   110.1100470 384.091200
   6907   6910   6911     1   109.8000471 387.438400
   6907   6910   6912     1   109.8000471 387.438400
   6908   6907   6910     1   110.5600475 386.601600
   6908   6907   6909     1   109.7500473 328.025600
   6909   6907   6910     1   110.5600475 386.601600
   6910   6919   6920     1   109.5600471 388.275200
   6910   6919   6921     1   109.5600471 388.275200
   6911   6910   6919     1   109.8000471 387.438400
   6911   6910   6912     1   107.5800459 329.699200
   6912   6910   6919     1   109.8000471 387.438400
   6913   6925   6926     1   109.5600471 388.275200
   6913   6925   6927     1   109.5600471 388.275200
   6914   6913   6925     1   109.8000471 387.438400
   6914   6913   6915     1   107.5800459 329.699200
   6915   6913   6925     1   109.8000471 387.438400
   6916   6922   6923     1   109.5600471 388.275200
   6916   6922   6924     1   109.5600471 388.275200
   6917   6916   6922     1   109.8000471 387.438400
   6917   6916   6918     1   107.5800459 329.699200
   6918   6916   6922     1   109.8000471 387.438400
   6920   6919   6928     1   109.7800468 425.094400
   6920   6919   6921     1   108.4600466 328.025600
   6921   6919   6928     1   109.7800468 425.094400
   6923   6922  13310     1   109.7800468 425.094400
   6923   6922   6924     1   108.4600466 328.025600
   6924   6922  13310     1   109.7800468 425.094400
   6926   6925  13333     1   109.7800468 425.094400
   6926   6925   6927     1   108.4600466 328.025600
   6927   6925  13333     1   109.7800468 425.094400
   6930   6931   6932     1   108.0100461 406.684800
   6930   6931   6933     1   108.0100461 406.684800
   6930   6934   6935     1   108.0100461 406.684800
   6930   6934   6936     1   108.0100461 406.684800
   6930   6937   6938     1   108.0100461 406.684800
   6930   6937   6939     1   108.0100461 406.684800
   6931   6930   6959     1   110.1100470 384.091200
   6931   6943   6944     1   109.8000471 387.438400
   6931   6943   6945     1   109.8000471 387.438400
   6932   6931   6943     1   110.5600475 386.601600
   6932   6931   6933     1   109.7500473 328.025600
   6933   6931   6943     1   110.5600475 386.601600
   6934   6930   6959     1   110.1100470 384.091200
   6934   6946   6947     1   109.8000471 387.438400
   6934   6946   6948     1   109.8000471 387.438400
   6935   6934   6946     1   110.5600475 386.601600
   6935   6934   6936     1   109.7500473 328.025600
   6936   6934   6946     1   110.5600475 386.601600
   6937   6930   6959     1   110.1100470 384.091200
   6937   6940   6941     1   109.8000471 387.438400
   6937   6940   6942     1   109.8000471 387.438400
   6938   6937   6940     1   110.5600475 386.601600
   6938   6937   6939     1   109.7500473 328.025600
   6939   6937   6940     1   110.5600475 386.601600
   6940   6949   6950     1   109.5600471 388.275200
   6940   6949   6951     1   109.5600471 388.275200
   6941   6940   6949     1   109.8000471 387.438400
   6941   6940   6942     1   107.5800459 329.699200
   6942   6940   6949     1   109.8000471 387.438400
   6943   6955   6956     1   109.5600471 388.275200
   6943   6955   6957     1   109.5600471 388.275200
   6944   6943   6955     1   109.8000471 387.438400
   6944   6943   6945     1   107.5800459 329.699200
   6945   6943   6955     1   109.8000471 387.438400
   6946   6952   6953     1   109.5600471 388.275200
   6946   6952   6954     1   109.5600471 388.275200
   6947   6946   6952     1   109.8000471 387.438400
   6947   6946   6948     1   107.5800459 329.699200
   6948   6946   6952     1   109.8000471 387.438400
   6950   6949   6958     1   109.7800468 425.094400
   6950   6949   6951     1   108.4600466 328.025600
   6951   6949   6958     1   109.7800468 425.094400
   6953   6952  13356     1   109.7800468 425.094400
   6953   6952   6954     1   108.4600466 328.025600
   6954   6952  13356     1   109.7800468 425.094400
   6956   6955  13379     1   109.7800468 425.094400
   6956   6955   6957     1   108.4600466 328.025600
   6957   6955  13379     1   109.7800468 425.094400
   6960   6961   6962     1   108.0100461 406.684800
   6960   6961   6963     1   108.0100461 406.684800
   6960   6964   6965     1   108.0100461 406.684800
   6960   6964   6966     1   108.0100461 406.684800
   6960   6967   6968     1   108.0100461 406.684800
   6960   6967   6969     1   108.0100461 406.684800
   6961   6960   6989     1   110.1100470 384.091200
   6961   6973   6974     1   109.8000471 387.438400
   6961   6973   6975     1   109.8000471 387.438400
   6962   6961   6973     1   110.5600475 386.601600
   6962   6961   6963     1   109.7500473 328.025600
   6963   6961   6973     1   110.5600475 386.601600
   6964   6960   6989     1   110.1100470 384.091200
   6964   6976   6977     1   109.8000471 387.438400
   6964   6976   6978     1   109.8000471 387.438400
   6965   6964   6976     1   110.5600475 386.601600
   6965   6964   6966     1   109.7500473 328.025600
   6966   6964   6976     1   110.5600475 386.601600
   6967   6960   6989     1   110.1100470 384.091200
   6967   6970   6971     1   109.8000471 387.438400
   6967   6970   6972     1   109.8000471 387.438400
   6968   6967   6970     1   110.5600475 386.601600
   6968   6967   6969     1   109.7500473 328.025600
   6969   6967   6970     1   110.5600475 386.601600
   6970   6979   6980     1   109.5600471 388.275200
   6970   6979   6981     1   109.5600471 388.275200
   6971   6970   6979     1   109.8000471 387.438400
   6971   6970   6972     1   107.5800459 329.699200
   6972   6970   6979     1   109.8000471 387.438400
   6973   6985   6986     1   109.5600471 388.275200
   6973   6985   6987     1   109.5600471 388.275200
   6974   6973   6985     1   109.8000471 387.438400
   6974   6973   6975     1   107.5800459 329.699200
   6975   6973   6985     1   109.8000471 387.438400
   6976   6982   6983     1   109.5600471 388.275200
   6976   6982   6984     1   109.5600471 388.275200
   6977   6976   6982     1   109.8000471 387.438400
   6977   6976   6978     1   107.5800459 329.699200
   6978   6976   6982     1   109.8000471 387.438400
   6980   6979   6988     1   109.7800468 425.094400
   6980   6979   6981     1   108.4600466 328.025600
   6981   6979   6988     1   109.7800468 425.094400
   6983   6982  13402     1   109.7800468 425.094400
   6983   6982   6984     1   108.4600466 328.025600
   6984   6982  13402     1   109.7800468 425.094400
   6986   6985  13425     1   109.7800468 425.094400
   6986   6985   6987     1   108.4600466 328.025600
   6987   6985  13425     1   109.7800468 425.094400
   6990   6991   6992     1   108.0100461 406.684800
   6990   6991   6993     1   108.0100461 406.684800
   6990   6994   6995     1   108.0100461 406.684800
   6990   6994   6996     1   108.0100461 406.684800
   6990   6997   6998     1   108.0100461 406.684800
   6990   6997   6999     1   108.0100461 406.684800
   6991   6990   7019     1   110.1100470 384.091200
   6991   7003   7004     1   109.8000471 387.438400
   6991   7003   7005     1   109.8000471 387.438400
   6992   6991   7003     1   110.5600475 386.601600
   6992   6991   6993     1   109.7500473 328.025600
   6993   6991   7003     1   110.5600475 386.601600
   6994   6990   7019     1   110.1100470 384.091200
   6994   7006   7007     1   109.8000471 387.438400
   6994   7006   7008     1   109.8000471 387.438400
   6995   6994   7006     1   110.5600475 386.601600
   6995   6994   6996     1   109.7500473 328.025600
   6996   6994   7006     1   110.5600475 386.601600
   6997   6990   7019     1   110.1100470 384.091200
   6997   7000   7001     1   109.8000471 387.438400
   6997   7000   7002     1   109.8000471 387.438400
   6998   6997   7000     1   110.5600475 386.601600
   6998   6997   6999     1   109.7500473 328.025600
   6999   6997   7000     1   110.5600475 386.601600
   7000   7009   7010     1   109.5600471 388.275200
   7000   7009   7011     1   109.5600471 388.275200
   7001   7000   7009     1   109.8000471 387.438400
   7001   7000   7002     1   107.5800459 329.699200
   7002   7000   7009     1   109.8000471 387.438400
   7003   7015   7016     1   109.5600471 388.275200
   7003   7015   7017     1   109.5600471 388.275200
   7004   7003   7015     1   109.8000471 387.438400
   7004   7003   7005     1   107.5800459 329.699200
   7005   7003   7015     1   109.8000471 387.438400
   7006   7012   7013     1   109.5600471 388.275200
   7006   7012   7014     1   109.5600471 388.275200
   7007   7006   7012     1   109.8000471 387.438400
   7007   7006   7008     1   107.5800459 329.699200
   7008   7006   7012     1   109.8000471 387.438400
   7010   7009   7018     1   109.7800468 425.094400
   7010   7009   7011     1   108.4600466 328.025600
   7011   7009   7018     1   109.7800468 425.094400
   7013   7012  13448     1   109.7800468 425.094400
   7013   7012   7014     1   108.4600466 328.025600
   7014   7012  13448     1   109.7800468 425.094400
   7016   7015  13471     1   109.7800468 425.094400
   7016   7015   7017     1   108.4600466 328.025600
   7017   7015  13471     1   109.7800468 425.094400
   7020   7021   7022     1   108.0100461 406.684800
   7020   7021   7023     1   108.0100461 406.684800
   7020   7024   7025     1   108.0100461 406.684800
   7020   7024   7026     1   108.0100461 406.684800
   7020   7027   7028     1   108.0100461 406.684800
   7020   7027   7029     1   108.0100461 406.684800
   7021   7020   7049     1   110.1100470 384.091200
   7021   7033   7034     1   109.8000471 387.438400
   7021   7033   7035     1   109.8000471 387.438400
   7022   7021   7033     1   110.5600475 386.601600
   7022   7021   7023     1   109.7500473 328.025600
   7023   7021   7033     1   110.5600475 386.601600
   7024   7020   7049     1   110.1100470 384.091200
   7024   7036   7037     1   109.8000471 387.438400
   7024   7036   7038     1   109.8000471 387.438400
   7025   7024   7036     1   110.5600475 386.601600
   7025   7024   7026     1   109.7500473 328.025600
   7026   7024   7036     1   110.5600475 386.601600
   7027   7020   7049     1   110.1100470 384.091200
   7027   7030   7031     1   109.8000471 387.438400
   7027   7030   7032     1   109.8000471 387.438400
   7028   7027   7030     1   110.5600475 386.601600
   7028   7027   7029     1   109.7500473 328.025600
   7029   7027   7030     1   110.5600475 386.601600
   7030   7039   7040     1   109.5600471 388.275200
   7030   7039   7041     1   109.5600471 388.275200
   7031   7030   7039     1   109.8000471 387.438400
   7031   7030   7032     1   107.5800459 329.699200
   7032   7030   7039     1   109.8000471 387.438400
   7033   7045   7046     1   109.5600471 388.275200
   7033   7045   7047     1   109.5600471 388.275200
   7034   7033   7045     1   109.8000471 387.438400
   7034   7033   7035     1   107.5800459 329.699200
   7035   7033   7045     1   109.8000471 387.438400
   7036   7042   7043     1   109.5600471 388.275200
   7036   7042   7044     1   109.5600471 388.275200
   7037   7036   7042     1   109.8000471 387.438400
   7037   7036   7038     1   107.5800459 329.699200
   7038   7036   7042     1   109.8000471 387.438400
   7040   7039   7048     1   109.7800468 425.094400
   7040   7039   7041     1   108.4600466 328.025600
   7041   7039   7048     1   109.7800468 425.094400
   7043   7042  13494     1   109.7800468 425.094400
   7043   7042   7044     1   108.4600466 328.025600
   7044   7042  13494     1   109.7800468 425.094400
   7046   7045  13517     1   109.7800468 425.094400
   7046   7045   7047     1   108.4600466 328.025600
   7047   7045  13517     1   109.7800468 425.094400
   7050   7051   7052     1   108.0100461 406.684800
   7050   7051   7053     1   108.0100461 406.684800
   7050   7054   7055     1   108.0100461 406.684800
   7050   7054   7056     1   108.0100461 406.684800
   7050   7057   7058     1   108.0100461 406.684800
   7050   7057   7059     1   108.0100461 406.684800
   7051   7050   7079     1   110.1100470 384.091200
   7051   7063   7064     1   109.8000471 387.438400
   7051   7063   7065     1   109.8000471 387.438400
   7052   7051   7063     1   110.5600475 386.601600
   7052   7051   7053     1   109.7500473 328.025600
   7053   7051   7063     1   110.5600475 386.601600
   7054   7050   7079     1   110.1100470 384.091200
   7054   7066   7067     1   109.8000471 387.438400
   7054   7066   7068     1   109.8000471 387.438400
   7055   7054   7066     1   110.5600475 386.601600
   7055   7054   7056     1   109.7500473 328.025600
   7056   7054   7066     1   110.5600475 386.601600
   7057   7050   7079     1   110.1100470 384.091200
   7057   7060   7061     1   109.8000471 387.438400
   7057   7060   7062     1   109.8000471 387.438400
   7058   7057   7060     1   110.5600475 386.601600
   7058   7057   7059     1   109.7500473 328.025600
   7059   7057   7060     1   110.5600475 386.601600
   7060   7069   7070     1   109.5600471 388.275200
   7060   7069   7071     1   109.5600471 388.275200
   7061   7060   7069     1   109.8000471 387.438400
   7061   7060   7062     1   107.5800459 329.699200
   7062   7060   7069     1   109.8000471 387.438400
   7063   7075   7076     1   109.5600471 388.275200
   7063   7075   7077     1   109.5600471 388.275200
   7064   7063   7075     1   109.8000471 387.438400
   7064   7063   7065     1   107.5800459 329.699200
   7065   7063   7075     1   109.8000471 387.438400
   7066   7072   7073     1   109.5600471 388.275200
   7066   7072   7074     1   109.5600471 388.275200
   7067   7066   7072     1   109.8000471 387.438400
   7067   7066   7068     1   107.5800459 329.699200
   7068   7066   7072     1   109.8000471 387.438400
   7070   7069   7078     1   109.7800468 425.094400
   7070   7069   7071     1   108.4600466 328.025600
   7071   7069   7078     1   109.7800468 425.094400
   7073   7072  13540     1   109.7800468 425.094400
   7073   7072   7074     1   108.4600466 328.025600
   7074   7072  13540     1   109.7800468 425.094400
   7076   7075  13563     1   109.7800468 425.094400
   7076   7075   7077     1   108.4600466 328.025600
   7077   7075  13563     1   109.7800468 425.094400
   7080   7081   7082     1   108.0100461 406.684800
   7080   7081   7083     1   108.0100461 406.684800
   7080   7084   7085     1   108.0100461 406.684800
   7080   7084   7086     1   108.0100461 406.684800
   7080   7087   7088     1   108.0100461 406.684800
   7080   7087   7089     1   108.0100461 406.684800
   7081   7080   7109     1   110.1100470 384.091200
   7081   7093   7094     1   109.8000471 387.438400
   7081   7093   7095     1   109.8000471 387.438400
   7082   7081   7093     1   110.5600475 386.601600
   7082   7081   7083     1   109.7500473 328.025600
   7083   7081   7093     1   110.5600475 386.601600
   7084   7080   7109     1   110.1100470 384.091200
   7084   7096   7097     1   109.8000471 387.438400
   7084   7096   7098     1   109.8000471 387.438400
   7085   7084   7096     1   110.5600475 386.601600
   7085   7084   7086     1   109.7500473 328.025600
   7086   7084   7096     1   110.5600475 386.601600
   7087   7080   7109     1   110.1100470 384.091200
   7087   7090   7091     1   109.8000471 387.438400
   7087   7090   7092     1   109.8000471 387.438400
   7088   7087   7090     1   110.5600475 386.601600
   7088   7087   7089     1   109.7500473 328.025600
   7089   7087   7090     1   110.5600475 386.601600
   7090   7099   7100     1   109.5600471 388.275200
   7090   7099   7101     1   109.5600471 388.275200
   7091   7090   7099     1   109.8000471 387.438400
   7091   7090   7092     1   107.5800459 329.699200
   7092   7090   7099     1   109.8000471 387.438400
   7093   7105   7106     1   109.5600471 388.275200
   7093   7105   7107     1   109.5600471 388.275200
   7094   7093   7105     1   109.8000471 387.438400
   7094   7093   7095     1   107.5800459 329.699200
   7095   7093   7105     1   109.8000471 387.438400
   7096   7102   7103     1   109.5600471 388.275200
   7096   7102   7104     1   109.5600471 388.275200
   7097   7096   7102     1   109.8000471 387.438400
   7097   7096   7098     1   107.5800459 329.699200
   7098   7096   7102     1   109.8000471 387.438400
   7100   7099   7108     1   109.7800468 425.094400
   7100   7099   7101     1   108.4600466 328.025600
   7101   7099   7108     1   109.7800468 425.094400
   7103   7102  13586     1   109.7800468 425.094400
   7103   7102   7104     1   108.4600466 328.025600
   7104   7102  13586     1   109.7800468 425.094400
   7106   7105  13609     1   109.7800468 425.094400
   7106   7105   7107     1   108.4600466 328.025600
   7107   7105  13609     1   109.7800468 425.094400
   7110   7111   7112     1   108.0100461 406.684800
   7110   7111   7113     1   108.0100461 406.684800
   7110   7114   7115     1   108.0100461 406.684800
   7110   7114   7116     1   108.0100461 406.684800
   7110   7117   7118     1   108.0100461 406.684800
   7110   7117   7119     1   108.0100461 406.684800
   7111   7110   7139     1   110.1100470 384.091200
   7111   7123   7124     1   109.8000471 387.438400
   7111   7123   7125     1   109.8000471 387.438400
   7112   7111   7123     1   110.5600475 386.601600
   7112   7111   7113     1   109.7500473 328.025600
   7113   7111   7123     1   110.5600475 386.601600
   7114   7110   7139     1   110.1100470 384.091200
   7114   7126   7127     1   109.8000471 387.438400
   7114   7126   7128     1   109.8000471 387.438400
   7115   7114   7126     1   110.5600475 386.601600
   7115   7114   7116     1   109.7500473 328.025600
   7116   7114   7126     1   110.5600475 386.601600
   7117   7110   7139     1   110.1100470 384.091200
   7117   7120   7121     1   109.8000471 387.438400
   7117   7120   7122     1   109.8000471 387.438400
   7118   7117   7120     1   110.5600475 386.601600
   7118   7117   7119     1   109.7500473 328.025600
   7119   7117   7120     1   110.5600475 386.601600
   7120   7129   7130     1   109.5600471 388.275200
   7120   7129   7131     1   109.5600471 388.275200
   7121   7120   7129     1   109.8000471 387.438400
   7121   7120   7122     1   107.5800459 329.699200
   7122   7120   7129     1   109.8000471 387.438400
   7123   7135   7136     1   109.5600471 388.275200
   7123   7135   7137     1   109.5600471 388.275200
   7124   7123   7135     1   109.8000471 387.438400
   7124   7123   7125     1   107.5800459 329.699200
   7125   7123   7135     1   109.8000471 387.438400
   7126   7132   7133     1   109.5600471 388.275200
   7126   7132   7134     1   109.5600471 388.275200
   7127   7126   7132     1   109.8000471 387.438400
   7127   7126   7128     1   107.5800459 329.699200
   7128   7126   7132     1   109.8000471 387.438400
   7130   7129   7138     1   109.7800468 425.094400
   7130   7129   7131     1   108.4600466 328.025600
   7131   7129   7138     1   109.7800468 425.094400
   7133   7132  13632     1   109.7800468 425.094400
   7133   7132   7134     1   108.4600466 328.025600
   7134   7132  13632     1   109.7800468 425.094400
   7136   7135  13655     1   109.7800468 425.094400
   7136   7135   7137     1   108.4600466 328.025600
   7137   7135  13655     1   109.7800468 425.094400
   7140   7141   7142     1   108.0100461 406.684800
   7140   7141   7143     1   108.0100461 406.684800
   7140   7144   7145     1   108.0100461 406.684800
   7140   7144   7146     1   108.0100461 406.684800
   7140   7147   7148     1   108.0100461 406.684800
   7140   7147   7149     1   108.0100461 406.684800
   7141   7140   7169     1   110.1100470 384.091200
   7141   7153   7154     1   109.8000471 387.438400
   7141   7153   7155     1   109.8000471 387.438400
   7142   7141   7153     1   110.5600475 386.601600
   7142   7141   7143     1   109.7500473 328.025600
   7143   7141   7153     1   110.5600475 386.601600
   7144   7140   7169     1   110.1100470 384.091200
   7144   7156   7157     1   109.8000471 387.438400
   7144   7156   7158     1   109.8000471 387.438400
   7145   7144   7156     1   110.5600475 386.601600
   7145   7144   7146     1   109.7500473 328.025600
   7146   7144   7156     1   110.5600475 386.601600
   7147   7140   7169     1   110.1100470 384.091200
   7147   7150   7151     1   109.8000471 387.438400
   7147   7150   7152     1   109.8000471 387.438400
   7148   7147   7150     1   110.5600475 386.601600
   7148   7147   7149     1   109.7500473 328.025600
   7149   7147   7150     1   110.5600475 386.601600
   7150   7159   7160     1   109.5600471 388.275200
   7150   7159   7161     1   109.5600471 388.275200
   7151   7150   7159     1   109.8000471 387.438400
   7151   7150   7152     1   107.5800459 329.699200
   7152   7150   7159     1   109.8000471 387.438400
   7153   7165   7166     1   109.5600471 388.275200
   7153   7165   7167     1   109.5600471 388.275200
   7154   7153   7165     1   109.8000471 387.438400
   7154   7153   7155     1   107.5800459 329.699200
   7155   7153   7165     1   109.8000471 387.438400
   7156   7162   7163     1   109.5600471 388.275200
   7156   7162   7164     1   109.5600471 388.275200
   7157   7156   7162     1   109.8000471 387.438400
   7157   7156   7158     1   107.5800459 329.699200
   7158   7156   7162     1   109.8000471 387.438400
   7160   7159   7168     1   109.7800468 425.094400
   7160   7159   7161     1   108.4600466 328.025600
   7161   7159   7168     1   109.7800468 425.094400
   7163   7162  13678     1   109.7800468 425.094400
   7163   7162   7164     1   108.4600466 328.025600
   7164   7162  13678     1   109.7800468 425.094400
   7166   7165  13701     1   109.7800468 425.094400
   7166   7165   7167     1   108.4600466 328.025600
   7167   7165  13701     1   109.7800468 425.094400
   7170   7171   7172     1   108.0100461 406.684800
   7170   7171   7173     1   108.0100461 406.684800
   7170   7174   7175     1   108.0100461 406.684800
   7170   7174   7176     1   108.0100461 406.684800
   7170   7177   7178     1   108.0100461 406.684800
   7170   7177   7179     1   108.0100461 406.684800
   7171   7170   7199     1   110.1100470 384.091200
   7171   7183   7184     1   109.8000471 387.438400
   7171   7183   7185     1   109.8000471 387.438400
   7172   7171   7183     1   110.5600475 386.601600
   7172   7171   7173     1   109.7500473 328.025600
   7173   7171   7183     1   110.5600475 386.601600
   7174   7170   7199     1   110.1100470 384.091200
   7174   7186   7187     1   109.8000471 387.438400
   7174   7186   7188     1   109.8000471 387.438400
   7175   7174   7186     1   110.5600475 386.601600
   7175   7174   7176     1   109.7500473 328.025600
   7176   7174   7186     1   110.5600475 386.601600
   7177   7170   7199     1   110.1100470 384.091200
   7177   7180   7181     1   109.8000471 387.438400
   7177   7180   7182     1   109.8000471 387.438400
   7178   7177   7180     1   110.5600475 386.601600
   7178   7177   7179     1   109.7500473 328.025600
   7179   7177   7180     1   110.5600475 386.601600
   7180   7189   7190     1   109.5600471 388.275200
   7180   7189   7191     1   109.5600471 388.275200
   7181   7180   7189     1   109.8000471 387.438400
   7181   7180   7182     1   107.5800459 329.699200
   7182   7180   7189     1   109.8000471 387.438400
   7183   7195   7196     1   109.5600471 388.275200
   7183   7195   7197     1   109.5600471 388.275200
   7184   7183   7195     1   109.8000471 387.438400
   7184   7183   7185     1   107.5800459 329.699200
   7185   7183   7195     1   109.8000471 387.438400
   7186   7192   7193     1   109.5600471 388.275200
   7186   7192   7194     1   109.5600471 388.275200
   7187   7186   7192     1   109.8000471 387.438400
   7187   7186   7188     1   107.5800459 329.699200
   7188   7186   7192     1   109.8000471 387.438400
   7190   7189   7198     1   109.7800468 425.094400
   7190   7189   7191     1   108.4600466 328.025600
   7191   7189   7198     1   109.7800468 425.094400
   7193   7192  13724     1   109.7800468 425.094400
   7193   7192   7194     1   108.4600466 328.025600
   7194   7192  13724     1   109.7800468 425.094400
   7196   7195  13747     1   109.7800468 425.094400
   7196   7195   7197     1   108.4600466 328.025600
   7197   7195  13747     1   109.7800468 425.094400
   7200   7201   7202     1   108.0100461 406.684800
   7200   7201   7203     1   108.0100461 406.684800
   7200   7204   7205     1   108.0100461 406.684800
   7200   7204   7206     1   108.0100461 406.684800
   7200   7207   7208     1   108.0100461 406.684800
   7200   7207   7209     1   108.0100461 406.684800
   7201   7200   7229     1   110.1100470 384.091200
   7201   7213   7214     1   109.8000471 387.438400
   7201   7213   7215     1   109.8000471 387.438400
   7202   7201   7213     1   110.5600475 386.601600
   7202   7201   7203     1   109.7500473 328.025600
   7203   7201   7213     1   110.5600475 386.601600
   7204   7200   7229     1   110.1100470 384.091200
   7204   7216   7217     1   109.8000471 387.438400
   7204   7216   7218     1   109.8000471 387.438400
   7205   7204   7216     1   110.5600475 386.601600
   7205   7204   7206     1   109.7500473 328.025600
   7206   7204   7216     1   110.5600475 386.601600
   7207   7200   7229     1   110.1100470 384.091200
   7207   7210   7211     1   109.8000471 387.438400
   7207   7210   7212     1   109.8000471 387.438400
   7208   7207   7210     1   110.5600475 386.601600
   7208   7207   7209     1   109.7500473 328.025600
   7209   7207   7210     1   110.5600475 386.601600
   7210   7219   7220     1   109.5600471 388.275200
   7210   7219   7221     1   109.5600471 388.275200
   7211   7210   7219     1   109.8000471 387.438400
   7211   7210   7212     1   107.5800459 329.699200
   7212   7210   7219     1   109.8000471 387.438400
   7213   7225   7226     1   109.5600471 388.275200
   7213   7225   7227     1   109.5600471 388.275200
   7214   7213   7225     1   109.8000471 387.438400
   7214   7213   7215     1   107.5800459 329.699200
   7215   7213   7225     1   109.8000471 387.438400
   7216   7222   7223     1   109.5600471 388.275200
   7216   7222   7224     1   109.5600471 388.275200
   7217   7216   7222     1   109.8000471 387.438400
   7217   7216   7218     1   107.5800459 329.699200
   7218   7216   7222     1   109.8000471 387.438400
   7220   7219   7228     1   109.7800468 425.094400
   7220   7219   7221     1   108.4600466 328.025600
   7221   7219   7228     1   109.7800468 425.094400
   7223   7222  13770     1   109.7800468 425.094400
   7223   7222   7224     1   108.4600466 328.025600
   7224   7222  13770     1   109.7800468 425.094400
   7226   7225  13793     1   109.7800468 425.094400
   7226   7225   7227     1   108.4600466 328.025600
   7227   7225  13793     1   109.7800468 425.094400
   7230   7231   7232     1   108.0100461 406.684800
   7230   7231   7233     1   108.0100461 406.684800
   7230   7234   7235     1   108.0100461 406.684800
   7230   7234   7236     1   108.0100461 406.684800
   7230   7237   7238     1   108.0100461 406.684800
   7230   7237   7239     1   108.0100461 406.684800
   7231   7230   7259     1   110.1100470 384.091200
   7231   7243   7244     1   109.8000471 387.438400
   7231   7243   7245     1   109.8000471 387.438400
   7232   7231   7243     1   110.5600475 386.601600
   7232   7231   7233     1   109.7500473 328.025600
   7233   7231   7243     1   110.5600475 386.601600
   7234   7230   7259     1   110.1100470 384.091200
   7234   7246   7247     1   109.8000471 387.438400
   7234   7246   7248     1   109.8000471 387.438400
   7235   7234   7246     1   110.5600475 386.601600
   7235   7234   7236     1   109.7500473 328.025600
   7236   7234   7246     1   110.5600475 386.601600
   7237   7230   7259     1   110.1100470 384.091200
   7237   7240   7241     1   109.8000471 387.438400
   7237   7240   7242     1   109.8000471 387.438400
   7238   7237   7240     1   110.5600475 386.601600
   7238   7237   7239     1   109.7500473 328.025600
   7239   7237   7240     1   110.5600475 386.601600
   7240   7249   7250     1   109.5600471 388.275200
   7240   7249   7251     1   109.5600471 388.275200
   7241   7240   7249     1   109.8000471 387.438400
   7241   7240   7242     1   107.5800459 329.699200
   7242   7240   7249     1   109.8000471 387.438400
   7243   7255   7256     1   109.5600471 388.275200
   7243   7255   7257     1   109.5600471 388.275200
   7244   7243   7255     1   109.8000471 387.438400
   7244   7243   7245     1   107.5800459 329.699200
   7245   7243   7255     1   109.8000471 387.438400
   7246   7252   7253     1   109.5600471 388.275200
   7246   7252   7254     1   109.5600471 388.275200
   7247   7246   7252     1   109.8000471 387.438400
   7247   7246   7248     1   107.5800459 329.699200
   7248   7246   7252     1   109.8000471 387.438400
   7250   7249   7258     1   109.7800468 425.094400
   7250   7249   7251     1   108.4600466 328.025600
   7251   7249   7258     1   109.7800468 425.094400
   7253   7252  13816     1   109.7800468 425.094400
   7253   7252   7254     1   108.4600466 328.025600
   7254   7252  13816     1   109.7800468 425.094400
   7256   7255  13839     1   109.7800468 425.094400
   7256   7255   7257     1   108.4600466 328.025600
   7257   7255  13839     1   109.7800468 425.094400
   7260   7261   7262     1   108.0100461 406.684800
   7260   7261   7263     1   108.0100461 406.684800
   7260   7264   7265     1   108.0100461 406.684800
   7260   7264   7266     1   108.0100461 406.684800
   7260   7267   7268     1   108.0100461 406.684800
   7260   7267   7269     1   108.0100461 406.684800
   7261   7260   7289     1   110.1100470 384.091200
   7261   7273   7274     1   109.8000471 387.438400
   7261   7273   7275     1   109.8000471 387.438400
   7262   7261   7273     1   110.5600475 386.601600
   7262   7261   7263     1   109.7500473 328.025600
   7263   7261   7273     1   110.5600475 386.601600
   7264   7260   7289     1   110.1100470 384.091200
   7264   7276   7277     1   109.8000471 387.438400
   7264   7276   7278     1   109.8000471 387.438400
   7265   7264   7276     1   110.5600475 386.601600
   7265   7264   7266     1   109.7500473 328.025600
   7266   7264   7276     1   110.5600475 386.601600
   7267   7260   7289     1   110.1100470 384.091200
   7267   7270   7271     1   109.8000471 387.438400
   7267   7270   7272     1   109.8000471 387.438400
   7268   7267   7270     1   110.5600475 386.601600
   7268   7267   7269     1   109.7500473 328.025600
   7269   7267   7270     1   110.5600475 386.601600
   7270   7279   7280     1   109.5600471 388.275200
   7270   7279   7281     1   109.5600471 388.275200
   7271   7270   7279     1   109.8000471 387.438400
   7271   7270   7272     1   107.5800459 329.699200
   7272   7270   7279     1   109.8000471 387.438400
   7273   7285   7286     1   109.5600471 388.275200
   7273   7285   7287     1   109.5600471 388.275200
   7274   7273   7285     1   109.8000471 387.438400
   7274   7273   7275     1   107.5800459 329.699200
   7275   7273   7285     1   109.8000471 387.438400
   7276   7282   7283     1   109.5600471 388.275200
   7276   7282   7284     1   109.5600471 388.275200
   7277   7276   7282     1   109.8000471 387.438400
   7277   7276   7278     1   107.5800459 329.699200
   7278   7276   7282     1   109.8000471 387.438400
   7280   7279   7288     1   109.7800468 425.094400
   7280   7279   7281     1   108.4600466 328.025600
   7281   7279   7288     1   109.7800468 425.094400
   7283   7282  13862     1   109.7800468 425.094400
   7283   7282   7284     1   108.4600466 328.025600
   7284   7282  13862     1   109.7800468 425.094400
   7286   7285  13885     1   109.7800468 425.094400
   7286   7285   7287     1   108.4600466 328.025600
   7287   7285  13885     1   109.7800468 425.094400
   7290   7291   7292     1   108.0100461 406.684800
   7290   7291   7293     1   108.0100461 406.684800
   7290   7294   7295     1   108.0100461 406.684800
   7290   7294   7296     1   108.0100461 406.684800
   7290   7297   7298     1   108.0100461 406.684800
   7290   7297   7299     1   108.0100461 406.684800
   7291   7290   7319     1   110.1100470 384.091200
   7291   7303   7304     1   109.8000471 387.438400
   7291   7303   7305     1   109.8000471 387.438400
   7292   7291   7303     1   110.5600475 386.601600
   7292   7291   7293     1   109.7500473 328.025600
   7293   7291   7303     1   110.5600475 386.601600
   7294   7290   7319     1   110.1100470 384.091200
   7294   7306   7307     1   109.8000471 387.438400
   7294   7306   7308     1   109.8000471 387.438400
   7295   7294   7306     1   110.5600475 386.601600
   7295   7294   7296     1   109.7500473 328.025600
   7296   7294   7306     1   110.5600475 386.601600
   7297   7290   7319     1   110.1100470 384.091200
   7297   7300   7301     1   109.8000471 387.438400
   7297   7300   7302     1   109.8000471 387.438400
   7298   7297   7300     1   110.5600475 386.601600
   7298   7297   7299     1   109.7500473 328.025600
   7299   7297   7300     1   110.5600475 386.601600
   7300   7309   7310     1   109.5600471 388.275200
   7300   7309   7311     1   109.5600471 388.275200
   7301   7300   7309     1   109.8000471 387.438400
   7301   7300   7302     1   107.5800459 329.699200
   7302   7300   7309     1   109.8000471 387.438400
   7303   7315   7316     1   109.5600471 388.275200
   7303   7315   7317     1   109.5600471 388.275200
   7304   7303   7315     1   109.8000471 387.438400
   7304   7303   7305     1   107.5800459 329.699200
   7305   7303   7315     1   109.8000471 387.438400
   7306   7312   7313     1   109.5600471 388.275200
   7306   7312   7314     1   109.5600471 388.275200
   7307   7306   7312     1   109.8000471 387.438400
   7307   7306   7308     1   107.5800459 329.699200
   7308   7306   7312     1   109.8000471 387.438400
   7310   7309   7318     1   109.7800468 425.094400
   7310   7309   7311     1   108.4600466 328.025600
   7311   7309   7318     1   109.7800468 425.094400
   7313   7312  13908     1   109.7800468 425.094400
   7313   7312   7314     1   108.4600466 328.025600
   7314   7312  13908     1   109.7800468 425.094400
   7316   7315  13931     1   109.7800468 425.094400
   7316   7315   7317     1   108.4600466 328.025600
   7317   7315  13931     1   109.7800468 425.094400
   7320   7321   7322     1   108.0100461 406.684800
   7320   7321   7323     1   108.0100461 406.684800
   7320   7324   7325     1   108.0100461 406.684800
   7320   7324   7326     1   108.0100461 406.684800
   7320   7327   7328     1   108.0100461 406.684800
   7320   7327   7329     1   108.0100461 406.684800
   7321   7320   7349     1   110.1100470 384.091200
   7321   7333   7334     1   109.8000471 387.438400
   7321   7333   7335     1   109.8000471 387.438400
   7322   7321   7333     1   110.5600475 386.601600
   7322   7321   7323     1   109.7500473 328.025600
   7323   7321   7333     1   110.5600475 386.601600
   7324   7320   7349     1   110.1100470 384.091200
   7324   7336   7337     1   109.8000471 387.438400
   7324   7336   7338     1   109.8000471 387.438400
   7325   7324   7336     1   110.5600475 386.601600
   7325   7324   7326     1   109.7500473 328.025600
   7326   7324   7336     1   110.5600475 386.601600
   7327   7320   7349     1   110.1100470 384.091200
   7327   7330   7331     1   109.8000471 387.438400
   7327   7330   7332     1   109.8000471 387.438400
   7328   7327   7330     1   110.5600475 386.601600
   7328   7327   7329     1   109.7500473 328.025600
   7329   7327   7330     1   110.5600475 386.601600
   7330   7339   7340     1   109.5600471 388.275200
   7330   7339   7341     1   109.5600471 388.275200
   7331   7330   7339     1   109.8000471 387.438400
   7331   7330   7332     1   107.5800459 329.699200
   7332   7330   7339     1   109.8000471 387.438400
   7333   7345   7346     1   109.5600471 388.275200
   7333   7345   7347     1   109.5600471 388.275200
   7334   7333   7345     1   109.8000471 387.438400
   7334   7333   7335     1   107.5800459 329.699200
   7335   7333   7345     1   109.8000471 387.438400
   7336   7342   7343     1   109.5600471 388.275200
   7336   7342   7344     1   109.5600471 388.275200
   7337   7336   7342     1   109.8000471 387.438400
   7337   7336   7338     1   107.5800459 329.699200
   7338   7336   7342     1   109.8000471 387.438400
   7340   7339   7348     1   109.7800468 425.094400
   7340   7339   7341     1   108.4600466 328.025600
   7341   7339   7348     1   109.7800468 425.094400
   7343   7342  13954     1   109.7800468 425.094400
   7343   7342   7344     1   108.4600466 328.025600
   7344   7342  13954     1   109.7800468 425.094400
   7346   7345  13977     1   109.7800468 425.094400
   7346   7345   7347     1   108.4600466 328.025600
   7347   7345  13977     1   109.7800468 425.094400
   7350   7351   7352     1   108.0100461 406.684800
   7350   7351   7353     1   108.0100461 406.684800
   7350   7354   7355     1   108.0100461 406.684800
   7350   7354   7356     1   108.0100461 406.684800
   7350   7357   7358     1   108.0100461 406.684800
   7350   7357   7359     1   108.0100461 406.684800
   7351   7350   7379     1   110.1100470 384.091200
   7351   7363   7364     1   109.8000471 387.438400
   7351   7363   7365     1   109.8000471 387.438400
   7352   7351   7363     1   110.5600475 386.601600
   7352   7351   7353     1   109.7500473 328.025600
   7353   7351   7363     1   110.5600475 386.601600
   7354   7350   7379     1   110.1100470 384.091200
   7354   7366   7367     1   109.8000471 387.438400
   7354   7366   7368     1   109.8000471 387.438400
   7355   7354   7366     1   110.5600475 386.601600
   7355   7354   7356     1   109.7500473 328.025600
   7356   7354   7366     1   110.5600475 386.601600
   7357   7350   7379     1   110.1100470 384.091200
   7357   7360   7361     1   109.8000471 387.438400
   7357   7360   7362     1   109.8000471 387.438400
   7358   7357   7360     1   110.5600475 386.601600
   7358   7357   7359     1   109.7500473 328.025600
   7359   7357   7360     1   110.5600475 386.601600
   7360   7369   7370     1   109.5600471 388.275200
   7360   7369   7371     1   109.5600471 388.275200
   7361   7360   7369     1   109.8000471 387.438400
   7361   7360   7362     1   107.5800459 329.699200
   7362   7360   7369     1   109.8000471 387.438400
   7363   7375   7376     1   109.5600471 388.275200
   7363   7375   7377     1   109.5600471 388.275200
   7364   7363   7375     1   109.8000471 387.438400
   7364   7363   7365     1   107.5800459 329.699200
   7365   7363   7375     1   109.8000471 387.438400
   7366   7372   7373     1   109.5600471 388.275200
   7366   7372   7374     1   109.5600471 388.275200
   7367   7366   7372     1   109.8000471 387.438400
   7367   7366   7368     1   107.5800459 329.699200
   7368   7366   7372     1   109.8000471 387.438400
   7370   7369   7378     1   109.7800468 425.094400
   7370   7369   7371     1   108.4600466 328.025600
   7371   7369   7378     1   109.7800468 425.094400
   7373   7372  14000     1   109.7800468 425.094400
   7373   7372   7374     1   108.4600466 328.025600
   7374   7372  14000     1   109.7800468 425.094400
   7376   7375  14023     1   109.7800468 425.094400
   7376   7375   7377     1   108.4600466 328.025600
   7377   7375  14023     1   109.7800468 425.094400
   7380   7381   7382     1   108.0100461 406.684800
   7380   7381   7383     1   108.0100461 406.684800
   7380   7384   7385     1   108.0100461 406.684800
   7380   7384   7386     1   108.0100461 406.684800
   7380   7387   7388     1   108.0100461 406.684800
   7380   7387   7389     1   108.0100461 406.684800
   7381   7380   7409     1   110.1100470 384.091200
   7381   7393   7394     1   109.8000471 387.438400
   7381   7393   7395     1   109.8000471 387.438400
   7382   7381   7393     1   110.5600475 386.601600
   7382   7381   7383     1   109.7500473 328.025600
   7383   7381   7393     1   110.5600475 386.601600
   7384   7380   7409     1   110.1100470 384.091200
   7384   7396   7397     1   109.8000471 387.438400
   7384   7396   7398     1   109.8000471 387.438400
   7385   7384   7396     1   110.5600475 386.601600
   7385   7384   7386     1   109.7500473 328.025600
   7386   7384   7396     1   110.5600475 386.601600
   7387   7380   7409     1   110.1100470 384.091200
   7387   7390   7391     1   109.8000471 387.438400
   7387   7390   7392     1   109.8000471 387.438400
   7388   7387   7390     1   110.5600475 386.601600
   7388   7387   7389     1   109.7500473 328.025600
   7389   7387   7390     1   110.5600475 386.601600
   7390   7399   7400     1   109.5600471 388.275200
   7390   7399   7401     1   109.5600471 388.275200
   7391   7390   7399     1   109.8000471 387.438400
   7391   7390   7392     1   107.5800459 329.699200
   7392   7390   7399     1   109.8000471 387.438400
   7393   7405   7406     1   109.5600471 388.275200
   7393   7405   7407     1   109.5600471 388.275200
   7394   7393   7405     1   109.8000471 387.438400
   7394   7393   7395     1   107.5800459 329.699200
   7395   7393   7405     1   109.8000471 387.438400
   7396   7402   7403     1   109.5600471 388.275200
   7396   7402   7404     1   109.5600471 388.275200
   7397   7396   7402     1   109.8000471 387.438400
   7397   7396   7398     1   107.5800459 329.699200
   7398   7396   7402     1   109.8000471 387.438400
   7400   7399   7408     1   109.7800468 425.094400
   7400   7399   7401     1   108.4600466 328.025600
   7401   7399   7408     1   109.7800468 425.094400
   7403   7402  14046     1   109.7800468 425.094400
   7403   7402   7404     1   108.4600466 328.025600
   7404   7402  14046     1   109.7800468 425.094400
   7406   7405  14069     1   109.7800468 425.094400
   7406   7405   7407     1   108.4600466 328.025600
   7407   7405  14069     1   109.7800468 425.094400
   7410   7411   7412     1   108.0100461 406.684800
   7410   7411   7413     1   108.0100461 406.684800
   7410   7414   7415     1   108.0100461 406.684800
   7410   7414   7416     1   108.0100461 406.684800
   7410   7417   7418     1   108.0100461 406.684800
   7410   7417   7419     1   108.0100461 406.684800
   7411   7410   7439     1   110.1100470 384.091200
   7411   7423   7424     1   109.8000471 387.438400
   7411   7423   7425     1   109.8000471 387.438400
   7412   7411   7423     1   110.5600475 386.601600
   7412   7411   7413     1   109.7500473 328.025600
   7413   7411   7423     1   110.5600475 386.601600
   7414   7410   7439     1   110.1100470 384.091200
   7414   7426   7427     1   109.8000471 387.438400
   7414   7426   7428     1   109.8000471 387.438400
   7415   7414   7426     1   110.5600475 386.601600
   7415   7414   7416     1   109.7500473 328.025600
   7416   7414   7426     1   110.5600475 386.601600
   7417   7410   7439     1   110.1100470 384.091200
   7417   7420   7421     1   109.8000471 387.438400
   7417   7420   7422     1   109.8000471 387.438400
   7418   7417   7420     1   110.5600475 386.601600
   7418   7417   7419     1   109.7500473 328.025600
   7419   7417   7420     1   110.5600475 386.601600
   7420   7429   7430     1   109.5600471 388.275200
   7420   7429   7431     1   109.5600471 388.275200
   7421   7420   7429     1   109.8000471 387.438400
   7421   7420   7422     1   107.5800459 329.699200
   7422   7420   7429     1   109.8000471 387.438400
   7423   7435   7436     1   109.5600471 388.275200
   7423   7435   7437     1   109.5600471 388.275200
   7424   7423   7435     1   109.8000471 387.438400
   7424   7423   7425     1   107.5800459 329.699200
   7425   7423   7435     1   109.8000471 387.438400
   7426   7432   7433     1   109.5600471 388.275200
   7426   7432   7434     1   109.5600471 388.275200
   7427   7426   7432     1   109.8000471 387.438400
   7427   7426   7428     1   107.5800459 329.699200
   7428   7426   7432     1   109.8000471 387.438400
   7430   7429   7438     1   109.7800468 425.094400
   7430   7429   7431     1   108.4600466 328.025600
   7431   7429   7438     1   109.7800468 425.094400
   7433   7432  14092     1   109.7800468 425.094400
   7433   7432   7434     1   108.4600466 328.025600
   7434   7432  14092     1   109.7800468 425.094400
   7436   7435  14115     1   109.7800468 425.094400
   7436   7435   7437     1   108.4600466 328.025600
   7437   7435  14115     1   109.7800468 425.094400
   7440   7441   7442     1   108.0100461 406.684800
   7440   7441   7443     1   108.0100461 406.684800
   7440   7444   7445     1   108.0100461 406.684800
   7440   7444   7446     1   108.0100461 406.684800
   7440   7447   7448     1   108.0100461 406.684800
   7440   7447   7449     1   108.0100461 406.684800
   7441   7440   7469     1   110.1100470 384.091200
   7441   7453   7454     1   109.8000471 387.438400
   7441   7453   7455     1   109.8000471 387.438400
   7442   7441   7453     1   110.5600475 386.601600
   7442   7441   7443     1   109.7500473 328.025600
   7443   7441   7453     1   110.5600475 386.601600
   7444   7440   7469     1   110.1100470 384.091200
   7444   7456   7457     1   109.8000471 387.438400
   7444   7456   7458     1   109.8000471 387.438400
   7445   7444   7456     1   110.5600475 386.601600
   7445   7444   7446     1   109.7500473 328.025600
   7446   7444   7456     1   110.5600475 386.601600
   7447   7440   7469     1   110.1100470 384.091200
   7447   7450   7451     1   109.8000471 387.438400
   7447   7450   7452     1   109.8000471 387.438400
   7448   7447   7450     1   110.5600475 386.601600
   7448   7447   7449     1   109.7500473 328.025600
   7449   7447   7450     1   110.5600475 386.601600
   7450   7459   7460     1   109.5600471 388.275200
   7450   7459   7461     1   109.5600471 388.275200
   7451   7450   7459     1   109.8000471 387.438400
   7451   7450   7452     1   107.5800459 329.699200
   7452   7450   7459     1   109.8000471 387.438400
   7453   7465   7466     1   109.5600471 388.275200
   7453   7465   7467     1   109.5600471 388.275200
   7454   7453   7465     1   109.8000471 387.438400
   7454   7453   7455     1   107.5800459 329.699200
   7455   7453   7465     1   109.8000471 387.438400
   7456   7462   7463     1   109.5600471 388.275200
   7456   7462   7464     1   109.5600471 388.275200
   7457   7456   7462     1   109.8000471 387.438400
   7457   7456   7458     1   107.5800459 329.699200
   7458   7456   7462     1   109.8000471 387.438400
   7460   7459   7468     1   109.7800468 425.094400
   7460   7459   7461     1   108.4600466 328.025600
   7461   7459   7468     1   109.7800468 425.094400
   7463   7462  14138     1   109.7800468 425.094400
   7463   7462   7464     1   108.4600466 328.025600
   7464   7462  14138     1   109.7800468 425.094400
   7466   7465  14161     1   109.7800468 425.094400
   7466   7465   7467     1   108.4600466 328.025600
   7467   7465  14161     1   109.7800468 425.094400
   7470   7471   7472     1   108.0100461 406.684800
   7470   7471   7473     1   108.0100461 406.684800
   7470   7474   7475     1   108.0100461 406.684800
   7470   7474   7476     1   108.0100461 406.684800
   7470   7477   7478     1   108.0100461 406.684800
   7470   7477   7479     1   108.0100461 406.684800
   7471   7470   7499     1   110.1100470 384.091200
   7471   7483   7484     1   109.8000471 387.438400
   7471   7483   7485     1   109.8000471 387.438400
   7472   7471   7483     1   110.5600475 386.601600
   7472   7471   7473     1   109.7500473 328.025600
   7473   7471   7483     1   110.5600475 386.601600
   7474   7470   7499     1   110.1100470 384.091200
   7474   7486   7487     1   109.8000471 387.438400
   7474   7486   7488     1   109.8000471 387.438400
   7475   7474   7486     1   110.5600475 386.601600
   7475   7474   7476     1   109.7500473 328.025600
   7476   7474   7486     1   110.5600475 386.601600
   7477   7470   7499     1   110.1100470 384.091200
   7477   7480   7481     1   109.8000471 387.438400
   7477   7480   7482     1   109.8000471 387.438400
   7478   7477   7480     1   110.5600475 386.601600
   7478   7477   7479     1   109.7500473 328.025600
   7479   7477   7480     1   110.5600475 386.601600
   7480   7489   7490     1   109.5600471 388.275200
   7480   7489   7491     1   109.5600471 388.275200
   7481   7480   7489     1   109.8000471 387.438400
   7481   7480   7482     1   107.5800459 329.699200
   7482   7480   7489     1   109.8000471 387.438400
   7483   7495   7496     1   109.5600471 388.275200
   7483   7495   7497     1   109.5600471 388.275200
   7484   7483   7495     1   109.8000471 387.438400
   7484   7483   7485     1   107.5800459 329.699200
   7485   7483   7495     1   109.8000471 387.438400
   7486   7492   7493     1   109.5600471 388.275200
   7486   7492   7494     1   109.5600471 388.275200
   7487   7486   7492     1   109.8000471 387.438400
   7487   7486   7488     1   107.5800459 329.699200
   7488   7486   7492     1   109.8000471 387.438400
   7490   7489   7498     1   109.7800468 425.094400
   7490   7489   7491     1   108.4600466 328.025600
   7491   7489   7498     1   109.7800468 425.094400
   7493   7492  14184     1   109.7800468 425.094400
   7493   7492   7494     1   108.4600466 328.025600
   7494   7492  14184     1   109.7800468 425.094400
   7496   7495  14207     1   109.7800468 425.094400
   7496   7495   7497     1   108.4600466 328.025600
   7497   7495  14207     1   109.7800468 425.094400
   7500   7501   7502     1   108.0100461 406.684800
   7500   7501   7503     1   108.0100461 406.684800
   7500   7504   7505     1   108.0100461 406.684800
   7500   7504   7506     1   108.0100461 406.684800
   7500   7507   7508     1   108.0100461 406.684800
   7500   7507   7509     1   108.0100461 406.684800
   7501   7500   7529     1   110.1100470 384.091200
   7501   7513   7514     1   109.8000471 387.438400
   7501   7513   7515     1   109.8000471 387.438400
   7502   7501   7513     1   110.5600475 386.601600
   7502   7501   7503     1   109.7500473 328.025600
   7503   7501   7513     1   110.5600475 386.601600
   7504   7500   7529     1   110.1100470 384.091200
   7504   7516   7517     1   109.8000471 387.438400
   7504   7516   7518     1   109.8000471 387.438400
   7505   7504   7516     1   110.5600475 386.601600
   7505   7504   7506     1   109.7500473 328.025600
   7506   7504   7516     1   110.5600475 386.601600
   7507   7500   7529     1   110.1100470 384.091200
   7507   7510   7511     1   109.8000471 387.438400
   7507   7510   7512     1   109.8000471 387.438400
   7508   7507   7510     1   110.5600475 386.601600
   7508   7507   7509     1   109.7500473 328.025600
   7509   7507   7510     1   110.5600475 386.601600
   7510   7519   7520     1   109.5600471 388.275200
   7510   7519   7521     1   109.5600471 388.275200
   7511   7510   7519     1   109.8000471 387.438400
   7511   7510   7512     1   107.5800459 329.699200
   7512   7510   7519     1   109.8000471 387.438400
   7513   7525   7526     1   109.5600471 388.275200
   7513   7525   7527     1   109.5600471 388.275200
   7514   7513   7525     1   109.8000471 387.438400
   7514   7513   7515     1   107.5800459 329.699200
   7515   7513   7525     1   109.8000471 387.438400
   7516   7522   7523     1   109.5600471 388.275200
   7516   7522   7524     1   109.5600471 388.275200
   7517   7516   7522     1   109.8000471 387.438400
   7517   7516   7518     1   107.5800459 329.699200
   7518   7516   7522     1   109.8000471 387.438400
   7520   7519   7528     1   109.7800468 425.094400
   7520   7519   7521     1   108.4600466 328.025600
   7521   7519   7528     1   109.7800468 425.094400
   7523   7522  14230     1   109.7800468 425.094400
   7523   7522   7524     1   108.4600466 328.025600
   7524   7522  14230     1   109.7800468 425.094400
   7526   7525  14253     1   109.7800468 425.094400
   7526   7525   7527     1   108.4600466 328.025600
   7527   7525  14253     1   109.7800468 425.094400
   7530   7531   7532     1   108.0100461 406.684800
   7530   7531   7533     1   108.0100461 406.684800
   7530   7534   7535     1   108.0100461 406.684800
   7530   7534   7536     1   108.0100461 406.684800
   7530   7537   7538     1   108.0100461 406.684800
   7530   7537   7539     1   108.0100461 406.684800
   7531   7530   7559     1   110.1100470 384.091200
   7531   7543   7544     1   109.8000471 387.438400
   7531   7543   7545     1   109.8000471 387.438400
   7532   7531   7543     1   110.5600475 386.601600
   7532   7531   7533     1   109.7500473 328.025600
   7533   7531   7543     1   110.5600475 386.601600
   7534   7530   7559     1   110.1100470 384.091200
   7534   7546   7547     1   109.8000471 387.438400
   7534   7546   7548     1   109.8000471 387.438400
   7535   7534   7546     1   110.5600475 386.601600
   7535   7534   7536     1   109.7500473 328.025600
   7536   7534   7546     1   110.5600475 386.601600
   7537   7530   7559     1   110.1100470 384.091200
   7537   7540   7541     1   109.8000471 387.438400
   7537   7540   7542     1   109.8000471 387.438400
   7538   7537   7540     1   110.5600475 386.601600
   7538   7537   7539     1   109.7500473 328.025600
   7539   7537   7540     1   110.5600475 386.601600
   7540   7549   7550     1   109.5600471 388.275200
   7540   7549   7551     1   109.5600471 388.275200
   7541   7540   7549     1   109.8000471 387.438400
   7541   7540   7542     1   107.5800459 329.699200
   7542   7540   7549     1   109.8000471 387.438400
   7543   7555   7556     1   109.5600471 388.275200
   7543   7555   7557     1   109.5600471 388.275200
   7544   7543   7555     1   109.8000471 387.438400
   7544   7543   7545     1   107.5800459 329.699200
   7545   7543   7555     1   109.8000471 387.438400
   7546   7552   7553     1   109.5600471 388.275200
   7546   7552   7554     1   109.5600471 388.275200
   7547   7546   7552     1   109.8000471 387.438400
   7547   7546   7548     1   107.5800459 329.699200
   7548   7546   7552     1   109.8000471 387.438400
   7550   7549   7558     1   109.7800468 425.094400
   7550   7549   7551     1   108.4600466 328.025600
   7551   7549   7558     1   109.7800468 425.094400
   7553   7552  14276     1   109.7800468 425.094400
   7553   7552   7554     1   108.4600466 328.025600
   7554   7552  14276     1   109.7800468 425.094400
   7556   7555  14299     1   109.7800468 425.094400
   7556   7555   7557     1   108.4600466 328.025600
   7557   7555  14299     1   109.7800468 425.094400
   7560   7561   7562     1   108.0100461 406.684800
   7560   7561   7563     1   108.0100461 406.684800
   7560   7564   7565     1   108.0100461 406.684800
   7560   7564   7566     1   108.0100461 406.684800
   7560   7567   7568     1   108.0100461 406.684800
   7560   7567   7569     1   108.0100461 406.684800
   7561   7560   7589     1   110.1100470 384.091200
   7561   7573   7574     1   109.8000471 387.438400
   7561   7573   7575     1   109.8000471 387.438400
   7562   7561   7573     1   110.5600475 386.601600
   7562   7561   7563     1   109.7500473 328.025600
   7563   7561   7573     1   110.5600475 386.601600
   7564   7560   7589     1   110.1100470 384.091200
   7564   7576   7577     1   109.8000471 387.438400
   7564   7576   7578     1   109.8000471 387.438400
   7565   7564   7576     1   110.5600475 386.601600
   7565   7564   7566     1   109.7500473 328.025600
   7566   7564   7576     1   110.5600475 386.601600
   7567   7560   7589     1   110.1100470 384.091200
   7567   7570   7571     1   109.8000471 387.438400
   7567   7570   7572     1   109.8000471 387.438400
   7568   7567   7570     1   110.5600475 386.601600
   7568   7567   7569     1   109.7500473 328.025600
   7569   7567   7570     1   110.5600475 386.601600
   7570   7579   7580     1   109.5600471 388.275200
   7570   7579   7581     1   109.5600471 388.275200
   7571   7570   7579     1   109.8000471 387.438400
   7571   7570   7572     1   107.5800459 329.699200
   7572   7570   7579     1   109.8000471 387.438400
   7573   7585   7586     1   109.5600471 388.275200
   7573   7585   7587     1   109.5600471 388.275200
   7574   7573   7585     1   109.8000471 387.438400
   7574   7573   7575     1   107.5800459 329.699200
   7575   7573   7585     1   109.8000471 387.438400
   7576   7582   7583     1   109.5600471 388.275200
   7576   7582   7584     1   109.5600471 388.275200
   7577   7576   7582     1   109.8000471 387.438400
   7577   7576   7578     1   107.5800459 329.699200
   7578   7576   7582     1   109.8000471 387.438400
   7580   7579   7588     1   109.7800468 425.094400
   7580   7579   7581     1   108.4600466 328.025600
   7581   7579   7588     1   109.7800468 425.094400
   7583   7582  14322     1   109.7800468 425.094400
   7583   7582   7584     1   108.4600466 328.025600
   7584   7582  14322     1   109.7800468 425.094400
   7586   7585  14345     1   109.7800468 425.094400
   7586   7585   7587     1   108.4600466 328.025600
   7587   7585  14345     1   109.7800468 425.094400
   7590   7591   7592     1   108.0100461 406.684800
   7590   7591   7593     1   108.0100461 406.684800
   7590   7594   7595     1   108.0100461 406.684800
   7590   7594   7596     1   108.0100461 406.684800
   7590   7597   7598     1   108.0100461 406.684800
   7590   7597   7599     1   108.0100461 406.684800
   7591   7590   7619     1   110.1100470 384.091200
   7591   7603   7604     1   109.8000471 387.438400
   7591   7603   7605     1   109.8000471 387.438400
   7592   7591   7603     1   110.5600475 386.601600
   7592   7591   7593     1   109.7500473 328.025600
   7593   7591   7603     1   110.5600475 386.601600
   7594   7590   7619     1   110.1100470 384.091200
   7594   7606   7607     1   109.8000471 387.438400
   7594   7606   7608     1   109.8000471 387.438400
   7595   7594   7606     1   110.5600475 386.601600
   7595   7594   7596     1   109.7500473 328.025600
   7596   7594   7606     1   110.5600475 386.601600
   7597   7590   7619     1   110.1100470 384.091200
   7597   7600   7601     1   109.8000471 387.438400
   7597   7600   7602     1   109.8000471 387.438400
   7598   7597   7600     1   110.5600475 386.601600
   7598   7597   7599     1   109.7500473 328.025600
   7599   7597   7600     1   110.5600475 386.601600
   7600   7609   7610     1   109.5600471 388.275200
   7600   7609   7611     1   109.5600471 388.275200
   7601   7600   7609     1   109.8000471 387.438400
   7601   7600   7602     1   107.5800459 329.699200
   7602   7600   7609     1   109.8000471 387.438400
   7603   7615   7616     1   109.5600471 388.275200
   7603   7615   7617     1   109.5600471 388.275200
   7604   7603   7615     1   109.8000471 387.438400
   7604   7603   7605     1   107.5800459 329.699200
   7605   7603   7615     1   109.8000471 387.438400
   7606   7612   7613     1   109.5600471 388.275200
   7606   7612   7614     1   109.5600471 388.275200
   7607   7606   7612     1   109.8000471 387.438400
   7607   7606   7608     1   107.5800459 329.699200
   7608   7606   7612     1   109.8000471 387.438400
   7610   7609   7618     1   109.7800468 425.094400
   7610   7609   7611     1   108.4600466 328.025600
   7611   7609   7618     1   109.7800468 425.094400
   7613   7612  14368     1   109.7800468 425.094400
   7613   7612   7614     1   108.4600466 328.025600
   7614   7612  14368     1   109.7800468 425.094400
   7616   7615  14391     1   109.7800468 425.094400
   7616   7615   7617     1   108.4600466 328.025600
   7617   7615  14391     1   109.7800468 425.094400
   7620   7621   7622     1   108.0100461 406.684800
   7620   7621   7623     1   108.0100461 406.684800
   7620   7624   7625     1   108.0100461 406.684800
   7620   7624   7626     1   108.0100461 406.684800
   7620   7627   7628     1   108.0100461 406.684800
   7620   7627   7629     1   108.0100461 406.684800
   7621   7620   7649     1   110.1100470 384.091200
   7621   7633   7634     1   109.8000471 387.438400
   7621   7633   7635     1   109.8000471 387.438400
   7622   7621   7633     1   110.5600475 386.601600
   7622   7621   7623     1   109.7500473 328.025600
   7623   7621   7633     1   110.5600475 386.601600
   7624   7620   7649     1   110.1100470 384.091200
   7624   7636   7637     1   109.8000471 387.438400
   7624   7636   7638     1   109.8000471 387.438400
   7625   7624   7636     1   110.5600475 386.601600
   7625   7624   7626     1   109.7500473 328.025600
   7626   7624   7636     1   110.5600475 386.601600
   7627   7620   7649     1   110.1100470 384.091200
   7627   7630   7631     1   109.8000471 387.438400
   7627   7630   7632     1   109.8000471 387.438400
   7628   7627   7630     1   110.5600475 386.601600
   7628   7627   7629     1   109.7500473 328.025600
   7629   7627   7630     1   110.5600475 386.601600
   7630   7639   7640     1   109.5600471 388.275200
   7630   7639   7641     1   109.5600471 388.275200
   7631   7630   7639     1   109.8000471 387.438400
   7631   7630   7632     1   107.5800459 329.699200
   7632   7630   7639     1   109.8000471 387.438400
   7633   7645   7646     1   109.5600471 388.275200
   7633   7645   7647     1   109.5600471 388.275200
   7634   7633   7645     1   109.8000471 387.438400
   7634   7633   7635     1   107.5800459 329.699200
   7635   7633   7645     1   109.8000471 387.438400
   7636   7642   7643     1   109.5600471 388.275200
   7636   7642   7644     1   109.5600471 388.275200
   7637   7636   7642     1   109.8000471 387.438400
   7637   7636   7638     1   107.5800459 329.699200
   7638   7636   7642     1   109.8000471 387.438400
   7640   7639   7648     1   109.7800468 425.094400
   7640   7639   7641     1   108.4600466 328.025600
   7641   7639   7648     1   109.7800468 425.094400
   7643   7642  14414     1   109.7800468 425.094400
   7643   7642   7644     1   108.4600466 328.025600
   7644   7642  14414     1   109.7800468 425.094400
   7646   7645  14437     1   109.7800468 425.094400
   7646   7645   7647     1   108.4600466 328.025600
   7647   7645  14437     1   109.7800468 425.094400
   7650   7651   7652     1   108.0100461 406.684800
   7650   7651   7653     1   108.0100461 406.684800
   7650   7654   7655     1   108.0100461 406.684800
   7650   7654   7656     1   108.0100461 406.684800
   7650   7657   7658     1   108.0100461 406.684800
   7650   7657   7659     1   108.0100461 406.684800
   7651   7650   7679     1   110.1100470 384.091200
   7651   7663   7664     1   109.8000471 387.438400
   7651   7663   7665     1   109.8000471 387.438400
   7652   7651   7663     1   110.5600475 386.601600
   7652   7651   7653     1   109.7500473 328.025600
   7653   7651   7663     1   110.5600475 386.601600
   7654   7650   7679     1   110.1100470 384.091200
   7654   7666   7667     1   109.8000471 387.438400
   7654   7666   7668     1   109.8000471 387.438400
   7655   7654   7666     1   110.5600475 386.601600
   7655   7654   7656     1   109.7500473 328.025600
   7656   7654   7666     1   110.5600475 386.601600
   7657   7650   7679     1   110.1100470 384.091200
   7657   7660   7661     1   109.8000471 387.438400
   7657   7660   7662     1   109.8000471 387.438400
   7658   7657   7660     1   110.5600475 386.601600
   7658   7657   7659     1   109.7500473 328.025600
   7659   7657   7660     1   110.5600475 386.601600
   7660   7669   7670     1   109.5600471 388.275200
   7660   7669   7671     1   109.5600471 388.275200
   7661   7660   7669     1   109.8000471 387.438400
   7661   7660   7662     1   107.5800459 329.699200
   7662   7660   7669     1   109.8000471 387.438400
   7663   7675   7676     1   109.5600471 388.275200
   7663   7675   7677     1   109.5600471 388.275200
   7664   7663   7675     1   109.8000471 387.438400
   7664   7663   7665     1   107.5800459 329.699200
   7665   7663   7675     1   109.8000471 387.438400
   7666   7672   7673     1   109.5600471 388.275200
   7666   7672   7674     1   109.5600471 388.275200
   7667   7666   7672     1   109.8000471 387.438400
   7667   7666   7668     1   107.5800459 329.699200
   7668   7666   7672     1   109.8000471 387.438400
   7670   7669   7678     1   109.7800468 425.094400
   7670   7669   7671     1   108.4600466 328.025600
   7671   7669   7678     1   109.7800468 425.094400
   7673   7672  14460     1   109.7800468 425.094400
   7673   7672   7674     1   108.4600466 328.025600
   7674   7672  14460     1   109.7800468 425.094400
   7676   7675  14483     1   109.7800468 425.094400
   7676   7675   7677     1   108.4600466 328.025600
   7677   7675  14483     1   109.7800468 425.094400
   7680   7681   7682     1   108.0100461 406.684800
   7680   7681   7683     1   108.0100461 406.684800
   7680   7684   7685     1   108.0100461 406.684800
   7680   7684   7686     1   108.0100461 406.684800
   7680   7687   7688     1   108.0100461 406.684800
   7680   7687   7689     1   108.0100461 406.684800
   7681   7680   7709     1   110.1100470 384.091200
   7681   7693   7694     1   109.8000471 387.438400
   7681   7693   7695     1   109.8000471 387.438400
   7682   7681   7693     1   110.5600475 386.601600
   7682   7681   7683     1   109.7500473 328.025600
   7683   7681   7693     1   110.5600475 386.601600
   7684   7680   7709     1   110.1100470 384.091200
   7684   7696   7697     1   109.8000471 387.438400
   7684   7696   7698     1   109.8000471 387.438400
   7685   7684   7696     1   110.5600475 386.601600
   7685   7684   7686     1   109.7500473 328.025600
   7686   7684   7696     1   110.5600475 386.601600
   7687   7680   7709     1   110.1100470 384.091200
   7687   7690   7691     1   109.8000471 387.438400
   7687   7690   7692     1   109.8000471 387.438400
   7688   7687   7690     1   110.5600475 386.601600
   7688   7687   7689     1   109.7500473 328.025600
   7689   7687   7690     1   110.5600475 386.601600
   7690   7699   7700     1   109.5600471 388.275200
   7690   7699   7701     1   109.5600471 388.275200
   7691   7690   7699     1   109.8000471 387.438400
   7691   7690   7692     1   107.5800459 329.699200
   7692   7690   7699     1   109.8000471 387.438400
   7693   7705   7706     1   109.5600471 388.275200
   7693   7705   7707     1   109.5600471 388.275200
   7694   7693   7705     1   109.8000471 387.438400
   7694   7693   7695     1   107.5800459 329.699200
   7695   7693   7705     1   109.8000471 387.438400
   7696   7702   7703     1   109.5600471 388.275200
   7696   7702   7704     1   109.5600471 388.275200
   7697   7696   7702     1   109.8000471 387.438400
   7697   7696   7698     1   107.5800459 329.699200
   7698   7696   7702     1   109.8000471 387.438400
   7700   7699   7708     1   109.7800468 425.094400
   7700   7699   7701     1   108.4600466 328.025600
   7701   7699   7708     1   109.7800468 425.094400
   7703   7702  14506     1   109.7800468 425.094400
   7703   7702   7704     1   108.4600466 328.025600
   7704   7702  14506     1   109.7800468 425.094400
   7706   7705  14529     1   109.7800468 425.094400
   7706   7705   7707     1   108.4600466 328.025600
   7707   7705  14529     1   109.7800468 425.094400
   7710   7711   7712     1   108.0100461 406.684800
   7710   7711   7713     1   108.0100461 406.684800
   7710   7714   7715     1   108.0100461 406.684800
   7710   7714   7716     1   108.0100461 406.684800
   7710   7717   7718     1   108.0100461 406.684800
   7710   7717   7719     1   108.0100461 406.684800
   7711   7710   7739     1   110.1100470 384.091200
   7711   7723   7724     1   109.8000471 387.438400
   7711   7723   7725     1   109.8000471 387.438400
   7712   7711   7723     1   110.5600475 386.601600
   7712   7711   7713     1   109.7500473 328.025600
   7713   7711   7723     1   110.5600475 386.601600
   7714   7710   7739     1   110.1100470 384.091200
   7714   7726   7727     1   109.8000471 387.438400
   7714   7726   7728     1   109.8000471 387.438400
   7715   7714   7726     1   110.5600475 386.601600
   7715   7714   7716     1   109.7500473 328.025600
   7716   7714   7726     1   110.5600475 386.601600
   7717   7710   7739     1   110.1100470 384.091200
   7717   7720   7721     1   109.8000471 387.438400
   7717   7720   7722     1   109.8000471 387.438400
   7718   7717   7720     1   110.5600475 386.601600
   7718   7717   7719     1   109.7500473 328.025600
   7719   7717   7720     1   110.5600475 386.601600
   7720   7729   7730     1   109.5600471 388.275200
   7720   7729   7731     1   109.5600471 388.275200
   7721   7720   7729     1   109.8000471 387.438400
   7721   7720   7722     1   107.5800459 329.699200
   7722   7720   7729     1   109.8000471 387.438400
   7723   7735   7736     1   109.5600471 388.275200
   7723   7735   7737     1   109.5600471 388.275200
   7724   7723   7735     1   109.8000471 387.438400
   7724   7723   7725     1   107.5800459 329.699200
   7725   7723   7735     1   109.8000471 387.438400
   7726   7732   7733     1   109.5600471 388.275200
   7726   7732   7734     1   109.5600471 388.275200
   7727   7726   7732     1   109.8000471 387.438400
   7727   7726   7728     1   107.5800459 329.699200
   7728   7726   7732     1   109.8000471 387.438400
   7730   7729   7738     1   109.7800468 425.094400
   7730   7729   7731     1   108.4600466 328.025600
   7731   7729   7738     1   109.7800468 425.094400
   7733   7732  14552     1   109.7800468 425.094400
   7733   7732   7734     1   108.4600466 328.025600
   7734   7732  14552     1   109.7800468 425.094400
   7736   7735  14575     1   109.7800468 425.094400
   7736   7735   7737     1   108.4600466 328.025600
   7737   7735  14575     1   109.7800468 425.094400
   7740   7741   7742     1   108.0100461 406.684800
   7740   7741   7743     1   108.0100461 406.684800
   7740   7744   7745     1   108.0100461 406.684800
   7740   7744   7746     1   108.0100461 406.684800
   7740   7747   7748     1   108.0100461 406.684800
   7740   7747   7749     1   108.0100461 406.684800
   7741   7740   7769     1   110.1100470 384.091200
   7741   7753   7754     1   109.8000471 387.438400
   7741   7753   7755     1   109.8000471 387.438400
   7742   7741   7753     1   110.5600475 386.601600
   7742   7741   7743     1   109.7500473 328.025600
   7743   7741   7753     1   110.5600475 386.601600
   7744   7740   7769     1   110.1100470 384.091200
   7744   7756   7757     1   109.8000471 387.438400
   7744   7756   7758     1   109.8000471 387.438400
   7745   7744   7756     1   110.5600475 386.601600
   7745   7744   7746     1   109.7500473 328.025600
   7746   7744   7756     1   110.5600475 386.601600
   7747   7740   7769     1   110.1100470 384.091200
   7747   7750   7751     1   109.8000471 387.438400
   7747   7750   7752     1   109.8000471 387.438400
   7748   7747   7750     1   110.5600475 386.601600
   7748   7747   7749     1   109.7500473 328.025600
   7749   7747   7750     1   110.5600475 386.601600
   7750   7759   7760     1   109.5600471 388.275200
   7750   7759   7761     1   109.5600471 388.275200
   7751   7750   7759     1   109.8000471 387.438400
   7751   7750   7752     1   107.5800459 329.699200
   7752   7750   7759     1   109.8000471 387.438400
   7753   7765   7766     1   109.5600471 388.275200
   7753   7765   7767     1   109.5600471 388.275200
   7754   7753   7765     1   109.8000471 387.438400
   7754   7753   7755     1   107.5800459 329.699200
   7755   7753   7765     1   109.8000471 387.438400
   7756   7762   7763     1   109.5600471 388.275200
   7756   7762   7764     1   109.5600471 388.275200
   7757   7756   7762     1   109.8000471 387.438400
   7757   7756   7758     1   107.5800459 329.699200
   7758   7756   7762     1   109.8000471 387.438400
   7760   7759   7768     1   109.7800468 425.094400
   7760   7759   7761     1   108.4600466 328.025600
   7761   7759   7768     1   109.7800468 425.094400
   7763   7762  14598     1   109.7800468 425.094400
   7763   7762   7764     1   108.4600466 328.025600
   7764   7762  14598     1   109.7800468 425.094400
   7766   7765  14621     1   109.7800468 425.094400
   7766   7765   7767     1   108.4600466 328.025600
   7767   7765  14621     1   109.7800468 425.094400
   7770   7771   7772     1   108.0100461 406.684800
   7770   7771   7773     1   108.0100461 406.684800
   7770   7774   7775     1   108.0100461 406.684800
   7770   7774   7776     1   108.0100461 406.684800
   7770   7777   7778     1   108.0100461 406.684800
   7770   7777   7779     1   108.0100461 406.684800
   7771   7770   7799     1   110.1100470 384.091200
   7771   7783   7784     1   109.8000471 387.438400
   7771   7783   7785     1   109.8000471 387.438400
   7772   7771   7783     1   110.5600475 386.601600
   7772   7771   7773     1   109.7500473 328.025600
   7773   7771   7783     1   110.5600475 386.601600
   7774   7770   7799     1   110.1100470 384.091200
   7774   7786   7787     1   109.8000471 387.438400
   7774   7786   7788     1   109.8000471 387.438400
   7775   7774   7786     1   110.5600475 386.601600
   7775   7774   7776     1   109.7500473 328.025600
   7776   7774   7786     1   110.5600475 386.601600
   7777   7770   7799     1   110.1100470 384.091200
   7777   7780   7781     1   109.8000471 387.438400
   7777   7780   7782     1   109.8000471 387.438400
   7778   7777   7780     1   110.5600475 386.601600
   7778   7777   7779     1   109.7500473 328.025600
   7779   7777   7780     1   110.5600475 386.601600
   7780   7789   7790     1   109.5600471 388.275200
   7780   7789   7791     1   109.5600471 388.275200
   7781   7780   7789     1   109.8000471 387.438400
   7781   7780   7782     1   107.5800459 329.699200
   7782   7780   7789     1   109.8000471 387.438400
   7783   7795   7796     1   109.5600471 388.275200
   7783   7795   7797     1   109.5600471 388.275200
   7784   7783   7795     1   109.8000471 387.438400
   7784   7783   7785     1   107.5800459 329.699200
   7785   7783   7795     1   109.8000471 387.438400
   7786   7792   7793     1   109.5600471 388.275200
   7786   7792   7794     1   109.5600471 388.275200
   7787   7786   7792     1   109.8000471 387.438400
   7787   7786   7788     1   107.5800459 329.699200
   7788   7786   7792     1   109.8000471 387.438400
   7790   7789   7798     1   109.7800468 425.094400
   7790   7789   7791     1   108.4600466 328.025600
   7791   7789   7798     1   109.7800468 425.094400
   7793   7792  14644     1   109.7800468 425.094400
   7793   7792   7794     1   108.4600466 328.025600
   7794   7792  14644     1   109.7800468 425.094400
   7796   7795  14667     1   109.7800468 425.094400
   7796   7795   7797     1   108.4600466 328.025600
   7797   7795  14667     1   109.7800468 425.094400
   7800   7801   7802     1   108.0100461 406.684800
   7800   7801   7803     1   108.0100461 406.684800
   7800   7804   7805     1   108.0100461 406.684800
   7800   7804   7806     1   108.0100461 406.684800
   7800   7807   7808     1   108.0100461 406.684800
   7800   7807   7809     1   108.0100461 406.684800
   7801   7800   7829     1   110.1100470 384.091200
   7801   7813   7814     1   109.8000471 387.438400
   7801   7813   7815     1   109.8000471 387.438400
   7802   7801   7813     1   110.5600475 386.601600
   7802   7801   7803     1   109.7500473 328.025600
   7803   7801   7813     1   110.5600475 386.601600
   7804   7800   7829     1   110.1100470 384.091200
   7804   7816   7817     1   109.8000471 387.438400
   7804   7816   7818     1   109.8000471 387.438400
   7805   7804   7816     1   110.5600475 386.601600
   7805   7804   7806     1   109.7500473 328.025600
   7806   7804   7816     1   110.5600475 386.601600
   7807   7800   7829     1   110.1100470 384.091200
   7807   7810   7811     1   109.8000471 387.438400
   7807   7810   7812     1   109.8000471 387.438400
   7808   7807   7810     1   110.5600475 386.601600
   7808   7807   7809     1   109.7500473 328.025600
   7809   7807   7810     1   110.5600475 386.601600
   7810   7819   7820     1   109.5600471 388.275200
   7810   7819   7821     1   109.5600471 388.275200
   7811   7810   7819     1   109.8000471 387.438400
   7811   7810   7812     1   107.5800459 329.699200
   7812   7810   7819     1   109.8000471 387.438400
   7813   7825   7826     1   109.5600471 388.275200
   7813   7825   7827     1   109.5600471 388.275200
   7814   7813   7825     1   109.8000471 387.438400
   7814   7813   7815     1   107.5800459 329.699200
   7815   7813   7825     1   109.8000471 387.438400
   7816   7822   7823     1   109.5600471 388.275200
   7816   7822   7824     1   109.5600471 388.275200
   7817   7816   7822     1   109.8000471 387.438400
   7817   7816   7818     1   107.5800459 329.699200
   7818   7816   7822     1   109.8000471 387.438400
   7820   7819   7828     1   109.7800468 425.094400
   7820   7819   7821     1   108.4600466 328.025600
   7821   7819   7828     1   109.7800468 425.094400
   7823   7822  14690     1   109.7800468 425.094400
   7823   7822   7824     1   108.4600466 328.025600
   7824   7822  14690     1   109.7800468 425.094400
   7826   7825  14713     1   109.7800468 425.094400
   7826   7825   7827     1   108.4600466 328.025600
   7827   7825  14713     1   109.7800468 425.094400
   7830   7831   7832     1   108.0100461 406.684800
   7830   7831   7833     1   108.0100461 406.684800
   7830   7834   7835     1   108.0100461 406.684800
   7830   7834   7836     1   108.0100461 406.684800
   7830   7837   7838     1   108.0100461 406.684800
   7830   7837   7839     1   108.0100461 406.684800
   7831   7830   7859     1   110.1100470 384.091200
   7831   7843   7844     1   109.8000471 387.438400
   7831   7843   7845     1   109.8000471 387.438400
   7832   7831   7843     1   110.5600475 386.601600
   7832   7831   7833     1   109.7500473 328.025600
   7833   7831   7843     1   110.5600475 386.601600
   7834   7830   7859     1   110.1100470 384.091200
   7834   7846   7847     1   109.8000471 387.438400
   7834   7846   7848     1   109.8000471 387.438400
   7835   7834   7846     1   110.5600475 386.601600
   7835   7834   7836     1   109.7500473 328.025600
   7836   7834   7846     1   110.5600475 386.601600
   7837   7830   7859     1   110.1100470 384.091200
   7837   7840   7841     1   109.8000471 387.438400
   7837   7840   7842     1   109.8000471 387.438400
   7838   7837   7840     1   110.5600475 386.601600
   7838   7837   7839     1   109.7500473 328.025600
   7839   7837   7840     1   110.5600475 386.601600
   7840   7849   7850     1   109.5600471 388.275200
   7840   7849   7851     1   109.5600471 388.275200
   7841   7840   7849     1   109.8000471 387.438400
   7841   7840   7842     1   107.5800459 329.699200
   7842   7840   7849     1   109.8000471 387.438400
   7843   7855   7856     1   109.5600471 388.275200
   7843   7855   7857     1   109.5600471 388.275200
   7844   7843   7855     1   109.8000471 387.438400
   7844   7843   7845     1   107.5800459 329.699200
   7845   7843   7855     1   109.8000471 387.438400
   7846   7852   7853     1   109.5600471 388.275200
   7846   7852   7854     1   109.5600471 388.275200
   7847   7846   7852     1   109.8000471 387.438400
   7847   7846   7848     1   107.5800459 329.699200
   7848   7846   7852     1   109.8000471 387.438400
   7850   7849   7858     1   109.7800468 425.094400
   7850   7849   7851     1   108.4600466 328.025600
   7851   7849   7858     1   109.7800468 425.094400
   7853   7852  14736     1   109.7800468 425.094400
   7853   7852   7854     1   108.4600466 328.025600
   7854   7852  14736     1   109.7800468 425.094400
   7856   7855  14759     1   109.7800468 425.094400
   7856   7855   7857     1   108.4600466 328.025600
   7857   7855  14759     1   109.7800468 425.094400
   7860   7861   7862     1   108.0100461 406.684800
   7860   7861   7863     1   108.0100461 406.684800
   7860   7864   7865     1   108.0100461 406.684800
   7860   7864   7866     1   108.0100461 406.684800
   7860   7867   7868     1   108.0100461 406.684800
   7860   7867   7869     1   108.0100461 406.684800
   7861   7860   7889     1   110.1100470 384.091200
   7861   7873   7874     1   109.8000471 387.438400
   7861   7873   7875     1   109.8000471 387.438400
   7862   7861   7873     1   110.5600475 386.601600
   7862   7861   7863     1   109.7500473 328.025600
   7863   7861   7873     1   110.5600475 386.601600
   7864   7860   7889     1   110.1100470 384.091200
   7864   7876   7877     1   109.8000471 387.438400
   7864   7876   7878     1   109.8000471 387.438400
   7865   7864   7876     1   110.5600475 386.601600
   7865   7864   7866     1   109.7500473 328.025600
   7866   7864   7876     1   110.5600475 386.601600
   7867   7860   7889     1   110.1100470 384.091200
   7867   7870   7871     1   109.8000471 387.438400
   7867   7870   7872     1   109.8000471 387.438400
   7868   7867   7870     1   110.5600475 386.601600
   7868   7867   7869     1   109.7500473 328.025600
   7869   7867   7870     1   110.5600475 386.601600
   7870   7879   7880     1   109.5600471 388.275200
   7870   7879   7881     1   109.5600471 388.275200
   7871   7870   7879     1   109.8000471 387.438400
   7871   7870   7872     1   107.5800459 329.699200
   7872   7870   7879     1   109.8000471 387.438400
   7873   7885   7886     1   109.5600471 388.275200
   7873   7885   7887     1   109.5600471 388.275200
   7874   7873   7885     1   109.8000471 387.438400
   7874   7873   7875     1   107.5800459 329.699200
   7875   7873   7885     1   109.8000471 387.438400
   7876   7882   7883     1   109.5600471 388.275200
   7876   7882   7884     1   109.5600471 388.275200
   7877   7876   7882     1   109.8000471 387.438400
   7877   7876   7878     1   107.5800459 329.699200
   7878   7876   7882     1   109.8000471 387.438400
   7880   7879   7888     1   109.7800468 425.094400
   7880   7879   7881     1   108.4600466 328.025600
   7881   7879   7888     1   109.7800468 425.094400
   7883   7882  14782     1   109.7800468 425.094400
   7883   7882   7884     1   108.4600466 328.025600
   7884   7882  14782     1   109.7800468 425.094400
   7886   7885  14805     1   109.7800468 425.094400
   7886   7885   7887     1   108.4600466 328.025600
   7887   7885  14805     1   109.7800468 425.094400
   7890   7891   7892     1   108.0100461 406.684800
   7890   7891   7893     1   108.0100461 406.684800
   7890   7894   7895     1   108.0100461 406.684800
   7890   7894   7896     1   108.0100461 406.684800
   7890   7897   7898     1   108.0100461 406.684800
   7890   7897   7899     1   108.0100461 406.684800
   7891   7890   7919     1   110.1100470 384.091200
   7891   7903   7904     1   109.8000471 387.438400
   7891   7903   7905     1   109.8000471 387.438400
   7892   7891   7903     1   110.5600475 386.601600
   7892   7891   7893     1   109.7500473 328.025600
   7893   7891   7903     1   110.5600475 386.601600
   7894   7890   7919     1   110.1100470 384.091200
   7894   7906   7907     1   109.8000471 387.438400
   7894   7906   7908     1   109.8000471 387.438400
   7895   7894   7906     1   110.5600475 386.601600
   7895   7894   7896     1   109.7500473 328.025600
   7896   7894   7906     1   110.5600475 386.601600
   7897   7890   7919     1   110.1100470 384.091200
   7897   7900   7901     1   109.8000471 387.438400
   7897   7900   7902     1   109.8000471 387.438400
   7898   7897   7900     1   110.5600475 386.601600
   7898   7897   7899     1   109.7500473 328.025600
   7899   7897   7900     1   110.5600475 386.601600
   7900   7909   7910     1   109.5600471 388.275200
   7900   7909   7911     1   109.5600471 388.275200
   7901   7900   7909     1   109.8000471 387.438400
   7901   7900   7902     1   107.5800459 329.699200
   7902   7900   7909     1   109.8000471 387.438400
   7903   7915   7916     1   109.5600471 388.275200
   7903   7915   7917     1   109.5600471 388.275200
   7904   7903   7915     1   109.8000471 387.438400
   7904   7903   7905     1   107.5800459 329.699200
   7905   7903   7915     1   109.8000471 387.438400
   7906   7912   7913     1   109.5600471 388.275200
   7906   7912   7914     1   109.5600471 388.275200
   7907   7906   7912     1   109.8000471 387.438400
   7907   7906   7908     1   107.5800459 329.699200
   7908   7906   7912     1   109.8000471 387.438400
   7910   7909   7918     1   109.7800468 425.094400
   7910   7909   7911     1   108.4600466 328.025600
   7911   7909   7918     1   109.7800468 425.094400
   7913   7912  14828     1   109.7800468 425.094400
   7913   7912   7914     1   108.4600466 328.025600
   7914   7912  14828     1   109.7800468 425.094400
   7916   7915  14851     1   109.7800468 425.094400
   7916   7915   7917     1   108.4600466 328.025600
   7917   7915  14851     1   109.7800468 425.094400
   7920   7921   7922     1   108.0100461 406.684800
   7920   7921   7923     1   108.0100461 406.684800
   7920   7924   7925     1   108.0100461 406.684800
   7920   7924   7926     1   108.0100461 406.684800
   7920   7927   7928     1   108.0100461 406.684800
   7920   7927   7929     1   108.0100461 406.684800
   7921   7920   7949     1   110.1100470 384.091200
   7921   7933   7934     1   109.8000471 387.438400
   7921   7933   7935     1   109.8000471 387.438400
   7922   7921   7933     1   110.5600475 386.601600
   7922   7921   7923     1   109.7500473 328.025600
   7923   7921   7933     1   110.5600475 386.601600
   7924   7920   7949     1   110.1100470 384.091200
   7924   7936   7937     1   109.8000471 387.438400
   7924   7936   7938     1   109.8000471 387.438400
   7925   7924   7936     1   110.5600475 386.601600
   7925   7924   7926     1   109.7500473 328.025600
   7926   7924   7936     1   110.5600475 386.601600
   7927   7920   7949     1   110.1100470 384.091200
   7927   7930   7931     1   109.8000471 387.438400
   7927   7930   7932     1   109.8000471 387.438400
   7928   7927   7930     1   110.5600475 386.601600
   7928   7927   7929     1   109.7500473 328.025600
   7929   7927   7930     1   110.5600475 386.601600
   7930   7939   7940     1   109.5600471 388.275200
   7930   7939   7941     1   109.5600471 388.275200
   7931   7930   7939     1   109.8000471 387.438400
   7931   7930   7932     1   107.5800459 329.699200
   7932   7930   7939     1   109.8000471 387.438400
   7933   7945   7946     1   109.5600471 388.275200
   7933   7945   7947     1   109.5600471 388.275200
   7934   7933   7945     1   109.8000471 387.438400
   7934   7933   7935     1   107.5800459 329.699200
   7935   7933   7945     1   109.8000471 387.438400
   7936   7942   7943     1   109.5600471 388.275200
   7936   7942   7944     1   109.5600471 388.275200
   7937   7936   7942     1   109.8000471 387.438400
   7937   7936   7938     1   107.5800459 329.699200
   7938   7936   7942     1   109.8000471 387.438400
   7940   7939   7948     1   109.7800468 425.094400
   7940   7939   7941     1   108.4600466 328.025600
   7941   7939   7948     1   109.7800468 425.094400
   7943   7942  14874     1   109.7800468 425.094400
   7943   7942   7944     1   108.4600466 328.025600
   7944   7942  14874     1   109.7800468 425.094400
   7946   7945  14897     1   109.7800468 425.094400
   7946   7945   7947     1   108.4600466 328.025600
   7947   7945  14897     1   109.7800468 425.094400
   7950   7951   7952     1   108.0100461 406.684800
   7950   7951   7953     1   108.0100461 406.684800
   7950   7954   7955     1   108.0100461 406.684800
   7950   7954   7956     1   108.0100461 406.684800
   7950   7957   7958     1   108.0100461 406.684800
   7950   7957   7959     1   108.0100461 406.684800
   7951   7950   7979     1   110.1100470 384.091200
   7951   7963   7964     1   109.8000471 387.438400
   7951   7963   7965     1   109.8000471 387.438400
   7952   7951   7963     1   110.5600475 386.601600
   7952   7951   7953     1   109.7500473 328.025600
   7953   7951   7963     1   110.5600475 386.601600
   7954   7950   7979     1   110.1100470 384.091200
   7954   7966   7967     1   109.8000471 387.438400
   7954   7966   7968     1   109.8000471 387.438400
   7955   7954   7966     1   110.5600475 386.601600
   7955   7954   7956     1   109.7500473 328.025600
   7956   7954   7966     1   110.5600475 386.601600
   7957   7950   7979     1   110.1100470 384.091200
   7957   7960   7961     1   109.8000471 387.438400
   7957   7960   7962     1   109.8000471 387.438400
   7958   7957   7960     1   110.5600475 386.601600
   7958   7957   7959     1   109.7500473 328.025600
   7959   7957   7960     1   110.5600475 386.601600
   7960   7969   7970     1   109.5600471 388.275200
   7960   7969   7971     1   109.5600471 388.275200
   7961   7960   7969     1   109.8000471 387.438400
   7961   7960   7962     1   107.5800459 329.699200
   7962   7960   7969     1   109.8000471 387.438400
   7963   7975   7976     1   109.5600471 388.275200
   7963   7975   7977     1   109.5600471 388.275200
   7964   7963   7975     1   109.8000471 387.438400
   7964   7963   7965     1   107.5800459 329.699200
   7965   7963   7975     1   109.8000471 387.438400
   7966   7972   7973     1   109.5600471 388.275200
   7966   7972   7974     1   109.5600471 388.275200
   7967   7966   7972     1   109.8000471 387.438400
   7967   7966   7968     1   107.5800459 329.699200
   7968   7966   7972     1   109.8000471 387.438400
   7970   7969   7978     1   109.7800468 425.094400
   7970   7969   7971     1   108.4600466 328.025600
   7971   7969   7978     1   109.7800468 425.094400
   7973   7972  14920     1   109.7800468 425.094400
   7973   7972   7974     1   108.4600466 328.025600
   7974   7972  14920     1   109.7800468 425.094400
   7976   7975  14943     1   109.7800468 425.094400
   7976   7975   7977     1   108.4600466 328.025600
   7977   7975  14943     1   109.7800468 425.094400
   7980   7981   7982     1   108.0100461 406.684800
   7980   7981   7983     1   108.0100461 406.684800
   7980   7984   7985     1   108.0100461 406.684800
   7980   7984   7986     1   108.0100461 406.684800
   7980   7987   7988     1   108.0100461 406.684800
   7980   7987   7989     1   108.0100461 406.684800
   7981   7980   8009     1   110.1100470 384.091200
   7981   7993   7994     1   109.8000471 387.438400
   7981   7993   7995     1   109.8000471 387.438400
   7982   7981   7993     1   110.5600475 386.601600
   7982   7981   7983     1   109.7500473 328.025600
   7983   7981   7993     1   110.5600475 386.601600
   7984   7980   8009     1   110.1100470 384.091200
   7984   7996   7997     1   109.8000471 387.438400
   7984   7996   7998     1   109.8000471 387.438400
   7985   7984   7996     1   110.5600475 386.601600
   7985   7984   7986     1   109.7500473 328.025600
   7986   7984   7996     1   110.5600475 386.601600
   7987   7980   8009     1   110.1100470 384.091200
   7987   7990   7991     1   109.8000471 387.438400
   7987   7990   7992     1   109.8000471 387.438400
   7988   7987   7990     1   110.5600475 386.601600
   7988   7987   7989     1   109.7500473 328.025600
   7989   7987   7990     1   110.5600475 386.601600
   7990   7999   8000     1   109.5600471 388.275200
   7990   7999   8001     1   109.5600471 388.275200
   7991   7990   7999     1   109.8000471 387.438400
   7991   7990   7992     1   107.5800459 329.699200
   7992   7990   7999     1   109.8000471 387.438400
   7993   8005   8006     1   109.5600471 388.275200
   7993   8005   8007     1   109.5600471 388.275200
   7994   7993   8005     1   109.8000471 387.438400
   7994   7993   7995     1   107.5800459 329.699200
   7995   7993   8005     1   109.8000471 387.438400
   7996   8002   8003     1   109.5600471 388.275200
   7996   8002   8004     1   109.5600471 388.275200
   7997   7996   8002     1   109.8000471 387.438400
   7997   7996   7998     1   107.5800459 329.699200
   7998   7996   8002     1   109.8000471 387.438400
   8000   7999   8008     1   109.7800468 425.094400
   8000   7999   8001     1   108.4600466 328.025600
   8001   7999   8008     1   109.7800468 425.094400
   8003   8002  14966     1   109.7800468 425.094400
   8003   8002   8004     1   108.4600466 328.025600
   8004   8002  14966     1   109.7800468 425.094400
   8006   8005  14989     1   109.7800468 425.094400
   8006   8005   8007     1   108.4600466 328.025600
   8007   8005  14989     1   109.7800468 425.094400
   8010   8011   8012     1   108.0100461 406.684800
   8010   8011   8013     1   108.0100461 406.684800
   8010   8014   8015     1   108.0100461 406.684800
   8010   8014   8016     1   108.0100461 406.684800
   8010   8017   8018     1   108.0100461 406.684800
   8010   8017   8019     1   108.0100461 406.684800
   8011   8010   8039     1   110.1100470 384.091200
   8011   8023   8024     1   109.8000471 387.438400
   8011   8023   8025     1   109.8000471 387.438400
   8012   8011   8023     1   110.5600475 386.601600
   8012   8011   8013     1   109.7500473 328.025600
   8013   8011   8023     1   110.5600475 386.601600
   8014   8010   8039     1   110.1100470 384.091200
   8014   8026   8027     1   109.8000471 387.438400
   8014   8026   8028     1   109.8000471 387.438400
   8015   8014   8026     1   110.5600475 386.601600
   8015   8014   8016     1   109.7500473 328.025600
   8016   8014   8026     1   110.5600475 386.601600
   8017   8010   8039     1   110.1100470 384.091200
   8017   8020   8021     1   109.8000471 387.438400
   8017   8020   8022     1   109.8000471 387.438400
   8018   8017   8020     1   110.5600475 386.601600
   8018   8017   8019     1   109.7500473 328.025600
   8019   8017   8020     1   110.5600475 386.601600
   8020   8029   8030     1   109.5600471 388.275200
   8020   8029   8031     1   109.5600471 388.275200
   8021   8020   8029     1   109.8000471 387.438400
   8021   8020   8022     1   107.5800459 329.699200
   8022   8020   8029     1   109.8000471 387.438400
   8023   8035   8036     1   109.5600471 388.275200
   8023   8035   8037     1   109.5600471 388.275200
   8024   8023   8035     1   109.8000471 387.438400
   8024   8023   8025     1   107.5800459 329.699200
   8025   8023   8035     1   109.8000471 387.438400
   8026   8032   8033     1   109.5600471 388.275200
   8026   8032   8034     1   109.5600471 388.275200
   8027   8026   8032     1   109.8000471 387.438400
   8027   8026   8028     1   107.5800459 329.699200
   8028   8026   8032     1   109.8000471 387.438400
   8030   8029   8038     1   109.7800468 425.094400
   8030   8029   8031     1   108.4600466 328.025600
   8031   8029   8038     1   109.7800468 425.094400
   8033   8032  15012     1   109.7800468 425.094400
   8033   8032   8034     1   108.4600466 328.025600
   8034   8032  15012     1   109.7800468 425.094400
   8036   8035  15035     1   109.7800468 425.094400
   8036   8035   8037     1   108.4600466 328.025600
   8037   8035  15035     1   109.7800468 425.094400
   8040   8041   8042     1   108.0100461 406.684800
   8040   8041   8043     1   108.0100461 406.684800
   8040   8044   8045     1   108.0100461 406.684800
   8040   8044   8046     1   108.0100461 406.684800
   8040   8047   8048     1   108.0100461 406.684800
   8040   8047   8049     1   108.0100461 406.684800
   8041   8040   8069     1   110.1100470 384.091200
   8041   8053   8054     1   109.8000471 387.438400
   8041   8053   8055     1   109.8000471 387.438400
   8042   8041   8053     1   110.5600475 386.601600
   8042   8041   8043     1   109.7500473 328.025600
   8043   8041   8053     1   110.5600475 386.601600
   8044   8040   8069     1   110.1100470 384.091200
   8044   8056   8057     1   109.8000471 387.438400
   8044   8056   8058     1   109.8000471 387.438400
   8045   8044   8056     1   110.5600475 386.601600
   8045   8044   8046     1   109.7500473 328.025600
   8046   8044   8056     1   110.5600475 386.601600
   8047   8040   8069     1   110.1100470 384.091200
   8047   8050   8051     1   109.8000471 387.438400
   8047   8050   8052     1   109.8000471 387.438400
   8048   8047   8050     1   110.5600475 386.601600
   8048   8047   8049     1   109.7500473 328.025600
   8049   8047   8050     1   110.5600475 386.601600
   8050   8059   8060     1   109.5600471 388.275200
   8050   8059   8061     1   109.5600471 388.275200
   8051   8050   8059     1   109.8000471 387.438400
   8051   8050   8052     1   107.5800459 329.699200
   8052   8050   8059     1   109.8000471 387.438400
   8053   8065   8066     1   109.5600471 388.275200
   8053   8065   8067     1   109.5600471 388.275200
   8054   8053   8065     1   109.8000471 387.438400
   8054   8053   8055     1   107.5800459 329.699200
   8055   8053   8065     1   109.8000471 387.438400
   8056   8062   8063     1   109.5600471 388.275200
   8056   8062   8064     1   109.5600471 388.275200
   8057   8056   8062     1   109.8000471 387.438400
   8057   8056   8058     1   107.5800459 329.699200
   8058   8056   8062     1   109.8000471 387.438400
   8060   8059   8068     1   109.7800468 425.094400
   8060   8059   8061     1   108.4600466 328.025600
   8061   8059   8068     1   109.7800468 425.094400
   8063   8062  15058     1   109.7800468 425.094400
   8063   8062   8064     1   108.4600466 328.025600
   8064   8062  15058     1   109.7800468 425.094400
   8066   8065  15081     1   109.7800468 425.094400
   8066   8065   8067     1   108.4600466 328.025600
   8067   8065  15081     1   109.7800468 425.094400
   8070   8071   8072     1   108.0100461 406.684800
   8070   8071   8073     1   108.0100461 406.684800
   8070   8074   8075     1   108.0100461 406.684800
   8070   8074   8076     1   108.0100461 406.684800
   8070   8077   8078     1   108.0100461 406.684800
   8070   8077   8079     1   108.0100461 406.684800
   8071   8070   8099     1   110.1100470 384.091200
   8071   8083   8084     1   109.8000471 387.438400
   8071   8083   8085     1   109.8000471 387.438400
   8072   8071   8083     1   110.5600475 386.601600
   8072   8071   8073     1   109.7500473 328.025600
   8073   8071   8083     1   110.5600475 386.601600
   8074   8070   8099     1   110.1100470 384.091200
   8074   8086   8087     1   109.8000471 387.438400
   8074   8086   8088     1   109.8000471 387.438400
   8075   8074   8086     1   110.5600475 386.601600
   8075   8074   8076     1   109.7500473 328.025600
   8076   8074   8086     1   110.5600475 386.601600
   8077   8070   8099     1   110.1100470 384.091200
   8077   8080   8081     1   109.8000471 387.438400
   8077   8080   8082     1   109.8000471 387.438400
   8078   8077   8080     1   110.5600475 386.601600
   8078   8077   8079     1   109.7500473 328.025600
   8079   8077   8080     1   110.5600475 386.601600
   8080   8089   8090     1   109.5600471 388.275200
   8080   8089   8091     1   109.5600471 388.275200
   8081   8080   8089     1   109.8000471 387.438400
   8081   8080   8082     1   107.5800459 329.699200
   8082   8080   8089     1   109.8000471 387.438400
   8083   8095   8096     1   109.5600471 388.275200
   8083   8095   8097     1   109.5600471 388.275200
   8084   8083   8095     1   109.8000471 387.438400
   8084   8083   8085     1   107.5800459 329.699200
   8085   8083   8095     1   109.8000471 387.438400
   8086   8092   8093     1   109.5600471 388.275200
   8086   8092   8094     1   109.5600471 388.275200
   8087   8086   8092     1   109.8000471 387.438400
   8087   8086   8088     1   107.5800459 329.699200
   8088   8086   8092     1   109.8000471 387.438400
   8090   8089   8098     1   109.7800468 425.094400
   8090   8089   8091     1   108.4600466 328.025600
   8091   8089   8098     1   109.7800468 425.094400
   8093   8092  15104     1   109.7800468 425.094400
   8093   8092   8094     1   108.4600466 328.025600
   8094   8092  15104     1   109.7800468 425.094400
   8096   8095  15127     1   109.7800468 425.094400
   8096   8095   8097     1   108.4600466 328.025600
   8097   8095  15127     1   109.7800468 425.094400
   8100   8101   8102     1   108.0100461 406.684800
   8100   8101   8103     1   108.0100461 406.684800
   8100   8104   8105     1   108.0100461 406.684800
   8100   8104   8106     1   108.0100461 406.684800
   8100   8107   8108     1   108.0100461 406.684800
   8100   8107   8109     1   108.0100461 406.684800
   8101   8100   8129     1   110.1100470 384.091200
   8101   8113   8114     1   109.8000471 387.438400
   8101   8113   8115     1   109.8000471 387.438400
   8102   8101   8113     1   110.5600475 386.601600
   8102   8101   8103     1   109.7500473 328.025600
   8103   8101   8113     1   110.5600475 386.601600
   8104   8100   8129     1   110.1100470 384.091200
   8104   8116   8117     1   109.8000471 387.438400
   8104   8116   8118     1   109.8000471 387.438400
   8105   8104   8116     1   110.5600475 386.601600
   8105   8104   8106     1   109.7500473 328.025600
   8106   8104   8116     1   110.5600475 386.601600
   8107   8100   8129     1   110.1100470 384.091200
   8107   8110   8111     1   109.8000471 387.438400
   8107   8110   8112     1   109.8000471 387.438400
   8108   8107   8110     1   110.5600475 386.601600
   8108   8107   8109     1   109.7500473 328.025600
   8109   8107   8110     1   110.5600475 386.601600
   8110   8119   8120     1   109.5600471 388.275200
   8110   8119   8121     1   109.5600471 388.275200
   8111   8110   8119     1   109.8000471 387.438400
   8111   8110   8112     1   107.5800459 329.699200
   8112   8110   8119     1   109.8000471 387.438400
   8113   8125   8126     1   109.5600471 388.275200
   8113   8125   8127     1   109.5600471 388.275200
   8114   8113   8125     1   109.8000471 387.438400
   8114   8113   8115     1   107.5800459 329.699200
   8115   8113   8125     1   109.8000471 387.438400
   8116   8122   8123     1   109.5600471 388.275200
   8116   8122   8124     1   109.5600471 388.275200
   8117   8116   8122     1   109.8000471 387.438400
   8117   8116   8118     1   107.5800459 329.699200
   8118   8116   8122     1   109.8000471 387.438400
   8120   8119   8128     1   109.7800468 425.094400
   8120   8119   8121     1   108.4600466 328.025600
   8121   8119   8128     1   109.7800468 425.094400
   8123   8122  15150     1   109.7800468 425.094400
   8123   8122   8124     1   108.4600466 328.025600
   8124   8122  15150     1   109.7800468 425.094400
   8126   8125  15173     1   109.7800468 425.094400
   8126   8125   8127     1   108.4600466 328.025600
   8127   8125  15173     1   109.7800468 425.094400
   8130   8131   8132     1   108.0100461 406.684800
   8130   8131   8133     1   108.0100461 406.684800
   8130   8134   8135     1   108.0100461 406.684800
   8130   8134   8136     1   108.0100461 406.684800
   8130   8137   8138     1   108.0100461 406.684800
   8130   8137   8139     1   108.0100461 406.684800
   8131   8130   8159     1   110.1100470 384.091200
   8131   8143   8144     1   109.8000471 387.438400
   8131   8143   8145     1   109.8000471 387.438400
   8132   8131   8143     1   110.5600475 386.601600
   8132   8131   8133     1   109.7500473 328.025600
   8133   8131   8143     1   110.5600475 386.601600
   8134   8130   8159     1   110.1100470 384.091200
   8134   8146   8147     1   109.8000471 387.438400
   8134   8146   8148     1   109.8000471 387.438400
   8135   8134   8146     1   110.5600475 386.601600
   8135   8134   8136     1   109.7500473 328.025600
   8136   8134   8146     1   110.5600475 386.601600
   8137   8130   8159     1   110.1100470 384.091200
   8137   8140   8141     1   109.8000471 387.438400
   8137   8140   8142     1   109.8000471 387.438400
   8138   8137   8140     1   110.5600475 386.601600
   8138   8137   8139     1   109.7500473 328.025600
   8139   8137   8140     1   110.5600475 386.601600
   8140   8149   8150     1   109.5600471 388.275200
   8140   8149   8151     1   109.5600471 388.275200
   8141   8140   8149     1   109.8000471 387.438400
   8141   8140   8142     1   107.5800459 329.699200
   8142   8140   8149     1   109.8000471 387.438400
   8143   8155   8156     1   109.5600471 388.275200
   8143   8155   8157     1   109.5600471 388.275200
   8144   8143   8155     1   109.8000471 387.438400
   8144   8143   8145     1   107.5800459 329.699200
   8145   8143   8155     1   109.8000471 387.438400
   8146   8152   8153     1   109.5600471 388.275200
   8146   8152   8154     1   109.5600471 388.275200
   8147   8146   8152     1   109.8000471 387.438400
   8147   8146   8148     1   107.5800459 329.699200
   8148   8146   8152     1   109.8000471 387.438400
   8150   8149   8158     1   109.7800468 425.094400
   8150   8149   8151     1   108.4600466 328.025600
   8151   8149   8158     1   109.7800468 425.094400
   8153   8152  15196     1   109.7800468 425.094400
   8153   8152   8154     1   108.4600466 328.025600
   8154   8152  15196     1   109.7800468 425.094400
   8156   8155  15219     1   109.7800468 425.094400
   8156   8155   8157     1   108.4600466 328.025600
   8157   8155  15219     1   109.7800468 425.094400
   8160   8161   8162     1   108.0100461 406.684800
   8160   8161   8163     1   108.0100461 406.684800
   8160   8164   8165     1   108.0100461 406.684800
   8160   8164   8166     1   108.0100461 406.684800
   8160   8167   8168     1   108.0100461 406.684800
   8160   8167   8169     1   108.0100461 406.684800
   8161   8160   8189     1   110.1100470 384.091200
   8161   8173   8174     1   109.8000471 387.438400
   8161   8173   8175     1   109.8000471 387.438400
   8162   8161   8173     1   110.5600475 386.601600
   8162   8161   8163     1   109.7500473 328.025600
   8163   8161   8173     1   110.5600475 386.601600
   8164   8160   8189     1   110.1100470 384.091200
   8164   8176   8177     1   109.8000471 387.438400
   8164   8176   8178     1   109.8000471 387.438400
   8165   8164   8176     1   110.5600475 386.601600
   8165   8164   8166     1   109.7500473 328.025600
   8166   8164   8176     1   110.5600475 386.601600
   8167   8160   8189     1   110.1100470 384.091200
   8167   8170   8171     1   109.8000471 387.438400
   8167   8170   8172     1   109.8000471 387.438400
   8168   8167   8170     1   110.5600475 386.601600
   8168   8167   8169     1   109.7500473 328.025600
   8169   8167   8170     1   110.5600475 386.601600
   8170   8179   8180     1   109.5600471 388.275200
   8170   8179   8181     1   109.5600471 388.275200
   8171   8170   8179     1   109.8000471 387.438400
   8171   8170   8172     1   107.5800459 329.699200
   8172   8170   8179     1   109.8000471 387.438400
   8173   8185   8186     1   109.5600471 388.275200
   8173   8185   8187     1   109.5600471 388.275200
   8174   8173   8185     1   109.8000471 387.438400
   8174   8173   8175     1   107.5800459 329.699200
   8175   8173   8185     1   109.8000471 387.438400
   8176   8182   8183     1   109.5600471 388.275200
   8176   8182   8184     1   109.5600471 388.275200
   8177   8176   8182     1   109.8000471 387.438400
   8177   8176   8178     1   107.5800459 329.699200
   8178   8176   8182     1   109.8000471 387.438400
   8180   8179   8188     1   109.7800468 425.094400
   8180   8179   8181     1   108.4600466 328.025600
   8181   8179   8188     1   109.7800468 425.094400
   8183   8182  15242     1   109.7800468 425.094400
   8183   8182   8184     1   108.4600466 328.025600
   8184   8182  15242     1   109.7800468 425.094400
   8186   8185  15265     1   109.7800468 425.094400
   8186   8185   8187     1   108.4600466 328.025600
   8187   8185  15265     1   109.7800468 425.094400
   8190   8191   8192     1   108.0100461 406.684800
   8190   8191   8193     1   108.0100461 406.684800
   8190   8194   8195     1   108.0100461 406.684800
   8190   8194   8196     1   108.0100461 406.684800
   8190   8197   8198     1   108.0100461 406.684800
   8190   8197   8199     1   108.0100461 406.684800
   8191   8190   8219     1   110.1100470 384.091200
   8191   8203   8204     1   109.8000471 387.438400
   8191   8203   8205     1   109.8000471 387.438400
   8192   8191   8203     1   110.5600475 386.601600
   8192   8191   8193     1   109.7500473 328.025600
   8193   8191   8203     1   110.5600475 386.601600
   8194   8190   8219     1   110.1100470 384.091200
   8194   8206   8207     1   109.8000471 387.438400
   8194   8206   8208     1   109.8000471 387.438400
   8195   8194   8206     1   110.5600475 386.601600
   8195   8194   8196     1   109.7500473 328.025600
   8196   8194   8206     1   110.5600475 386.601600
   8197   8190   8219     1   110.1100470 384.091200
   8197   8200   8201     1   109.8000471 387.438400
   8197   8200   8202     1   109.8000471 387.438400
   8198   8197   8200     1   110.5600475 386.601600
   8198   8197   8199     1   109.7500473 328.025600
   8199   8197   8200     1   110.5600475 386.601600
   8200   8209   8210     1   109.5600471 388.275200
   8200   8209   8211     1   109.5600471 388.275200
   8201   8200   8209     1   109.8000471 387.438400
   8201   8200   8202     1   107.5800459 329.699200
   8202   8200   8209     1   109.8000471 387.438400
   8203   8215   8216     1   109.5600471 388.275200
   8203   8215   8217     1   109.5600471 388.275200
   8204   8203   8215     1   109.8000471 387.438400
   8204   8203   8205     1   107.5800459 329.699200
   8205   8203   8215     1   109.8000471 387.438400
   8206   8212   8213     1   109.5600471 388.275200
   8206   8212   8214     1   109.5600471 388.275200
   8207   8206   8212     1   109.8000471 387.438400
   8207   8206   8208     1   107.5800459 329.699200
   8208   8206   8212     1   109.8000471 387.438400
   8210   8209   8218     1   109.7800468 425.094400
   8210   8209   8211     1   108.4600466 328.025600
   8211   8209   8218     1   109.7800468 425.094400
   8213   8212  15288     1   109.7800468 425.094400
   8213   8212   8214     1   108.4600466 328.025600
   8214   8212  15288     1   109.7800468 425.094400
   8216   8215  15311     1   109.7800468 425.094400
   8216   8215   8217     1   108.4600466 328.025600
   8217   8215  15311     1   109.7800468 425.094400
   8220   8221   8222     1   108.0100461 406.684800
   8220   8221   8223     1   108.0100461 406.684800
   8220   8224   8225     1   108.0100461 406.684800
   8220   8224   8226     1   108.0100461 406.684800
   8220   8227   8228     1   108.0100461 406.684800
   8220   8227   8229     1   108.0100461 406.684800
   8221   8220   8249     1   110.1100470 384.091200
   8221   8233   8234     1   109.8000471 387.438400
   8221   8233   8235     1   109.8000471 387.438400
   8222   8221   8233     1   110.5600475 386.601600
   8222   8221   8223     1   109.7500473 328.025600
   8223   8221   8233     1   110.5600475 386.601600
   8224   8220   8249     1   110.1100470 384.091200
   8224   8236   8237     1   109.8000471 387.438400
   8224   8236   8238     1   109.8000471 387.438400
   8225   8224   8236     1   110.5600475 386.601600
   8225   8224   8226     1   109.7500473 328.025600
   8226   8224   8236     1   110.5600475 386.601600
   8227   8220   8249     1   110.1100470 384.091200
   8227   8230   8231     1   109.8000471 387.438400
   8227   8230   8232     1   109.8000471 387.438400
   8228   8227   8230     1   110.5600475 386.601600
   8228   8227   8229     1   109.7500473 328.025600
   8229   8227   8230     1   110.5600475 386.601600
   8230   8239   8240     1   109.5600471 388.275200
   8230   8239   8241     1   109.5600471 388.275200
   8231   8230   8239     1   109.8000471 387.438400
   8231   8230   8232     1   107.5800459 329.699200
   8232   8230   8239     1   109.8000471 387.438400
   8233   8245   8246     1   109.5600471 388.275200
   8233   8245   8247     1   109.5600471 388.275200
   8234   8233   8245     1   109.8000471 387.438400
   8234   8233   8235     1   107.5800459 329.699200
   8235   8233   8245     1   109.8000471 387.438400
   8236   8242   8243     1   109.5600471 388.275200
   8236   8242   8244     1   109.5600471 388.275200
   8237   8236   8242     1   109.8000471 387.438400
   8237   8236   8238     1   107.5800459 329.699200
   8238   8236   8242     1   109.8000471 387.438400
   8240   8239   8248     1   109.7800468 425.094400
   8240   8239   8241     1   108.4600466 328.025600
   8241   8239   8248     1   109.7800468 425.094400
   8243   8242  15334     1   109.7800468 425.094400
   8243   8242   8244     1   108.4600466 328.025600
   8244   8242  15334     1   109.7800468 425.094400
   8246   8245  15357     1   109.7800468 425.094400
   8246   8245   8247     1   108.4600466 328.025600
   8247   8245  15357     1   109.7800468 425.094400
   8250   8251   8252     1   108.0100461 406.684800
   8250   8251   8253     1   108.0100461 406.684800
   8250   8254   8255     1   108.0100461 406.684800
   8250   8254   8256     1   108.0100461 406.684800
   8250   8257   8258     1   108.0100461 406.684800
   8250   8257   8259     1   108.0100461 406.684800
   8251   8250   8279     1   110.1100470 384.091200
   8251   8263   8264     1   109.8000471 387.438400
   8251   8263   8265     1   109.8000471 387.438400
   8252   8251   8263     1   110.5600475 386.601600
   8252   8251   8253     1   109.7500473 328.025600
   8253   8251   8263     1   110.5600475 386.601600
   8254   8250   8279     1   110.1100470 384.091200
   8254   8266   8267     1   109.8000471 387.438400
   8254   8266   8268     1   109.8000471 387.438400
   8255   8254   8266     1   110.5600475 386.601600
   8255   8254   8256     1   109.7500473 328.025600
   8256   8254   8266     1   110.5600475 386.601600
   8257   8250   8279     1   110.1100470 384.091200
   8257   8260   8261     1   109.8000471 387.438400
   8257   8260   8262     1   109.8000471 387.438400
   8258   8257   8260     1   110.5600475 386.601600
   8258   8257   8259     1   109.7500473 328.025600
   8259   8257   8260     1   110.5600475 386.601600
   8260   8269   8270     1   109.5600471 388.275200
   8260   8269   8271     1   109.5600471 388.275200
   8261   8260   8269     1   109.8000471 387.438400
   8261   8260   8262     1   107.5800459 329.699200
   8262   8260   8269     1   109.8000471 387.438400
   8263   8275   8276     1   109.5600471 388.275200
   8263   8275   8277     1   109.5600471 388.275200
   8264   8263   8275     1   109.8000471 387.438400
   8264   8263   8265     1   107.5800459 329.699200
   8265   8263   8275     1   109.8000471 387.438400
   8266   8272   8273     1   109.5600471 388.275200
   8266   8272   8274     1   109.5600471 388.275200
   8267   8266   8272     1   109.8000471 387.438400
   8267   8266   8268     1   107.5800459 329.699200
   8268   8266   8272     1   109.8000471 387.438400
   8270   8269   8278     1   109.7800468 425.094400
   8270   8269   8271     1   108.4600466 328.025600
   8271   8269   8278     1   109.7800468 425.094400
   8273   8272  15380     1   109.7800468 425.094400
   8273   8272   8274     1   108.4600466 328.025600
   8274   8272  15380     1   109.7800468 425.094400
   8276   8275  15403     1   109.7800468 425.094400
   8276   8275   8277     1   108.4600466 328.025600
   8277   8275  15403     1   109.7800468 425.094400
   8280   8281   8282     1   108.0100461 406.684800
   8280   8281   8283     1   108.0100461 406.684800
   8280   8284   8285     1   108.0100461 406.684800
   8280   8284   8286     1   108.0100461 406.684800
   8280   8287   8288     1   108.0100461 406.684800
   8280   8287   8289     1   108.0100461 406.684800
   8281   8280   8309     1   110.1100470 384.091200
   8281   8293   8294     1   109.8000471 387.438400
   8281   8293   8295     1   109.8000471 387.438400
   8282   8281   8293     1   110.5600475 386.601600
   8282   8281   8283     1   109.7500473 328.025600
   8283   8281   8293     1   110.5600475 386.601600
   8284   8280   8309     1   110.1100470 384.091200
   8284   8296   8297     1   109.8000471 387.438400
   8284   8296   8298     1   109.8000471 387.438400
   8285   8284   8296     1   110.5600475 386.601600
   8285   8284   8286     1   109.7500473 328.025600
   8286   8284   8296     1   110.5600475 386.601600
   8287   8280   8309     1   110.1100470 384.091200
   8287   8290   8291     1   109.8000471 387.438400
   8287   8290   8292     1   109.8000471 387.438400
   8288   8287   8290     1   110.5600475 386.601600
   8288   8287   8289     1   109.7500473 328.025600
   8289   8287   8290     1   110.5600475 386.601600
   8290   8299   8300     1   109.5600471 388.275200
   8290   8299   8301     1   109.5600471 388.275200
   8291   8290   8299     1   109.8000471 387.438400
   8291   8290   8292     1   107.5800459 329.699200
   8292   8290   8299     1   109.8000471 387.438400
   8293   8305   8306     1   109.5600471 388.275200
   8293   8305   8307     1   109.5600471 388.275200
   8294   8293   8305     1   109.8000471 387.438400
   8294   8293   8295     1   107.5800459 329.699200
   8295   8293   8305     1   109.8000471 387.438400
   8296   8302   8303     1   109.5600471 388.275200
   8296   8302   8304     1   109.5600471 388.275200
   8297   8296   8302     1   109.8000471 387.438400
   8297   8296   8298     1   107.5800459 329.699200
   8298   8296   8302     1   109.8000471 387.438400
   8300   8299   8308     1   109.7800468 425.094400
   8300   8299   8301     1   108.4600466 328.025600
   8301   8299   8308     1   109.7800468 425.094400
   8303   8302  15426     1   109.7800468 425.094400
   8303   8302   8304     1   108.4600466 328.025600
   8304   8302  15426     1   109.7800468 425.094400
   8306   8305  15449     1   109.7800468 425.094400
   8306   8305   8307     1   108.4600466 328.025600
   8307   8305  15449     1   109.7800468 425.094400
   8310   8311   8312     1   108.0100461 406.684800
   8310   8311   8313     1   108.0100461 406.684800
   8310   8314   8315     1   108.0100461 406.684800
   8310   8314   8316     1   108.0100461 406.684800
   8310   8317   8318     1   108.0100461 406.684800
   8310   8317   8319     1   108.0100461 406.684800
   8311   8310   8339     1   110.1100470 384.091200
   8311   8323   8324     1   109.8000471 387.438400
   8311   8323   8325     1   109.8000471 387.438400
   8312   8311   8323     1   110.5600475 386.601600
   8312   8311   8313     1   109.7500473 328.025600
   8313   8311   8323     1   110.5600475 386.601600
   8314   8310   8339     1   110.1100470 384.091200
   8314   8326   8327     1   109.8000471 387.438400
   8314   8326   8328     1   109.8000471 387.438400
   8315   8314   8326     1   110.5600475 386.601600
   8315   8314   8316     1   109.7500473 328.025600
   8316   8314   8326     1   110.5600475 386.601600
   8317   8310   8339     1   110.1100470 384.091200
   8317   8320   8321     1   109.8000471 387.438400
   8317   8320   8322     1   109.8000471 387.438400
   8318   8317   8320     1   110.5600475 386.601600
   8318   8317   8319     1   109.7500473 328.025600
   8319   8317   8320     1   110.5600475 386.601600
   8320   8329   8330     1   109.5600471 388.275200
   8320   8329   8331     1   109.5600471 388.275200
   8321   8320   8329     1   109.8000471 387.438400
   8321   8320   8322     1   107.5800459 329.699200
   8322   8320   8329     1   109.8000471 387.438400
   8323   8335   8336     1   109.5600471 388.275200
   8323   8335   8337     1   109.5600471 388.275200
   8324   8323   8335     1   109.8000471 387.438400
   8324   8323   8325     1   107.5800459 329.699200
   8325   8323   8335     1   109.8000471 387.438400
   8326   8332   8333     1   109.5600471 388.275200
   8326   8332   8334     1   109.5600471 388.275200
   8327   8326   8332     1   109.8000471 387.438400
   8327   8326   8328     1   107.5800459 329.699200
   8328   8326   8332     1   109.8000471 387.438400
   8330   8329   8338     1   109.7800468 425.094400
   8330   8329   8331     1   108.4600466 328.025600
   8331   8329   8338     1   109.7800468 425.094400
   8333   8332  15472     1   109.7800468 425.094400
   8333   8332   8334     1   108.4600466 328.025600
   8334   8332  15472     1   109.7800468 425.094400
   8336   8335  15495     1   109.7800468 425.094400
   8336   8335   8337     1   108.4600466 328.025600
   8337   8335  15495     1   109.7800468 425.094400
   8340   8341   8342     1   108.0100461 406.684800
   8340   8341   8343     1   108.0100461 406.684800
   8340   8344   8345     1   108.0100461 406.684800
   8340   8344   8346     1   108.0100461 406.684800
   8340   8347   8348     1   108.0100461 406.684800
   8340   8347   8349     1   108.0100461 406.684800
   8341   8340   8369     1   110.1100470 384.091200
   8341   8353   8354     1   109.8000471 387.438400
   8341   8353   8355     1   109.8000471 387.438400
   8342   8341   8353     1   110.5600475 386.601600
   8342   8341   8343     1   109.7500473 328.025600
   8343   8341   8353     1   110.5600475 386.601600
   8344   8340   8369     1   110.1100470 384.091200
   8344   8356   8357     1   109.8000471 387.438400
   8344   8356   8358     1   109.8000471 387.438400
   8345   8344   8356     1   110.5600475 386.601600
   8345   8344   8346     1   109.7500473 328.025600
   8346   8344   8356     1   110.5600475 386.601600
   8347   8340   8369     1   110.1100470 384.091200
   8347   8350   8351     1   109.8000471 387.438400
   8347   8350   8352     1   109.8000471 387.438400
   8348   8347   8350     1   110.5600475 386.601600
   8348   8347   8349     1   109.7500473 328.025600
   8349   8347   8350     1   110.5600475 386.601600
   8350   8359   8360     1   109.5600471 388.275200
   8350   8359   8361     1   109.5600471 388.275200
   8351   8350   8359     1   109.8000471 387.438400
   8351   8350   8352     1   107.5800459 329.699200
   8352   8350   8359     1   109.8000471 387.438400
   8353   8365   8366     1   109.5600471 388.275200
   8353   8365   8367     1   109.5600471 388.275200
   8354   8353   8365     1   109.8000471 387.438400
   8354   8353   8355     1   107.5800459 329.699200
   8355   8353   8365     1   109.8000471 387.438400
   8356   8362   8363     1   109.5600471 388.275200
   8356   8362   8364     1   109.5600471 388.275200
   8357   8356   8362     1   109.8000471 387.438400
   8357   8356   8358     1   107.5800459 329.699200
   8358   8356   8362     1   109.8000471 387.438400
   8360   8359   8368     1   109.7800468 425.094400
   8360   8359   8361     1   108.4600466 328.025600
   8361   8359   8368     1   109.7800468 425.094400
   8363   8362  15518     1   109.7800468 425.094400
   8363   8362   8364     1   108.4600466 328.025600
   8364   8362  15518     1   109.7800468 425.094400
   8366   8365  15541     1   109.7800468 425.094400
   8366   8365   8367     1   108.4600466 328.025600
   8367   8365  15541     1   109.7800468 425.094400
   8370   8371   8372     1   108.0100461 406.684800
   8370   8371   8373     1   108.0100461 406.684800
   8370   8374   8375     1   108.0100461 406.684800
   8370   8374   8376     1   108.0100461 406.684800
   8370   8377   8378     1   108.0100461 406.684800
   8370   8377   8379     1   108.0100461 406.684800
   8371   8370   8399     1   110.1100470 384.091200
   8371   8383   8384     1   109.8000471 387.438400
   8371   8383   8385     1   109.8000471 387.438400
   8372   8371   8383     1   110.5600475 386.601600
   8372   8371   8373     1   109.7500473 328.025600
   8373   8371   8383     1   110.5600475 386.601600
   8374   8370   8399     1   110.1100470 384.091200
   8374   8386   8387     1   109.8000471 387.438400
   8374   8386   8388     1   109.8000471 387.438400
   8375   8374   8386     1   110.5600475 386.601600
   8375   8374   8376     1   109.7500473 328.025600
   8376   8374   8386     1   110.5600475 386.601600
   8377   8370   8399     1   110.1100470 384.091200
   8377   8380   8381     1   109.8000471 387.438400
   8377   8380   8382     1   109.8000471 387.438400
   8378   8377   8380     1   110.5600475 386.601600
   8378   8377   8379     1   109.7500473 328.025600
   8379   8377   8380     1   110.5600475 386.601600
   8380   8389   8390     1   109.5600471 388.275200
   8380   8389   8391     1   109.5600471 388.275200
   8381   8380   8389     1   109.8000471 387.438400
   8381   8380   8382     1   107.5800459 329.699200
   8382   8380   8389     1   109.8000471 387.438400
   8383   8395   8396     1   109.5600471 388.275200
   8383   8395   8397     1   109.5600471 388.275200
   8384   8383   8395     1   109.8000471 387.438400
   8384   8383   8385     1   107.5800459 329.699200
   8385   8383   8395     1   109.8000471 387.438400
   8386   8392   8393     1   109.5600471 388.275200
   8386   8392   8394     1   109.5600471 388.275200
   8387   8386   8392     1   109.8000471 387.438400
   8387   8386   8388     1   107.5800459 329.699200
   8388   8386   8392     1   109.8000471 387.438400
   8390   8389   8398     1   109.7800468 425.094400
   8390   8389   8391     1   108.4600466 328.025600
   8391   8389   8398     1   109.7800468 425.094400
   8393   8392  15564     1   109.7800468 425.094400
   8393   8392   8394     1   108.4600466 328.025600
   8394   8392  15564     1   109.7800468 425.094400
   8396   8395  15587     1   109.7800468 425.094400
   8396   8395   8397     1   108.4600466 328.025600
   8397   8395  15587     1   109.7800468 425.094400
   8400   8401   8402     1   108.0100461 406.684800
   8400   8401   8403     1   108.0100461 406.684800
   8400   8404   8405     1   108.0100461 406.684800
   8400   8404   8406     1   108.0100461 406.684800
   8400   8407   8408     1   108.0100461 406.684800
   8400   8407   8409     1   108.0100461 406.684800
   8401   8400   8429     1   110.1100470 384.091200
   8401   8413   8414     1   109.8000471 387.438400
   8401   8413   8415     1   109.8000471 387.438400
   8402   8401   8413     1   110.5600475 386.601600
   8402   8401   8403     1   109.7500473 328.025600
   8403   8401   8413     1   110.5600475 386.601600
   8404   8400   8429     1   110.1100470 384.091200
   8404   8416   8417     1   109.8000471 387.438400
   8404   8416   8418     1   109.8000471 387.438400
   8405   8404   8416     1   110.5600475 386.601600
   8405   8404   8406     1   109.7500473 328.025600
   8406   8404   8416     1   110.5600475 386.601600
   8407   8400   8429     1   110.1100470 384.091200
   8407   8410   8411     1   109.8000471 387.438400
   8407   8410   8412     1   109.8000471 387.438400
   8408   8407   8410     1   110.5600475 386.601600
   8408   8407   8409     1   109.7500473 328.025600
   8409   8407   8410     1   110.5600475 386.601600
   8410   8419   8420     1   109.5600471 388.275200
   8410   8419   8421     1   109.5600471 388.275200
   8411   8410   8419     1   109.8000471 387.438400
   8411   8410   8412     1   107.5800459 329.699200
   8412   8410   8419     1   109.8000471 387.438400
   8413   8425   8426     1   109.5600471 388.275200
   8413   8425   8427     1   109.5600471 388.275200
   8414   8413   8425     1   109.8000471 387.438400
   8414   8413   8415     1   107.5800459 329.699200
   8415   8413   8425     1   109.8000471 387.438400
   8416   8422   8423     1   109.5600471 388.275200
   8416   8422   8424     1   109.5600471 388.275200
   8417   8416   8422     1   109.8000471 387.438400
   8417   8416   8418     1   107.5800459 329.699200
   8418   8416   8422     1   109.8000471 387.438400
   8420   8419   8428     1   109.7800468 425.094400
   8420   8419   8421     1   108.4600466 328.025600
   8421   8419   8428     1   109.7800468 425.094400
   8423   8422  15610     1   109.7800468 425.094400
   8423   8422   8424     1   108.4600466 328.025600
   8424   8422  15610     1   109.7800468 425.094400
   8426   8425  15633     1   109.7800468 425.094400
   8426   8425   8427     1   108.4600466 328.025600
   8427   8425  15633     1   109.7800468 425.094400
   8430   8431   8432     1   108.0100461 406.684800
   8430   8431   8433     1   108.0100461 406.684800
   8430   8434   8435     1   108.0100461 406.684800
   8430   8434   8436     1   108.0100461 406.684800
   8430   8437   8438     1   108.0100461 406.684800
   8430   8437   8439     1   108.0100461 406.684800
   8431   8430   8459     1   110.1100470 384.091200
   8431   8443   8444     1   109.8000471 387.438400
   8431   8443   8445     1   109.8000471 387.438400
   8432   8431   8443     1   110.5600475 386.601600
   8432   8431   8433     1   109.7500473 328.025600
   8433   8431   8443     1   110.5600475 386.601600
   8434   8430   8459     1   110.1100470 384.091200
   8434   8446   8447     1   109.8000471 387.438400
   8434   8446   8448     1   109.8000471 387.438400
   8435   8434   8446     1   110.5600475 386.601600
   8435   8434   8436     1   109.7500473 328.025600
   8436   8434   8446     1   110.5600475 386.601600
   8437   8430   8459     1   110.1100470 384.091200
   8437   8440   8441     1   109.8000471 387.438400
   8437   8440   8442     1   109.8000471 387.438400
   8438   8437   8440     1   110.5600475 386.601600
   8438   8437   8439     1   109.7500473 328.025600
   8439   8437   8440     1   110.5600475 386.601600
   8440   8449   8450     1   109.5600471 388.275200
   8440   8449   8451     1   109.5600471 388.275200
   8441   8440   8449     1   109.8000471 387.438400
   8441   8440   8442     1   107.5800459 329.699200
   8442   8440   8449     1   109.8000471 387.438400
   8443   8455   8456     1   109.5600471 388.275200
   8443   8455   8457     1   109.5600471 388.275200
   8444   8443   8455     1   109.8000471 387.438400
   8444   8443   8445     1   107.5800459 329.699200
   8445   8443   8455     1   109.8000471 387.438400
   8446   8452   8453     1   109.5600471 388.275200
   8446   8452   8454     1   109.5600471 388.275200
   8447   8446   8452     1   109.8000471 387.438400
   8447   8446   8448     1   107.5800459 329.699200
   8448   8446   8452     1   109.8000471 387.438400
   8450   8449   8458     1   109.7800468 425.094400
   8450   8449   8451     1   108.4600466 328.025600
   8451   8449   8458     1   109.7800468 425.094400
   8453   8452  15656     1   109.7800468 425.094400
   8453   8452   8454     1   108.4600466 328.025600
   8454   8452  15656     1   109.7800468 425.094400
   8456   8455  15679     1   109.7800468 425.094400
   8456   8455   8457     1   108.4600466 328.025600
   8457   8455  15679     1   109.7800468 425.094400
   8460   8461   8462     1   108.0100461 406.684800
   8460   8461   8463     1   108.0100461 406.684800
   8460   8464   8465     1   108.0100461 406.684800
   8460   8464   8466     1   108.0100461 406.684800
   8460   8467   8468     1   108.0100461 406.684800
   8460   8467   8469     1   108.0100461 406.684800
   8461   8460   8489     1   110.1100470 384.091200
   8461   8473   8474     1   109.8000471 387.438400
   8461   8473   8475     1   109.8000471 387.438400
   8462   8461   8473     1   110.5600475 386.601600
   8462   8461   8463     1   109.7500473 328.025600
   8463   8461   8473     1   110.5600475 386.601600
   8464   8460   8489     1   110.1100470 384.091200
   8464   8476   8477     1   109.8000471 387.438400
   8464   8476   8478     1   109.8000471 387.438400
   8465   8464   8476     1   110.5600475 386.601600
   8465   8464   8466     1   109.7500473 328.025600
   8466   8464   8476     1   110.5600475 386.601600
   8467   8460   8489     1   110.1100470 384.091200
   8467   8470   8471     1   109.8000471 387.438400
   8467   8470   8472     1   109.8000471 387.438400
   8468   8467   8470     1   110.5600475 386.601600
   8468   8467   8469     1   109.7500473 328.025600
   8469   8467   8470     1   110.5600475 386.601600
   8470   8479   8480     1   109.5600471 388.275200
   8470   8479   8481     1   109.5600471 388.275200
   8471   8470   8479     1   109.8000471 387.438400
   8471   8470   8472     1   107.5800459 329.699200
   8472   8470   8479     1   109.8000471 387.438400
   8473   8485   8486     1   109.5600471 388.275200
   8473   8485   8487     1   109.5600471 388.275200
   8474   8473   8485     1   109.8000471 387.438400
   8474   8473   8475     1   107.5800459 329.699200
   8475   8473   8485     1   109.8000471 387.438400
   8476   8482   8483     1   109.5600471 388.275200
   8476   8482   8484     1   109.5600471 388.275200
   8477   8476   8482     1   109.8000471 387.438400
   8477   8476   8478     1   107.5800459 329.699200
   8478   8476   8482     1   109.8000471 387.438400
   8480   8479   8488     1   109.7800468 425.094400
   8480   8479   8481     1   108.4600466 328.025600
   8481   8479   8488     1   109.7800468 425.094400
   8483   8482  15702     1   109.7800468 425.094400
   8483   8482   8484     1   108.4600466 328.025600
   8484   8482  15702     1   109.7800468 425.094400
   8486   8485  15725     1   109.7800468 425.094400
   8486   8485   8487     1   108.4600466 328.025600
   8487   8485  15725     1   109.7800468 425.094400
   8490   8491   8492     1   108.0100461 406.684800
   8490   8491   8493     1   108.0100461 406.684800
   8490   8494   8495     1   108.0100461 406.684800
   8490   8494   8496     1   108.0100461 406.684800
   8490   8497   8498     1   108.0100461 406.684800
   8490   8497   8499     1   108.0100461 406.684800
   8491   8490   8519     1   110.1100470 384.091200
   8491   8503   8504     1   109.8000471 387.438400
   8491   8503   8505     1   109.8000471 387.438400
   8492   8491   8503     1   110.5600475 386.601600
   8492   8491   8493     1   109.7500473 328.025600
   8493   8491   8503     1   110.5600475 386.601600
   8494   8490   8519     1   110.1100470 384.091200
   8494   8506   8507     1   109.8000471 387.438400
   8494   8506   8508     1   109.8000471 387.438400
   8495   8494   8506     1   110.5600475 386.601600
   8495   8494   8496     1   109.7500473 328.025600
   8496   8494   8506     1   110.5600475 386.601600
   8497   8490   8519     1   110.1100470 384.091200
   8497   8500   8501     1   109.8000471 387.438400
   8497   8500   8502     1   109.8000471 387.438400
   8498   8497   8500     1   110.5600475 386.601600
   8498   8497   8499     1   109.7500473 328.025600
   8499   8497   8500     1   110.5600475 386.601600
   8500   8509   8510     1   109.5600471 388.275200
   8500   8509   8511     1   109.5600471 388.275200
   8501   8500   8509     1   109.8000471 387.438400
   8501   8500   8502     1   107.5800459 329.699200
   8502   8500   8509     1   109.8000471 387.438400
   8503   8515   8516     1   109.5600471 388.275200
   8503   8515   8517     1   109.5600471 388.275200
   8504   8503   8515     1   109.8000471 387.438400
   8504   8503   8505     1   107.5800459 329.699200
   8505   8503   8515     1   109.8000471 387.438400
   8506   8512   8513     1   109.5600471 388.275200
   8506   8512   8514     1   109.5600471 388.275200
   8507   8506   8512     1   109.8000471 387.438400
   8507   8506   8508     1   107.5800459 329.699200
   8508   8506   8512     1   109.8000471 387.438400
   8510   8509   8518     1   109.7800468 425.094400
   8510   8509   8511     1   108.4600466 328.025600
   8511   8509   8518     1   109.7800468 425.094400
   8513   8512  15748     1   109.7800468 425.094400
   8513   8512   8514     1   108.4600466 328.025600
   8514   8512  15748     1   109.7800468 425.094400
   8516   8515  15771     1   109.7800468 425.094400
   8516   8515   8517     1   108.4600466 328.025600
   8517   8515  15771     1   109.7800468 425.094400
   8520   8521   8522     1   108.0100461 406.684800
   8520   8521   8523     1   108.0100461 406.684800
   8520   8524   8525     1   108.0100461 406.684800
   8520   8524   8526     1   108.0100461 406.684800
   8520   8527   8528     1   108.0100461 406.684800
   8520   8527   8529     1   108.0100461 406.684800
   8521   8520   8549     1   110.1100470 384.091200
   8521   8533   8534     1   109.8000471 387.438400
   8521   8533   8535     1   109.8000471 387.438400
   8522   8521   8533     1   110.5600475 386.601600
   8522   8521   8523     1   109.7500473 328.025600
   8523   8521   8533     1   110.5600475 386.601600
   8524   8520   8549     1   110.1100470 384.091200
   8524   8536   8537     1   109.8000471 387.438400
   8524   8536   8538     1   109.8000471 387.438400
   8525   8524   8536     1   110.5600475 386.601600
   8525   8524   8526     1   109.7500473 328.025600
   8526   8524   8536     1   110.5600475 386.601600
   8527   8520   8549     1   110.1100470 384.091200
   8527   8530   8531     1   109.8000471 387.438400
   8527   8530   8532     1   109.8000471 387.438400
   8528   8527   8530     1   110.5600475 386.601600
   8528   8527   8529     1   109.7500473 328.025600
   8529   8527   8530     1   110.5600475 386.601600
   8530   8539   8540     1   109.5600471 388.275200
   8530   8539   8541     1   109.5600471 388.275200
   8531   8530   8539     1   109.8000471 387.438400
   8531   8530   8532     1   107.5800459 329.699200
   8532   8530   8539     1   109.8000471 387.438400
   8533   8545   8546     1   109.5600471 388.275200
   8533   8545   8547     1   109.5600471 388.275200
   8534   8533   8545     1   109.8000471 387.438400
   8534   8533   8535     1   107.5800459 329.699200
   8535   8533   8545     1   109.8000471 387.438400
   8536   8542   8543     1   109.5600471 388.275200
   8536   8542   8544     1   109.5600471 388.275200
   8537   8536   8542     1   109.8000471 387.438400
   8537   8536   8538     1   107.5800459 329.699200
   8538   8536   8542     1   109.8000471 387.438400
   8540   8539   8548     1   109.7800468 425.094400
   8540   8539   8541     1   108.4600466 328.025600
   8541   8539   8548     1   109.7800468 425.094400
   8543   8542  15794     1   109.7800468 425.094400
   8543   8542   8544     1   108.4600466 328.025600
   8544   8542  15794     1   109.7800468 425.094400
   8546   8545  15817     1   109.7800468 425.094400
   8546   8545   8547     1   108.4600466 328.025600
   8547   8545  15817     1   109.7800468 425.094400
   8550   8551   8552     1   108.0100461 406.684800
   8550   8551   8553     1   108.0100461 406.684800
   8550   8554   8555     1   108.0100461 406.684800
   8550   8554   8556     1   108.0100461 406.684800
   8550   8557   8558     1   108.0100461 406.684800
   8550   8557   8559     1   108.0100461 406.684800
   8551   8550   8579     1   110.1100470 384.091200
   8551   8563   8564     1   109.8000471 387.438400
   8551   8563   8565     1   109.8000471 387.438400
   8552   8551   8563     1   110.5600475 386.601600
   8552   8551   8553     1   109.7500473 328.025600
   8553   8551   8563     1   110.5600475 386.601600
   8554   8550   8579     1   110.1100470 384.091200
   8554   8566   8567     1   109.8000471 387.438400
   8554   8566   8568     1   109.8000471 387.438400
   8555   8554   8566     1   110.5600475 386.601600
   8555   8554   8556     1   109.7500473 328.025600
   8556   8554   8566     1   110.5600475 386.601600
   8557   8550   8579     1   110.1100470 384.091200
   8557   8560   8561     1   109.8000471 387.438400
   8557   8560   8562     1   109.8000471 387.438400
   8558   8557   8560     1   110.5600475 386.601600
   8558   8557   8559     1   109.7500473 328.025600
   8559   8557   8560     1   110.5600475 386.601600
   8560   8569   8570     1   109.5600471 388.275200
   8560   8569   8571     1   109.5600471 388.275200
   8561   8560   8569     1   109.8000471 387.438400
   8561   8560   8562     1   107.5800459 329.699200
   8562   8560   8569     1   109.8000471 387.438400
   8563   8575   8576     1   109.5600471 388.275200
   8563   8575   8577     1   109.5600471 388.275200
   8564   8563   8575     1   109.8000471 387.438400
   8564   8563   8565     1   107.5800459 329.699200
   8565   8563   8575     1   109.8000471 387.438400
   8566   8572   8573     1   109.5600471 388.275200
   8566   8572   8574     1   109.5600471 388.275200
   8567   8566   8572     1   109.8000471 387.438400
   8567   8566   8568     1   107.5800459 329.699200
   8568   8566   8572     1   109.8000471 387.438400
   8570   8569   8578     1   109.7800468 425.094400
   8570   8569   8571     1   108.4600466 328.025600
   8571   8569   8578     1   109.7800468 425.094400
   8573   8572  15840     1   109.7800468 425.094400
   8573   8572   8574     1   108.4600466 328.025600
   8574   8572  15840     1   109.7800468 425.094400
   8576   8575  15863     1   109.7800468 425.094400
   8576   8575   8577     1   108.4600466 328.025600
   8577   8575  15863     1   109.7800468 425.094400
   8580   8581   8582     1   108.0100461 406.684800
   8580   8581   8583     1   108.0100461 406.684800
   8580   8584   8585     1   108.0100461 406.684800
   8580   8584   8586     1   108.0100461 406.684800
   8580   8587   8588     1   108.0100461 406.684800
   8580   8587   8589     1   108.0100461 406.684800
   8581   8580   8609     1   110.1100470 384.091200
   8581   8593   8594     1   109.8000471 387.438400
   8581   8593   8595     1   109.8000471 387.438400
   8582   8581   8593     1   110.5600475 386.601600
   8582   8581   8583     1   109.7500473 328.025600
   8583   8581   8593     1   110.5600475 386.601600
   8584   8580   8609     1   110.1100470 384.091200
   8584   8596   8597     1   109.8000471 387.438400
   8584   8596   8598     1   109.8000471 387.438400
   8585   8584   8596     1   110.5600475 386.601600
   8585   8584   8586     1   109.7500473 328.025600
   8586   8584   8596     1   110.5600475 386.601600
   8587   8580   8609     1   110.1100470 384.091200
   8587   8590   8591     1   109.8000471 387.438400
   8587   8590   8592     1   109.8000471 387.438400
   8588   8587   8590     1   110.5600475 386.601600
   8588   8587   8589     1   109.7500473 328.025600
   8589   8587   8590     1   110.5600475 386.601600
   8590   8599   8600     1   109.5600471 388.275200
   8590   8599   8601     1   109.5600471 388.275200
   8591   8590   8599     1   109.8000471 387.438400
   8591   8590   8592     1   107.5800459 329.699200
   8592   8590   8599     1   109.8000471 387.438400
   8593   8605   8606     1   109.5600471 388.275200
   8593   8605   8607     1   109.5600471 388.275200
   8594   8593   8605     1   109.8000471 387.438400
   8594   8593   8595     1   107.5800459 329.699200
   8595   8593   8605     1   109.8000471 387.438400
   8596   8602   8603     1   109.5600471 388.275200
   8596   8602   8604     1   109.5600471 388.275200
   8597   8596   8602     1   109.8000471 387.438400
   8597   8596   8598     1   107.5800459 329.699200
   8598   8596   8602     1   109.8000471 387.438400
   8600   8599   8608     1   109.7800468 425.094400
   8600   8599   8601     1   108.4600466 328.025600
   8601   8599   8608     1   109.7800468 425.094400
   8603   8602  15886     1   109.7800468 425.094400
   8603   8602   8604     1   108.4600466 328.025600
   8604   8602  15886     1   109.7800468 425.094400
   8606   8605  15909     1   109.7800468 425.094400
   8606   8605   8607     1   108.4600466 328.025600
   8607   8605  15909     1   109.7800468 425.094400
   8610   8611   8612     1   108.0100461 406.684800
   8610   8611   8613     1   108.0100461 406.684800
   8610   8614   8615     1   108.0100461 406.684800
   8610   8614   8616     1   108.0100461 406.684800
   8610   8617   8618     1   108.0100461 406.684800
   8610   8617   8619     1   108.0100461 406.684800
   8611   8610   8639     1   110.1100470 384.091200
   8611   8623   8624     1   109.8000471 387.438400
   8611   8623   8625     1   109.8000471 387.438400
   8612   8611   8623     1   110.5600475 386.601600
   8612   8611   8613     1   109.7500473 328.025600
   8613   8611   8623     1   110.5600475 386.601600
   8614   8610   8639     1   110.1100470 384.091200
   8614   8626   8627     1   109.8000471 387.438400
   8614   8626   8628     1   109.8000471 387.438400
   8615   8614   8626     1   110.5600475 386.601600
   8615   8614   8616     1   109.7500473 328.025600
   8616   8614   8626     1   110.5600475 386.601600
   8617   8610   8639     1   110.1100470 384.091200
   8617   8620   8621     1   109.8000471 387.438400
   8617   8620   8622     1   109.8000471 387.438400
   8618   8617   8620     1   110.5600475 386.601600
   8618   8617   8619     1   109.7500473 328.025600
   8619   8617   8620     1   110.5600475 386.601600
   8620   8629   8630     1   109.5600471 388.275200
   8620   8629   8631     1   109.5600471 388.275200
   8621   8620   8629     1   109.8000471 387.438400
   8621   8620   8622     1   107.5800459 329.699200
   8622   8620   8629     1   109.8000471 387.438400
   8623   8635   8636     1   109.5600471 388.275200
   8623   8635   8637     1   109.5600471 388.275200
   8624   8623   8635     1   109.8000471 387.438400
   8624   8623   8625     1   107.5800459 329.699200
   8625   8623   8635     1   109.8000471 387.438400
   8626   8632   8633     1   109.5600471 388.275200
   8626   8632   8634     1   109.5600471 388.275200
   8627   8626   8632     1   109.8000471 387.438400
   8627   8626   8628     1   107.5800459 329.699200
   8628   8626   8632     1   109.8000471 387.438400
   8630   8629   8638     1   109.7800468 425.094400
   8630   8629   8631     1   108.4600466 328.025600
   8631   8629   8638     1   109.7800468 425.094400
   8633   8632  15932     1   109.7800468 425.094400
   8633   8632   8634     1   108.4600466 328.025600
   8634   8632  15932     1   109.7800468 425.094400
   8636   8635  15955     1   109.7800468 425.094400
   8636   8635   8637     1   108.4600466 328.025600
   8637   8635  15955     1   109.7800468 425.094400
   8640   8641   8642     1   108.0100461 406.684800
   8640   8641   8643     1   108.0100461 406.684800
   8640   8644   8645     1   108.0100461 406.684800
   8640   8644   8646     1   108.0100461 406.684800
   8640   8647   8648     1   108.0100461 406.684800
   8640   8647   8649     1   108.0100461 406.684800
   8641   8640   8669     1   110.1100470 384.091200
   8641   8653   8654     1   109.8000471 387.438400
   8641   8653   8655     1   109.8000471 387.438400
   8642   8641   8653     1   110.5600475 386.601600
   8642   8641   8643     1   109.7500473 328.025600
   8643   8641   8653     1   110.5600475 386.601600
   8644   8640   8669     1   110.1100470 384.091200
   8644   8656   8657     1   109.8000471 387.438400
   8644   8656   8658     1   109.8000471 387.438400
   8645   8644   8656     1   110.5600475 386.601600
   8645   8644   8646     1   109.7500473 328.025600
   8646   8644   8656     1   110.5600475 386.601600
   8647   8640   8669     1   110.1100470 384.091200
   8647   8650   8651     1   109.8000471 387.438400
   8647   8650   8652     1   109.8000471 387.438400
   8648   8647   8650     1   110.5600475 386.601600
   8648   8647   8649     1   109.7500473 328.025600
   8649   8647   8650     1   110.5600475 386.601600
   8650   8659   8660     1   109.5600471 388.275200
   8650   8659   8661     1   109.5600471 388.275200
   8651   8650   8659     1   109.8000471 387.438400
   8651   8650   8652     1   107.5800459 329.699200
   8652   8650   8659     1   109.8000471 387.438400
   8653   8665   8666     1   109.5600471 388.275200
   8653   8665   8667     1   109.5600471 388.275200
   8654   8653   8665     1   109.8000471 387.438400
   8654   8653   8655     1   107.5800459 329.699200
   8655   8653   8665     1   109.8000471 387.438400
   8656   8662   8663     1   109.5600471 388.275200
   8656   8662   8664     1   109.5600471 388.275200
   8657   8656   8662     1   109.8000471 387.438400
   8657   8656   8658     1   107.5800459 329.699200
   8658   8656   8662     1   109.8000471 387.438400
   8660   8659   8668     1   109.7800468 425.094400
   8660   8659   8661     1   108.4600466 328.025600
   8661   8659   8668     1   109.7800468 425.094400
   8663   8662  15978     1   109.7800468 425.094400
   8663   8662   8664     1   108.4600466 328.025600
   8664   8662  15978     1   109.7800468 425.094400
   8666   8665  16001     1   109.7800468 425.094400
   8666   8665   8667     1   108.4600466 328.025600
   8667   8665  16001     1   109.7800468 425.094400
   8670   8671   8672     1   108.0100461 406.684800
   8670   8671   8673     1   108.0100461 406.684800
   8670   8674   8675     1   108.0100461 406.684800
   8670   8674   8676     1   108.0100461 406.684800
   8670   8677   8678     1   108.0100461 406.684800
   8670   8677   8679     1   108.0100461 406.684800
   8671   8670   8699     1   110.1100470 384.091200
   8671   8683   8684     1   109.8000471 387.438400
   8671   8683   8685     1   109.8000471 387.438400
   8672   8671   8683     1   110.5600475 386.601600
   8672   8671   8673     1   109.7500473 328.025600
   8673   8671   8683     1   110.5600475 386.601600
   8674   8670   8699     1   110.1100470 384.091200
   8674   8686   8687     1   109.8000471 387.438400
   8674   8686   8688     1   109.8000471 387.438400
   8675   8674   8686     1   110.5600475 386.601600
   8675   8674   8676     1   109.7500473 328.025600
   8676   8674   8686     1   110.5600475 386.601600
   8677   8670   8699     1   110.1100470 384.091200
   8677   8680   8681     1   109.8000471 387.438400
   8677   8680   8682     1   109.8000471 387.438400
   8678   8677   8680     1   110.5600475 386.601600
   8678   8677   8679     1   109.7500473 328.025600
   8679   8677   8680     1   110.5600475 386.601600
   8680   8689   8690     1   109.5600471 388.275200
   8680   8689   8691     1   109.5600471 388.275200
   8681   8680   8689     1   109.8000471 387.438400
   8681   8680   8682     1   107.5800459 329.699200
   8682   8680   8689     1   109.8000471 387.438400
   8683   8695   8696     1   109.5600471 388.275200
   8683   8695   8697     1   109.5600471 388.275200
   8684   8683   8695     1   109.8000471 387.438400
   8684   8683   8685     1   107.5800459 329.699200
   8685   8683   8695     1   109.8000471 387.438400
   8686   8692   8693     1   109.5600471 388.275200
   8686   8692   8694     1   109.5600471 388.275200
   8687   8686   8692     1   109.8000471 387.438400
   8687   8686   8688     1   107.5800459 329.699200
   8688   8686   8692     1   109.8000471 387.438400
   8690   8689   8698     1   109.7800468 425.094400
   8690   8689   8691     1   108.4600466 328.025600
   8691   8689   8698     1   109.7800468 425.094400
   8693   8692  16024     1   109.7800468 425.094400
   8693   8692   8694     1   108.4600466 328.025600
   8694   8692  16024     1   109.7800468 425.094400
   8696   8695  16047     1   109.7800468 425.094400
   8696   8695   8697     1   108.4600466 328.025600
   8697   8695  16047     1   109.7800468 425.094400
   8700   8701   8702     1   108.0100461 406.684800
   8700   8701   8703     1   108.0100461 406.684800
   8700   8704   8705     1   108.0100461 406.684800
   8700   8704   8706     1   108.0100461 406.684800
   8700   8707   8708     1   108.0100461 406.684800
   8700   8707   8709     1   108.0100461 406.684800
   8701   8700   8729     1   110.1100470 384.091200
   8701   8713   8714     1   109.8000471 387.438400
   8701   8713   8715     1   109.8000471 387.438400
   8702   8701   8713     1   110.5600475 386.601600
   8702   8701   8703     1   109.7500473 328.025600
   8703   8701   8713     1   110.5600475 386.601600
   8704   8700   8729     1   110.1100470 384.091200
   8704   8716   8717     1   109.8000471 387.438400
   8704   8716   8718     1   109.8000471 387.438400
   8705   8704   8716     1   110.5600475 386.601600
   8705   8704   8706     1   109.7500473 328.025600
   8706   8704   8716     1   110.5600475 386.601600
   8707   8700   8729     1   110.1100470 384.091200
   8707   8710   8711     1   109.8000471 387.438400
   8707   8710   8712     1   109.8000471 387.438400
   8708   8707   8710     1   110.5600475 386.601600
   8708   8707   8709     1   109.7500473 328.025600
   8709   8707   8710     1   110.5600475 386.601600
   8710   8719   8720     1   109.5600471 388.275200
   8710   8719   8721     1   109.5600471 388.275200
   8711   8710   8719     1   109.8000471 387.438400
   8711   8710   8712     1   107.5800459 329.699200
   8712   8710   8719     1   109.8000471 387.438400
   8713   8725   8726     1   109.5600471 388.275200
   8713   8725   8727     1   109.5600471 388.275200
   8714   8713   8725     1   109.8000471 387.438400
   8714   8713   8715     1   107.5800459 329.699200
   8715   8713   8725     1   109.8000471 387.438400
   8716   8722   8723     1   109.5600471 388.275200
   8716   8722   8724     1   109.5600471 388.275200
   8717   8716   8722     1   109.8000471 387.438400
   8717   8716   8718     1   107.5800459 329.699200
   8718   8716   8722     1   109.8000471 387.438400
   8720   8719   8728     1   109.7800468 425.094400
   8720   8719   8721     1   108.4600466 328.025600
   8721   8719   8728     1   109.7800468 425.094400
   8723   8722  16070     1   109.7800468 425.094400
   8723   8722   8724     1   108.4600466 328.025600
   8724   8722  16070     1   109.7800468 425.094400
   8726   8725  16093     1   109.7800468 425.094400
   8726   8725   8727     1   108.4600466 328.025600
   8727   8725  16093     1   109.7800468 425.094400
   8730   8731   8732     1   108.0100461 406.684800
   8730   8731   8733     1   108.0100461 406.684800
   8730   8734   8735     1   108.0100461 406.684800
   8730   8734   8736     1   108.0100461 406.684800
   8730   8737   8738     1   108.0100461 406.684800
   8730   8737   8739     1   108.0100461 406.684800
   8731   8730   8759     1   110.1100470 384.091200
   8731   8743   8744     1   109.8000471 387.438400
   8731   8743   8745     1   109.8000471 387.438400
   8732   8731   8743     1   110.5600475 386.601600
   8732   8731   8733     1   109.7500473 328.025600
   8733   8731   8743     1   110.5600475 386.601600
   8734   8730   8759     1   110.1100470 384.091200
   8734   8746   8747     1   109.8000471 387.438400
   8734   8746   8748     1   109.8000471 387.438400
   8735   8734   8746     1   110.5600475 386.601600
   8735   8734   8736     1   109.7500473 328.025600
   8736   8734   8746     1   110.5600475 386.601600
   8737   8730   8759     1   110.1100470 384.091200
   8737   8740   8741     1   109.8000471 387.438400
   8737   8740   8742     1   109.8000471 387.438400
   8738   8737   8740     1   110.5600475 386.601600
   8738   8737   8739     1   109.7500473 328.025600
   8739   8737   8740     1   110.5600475 386.601600
   8740   8749   8750     1   109.5600471 388.275200
   8740   8749   8751     1   109.5600471 388.275200
   8741   8740   8749     1   109.8000471 387.438400
   8741   8740   8742     1   107.5800459 329.699200
   8742   8740   8749     1   109.8000471 387.438400
   8743   8755   8756     1   109.5600471 388.275200
   8743   8755   8757     1   109.5600471 388.275200
   8744   8743   8755     1   109.8000471 387.438400
   8744   8743   8745     1   107.5800459 329.699200
   8745   8743   8755     1   109.8000471 387.438400
   8746   8752   8753     1   109.5600471 388.275200
   8746   8752   8754     1   109.5600471 388.275200
   8747   8746   8752     1   109.8000471 387.438400
   8747   8746   8748     1   107.5800459 329.699200
   8748   8746   8752     1   109.8000471 387.438400
   8750   8749   8758     1   109.7800468 425.094400
   8750   8749   8751     1   108.4600466 328.025600
   8751   8749   8758     1   109.7800468 425.094400
   8753   8752  16116     1   109.7800468 425.094400
   8753   8752   8754     1   108.4600466 328.025600
   8754   8752  16116     1   109.7800468 425.094400
   8756   8755  16139     1   109.7800468 425.094400
   8756   8755   8757     1   108.4600466 328.025600
   8757   8755  16139     1   109.7800468 425.094400
   8760   8761   8762     1   108.0100461 406.684800
   8760   8761   8763     1   108.0100461 406.684800
   8760   8764   8765     1   108.0100461 406.684800
   8760   8764   8766     1   108.0100461 406.684800
   8760   8767   8768     1   108.0100461 406.684800
   8760   8767   8769     1   108.0100461 406.684800
   8761   8760   8789     1   110.1100470 384.091200
   8761   8773   8774     1   109.8000471 387.438400
   8761   8773   8775     1   109.8000471 387.438400
   8762   8761   8773     1   110.5600475 386.601600
   8762   8761   8763     1   109.7500473 328.025600
   8763   8761   8773     1   110.5600475 386.601600
   8764   8760   8789     1   110.1100470 384.091200
   8764   8776   8777     1   109.8000471 387.438400
   8764   8776   8778     1   109.8000471 387.438400
   8765   8764   8776     1   110.5600475 386.601600
   8765   8764   8766     1   109.7500473 328.025600
   8766   8764   8776     1   110.5600475 386.601600
   8767   8760   8789     1   110.1100470 384.091200
   8767   8770   8771     1   109.8000471 387.438400
   8767   8770   8772     1   109.8000471 387.438400
   8768   8767   8770     1   110.5600475 386.601600
   8768   8767   8769     1   109.7500473 328.025600
   8769   8767   8770     1   110.5600475 386.601600
   8770   8779   8780     1   109.5600471 388.275200
   8770   8779   8781     1   109.5600471 388.275200
   8771   8770   8779     1   109.8000471 387.438400
   8771   8770   8772     1   107.5800459 329.699200
   8772   8770   8779     1   109.8000471 387.438400
   8773   8785   8786     1   109.5600471 388.275200
   8773   8785   8787     1   109.5600471 388.275200
   8774   8773   8785     1   109.8000471 387.438400
   8774   8773   8775     1   107.5800459 329.699200
   8775   8773   8785     1   109.8000471 387.438400
   8776   8782   8783     1   109.5600471 388.275200
   8776   8782   8784     1   109.5600471 388.275200
   8777   8776   8782     1   109.8000471 387.438400
   8777   8776   8778     1   107.5800459 329.699200
   8778   8776   8782     1   109.8000471 387.438400
   8780   8779   8788     1   109.7800468 425.094400
   8780   8779   8781     1   108.4600466 328.025600
   8781   8779   8788     1   109.7800468 425.094400
   8783   8782  16162     1   109.7800468 425.094400
   8783   8782   8784     1   108.4600466 328.025600
   8784   8782  16162     1   109.7800468 425.094400
   8786   8785  16185     1   109.7800468 425.094400
   8786   8785   8787     1   108.4600466 328.025600
   8787   8785  16185     1   109.7800468 425.094400
   8790   8791   8792     1   108.0100461 406.684800
   8790   8791   8793     1   108.0100461 406.684800
   8790   8794   8795     1   108.0100461 406.684800
   8790   8794   8796     1   108.0100461 406.684800
   8790   8797   8798     1   108.0100461 406.684800
   8790   8797   8799     1   108.0100461 406.684800
   8791   8790   8819     1   110.1100470 384.091200
   8791   8803   8804     1   109.8000471 387.438400
   8791   8803   8805     1   109.8000471 387.438400
   8792   8791   8803     1   110.5600475 386.601600
   8792   8791   8793     1   109.7500473 328.025600
   8793   8791   8803     1   110.5600475 386.601600
   8794   8790   8819     1   110.1100470 384.091200
   8794   8806   8807     1   109.8000471 387.438400
   8794   8806   8808     1   109.8000471 387.438400
   8795   8794   8806     1   110.5600475 386.601600
   8795   8794   8796     1   109.7500473 328.025600
   8796   8794   8806     1   110.5600475 386.601600
   8797   8790   8819     1   110.1100470 384.091200
   8797   8800   8801     1   109.8000471 387.438400
   8797   8800   8802     1   109.8000471 387.438400
   8798   8797   8800     1   110.5600475 386.601600
   8798   8797   8799     1   109.7500473 328.025600
   8799   8797   8800     1   110.5600475 386.601600
   8800   8809   8810     1   109.5600471 388.275200
   8800   8809   8811     1   109.5600471 388.275200
   8801   8800   8809     1   109.8000471 387.438400
   8801   8800   8802     1   107.5800459 329.699200
   8802   8800   8809     1   109.8000471 387.438400
   8803   8815   8816     1   109.5600471 388.275200
   8803   8815   8817     1   109.5600471 388.275200
   8804   8803   8815     1   109.8000471 387.438400
   8804   8803   8805     1   107.5800459 329.699200
   8805   8803   8815     1   109.8000471 387.438400
   8806   8812   8813     1   109.5600471 388.275200
   8806   8812   8814     1   109.5600471 388.275200
   8807   8806   8812     1   109.8000471 387.438400
   8807   8806   8808     1   107.5800459 329.699200
   8808   8806   8812     1   109.8000471 387.438400
   8810   8809   8818     1   109.7800468 425.094400
   8810   8809   8811     1   108.4600466 328.025600
   8811   8809   8818     1   109.7800468 425.094400
   8813   8812  16208     1   109.7800468 425.094400
   8813   8812   8814     1   108.4600466 328.025600
   8814   8812  16208     1   109.7800468 425.094400
   8816   8815  16231     1   109.7800468 425.094400
   8816   8815   8817     1   108.4600466 328.025600
   8817   8815  16231     1   109.7800468 425.094400
   8820   8821   8822     1   108.0100461 406.684800
   8820   8821   8823     1   108.0100461 406.684800
   8820   8824   8825     1   108.0100461 406.684800
   8820   8824   8826     1   108.0100461 406.684800
   8820   8827   8828     1   108.0100461 406.684800
   8820   8827   8829     1   108.0100461 406.684800
   8821   8820   8849     1   110.1100470 384.091200
   8821   8833   8834     1   109.8000471 387.438400
   8821   8833   8835     1   109.8000471 387.438400
   8822   8821   8833     1   110.5600475 386.601600
   8822   8821   8823     1   109.7500473 328.025600
   8823   8821   8833     1   110.5600475 386.601600
   8824   8820   8849     1   110.1100470 384.091200
   8824   8836   8837     1   109.8000471 387.438400
   8824   8836   8838     1   109.8000471 387.438400
   8825   8824   8836     1   110.5600475 386.601600
   8825   8824   8826     1   109.7500473 328.025600
   8826   8824   8836     1   110.5600475 386.601600
   8827   8820   8849     1   110.1100470 384.091200
   8827   8830   8831     1   109.8000471 387.438400
   8827   8830   8832     1   109.8000471 387.438400
   8828   8827   8830     1   110.5600475 386.601600
   8828   8827   8829     1   109.7500473 328.025600
   8829   8827   8830     1   110.5600475 386.601600
   8830   8839   8840     1   109.5600471 388.275200
   8830   8839   8841     1   109.5600471 388.275200
   8831   8830   8839     1   109.8000471 387.438400
   8831   8830   8832     1   107.5800459 329.699200
   8832   8830   8839     1   109.8000471 387.438400
   8833   8845   8846     1   109.5600471 388.275200
   8833   8845   8847     1   109.5600471 388.275200
   8834   8833   8845     1   109.8000471 387.438400
   8834   8833   8835     1   107.5800459 329.699200
   8835   8833   8845     1   109.8000471 387.438400
   8836   8842   8843     1   109.5600471 388.275200
   8836   8842   8844     1   109.5600471 388.275200
   8837   8836   8842     1   109.8000471 387.438400
   8837   8836   8838     1   107.5800459 329.699200
   8838   8836   8842     1   109.8000471 387.438400
   8840   8839   8848     1   109.7800468 425.094400
   8840   8839   8841     1   108.4600466 328.025600
   8841   8839   8848     1   109.7800468 425.094400
   8843   8842  16254     1   109.7800468 425.094400
   8843   8842   8844     1   108.4600466 328.025600
   8844   8842  16254     1   109.7800468 425.094400
   8846   8845  16277     1   109.7800468 425.094400
   8846   8845   8847     1   108.4600466 328.025600
   8847   8845  16277     1   109.7800468 425.094400
   8850   8851   8852     1   108.0100461 406.684800
   8850   8851   8853     1   108.0100461 406.684800
   8850   8854   8855     1   108.0100461 406.684800
   8850   8854   8856     1   108.0100461 406.684800
   8850   8857   8858     1   108.0100461 406.684800
   8850   8857   8859     1   108.0100461 406.684800
   8851   8850   8879     1   110.1100470 384.091200
   8851   8863   8864     1   109.8000471 387.438400
   8851   8863   8865     1   109.8000471 387.438400
   8852   8851   8863     1   110.5600475 386.601600
   8852   8851   8853     1   109.7500473 328.025600
   8853   8851   8863     1   110.5600475 386.601600
   8854   8850   8879     1   110.1100470 384.091200
   8854   8866   8867     1   109.8000471 387.438400
   8854   8866   8868     1   109.8000471 387.438400
   8855   8854   8866     1   110.5600475 386.601600
   8855   8854   8856     1   109.7500473 328.025600
   8856   8854   8866     1   110.5600475 386.601600
   8857   8850   8879     1   110.1100470 384.091200
   8857   8860   8861     1   109.8000471 387.438400
   8857   8860   8862     1   109.8000471 387.438400
   8858   8857   8860     1   110.5600475 386.601600
   8858   8857   8859     1   109.7500473 328.025600
   8859   8857   8860     1   110.5600475 386.601600
   8860   8869   8870     1   109.5600471 388.275200
   8860   8869   8871     1   109.5600471 388.275200
   8861   8860   8869     1   109.8000471 387.438400
   8861   8860   8862     1   107.5800459 329.699200
   8862   8860   8869     1   109.8000471 387.438400
   8863   8875   8876     1   109.5600471 388.275200
   8863   8875   8877     1   109.5600471 388.275200
   8864   8863   8875     1   109.8000471 387.438400
   8864   8863   8865     1   107.5800459 329.699200
   8865   8863   8875     1   109.8000471 387.438400
   8866   8872   8873     1   109.5600471 388.275200
   8866   8872   8874     1   109.5600471 388.275200
   8867   8866   8872     1   109.8000471 387.438400
   8867   8866   8868     1   107.5800459 329.699200
   8868   8866   8872     1   109.8000471 387.438400
   8870   8869   8878     1   109.7800468 425.094400
   8870   8869   8871     1   108.4600466 328.025600
   8871   8869   8878     1   109.7800468 425.094400
   8873   8872  16300     1   109.7800468 425.094400
   8873   8872   8874     1   108.4600466 328.025600
   8874   8872  16300     1   109.7800468 425.094400
   8876   8875  16323     1   109.7800468 425.094400
   8876   8875   8877     1   108.4600466 328.025600
   8877   8875  16323     1   109.7800468 425.094400
   8880   8881   8882     1   108.0100461 406.684800
   8880   8881   8883     1   108.0100461 406.684800
   8880   8884   8885     1   108.0100461 406.684800
   8880   8884   8886     1   108.0100461 406.684800
   8880   8887   8888     1   108.0100461 406.684800
   8880   8887   8889     1   108.0100461 406.684800
   8881   8880   8909     1   110.1100470 384.091200
   8881   8893   8894     1   109.8000471 387.438400
   8881   8893   8895     1   109.8000471 387.438400
   8882   8881   8893     1   110.5600475 386.601600
   8882   8881   8883     1   109.7500473 328.025600
   8883   8881   8893     1   110.5600475 386.601600
   8884   8880   8909     1   110.1100470 384.091200
   8884   8896   8897     1   109.8000471 387.438400
   8884   8896   8898     1   109.8000471 387.438400
   8885   8884   8896     1   110.5600475 386.601600
   8885   8884   8886     1   109.7500473 328.025600
   8886   8884   8896     1   110.5600475 386.601600
   8887   8880   8909     1   110.1100470 384.091200
   8887   8890   8891     1   109.8000471 387.438400
   8887   8890   8892     1   109.8000471 387.438400
   8888   8887   8890     1   110.5600475 386.601600
   8888   8887   8889     1   109.7500473 328.025600
   8889   8887   8890     1   110.5600475 386.601600
   8890   8899   8900     1   109.5600471 388.275200
   8890   8899   8901     1   109.5600471 388.275200
   8891   8890   8899     1   109.8000471 387.438400
   8891   8890   8892     1   107.5800459 329.699200
   8892   8890   8899     1   109.8000471 387.438400
   8893   8905   8906     1   109.5600471 388.275200
   8893   8905   8907     1   109.5600471 388.275200
   8894   8893   8905     1   109.8000471 387.438400
   8894   8893   8895     1   107.5800459 329.699200
   8895   8893   8905     1   109.8000471 387.438400
   8896   8902   8903     1   109.5600471 388.275200
   8896   8902   8904     1   109.5600471 388.275200
   8897   8896   8902     1   109.8000471 387.438400
   8897   8896   8898     1   107.5800459 329.699200
   8898   8896   8902     1   109.8000471 387.438400
   8900   8899   8908     1   109.7800468 425.094400
   8900   8899   8901     1   108.4600466 328.025600
   8901   8899   8908     1   109.7800468 425.094400
   8903   8902  16346     1   109.7800468 425.094400
   8903   8902   8904     1   108.4600466 328.025600
   8904   8902  16346     1   109.7800468 425.094400
   8906   8905  16369     1   109.7800468 425.094400
   8906   8905   8907     1   108.4600466 328.025600
   8907   8905  16369     1   109.7800468 425.094400
   8910   8911   8912     1   108.0100461 406.684800
   8910   8911   8913     1   108.0100461 406.684800
   8910   8914   8915     1   108.0100461 406.684800
   8910   8914   8916     1   108.0100461 406.684800
   8910   8917   8918     1   108.0100461 406.684800
   8910   8917   8919     1   108.0100461 406.684800
   8911   8910   8939     1   110.1100470 384.091200
   8911   8923   8924     1   109.8000471 387.438400
   8911   8923   8925     1   109.8000471 387.438400
   8912   8911   8923     1   110.5600475 386.601600
   8912   8911   8913     1   109.7500473 328.025600
   8913   8911   8923     1   110.5600475 386.601600
   8914   8910   8939     1   110.1100470 384.091200
   8914   8926   8927     1   109.8000471 387.438400
   8914   8926   8928     1   109.8000471 387.438400
   8915   8914   8926     1   110.5600475 386.601600
   8915   8914   8916     1   109.7500473 328.025600
   8916   8914   8926     1   110.5600475 386.601600
   8917   8910   8939     1   110.1100470 384.091200
   8917   8920   8921     1   109.8000471 387.438400
   8917   8920   8922     1   109.8000471 387.438400
   8918   8917   8920     1   110.5600475 386.601600
   8918   8917   8919     1   109.7500473 328.025600
   8919   8917   8920     1   110.5600475 386.601600
   8920   8929   8930     1   109.5600471 388.275200
   8920   8929   8931     1   109.5600471 388.275200
   8921   8920   8929     1   109.8000471 387.438400
   8921   8920   8922     1   107.5800459 329.699200
   8922   8920   8929     1   109.8000471 387.438400
   8923   8935   8936     1   109.5600471 388.275200
   8923   8935   8937     1   109.5600471 388.275200
   8924   8923   8935     1   109.8000471 387.438400
   8924   8923   8925     1   107.5800459 329.699200
   8925   8923   8935     1   109.8000471 387.438400
   8926   8932   8933     1   109.5600471 388.275200
   8926   8932   8934     1   109.5600471 388.275200
   8927   8926   8932     1   109.8000471 387.438400
   8927   8926   8928     1   107.5800459 329.699200
   8928   8926   8932     1   109.8000471 387.438400
   8930   8929   8938     1   109.7800468 425.094400
   8930   8929   8931     1   108.4600466 328.025600
   8931   8929   8938     1   109.7800468 425.094400
   8933   8932  16392     1   109.7800468 425.094400
   8933   8932   8934     1   108.4600466 328.025600
   8934   8932  16392     1   109.7800468 425.094400
   8936   8935  16415     1   109.7800468 425.094400
   8936   8935   8937     1   108.4600466 328.025600
   8937   8935  16415     1   109.7800468 425.094400
   8940   8941   8942     1   108.0100461 406.684800
   8940   8941   8943     1   108.0100461 406.684800
   8940   8944   8945     1   108.0100461 406.684800
   8940   8944   8946     1   108.0100461 406.684800
   8940   8947   8948     1   108.0100461 406.684800
   8940   8947   8949     1   108.0100461 406.684800
   8941   8940   8969     1   110.1100470 384.091200
   8941   8953   8954     1   109.8000471 387.438400
   8941   8953   8955     1   109.8000471 387.438400
   8942   8941   8953     1   110.5600475 386.601600
   8942   8941   8943     1   109.7500473 328.025600
   8943   8941   8953     1   110.5600475 386.601600
   8944   8940   8969     1   110.1100470 384.091200
   8944   8956   8957     1   109.8000471 387.438400
   8944   8956   8958     1   109.8000471 387.438400
   8945   8944   8956     1   110.5600475 386.601600
   8945   8944   8946     1   109.7500473 328.025600
   8946   8944   8956     1   110.5600475 386.601600
   8947   8940   8969     1   110.1100470 384.091200
   8947   8950   8951     1   109.8000471 387.438400
   8947   8950   8952     1   109.8000471 387.438400
   8948   8947   8950     1   110.5600475 386.601600
   8948   8947   8949     1   109.7500473 328.025600
   8949   8947   8950     1   110.5600475 386.601600
   8950   8959   8960     1   109.5600471 388.275200
   8950   8959   8961     1   109.5600471 388.275200
   8951   8950   8959     1   109.8000471 387.438400
   8951   8950   8952     1   107.5800459 329.699200
   8952   8950   8959     1   109.8000471 387.438400
   8953   8965   8966     1   109.5600471 388.275200
   8953   8965   8967     1   109.5600471 388.275200
   8954   8953   8965     1   109.8000471 387.438400
   8954   8953   8955     1   107.5800459 329.699200
   8955   8953   8965     1   109.8000471 387.438400
   8956   8962   8963     1   109.5600471 388.275200
   8956   8962   8964     1   109.5600471 388.275200
   8957   8956   8962     1   109.8000471 387.438400
   8957   8956   8958     1   107.5800459 329.699200
   8958   8956   8962     1   109.8000471 387.438400
   8960   8959   8968     1   109.7800468 425.094400
   8960   8959   8961     1   108.4600466 328.025600
   8961   8959   8968     1   109.7800468 425.094400
   8963   8962  16438     1   109.7800468 425.094400
   8963   8962   8964     1   108.4600466 328.025600
   8964   8962  16438     1   109.7800468 425.094400
   8966   8965  16461     1   109.7800468 425.094400
   8966   8965   8967     1   108.4600466 328.025600
   8967   8965  16461     1   109.7800468 425.094400
   8970   8971   8972     1   108.0100461 406.684800
   8970   8971   8973     1   108.0100461 406.684800
   8970   8974   8975     1   108.0100461 406.684800
   8970   8974   8976     1   108.0100461 406.684800
   8970   8977   8978     1   108.0100461 406.684800
   8970   8977   8979     1   108.0100461 406.684800
   8971   8970   8999     1   110.1100470 384.091200
   8971   8983   8984     1   109.8000471 387.438400
   8971   8983   8985     1   109.8000471 387.438400
   8972   8971   8983     1   110.5600475 386.601600
   8972   8971   8973     1   109.7500473 328.025600
   8973   8971   8983     1   110.5600475 386.601600
   8974   8970   8999     1   110.1100470 384.091200
   8974   8986   8987     1   109.8000471 387.438400
   8974   8986   8988     1   109.8000471 387.438400
   8975   8974   8986     1   110.5600475 386.601600
   8975   8974   8976     1   109.7500473 328.025600
   8976   8974   8986     1   110.5600475 386.601600
   8977   8970   8999     1   110.1100470 384.091200
   8977   8980   8981     1   109.8000471 387.438400
   8977   8980   8982     1   109.8000471 387.438400
   8978   8977   8980     1   110.5600475 386.601600
   8978   8977   8979     1   109.7500473 328.025600
   8979   8977   8980     1   110.5600475 386.601600
   8980   8989   8990     1   109.5600471 388.275200
   8980   8989   8991     1   109.5600471 388.275200
   8981   8980   8989     1   109.8000471 387.438400
   8981   8980   8982     1   107.5800459 329.699200
   8982   8980   8989     1   109.8000471 387.438400
   8983   8995   8996     1   109.5600471 388.275200
   8983   8995   8997     1   109.5600471 388.275200
   8984   8983   8995     1   109.8000471 387.438400
   8984   8983   8985     1   107.5800459 329.699200
   8985   8983   8995     1   109.8000471 387.438400
   8986   8992   8993     1   109.5600471 388.275200
   8986   8992   8994     1   109.5600471 388.275200
   8987   8986   8992     1   109.8000471 387.438400
   8987   8986   8988     1   107.5800459 329.699200
   8988   8986   8992     1   109.8000471 387.438400
   8990   8989   8998     1   109.7800468 425.094400
   8990   8989   8991     1   108.4600466 328.025600
   8991   8989   8998     1   109.7800468 425.094400
   8993   8992  16484     1   109.7800468 425.094400
   8993   8992   8994     1   108.4600466 328.025600
   8994   8992  16484     1   109.7800468 425.094400
   8996   8995  16507     1   109.7800468 425.094400
   8996   8995   8997     1   108.4600466 328.025600
   8997   8995  16507     1   109.7800468 425.094400
   9000   9001   9002     1   108.0100461 406.684800
   9000   9001   9003     1   108.0100461 406.684800
   9000   9004   9005     1   108.0100461 406.684800
   9000   9004   9006     1   108.0100461 406.684800
   9000   9007   9008     1   108.0100461 406.684800
   9000   9007   9009     1   108.0100461 406.684800
   9001   9000   9029     1   110.1100470 384.091200
   9001   9013   9014     1   109.8000471 387.438400
   9001   9013   9015     1   109.8000471 387.438400
   9002   9001   9013     1   110.5600475 386.601600
   9002   9001   9003     1   109.7500473 328.025600
   9003   9001   9013     1   110.5600475 386.601600
   9004   9000   9029     1   110.1100470 384.091200
   9004   9016   9017     1   109.8000471 387.438400
   9004   9016   9018     1   109.8000471 387.438400
   9005   9004   9016     1   110.5600475 386.601600
   9005   9004   9006     1   109.7500473 328.025600
   9006   9004   9016     1   110.5600475 386.601600
   9007   9000   9029     1   110.1100470 384.091200
   9007   9010   9011     1   109.8000471 387.438400
   9007   9010   9012     1   109.8000471 387.438400
   9008   9007   9010     1   110.5600475 386.601600
   9008   9007   9009     1   109.7500473 328.025600
   9009   9007   9010     1   110.5600475 386.601600
   9010   9019   9020     1   109.5600471 388.275200
   9010   9019   9021     1   109.5600471 388.275200
   9011   9010   9019     1   109.8000471 387.438400
   9011   9010   9012     1   107.5800459 329.699200
   9012   9010   9019     1   109.8000471 387.438400
   9013   9025   9026     1   109.5600471 388.275200
   9013   9025   9027     1   109.5600471 388.275200
   9014   9013   9025     1   109.8000471 387.438400
   9014   9013   9015     1   107.5800459 329.699200
   9015   9013   9025     1   109.8000471 387.438400
   9016   9022   9023     1   109.5600471 388.275200
   9016   9022   9024     1   109.5600471 388.275200
   9017   9016   9022     1   109.8000471 387.438400
   9017   9016   9018     1   107.5800459 329.699200
   9018   9016   9022     1   109.8000471 387.438400
   9020   9019   9028     1   109.7800468 425.094400
   9020   9019   9021     1   108.4600466 328.025600
   9021   9019   9028     1   109.7800468 425.094400
   9023   9022  16530     1   109.7800468 425.094400
   9023   9022   9024     1   108.4600466 328.025600
   9024   9022  16530     1   109.7800468 425.094400
   9026   9025  16553     1   109.7800468 425.094400
   9026   9025   9027     1   108.4600466 328.025600
   9027   9025  16553     1   109.7800468 425.094400
   9030   9031   9032     1   108.0100461 406.684800
   9030   9031   9033     1   108.0100461 406.684800
   9030   9034   9035     1   108.0100461 406.684800
   9030   9034   9036     1   108.0100461 406.684800
   9030   9037   9038     1   108.0100461 406.684800
   9030   9037   9039     1   108.0100461 406.684800
   9031   9030   9059     1   110.1100470 384.091200
   9031   9043   9044     1   109.8000471 387.438400
   9031   9043   9045     1   109.8000471 387.438400
   9032   9031   9043     1   110.5600475 386.601600
   9032   9031   9033     1   109.7500473 328.025600
   9033   9031   9043     1   110.5600475 386.601600
   9034   9030   9059     1   110.1100470 384.091200
   9034   9046   9047     1   109.8000471 387.438400
   9034   9046   9048     1   109.8000471 387.438400
   9035   9034   9046     1   110.5600475 386.601600
   9035   9034   9036     1   109.7500473 328.025600
   9036   9034   9046     1   110.5600475 386.601600
   9037   9030   9059     1   110.1100470 384.091200
   9037   9040   9041     1   109.8000471 387.438400
   9037   9040   9042     1   109.8000471 387.438400
   9038   9037   9040     1   110.5600475 386.601600
   9038   9037   9039     1   109.7500473 328.025600
   9039   9037   9040     1   110.5600475 386.601600
   9040   9049   9050     1   109.5600471 388.275200
   9040   9049   9051     1   109.5600471 388.275200
   9041   9040   9049     1   109.8000471 387.438400
   9041   9040   9042     1   107.5800459 329.699200
   9042   9040   9049     1   109.8000471 387.438400
   9043   9055   9056     1   109.5600471 388.275200
   9043   9055   9057     1   109.5600471 388.275200
   9044   9043   9055     1   109.8000471 387.438400
   9044   9043   9045     1   107.5800459 329.699200
   9045   9043   9055     1   109.8000471 387.438400
   9046   9052   9053     1   109.5600471 388.275200
   9046   9052   9054     1   109.5600471 388.275200
   9047   9046   9052     1   109.8000471 387.438400
   9047   9046   9048     1   107.5800459 329.699200
   9048   9046   9052     1   109.8000471 387.438400
   9050   9049   9058     1   109.7800468 425.094400
   9050   9049   9051     1   108.4600466 328.025600
   9051   9049   9058     1   109.7800468 425.094400
   9053   9052  16576     1   109.7800468 425.094400
   9053   9052   9054     1   108.4600466 328.025600
   9054   9052  16576     1   109.7800468 425.094400
   9056   9055  16599     1   109.7800468 425.094400
   9056   9055   9057     1   108.4600466 328.025600
   9057   9055  16599     1   109.7800468 425.094400
   9060   9061   9062     1   108.0100461 406.684800
   9060   9061   9063     1   108.0100461 406.684800
   9060   9064   9065     1   108.0100461 406.684800
   9060   9064   9066     1   108.0100461 406.684800
   9060   9067   9068     1   108.0100461 406.684800
   9060   9067   9069     1   108.0100461 406.684800
   9061   9060   9089     1   110.1100470 384.091200
   9061   9073   9074     1   109.8000471 387.438400
   9061   9073   9075     1   109.8000471 387.438400
   9062   9061   9073     1   110.5600475 386.601600
   9062   9061   9063     1   109.7500473 328.025600
   9063   9061   9073     1   110.5600475 386.601600
   9064   9060   9089     1   110.1100470 384.091200
   9064   9076   9077     1   109.8000471 387.438400
   9064   9076   9078     1   109.8000471 387.438400
   9065   9064   9076     1   110.5600475 386.601600
   9065   9064   9066     1   109.7500473 328.025600
   9066   9064   9076     1   110.5600475 386.601600
   9067   9060   9089     1   110.1100470 384.091200
   9067   9070   9071     1   109.8000471 387.438400
   9067   9070   9072     1   109.8000471 387.438400
   9068   9067   9070     1   110.5600475 386.601600
   9068   9067   9069     1   109.7500473 328.025600
   9069   9067   9070     1   110.5600475 386.601600
   9070   9079   9080     1   109.5600471 388.275200
   9070   9079   9081     1   109.5600471 388.275200
   9071   9070   9079     1   109.8000471 387.438400
   9071   9070   9072     1   107.5800459 329.699200
   9072   9070   9079     1   109.8000471 387.438400
   9073   9085   9086     1   109.5600471 388.275200
   9073   9085   9087     1   109.5600471 388.275200
   9074   9073   9085     1   109.8000471 387.438400
   9074   9073   9075     1   107.5800459 329.699200
   9075   9073   9085     1   109.8000471 387.438400
   9076   9082   9083     1   109.5600471 388.275200
   9076   9082   9084     1   109.5600471 388.275200
   9077   9076   9082     1   109.8000471 387.438400
   9077   9076   9078     1   107.5800459 329.699200
   9078   9076   9082     1   109.8000471 387.438400
   9080   9079   9088     1   109.7800468 425.094400
   9080   9079   9081     1   108.4600466 328.025600
   9081   9079   9088     1   109.7800468 425.094400
   9083   9082  16622     1   109.7800468 425.094400
   9083   9082   9084     1   108.4600466 328.025600
   9084   9082  16622     1   109.7800468 425.094400
   9086   9085  16645     1   109.7800468 425.094400
   9086   9085   9087     1   108.4600466 328.025600
   9087   9085  16645     1   109.7800468 425.094400
   9090   9091   9092     1   108.0100461 406.684800
   9090   9091   9093     1   108.0100461 406.684800
   9090   9094   9095     1   108.0100461 406.684800
   9090   9094   9096     1   108.0100461 406.684800
   9090   9097   9098     1   108.0100461 406.684800
   9090   9097   9099     1   108.0100461 406.684800
   9091   9090   9119     1   110.1100470 384.091200
   9091   9103   9104     1   109.8000471 387.438400
   9091   9103   9105     1   109.8000471 387.438400
   9092   9091   9103     1   110.5600475 386.601600
   9092   9091   9093     1   109.7500473 328.025600
   9093   9091   9103     1   110.5600475 386.601600
   9094   9090   9119     1   110.1100470 384.091200
   9094   9106   9107     1   109.8000471 387.438400
   9094   9106   9108     1   109.8000471 387.438400
   9095   9094   9106     1   110.5600475 386.601600
   9095   9094   9096     1   109.7500473 328.025600
   9096   9094   9106     1   110.5600475 386.601600
   9097   9090   9119     1   110.1100470 384.091200
   9097   9100   9101     1   109.8000471 387.438400
   9097   9100   9102     1   109.8000471 387.438400
   9098   9097   9100     1   110.5600475 386.601600
   9098   9097   9099     1   109.7500473 328.025600
   9099   9097   9100     1   110.5600475 386.601600
   9100   9109   9110     1   109.5600471 388.275200
   9100   9109   9111     1   109.5600471 388.275200
   9101   9100   9109     1   109.8000471 387.438400
   9101   9100   9102     1   107.5800459 329.699200
   9102   9100   9109     1   109.8000471 387.438400
   9103   9115   9116     1   109.5600471 388.275200
   9103   9115   9117     1   109.5600471 388.275200
   9104   9103   9115     1   109.8000471 387.438400
   9104   9103   9105     1   107.5800459 329.699200
   9105   9103   9115     1   109.8000471 387.438400
   9106   9112   9113     1   109.5600471 388.275200
   9106   9112   9114     1   109.5600471 388.275200
   9107   9106   9112     1   109.8000471 387.438400
   9107   9106   9108     1   107.5800459 329.699200
   9108   9106   9112     1   109.8000471 387.438400
   9110   9109   9118     1   109.7800468 425.094400
   9110   9109   9111     1   108.4600466 328.025600
   9111   9109   9118     1   109.7800468 425.094400
   9113   9112  16668     1   109.7800468 425.094400
   9113   9112   9114     1   108.4600466 328.025600
   9114   9112  16668     1   109.7800468 425.094400
   9116   9115  16691     1   109.7800468 425.094400
   9116   9115   9117     1   108.4600466 328.025600
   9117   9115  16691     1   109.7800468 425.094400
   9120   9121   9122     1   108.0100461 406.684800
   9120   9121   9123     1   108.0100461 406.684800
   9120   9124   9125     1   108.0100461 406.684800
   9120   9124   9126     1   108.0100461 406.684800
   9120   9127   9128     1   108.0100461 406.684800
   9120   9127   9129     1   108.0100461 406.684800
   9121   9120   9149     1   110.1100470 384.091200
   9121   9133   9134     1   109.8000471 387.438400
   9121   9133   9135     1   109.8000471 387.438400
   9122   9121   9133     1   110.5600475 386.601600
   9122   9121   9123     1   109.7500473 328.025600
   9123   9121   9133     1   110.5600475 386.601600
   9124   9120   9149     1   110.1100470 384.091200
   9124   9136   9137     1   109.8000471 387.438400
   9124   9136   9138     1   109.8000471 387.438400
   9125   9124   9136     1   110.5600475 386.601600
   9125   9124   9126     1   109.7500473 328.025600
   9126   9124   9136     1   110.5600475 386.601600
   9127   9120   9149     1   110.1100470 384.091200
   9127   9130   9131     1   109.8000471 387.438400
   9127   9130   9132     1   109.8000471 387.438400
   9128   9127   9130     1   110.5600475 386.601600
   9128   9127   9129     1   109.7500473 328.025600
   9129   9127   9130     1   110.5600475 386.601600
   9130   9139   9140     1   109.5600471 388.275200
   9130   9139   9141     1   109.5600471 388.275200
   9131   9130   9139     1   109.8000471 387.438400
   9131   9130   9132     1   107.5800459 329.699200
   9132   9130   9139     1   109.8000471 387.438400
   9133   9145   9146     1   109.5600471 388.275200
   9133   9145   9147     1   109.5600471 388.275200
   9134   9133   9145     1   109.8000471 387.438400
   9134   9133   9135     1   107.5800459 329.699200
   9135   9133   9145     1   109.8000471 387.438400
   9136   9142   9143     1   109.5600471 388.275200
   9136   9142   9144     1   109.5600471 388.275200
   9137   9136   9142     1   109.8000471 387.438400
   9137   9136   9138     1   107.5800459 329.699200
   9138   9136   9142     1   109.8000471 387.438400
   9140   9139   9148     1   109.7800468 425.094400
   9140   9139   9141     1   108.4600466 328.025600
   9141   9139   9148     1   109.7800468 425.094400
   9143   9142  16714     1   109.7800468 425.094400
   9143   9142   9144     1   108.4600466 328.025600
   9144   9142  16714     1   109.7800468 425.094400
   9146   9145  16737     1   109.7800468 425.094400
   9146   9145   9147     1   108.4600466 328.025600
   9147   9145  16737     1   109.7800468 425.094400
   9150   9151   9152     1   108.0100461 406.684800
   9150   9151   9153     1   108.0100461 406.684800
   9150   9154   9155     1   108.0100461 406.684800
   9150   9154   9156     1   108.0100461 406.684800
   9150   9157   9158     1   108.0100461 406.684800
   9150   9157   9159     1   108.0100461 406.684800
   9151   9150   9179     1   110.1100470 384.091200
   9151   9163   9164     1   109.8000471 387.438400
   9151   9163   9165     1   109.8000471 387.438400
   9152   9151   9163     1   110.5600475 386.601600
   9152   9151   9153     1   109.7500473 328.025600
   9153   9151   9163     1   110.5600475 386.601600
   9154   9150   9179     1   110.1100470 384.091200
   9154   9166   9167     1   109.8000471 387.438400
   9154   9166   9168     1   109.8000471 387.438400
   9155   9154   9166     1   110.5600475 386.601600
   9155   9154   9156     1   109.7500473 328.025600
   9156   9154   9166     1   110.5600475 386.601600
   9157   9150   9179     1   110.1100470 384.091200
   9157   9160   9161     1   109.8000471 387.438400
   9157   9160   9162     1   109.8000471 387.438400
   9158   9157   9160     1   110.5600475 386.601600
   9158   9157   9159     1   109.7500473 328.025600
   9159   9157   9160     1   110.5600475 386.601600
   9160   9169   9170     1   109.5600471 388.275200
   9160   9169   9171     1   109.5600471 388.275200
   9161   9160   9169     1   109.8000471 387.438400
   9161   9160   9162     1   107.5800459 329.699200
   9162   9160   9169     1   109.8000471 387.438400
   9163   9175   9176     1   109.5600471 388.275200
   9163   9175   9177     1   109.5600471 388.275200
   9164   9163   9175     1   109.8000471 387.438400
   9164   9163   9165     1   107.5800459 329.699200
   9165   9163   9175     1   109.8000471 387.438400
   9166   9172   9173     1   109.5600471 388.275200
   9166   9172   9174     1   109.5600471 388.275200
   9167   9166   9172     1   109.8000471 387.438400
   9167   9166   9168     1   107.5800459 329.699200
   9168   9166   9172     1   109.8000471 387.438400
   9170   9169   9178     1   109.7800468 425.094400
   9170   9169   9171     1   108.4600466 328.025600
   9171   9169   9178     1   109.7800468 425.094400
   9173   9172  16760     1   109.7800468 425.094400
   9173   9172   9174     1   108.4600466 328.025600
   9174   9172  16760     1   109.7800468 425.094400
   9176   9175  16783     1   109.7800468 425.094400
   9176   9175   9177     1   108.4600466 328.025600
   9177   9175  16783     1   109.7800468 425.094400
   9180   9181   9182     1   108.0100461 406.684800
   9180   9181   9183     1   108.0100461 406.684800
   9180   9184   9185     1   108.0100461 406.684800
   9180   9184   9186     1   108.0100461 406.684800
   9180   9187   9188     1   108.0100461 406.684800
   9180   9187   9189     1   108.0100461 406.684800
   9181   9180   9209     1   110.1100470 384.091200
   9181   9193   9194     1   109.8000471 387.438400
   9181   9193   9195     1   109.8000471 387.438400
   9182   9181   9193     1   110.5600475 386.601600
   9182   9181   9183     1   109.7500473 328.025600
   9183   9181   9193     1   110.5600475 386.601600
   9184   9180   9209     1   110.1100470 384.091200
   9184   9196   9197     1   109.8000471 387.438400
   9184   9196   9198     1   109.8000471 387.438400
   9185   9184   9196     1   110.5600475 386.601600
   9185   9184   9186     1   109.7500473 328.025600
   9186   9184   9196     1   110.5600475 386.601600
   9187   9180   9209     1   110.1100470 384.091200
   9187   9190   9191     1   109.8000471 387.438400
   9187   9190   9192     1   109.8000471 387.438400
   9188   9187   9190     1   110.5600475 386.601600
   9188   9187   9189     1   109.7500473 328.025600
   9189   9187   9190     1   110.5600475 386.601600
   9190   9199   9200     1   109.5600471 388.275200
   9190   9199   9201     1   109.5600471 388.275200
   9191   9190   9199     1   109.8000471 387.438400
   9191   9190   9192     1   107.5800459 329.699200
   9192   9190   9199     1   109.8000471 387.438400
   9193   9205   9206     1   109.5600471 388.275200
   9193   9205   9207     1   109.5600471 388.275200
   9194   9193   9205     1   109.8000471 387.438400
   9194   9193   9195     1   107.5800459 329.699200
   9195   9193   9205     1   109.8000471 387.438400
   9196   9202   9203     1   109.5600471 388.275200
   9196   9202   9204     1   109.5600471 388.275200
   9197   9196   9202     1   109.8000471 387.438400
   9197   9196   9198     1   107.5800459 329.699200
   9198   9196   9202     1   109.8000471 387.438400
   9200   9199   9208     1   109.7800468 425.094400
   9200   9199   9201     1   108.4600466 328.025600
   9201   9199   9208     1   109.7800468 425.094400
   9203   9202  16806     1   109.7800468 425.094400
   9203   9202   9204     1   108.4600466 328.025600
   9204   9202  16806     1   109.7800468 425.094400
   9206   9205  16829     1   109.7800468 425.094400
   9206   9205   9207     1   108.4600466 328.025600
   9207   9205  16829     1   109.7800468 425.094400
   9210   9211   9212     1   108.0100461 406.684800
   9210   9211   9213     1   108.0100461 406.684800
   9210   9214   9215     1   108.0100461 406.684800
   9210   9214   9216     1   108.0100461 406.684800
   9210   9217   9218     1   108.0100461 406.684800
   9210   9217   9219     1   108.0100461 406.684800
   9211   9210   9239     1   110.1100470 384.091200
   9211   9223   9224     1   109.8000471 387.438400
   9211   9223   9225     1   109.8000471 387.438400
   9212   9211   9223     1   110.5600475 386.601600
   9212   9211   9213     1   109.7500473 328.025600
   9213   9211   9223     1   110.5600475 386.601600
   9214   9210   9239     1   110.1100470 384.091200
   9214   9226   9227     1   109.8000471 387.438400
   9214   9226   9228     1   109.8000471 387.438400
   9215   9214   9226     1   110.5600475 386.601600
   9215   9214   9216     1   109.7500473 328.025600
   9216   9214   9226     1   110.5600475 386.601600
   9217   9210   9239     1   110.1100470 384.091200
   9217   9220   9221     1   109.8000471 387.438400
   9217   9220   9222     1   109.8000471 387.438400
   9218   9217   9220     1   110.5600475 386.601600
   9218   9217   9219     1   109.7500473 328.025600
   9219   9217   9220     1   110.5600475 386.601600
   9220   9229   9230     1   109.5600471 388.275200
   9220   9229   9231     1   109.5600471 388.275200
   9221   9220   9229     1   109.8000471 387.438400
   9221   9220   9222     1   107.5800459 329.699200
   9222   9220   9229     1   109.8000471 387.438400
   9223   9235   9236     1   109.5600471 388.275200
   9223   9235   9237     1   109.5600471 388.275200
   9224   9223   9235     1   109.8000471 387.438400
   9224   9223   9225     1   107.5800459 329.699200
   9225   9223   9235     1   109.8000471 387.438400
   9226   9232   9233     1   109.5600471 388.275200
   9226   9232   9234     1   109.5600471 388.275200
   9227   9226   9232     1   109.8000471 387.438400
   9227   9226   9228     1   107.5800459 329.699200
   9228   9226   9232     1   109.8000471 387.438400
   9230   9229   9238     1   109.7800468 425.094400
   9230   9229   9231     1   108.4600466 328.025600
   9231   9229   9238     1   109.7800468 425.094400
   9233   9232  16852     1   109.7800468 425.094400
   9233   9232   9234     1   108.4600466 328.025600
   9234   9232  16852     1   109.7800468 425.094400
   9236   9235  16875     1   109.7800468 425.094400
   9236   9235   9237     1   108.4600466 328.025600
   9237   9235  16875     1   109.7800468 425.094400
   9240   9241   9242     1   108.0100461 406.684800
   9240   9241   9243     1   108.0100461 406.684800
   9240   9244   9245     1   108.0100461 406.684800
   9240   9244   9246     1   108.0100461 406.684800
   9240   9247   9248     1   108.0100461 406.684800
   9240   9247   9249     1   108.0100461 406.684800
   9241   9240   9269     1   110.1100470 384.091200
   9241   9253   9254     1   109.8000471 387.438400
   9241   9253   9255     1   109.8000471 387.438400
   9242   9241   9253     1   110.5600475 386.601600
   9242   9241   9243     1   109.7500473 328.025600
   9243   9241   9253     1   110.5600475 386.601600
   9244   9240   9269     1   110.1100470 384.091200
   9244   9256   9257     1   109.8000471 387.438400
   9244   9256   9258     1   109.8000471 387.438400
   9245   9244   9256     1   110.5600475 386.601600
   9245   9244   9246     1   109.7500473 328.025600
   9246   9244   9256     1   110.5600475 386.601600
   9247   9240   9269     1   110.1100470 384.091200
   9247   9250   9251     1   109.8000471 387.438400
   9247   9250   9252     1   109.8000471 387.438400
   9248   9247   9250     1   110.5600475 386.601600
   9248   9247   9249     1   109.7500473 328.025600
   9249   9247   9250     1   110.5600475 386.601600
   9250   9259   9260     1   109.5600471 388.275200
   9250   9259   9261     1   109.5600471 388.275200
   9251   9250   9259     1   109.8000471 387.438400
   9251   9250   9252     1   107.5800459 329.699200
   9252   9250   9259     1   109.8000471 387.438400
   9253   9265   9266     1   109.5600471 388.275200
   9253   9265   9267     1   109.5600471 388.275200
   9254   9253   9265     1   109.8000471 387.438400
   9254   9253   9255     1   107.5800459 329.699200
   9255   9253   9265     1   109.8000471 387.438400
   9256   9262   9263     1   109.5600471 388.275200
   9256   9262   9264     1   109.5600471 388.275200
   9257   9256   9262     1   109.8000471 387.438400
   9257   9256   9258     1   107.5800459 329.699200
   9258   9256   9262     1   109.8000471 387.438400
   9260   9259   9268     1   109.7800468 425.094400
   9260   9259   9261     1   108.4600466 328.025600
   9261   9259   9268     1   109.7800468 425.094400
   9263   9262  16898     1   109.7800468 425.094400
   9263   9262   9264     1   108.4600466 328.025600
   9264   9262  16898     1   109.7800468 425.094400
   9266   9265  16921     1   109.7800468 425.094400
   9266   9265   9267     1   108.4600466 328.025600
   9267   9265  16921     1   109.7800468 425.094400
   9270   9271   9272     1   108.0100461 406.684800
   9270   9271   9273     1   108.0100461 406.684800
   9270   9274   9275     1   108.0100461 406.684800
   9270   9274   9276     1   108.0100461 406.684800
   9270   9277   9278     1   108.0100461 406.684800
   9270   9277   9279     1   108.0100461 406.684800
   9271   9270   9299     1   110.1100470 384.091200
   9271   9283   9284     1   109.8000471 387.438400
   9271   9283   9285     1   109.8000471 387.438400
   9272   9271   9283     1   110.5600475 386.601600
   9272   9271   9273     1   109.7500473 328.025600
   9273   9271   9283     1   110.5600475 386.601600
   9274   9270   9299     1   110.1100470 384.091200
   9274   9286   9287     1   109.8000471 387.438400
   9274   9286   9288     1   109.8000471 387.438400
   9275   9274   9286     1   110.5600475 386.601600
   9275   9274   9276     1   109.7500473 328.025600
   9276   9274   9286     1   110.5600475 386.601600
   9277   9270   9299     1   110.1100470 384.091200
   9277   9280   9281     1   109.8000471 387.438400
   9277   9280   9282     1   109.8000471 387.438400
   9278   9277   9280     1   110.5600475 386.601600
   9278   9277   9279     1   109.7500473 328.025600
   9279   9277   9280     1   110.5600475 386.601600
   9280   9289   9290     1   109.5600471 388.275200
   9280   9289   9291     1   109.5600471 388.275200
   9281   9280   9289     1   109.8000471 387.438400
   9281   9280   9282     1   107.5800459 329.699200
   9282   9280   9289     1   109.8000471 387.438400
   9283   9295   9296     1   109.5600471 388.275200
   9283   9295   9297     1   109.5600471 388.275200
   9284   9283   9295     1   109.8000471 387.438400
   9284   9283   9285     1   107.5800459 329.699200
   9285   9283   9295     1   109.8000471 387.438400
   9286   9292   9293     1   109.5600471 388.275200
   9286   9292   9294     1   109.5600471 388.275200
   9287   9286   9292     1   109.8000471 387.438400
   9287   9286   9288     1   107.5800459 329.699200
   9288   9286   9292     1   109.8000471 387.438400
   9290   9289   9298     1   109.7800468 425.094400
   9290   9289   9291     1   108.4600466 328.025600
   9291   9289   9298     1   109.7800468 425.094400
   9293   9292  16944     1   109.7800468 425.094400
   9293   9292   9294     1   108.4600466 328.025600
   9294   9292  16944     1   109.7800468 425.094400
   9296   9295  16967     1   109.7800468 425.094400
   9296   9295   9297     1   108.4600466 328.025600
   9297   9295  16967     1   109.7800468 425.094400
   9300   9301   9302     1   108.0100461 406.684800
   9300   9301   9303     1   108.0100461 406.684800
   9300   9304   9305     1   108.0100461 406.684800
   9300   9304   9306     1   108.0100461 406.684800
   9300   9307   9308     1   108.0100461 406.684800
   9300   9307   9309     1   108.0100461 406.684800
   9301   9300   9329     1   110.1100470 384.091200
   9301   9313   9314     1   109.8000471 387.438400
   9301   9313   9315     1   109.8000471 387.438400
   9302   9301   9313     1   110.5600475 386.601600
   9302   9301   9303     1   109.7500473 328.025600
   9303   9301   9313     1   110.5600475 386.601600
   9304   9300   9329     1   110.1100470 384.091200
   9304   9316   9317     1   109.8000471 387.438400
   9304   9316   9318     1   109.8000471 387.438400
   9305   9304   9316     1   110.5600475 386.601600
   9305   9304   9306     1   109.7500473 328.025600
   9306   9304   9316     1   110.5600475 386.601600
   9307   9300   9329     1   110.1100470 384.091200
   9307   9310   9311     1   109.8000471 387.438400
   9307   9310   9312     1   109.8000471 387.438400
   9308   9307   9310     1   110.5600475 386.601600
   9308   9307   9309     1   109.7500473 328.025600
   9309   9307   9310     1   110.5600475 386.601600
   9310   9319   9320     1   109.5600471 388.275200
   9310   9319   9321     1   109.5600471 388.275200
   9311   9310   9319     1   109.8000471 387.438400
   9311   9310   9312     1   107.5800459 329.699200
   9312   9310   9319     1   109.8000471 387.438400
   9313   9325   9326     1   109.5600471 388.275200
   9313   9325   9327     1   109.5600471 388.275200
   9314   9313   9325     1   109.8000471 387.438400
   9314   9313   9315     1   107.5800459 329.699200
   9315   9313   9325     1   109.8000471 387.438400
   9316   9322   9323     1   109.5600471 388.275200
   9316   9322   9324     1   109.5600471 388.275200
   9317   9316   9322     1   109.8000471 387.438400
   9317   9316   9318     1   107.5800459 329.699200
   9318   9316   9322     1   109.8000471 387.438400
   9320   9319   9328     1   109.7800468 425.094400
   9320   9319   9321     1   108.4600466 328.025600
   9321   9319   9328     1   109.7800468 425.094400
   9323   9322  16990     1   109.7800468 425.094400
   9323   9322   9324     1   108.4600466 328.025600
   9324   9322  16990     1   109.7800468 425.094400
   9326   9325  17013     1   109.7800468 425.094400
   9326   9325   9327     1   108.4600466 328.025600
   9327   9325  17013     1   109.7800468 425.094400
   9330   9331   9332     1   108.0100461 406.684800
   9330   9331   9333     1   108.0100461 406.684800
   9330   9334   9335     1   108.0100461 406.684800
   9330   9334   9336     1   108.0100461 406.684800
   9330   9337   9338     1   108.0100461 406.684800
   9330   9337   9339     1   108.0100461 406.684800
   9331   9330   9359     1   110.1100470 384.091200
   9331   9343   9344     1   109.8000471 387.438400
   9331   9343   9345     1   109.8000471 387.438400
   9332   9331   9343     1   110.5600475 386.601600
   9332   9331   9333     1   109.7500473 328.025600
   9333   9331   9343     1   110.5600475 386.601600
   9334   9330   9359     1   110.1100470 384.091200
   9334   9346   9347     1   109.8000471 387.438400
   9334   9346   9348     1   109.8000471 387.438400
   9335   9334   9346     1   110.5600475 386.601600
   9335   9334   9336     1   109.7500473 328.025600
   9336   9334   9346     1   110.5600475 386.601600
   9337   9330   9359     1   110.1100470 384.091200
   9337   9340   9341     1   109.8000471 387.438400
   9337   9340   9342     1   109.8000471 387.438400
   9338   9337   9340     1   110.5600475 386.601600
   9338   9337   9339     1   109.7500473 328.025600
   9339   9337   9340     1   110.5600475 386.601600
   9340   9349   9350     1   109.5600471 388.275200
   9340   9349   9351     1   109.5600471 388.275200
   9341   9340   9349     1   109.8000471 387.438400
   9341   9340   9342     1   107.5800459 329.699200
   9342   9340   9349     1   109.8000471 387.438400
   9343   9355   9356     1   109.5600471 388.275200
   9343   9355   9357     1   109.5600471 388.275200
   9344   9343   9355     1   109.8000471 387.438400
   9344   9343   9345     1   107.5800459 329.699200
   9345   9343   9355     1   109.8000471 387.438400
   9346   9352   9353     1   109.5600471 388.275200
   9346   9352   9354     1   109.5600471 388.275200
   9347   9346   9352     1   109.8000471 387.438400
   9347   9346   9348     1   107.5800459 329.699200
   9348   9346   9352     1   109.8000471 387.438400
   9350   9349   9358     1   109.7800468 425.094400
   9350   9349   9351     1   108.4600466 328.025600
   9351   9349   9358     1   109.7800468 425.094400
   9353   9352  17036     1   109.7800468 425.094400
   9353   9352   9354     1   108.4600466 328.025600
   9354   9352  17036     1   109.7800468 425.094400
   9356   9355  17059     1   109.7800468 425.094400
   9356   9355   9357     1   108.4600466 328.025600
   9357   9355  17059     1   109.7800468 425.094400
   9360   9361   9362     1   108.0100461 406.684800
   9360   9361   9363     1   108.0100461 406.684800
   9360   9364   9365     1   108.0100461 406.684800
   9360   9364   9366     1   108.0100461 406.684800
   9360   9367   9368     1   108.0100461 406.684800
   9360   9367   9369     1   108.0100461 406.684800
   9361   9360   9389     1   110.1100470 384.091200
   9361   9373   9374     1   109.8000471 387.438400
   9361   9373   9375     1   109.8000471 387.438400
   9362   9361   9373     1   110.5600475 386.601600
   9362   9361   9363     1   109.7500473 328.025600
   9363   9361   9373     1   110.5600475 386.601600
   9364   9360   9389     1   110.1100470 384.091200
   9364   9376   9377     1   109.8000471 387.438400
   9364   9376   9378     1   109.8000471 387.438400
   9365   9364   9376     1   110.5600475 386.601600
   9365   9364   9366     1   109.7500473 328.025600
   9366   9364   9376     1   110.5600475 386.601600
   9367   9360   9389     1   110.1100470 384.091200
   9367   9370   9371     1   109.8000471 387.438400
   9367   9370   9372     1   109.8000471 387.438400
   9368   9367   9370     1   110.5600475 386.601600
   9368   9367   9369     1   109.7500473 328.025600
   9369   9367   9370     1   110.5600475 386.601600
   9370   9379   9380     1   109.5600471 388.275200
   9370   9379   9381     1   109.5600471 388.275200
   9371   9370   9379     1   109.8000471 387.438400
   9371   9370   9372     1   107.5800459 329.699200
   9372   9370   9379     1   109.8000471 387.438400
   9373   9385   9386     1   109.5600471 388.275200
   9373   9385   9387     1   109.5600471 388.275200
   9374   9373   9385     1   109.8000471 387.438400
   9374   9373   9375     1   107.5800459 329.699200
   9375   9373   9385     1   109.8000471 387.438400
   9376   9382   9383     1   109.5600471 388.275200
   9376   9382   9384     1   109.5600471 388.275200
   9377   9376   9382     1   109.8000471 387.438400
   9377   9376   9378     1   107.5800459 329.699200
   9378   9376   9382     1   109.8000471 387.438400
   9380   9379   9388     1   109.7800468 425.094400
   9380   9379   9381     1   108.4600466 328.025600
   9381   9379   9388     1   109.7800468 425.094400
   9383   9382  17082     1   109.7800468 425.094400
   9383   9382   9384     1   108.4600466 328.025600
   9384   9382  17082     1   109.7800468 425.094400
   9386   9385  17105     1   109.7800468 425.094400
   9386   9385   9387     1   108.4600466 328.025600
   9387   9385  17105     1   109.7800468 425.094400
   9390   9391   9392     1   108.0100461 406.684800
   9390   9391   9393     1   108.0100461 406.684800
   9390   9394   9395     1   108.0100461 406.684800
   9390   9394   9396     1   108.0100461 406.684800
   9390   9397   9398     1   108.0100461 406.684800
   9390   9397   9399     1   108.0100461 406.684800
   9391   9390   9419     1   110.1100470 384.091200
   9391   9403   9404     1   109.8000471 387.438400
   9391   9403   9405     1   109.8000471 387.438400
   9392   9391   9403     1   110.5600475 386.601600
   9392   9391   9393     1   109.7500473 328.025600
   9393   9391   9403     1   110.5600475 386.601600
   9394   9390   9419     1   110.1100470 384.091200
   9394   9406   9407     1   109.8000471 387.438400
   9394   9406   9408     1   109.8000471 387.438400
   9395   9394   9406     1   110.5600475 386.601600
   9395   9394   9396     1   109.7500473 328.025600
   9396   9394   9406     1   110.5600475 386.601600
   9397   9390   9419     1   110.1100470 384.091200
   9397   9400   9401     1   109.8000471 387.438400
   9397   9400   9402     1   109.8000471 387.438400
   9398   9397   9400     1   110.5600475 386.601600
   9398   9397   9399     1   109.7500473 328.025600
   9399   9397   9400     1   110.5600475 386.601600
   9400   9409   9410     1   109.5600471 388.275200
   9400   9409   9411     1   109.5600471 388.275200
   9401   9400   9409     1   109.8000471 387.438400
   9401   9400   9402     1   107.5800459 329.699200
   9402   9400   9409     1   109.8000471 387.438400
   9403   9415   9416     1   109.5600471 388.275200
   9403   9415   9417     1   109.5600471 388.275200
   9404   9403   9415     1   109.8000471 387.438400
   9404   9403   9405     1   107.5800459 329.699200
   9405   9403   9415     1   109.8000471 387.438400
   9406   9412   9413     1   109.5600471 388.275200
   9406   9412   9414     1   109.5600471 388.275200
   9407   9406   9412     1   109.8000471 387.438400
   9407   9406   9408     1   107.5800459 329.699200
   9408   9406   9412     1   109.8000471 387.438400
   9410   9409   9418     1   109.7800468 425.094400
   9410   9409   9411     1   108.4600466 328.025600
   9411   9409   9418     1   109.7800468 425.094400
   9413   9412  17128     1   109.7800468 425.094400
   9413   9412   9414     1   108.4600466 328.025600
   9414   9412  17128     1   109.7800468 425.094400
   9416   9415  17151     1   109.7800468 425.094400
   9416   9415   9417     1   108.4600466 328.025600
   9417   9415  17151     1   109.7800468 425.094400
   9420   9421   9422     1   108.0100461 406.684800
   9420   9421   9423     1   108.0100461 406.684800
   9420   9424   9425     1   108.0100461 406.684800
   9420   9424   9426     1   108.0100461 406.684800
   9420   9427   9428     1   108.0100461 406.684800
   9420   9427   9429     1   108.0100461 406.684800
   9421   9420   9449     1   110.1100470 384.091200
   9421   9433   9434     1   109.8000471 387.438400
   9421   9433   9435     1   109.8000471 387.438400
   9422   9421   9433     1   110.5600475 386.601600
   9422   9421   9423     1   109.7500473 328.025600
   9423   9421   9433     1   110.5600475 386.601600
   9424   9420   9449     1   110.1100470 384.091200
   9424   9436   9437     1   109.8000471 387.438400
   9424   9436   9438     1   109.8000471 387.438400
   9425   9424   9436     1   110.5600475 386.601600
   9425   9424   9426     1   109.7500473 328.025600
   9426   9424   9436     1   110.5600475 386.601600
   9427   9420   9449     1   110.1100470 384.091200
   9427   9430   9431     1   109.8000471 387.438400
   9427   9430   9432     1   109.8000471 387.438400
   9428   9427   9430     1   110.5600475 386.601600
   9428   9427   9429     1   109.7500473 328.025600
   9429   9427   9430     1   110.5600475 386.601600
   9430   9439   9440     1   109.5600471 388.275200
   9430   9439   9441     1   109.5600471 388.275200
   9431   9430   9439     1   109.8000471 387.438400
   9431   9430   9432     1   107.5800459 329.699200
   9432   9430   9439     1   109.8000471 387.438400
   9433   9445   9446     1   109.5600471 388.275200
   9433   9445   9447     1   109.5600471 388.275200
   9434   9433   9445     1   109.8000471 387.438400
   9434   9433   9435     1   107.5800459 329.699200
   9435   9433   9445     1   109.8000471 387.438400
   9436   9442   9443     1   109.5600471 388.275200
   9436   9442   9444     1   109.5600471 388.275200
   9437   9436   9442     1   109.8000471 387.438400
   9437   9436   9438     1   107.5800459 329.699200
   9438   9436   9442     1   109.8000471 387.438400
   9440   9439   9448     1   109.7800468 425.094400
   9440   9439   9441     1   108.4600466 328.025600
   9441   9439   9448     1   109.7800468 425.094400
   9443   9442  17174     1   109.7800468 425.094400
   9443   9442   9444     1   108.4600466 328.025600
   9444   9442  17174     1   109.7800468 425.094400
   9446   9445  17197     1   109.7800468 425.094400
   9446   9445   9447     1   108.4600466 328.025600
   9447   9445  17197     1   109.7800468 425.094400
   9450   9451   9452     1   108.0100461 406.684800
   9450   9451   9453     1   108.0100461 406.684800
   9450   9454   9455     1   108.0100461 406.684800
   9450   9454   9456     1   108.0100461 406.684800
   9450   9457   9458     1   108.0100461 406.684800
   9450   9457   9459     1   108.0100461 406.684800
   9451   9450   9479     1   110.1100470 384.091200
   9451   9463   9464     1   109.8000471 387.438400
   9451   9463   9465     1   109.8000471 387.438400
   9452   9451   9463     1   110.5600475 386.601600
   9452   9451   9453     1   109.7500473 328.025600
   9453   9451   9463     1   110.5600475 386.601600
   9454   9450   9479     1   110.1100470 384.091200
   9454   9466   9467     1   109.8000471 387.438400
   9454   9466   9468     1   109.8000471 387.438400
   9455   9454   9466     1   110.5600475 386.601600
   9455   9454   9456     1   109.7500473 328.025600
   9456   9454   9466     1   110.5600475 386.601600
   9457   9450   9479     1   110.1100470 384.091200
   9457   9460   9461     1   109.8000471 387.438400
   9457   9460   9462     1   109.8000471 387.438400
   9458   9457   9460     1   110.5600475 386.601600
   9458   9457   9459     1   109.7500473 328.025600
   9459   9457   9460     1   110.5600475 386.601600
   9460   9469   9470     1   109.5600471 388.275200
   9460   9469   9471     1   109.5600471 388.275200
   9461   9460   9469     1   109.8000471 387.438400
   9461   9460   9462     1   107.5800459 329.699200
   9462   9460   9469     1   109.8000471 387.438400
   9463   9475   9476     1   109.5600471 388.275200
   9463   9475   9477     1   109.5600471 388.275200
   9464   9463   9475     1   109.8000471 387.438400
   9464   9463   9465     1   107.5800459 329.699200
   9465   9463   9475     1   109.8000471 387.438400
   9466   9472   9473     1   109.5600471 388.275200
   9466   9472   9474     1   109.5600471 388.275200
   9467   9466   9472     1   109.8000471 387.438400
   9467   9466   9468     1   107.5800459 329.699200
   9468   9466   9472     1   109.8000471 387.438400
   9470   9469   9478     1   109.7800468 425.094400
   9470   9469   9471     1   108.4600466 328.025600
   9471   9469   9478     1   109.7800468 425.094400
   9473   9472  17220     1   109.7800468 425.094400
   9473   9472   9474     1   108.4600466 328.025600
   9474   9472  17220     1   109.7800468 425.094400
   9476   9475  17243     1   109.7800468 425.094400
   9476   9475   9477     1   108.4600466 328.025600
   9477   9475  17243     1   109.7800468 425.094400
   9480   9481   9482     1   108.0100461 406.684800
   9480   9481   9483     1   108.0100461 406.684800
   9480   9484   9485     1   108.0100461 406.684800
   9480   9484   9486     1   108.0100461 406.684800
   9480   9487   9488     1   108.0100461 406.684800
   9480   9487   9489     1   108.0100461 406.684800
   9481   9480   9509     1   110.1100470 384.091200
   9481   9493   9494     1   109.8000471 387.438400
   9481   9493   9495     1   109.8000471 387.438400
   9482   9481   9493     1   110.5600475 386.601600
   9482   9481   9483     1   109.7500473 328.025600
   9483   9481   9493     1   110.5600475 386.601600
   9484   9480   9509     1   110.1100470 384.091200
   9484   9496   9497     1   109.8000471 387.438400
   9484   9496   9498     1   109.8000471 387.438400
   9485   9484   9496     1   110.5600475 386.601600
   9485   9484   9486     1   109.7500473 328.025600
   9486   9484   9496     1   110.5600475 386.601600
   9487   9480   9509     1   110.1100470 384.091200
   9487   9490   9491     1   109.8000471 387.438400
   9487   9490   9492     1   109.8000471 387.438400
   9488   9487   9490     1   110.5600475 386.601600
   9488   9487   9489     1   109.7500473 328.025600
   9489   9487   9490     1   110.5600475 386.601600
   9490   9499   9500     1   109.5600471 388.275200
   9490   9499   9501     1   109.5600471 388.275200
   9491   9490   9499     1   109.8000471 387.438400
   9491   9490   9492     1   107.5800459 329.699200
   9492   9490   9499     1   109.8000471 387.438400
   9493   9505   9506     1   109.5600471 388.275200
   9493   9505   9507     1   109.5600471 388.275200
   9494   9493   9505     1   109.8000471 387.438400
   9494   9493   9495     1   107.5800459 329.699200
   9495   9493   9505     1   109.8000471 387.438400
   9496   9502   9503     1   109.5600471 388.275200
   9496   9502   9504     1   109.5600471 388.275200
   9497   9496   9502     1   109.8000471 387.438400
   9497   9496   9498     1   107.5800459 329.699200
   9498   9496   9502     1   109.8000471 387.438400
   9500   9499   9508     1   109.7800468 425.094400
   9500   9499   9501     1   108.4600466 328.025600
   9501   9499   9508     1   109.7800468 425.094400
   9503   9502  17266     1   109.7800468 425.094400
   9503   9502   9504     1   108.4600466 328.025600
   9504   9502  17266     1   109.7800468 425.094400
   9506   9505  17289     1   109.7800468 425.094400
   9506   9505   9507     1   108.4600466 328.025600
   9507   9505  17289     1   109.7800468 425.094400
   9510   9511   9512     1   108.0100461 406.684800
   9510   9511   9513     1   108.0100461 406.684800
   9510   9514   9515     1   108.0100461 406.684800
   9510   9514   9516     1   108.0100461 406.684800
   9510   9517   9518     1   108.0100461 406.684800
   9510   9517   9519     1   108.0100461 406.684800
   9511   9510   9539     1   110.1100470 384.091200
   9511   9523   9524     1   109.8000471 387.438400
   9511   9523   9525     1   109.8000471 387.438400
   9512   9511   9523     1   110.5600475 386.601600
   9512   9511   9513     1   109.7500473 328.025600
   9513   9511   9523     1   110.5600475 386.601600
   9514   9510   9539     1   110.1100470 384.091200
   9514   9526   9527     1   109.8000471 387.438400
   9514   9526   9528     1   109.8000471 387.438400
   9515   9514   9526     1   110.5600475 386.601600
   9515   9514   9516     1   109.7500473 328.025600
   9516   9514   9526     1   110.5600475 386.601600
   9517   9510   9539     1   110.1100470 384.091200
   9517   9520   9521     1   109.8000471 387.438400
   9517   9520   9522     1   109.8000471 387.438400
   9518   9517   9520     1   110.5600475 386.601600
   9518   9517   9519     1   109.7500473 328.025600
   9519   9517   9520     1   110.5600475 386.601600
   9520   9529   9530     1   109.5600471 388.275200
   9520   9529   9531     1   109.5600471 388.275200
   9521   9520   9529     1   109.8000471 387.438400
   9521   9520   9522     1   107.5800459 329.699200
   9522   9520   9529     1   109.8000471 387.438400
   9523   9535   9536     1   109.5600471 388.275200
   9523   9535   9537     1   109.5600471 388.275200
   9524   9523   9535     1   109.8000471 387.438400
   9524   9523   9525     1   107.5800459 329.699200
   9525   9523   9535     1   109.8000471 387.438400
   9526   9532   9533     1   109.5600471 388.275200
   9526   9532   9534     1   109.5600471 388.275200
   9527   9526   9532     1   109.8000471 387.438400
   9527   9526   9528     1   107.5800459 329.699200
   9528   9526   9532     1   109.8000471 387.438400
   9530   9529   9538     1   109.7800468 425.094400
   9530   9529   9531     1   108.4600466 328.025600
   9531   9529   9538     1   109.7800468 425.094400
   9533   9532  17312     1   109.7800468 425.094400
   9533   9532   9534     1   108.4600466 328.025600
   9534   9532  17312     1   109.7800468 425.094400
   9536   9535  17335     1   109.7800468 425.094400
   9536   9535   9537     1   108.4600466 328.025600
   9537   9535  17335     1   109.7800468 425.094400
   9540   9541   9542     1   108.0100461 406.684800
   9540   9541   9543     1   108.0100461 406.684800
   9540   9544   9545     1   108.0100461 406.684800
   9540   9544   9546     1   108.0100461 406.684800
   9540   9547   9548     1   108.0100461 406.684800
   9540   9547   9549     1   108.0100461 406.684800
   9541   9540   9569     1   110.1100470 384.091200
   9541   9553   9554     1   109.8000471 387.438400
   9541   9553   9555     1   109.8000471 387.438400
   9542   9541   9553     1   110.5600475 386.601600
   9542   9541   9543     1   109.7500473 328.025600
   9543   9541   9553     1   110.5600475 386.601600
   9544   9540   9569     1   110.1100470 384.091200
   9544   9556   9557     1   109.8000471 387.438400
   9544   9556   9558     1   109.8000471 387.438400
   9545   9544   9556     1   110.5600475 386.601600
   9545   9544   9546     1   109.7500473 328.025600
   9546   9544   9556     1   110.5600475 386.601600
   9547   9540   9569     1   110.1100470 384.091200
   9547   9550   9551     1   109.8000471 387.438400
   9547   9550   9552     1   109.8000471 387.438400
   9548   9547   9550     1   110.5600475 386.601600
   9548   9547   9549     1   109.7500473 328.025600
   9549   9547   9550     1   110.5600475 386.601600
   9550   9559   9560     1   109.5600471 388.275200
   9550   9559   9561     1   109.5600471 388.275200
   9551   9550   9559     1   109.8000471 387.438400
   9551   9550   9552     1   107.5800459 329.699200
   9552   9550   9559     1   109.8000471 387.438400
   9553   9565   9566     1   109.5600471 388.275200
   9553   9565   9567     1   109.5600471 388.275200
   9554   9553   9565     1   109.8000471 387.438400
   9554   9553   9555     1   107.5800459 329.699200
   9555   9553   9565     1   109.8000471 387.438400
   9556   9562   9563     1   109.5600471 388.275200
   9556   9562   9564     1   109.5600471 388.275200
   9557   9556   9562     1   109.8000471 387.438400
   9557   9556   9558     1   107.5800459 329.699200
   9558   9556   9562     1   109.8000471 387.438400
   9560   9559   9568     1   109.7800468 425.094400
   9560   9559   9561     1   108.4600466 328.025600
   9561   9559   9568     1   109.7800468 425.094400
   9563   9562  17358     1   109.7800468 425.094400
   9563   9562   9564     1   108.4600466 328.025600
   9564   9562  17358     1   109.7800468 425.094400
   9566   9565  17381     1   109.7800468 425.094400
   9566   9565   9567     1   108.4600466 328.025600
   9567   9565  17381     1   109.7800468 425.094400
   9570   9571   9572     1   108.0100461 406.684800
   9570   9571   9573     1   108.0100461 406.684800
   9570   9574   9575     1   108.0100461 406.684800
   9570   9574   9576     1   108.0100461 406.684800
   9570   9577   9578     1   108.0100461 406.684800
   9570   9577   9579     1   108.0100461 406.684800
   9571   9570   9599     1   110.1100470 384.091200
   9571   9583   9584     1   109.8000471 387.438400
   9571   9583   9585     1   109.8000471 387.438400
   9572   9571   9583     1   110.5600475 386.601600
   9572   9571   9573     1   109.7500473 328.025600
   9573   9571   9583     1   110.5600475 386.601600
   9574   9570   9599     1   110.1100470 384.091200
   9574   9586   9587     1   109.8000471 387.438400
   9574   9586   9588     1   109.8000471 387.438400
   9575   9574   9586     1   110.5600475 386.601600
   9575   9574   9576     1   109.7500473 328.025600
   9576   9574   9586     1   110.5600475 386.601600
   9577   9570   9599     1   110.1100470 384.091200
   9577   9580   9581     1   109.8000471 387.438400
   9577   9580   9582     1   109.8000471 387.438400
   9578   9577   9580     1   110.5600475 386.601600
   9578   9577   9579     1   109.7500473 328.025600
   9579   9577   9580     1   110.5600475 386.601600
   9580   9589   9590     1   109.5600471 388.275200
   9580   9589   9591     1   109.5600471 388.275200
   9581   9580   9589     1   109.8000471 387.438400
   9581   9580   9582     1   107.5800459 329.699200
   9582   9580   9589     1   109.8000471 387.438400
   9583   9595   9596     1   109.5600471 388.275200
   9583   9595   9597     1   109.5600471 388.275200
   9584   9583   9595     1   109.8000471 387.438400
   9584   9583   9585     1   107.5800459 329.699200
   9585   9583   9595     1   109.8000471 387.438400
   9586   9592   9593     1   109.5600471 388.275200
   9586   9592   9594     1   109.5600471 388.275200
   9587   9586   9592     1   109.8000471 387.438400
   9587   9586   9588     1   107.5800459 329.699200
   9588   9586   9592     1   109.8000471 387.438400
   9590   9589   9598     1   109.7800468 425.094400
   9590   9589   9591     1   108.4600466 328.025600
   9591   9589   9598     1   109.7800468 425.094400
   9593   9592  17404     1   109.7800468 425.094400
   9593   9592   9594     1   108.4600466 328.025600
   9594   9592  17404     1   109.7800468 425.094400
   9596   9595  17427     1   109.7800468 425.094400
   9596   9595   9597     1   108.4600466 328.025600
   9597   9595  17427     1   109.7800468 425.094400
   9600   9601   9602     1   108.0100461 406.684800
   9600   9601   9603     1   108.0100461 406.684800
   9600   9604   9605     1   108.0100461 406.684800
   9600   9604   9606     1   108.0100461 406.684800
   9600   9607   9608     1   108.0100461 406.684800
   9600   9607   9609     1   108.0100461 406.684800
   9601   9600   9629     1   110.1100470 384.091200
   9601   9613   9614     1   109.8000471 387.438400
   9601   9613   9615     1   109.8000471 387.438400
   9602   9601   9613     1   110.5600475 386.601600
   9602   9601   9603     1   109.7500473 328.025600
   9603   9601   9613     1   110.5600475 386.601600
   9604   9600   9629     1   110.1100470 384.091200
   9604   9616   9617     1   109.8000471 387.438400
   9604   9616   9618     1   109.8000471 387.438400
   9605   9604   9616     1   110.5600475 386.601600
   9605   9604   9606     1   109.7500473 328.025600
   9606   9604   9616     1   110.5600475 386.601600
   9607   9600   9629     1   110.1100470 384.091200
   9607   9610   9611     1   109.8000471 387.438400
   9607   9610   9612     1   109.8000471 387.438400
   9608   9607   9610     1   110.5600475 386.601600
   9608   9607   9609     1   109.7500473 328.025600
   9609   9607   9610     1   110.5600475 386.601600
   9610   9619   9620     1   109.5600471 388.275200
   9610   9619   9621     1   109.5600471 388.275200
   9611   9610   9619     1   109.8000471 387.438400
   9611   9610   9612     1   107.5800459 329.699200
   9612   9610   9619     1   109.8000471 387.438400
   9613   9625   9626     1   109.5600471 388.275200
   9613   9625   9627     1   109.5600471 388.275200
   9614   9613   9625     1   109.8000471 387.438400
   9614   9613   9615     1   107.5800459 329.699200
   9615   9613   9625     1   109.8000471 387.438400
   9616   9622   9623     1   109.5600471 388.275200
   9616   9622   9624     1   109.5600471 388.275200
   9617   9616   9622     1   109.8000471 387.438400
   9617   9616   9618     1   107.5800459 329.699200
   9618   9616   9622     1   109.8000471 387.438400
   9620   9619   9628     1   109.7800468 425.094400
   9620   9619   9621     1   108.4600466 328.025600
   9621   9619   9628     1   109.7800468 425.094400
   9623   9622  17450     1   109.7800468 425.094400
   9623   9622   9624     1   108.4600466 328.025600
   9624   9622  17450     1   109.7800468 425.094400
   9626   9625  17473     1   109.7800468 425.094400
   9626   9625   9627     1   108.4600466 328.025600
   9627   9625  17473     1   109.7800468 425.094400
   9630   9631   9632     1   108.0100461 406.684800
   9630   9631   9633     1   108.0100461 406.684800
   9630   9634   9635     1   108.0100461 406.684800
   9630   9634   9636     1   108.0100461 406.684800
   9630   9637   9638     1   108.0100461 406.684800
   9630   9637   9639     1   108.0100461 406.684800
   9631   9630   9659     1   110.1100470 384.091200
   9631   9643   9644     1   109.8000471 387.438400
   9631   9643   9645     1   109.8000471 387.438400
   9632   9631   9643     1   110.5600475 386.601600
   9632   9631   9633     1   109.7500473 328.025600
   9633   9631   9643     1   110.5600475 386.601600
   9634   9630   9659     1   110.1100470 384.091200
   9634   9646   9647     1   109.8000471 387.438400
   9634   9646   9648     1   109.8000471 387.438400
   9635   9634   9646     1   110.5600475 386.601600
   9635   9634   9636     1   109.7500473 328.025600
   9636   9634   9646     1   110.5600475 386.601600
   9637   9630   9659     1   110.1100470 384.091200
   9637   9640   9641     1   109.8000471 387.438400
   9637   9640   9642     1   109.8000471 387.438400
   9638   9637   9640     1   110.5600475 386.601600
   9638   9637   9639     1   109.7500473 328.025600
   9639   9637   9640     1   110.5600475 386.601600
   9640   9649   9650     1   109.5600471 388.275200
   9640   9649   9651     1   109.5600471 388.275200
   9641   9640   9649     1   109.8000471 387.438400
   9641   9640   9642     1   107.5800459 329.699200
   9642   9640   9649     1   109.8000471 387.438400
   9643   9655   9656     1   109.5600471 388.275200
   9643   9655   9657     1   109.5600471 388.275200
   9644   9643   9655     1   109.8000471 387.438400
   9644   9643   9645     1   107.5800459 329.699200
   9645   9643   9655     1   109.8000471 387.438400
   9646   9652   9653     1   109.5600471 388.275200
   9646   9652   9654     1   109.5600471 388.275200
   9647   9646   9652     1   109.8000471 387.438400
   9647   9646   9648     1   107.5800459 329.699200
   9648   9646   9652     1   109.8000471 387.438400
   9650   9649   9658     1   109.7800468 425.094400
   9650   9649   9651     1   108.4600466 328.025600
   9651   9649   9658     1   109.7800468 425.094400
   9653   9652  17496     1   109.7800468 425.094400
   9653   9652   9654     1   108.4600466 328.025600
   9654   9652  17496     1   109.7800468 425.094400
   9656   9655  17519     1   109.7800468 425.094400
   9656   9655   9657     1   108.4600466 328.025600
   9657   9655  17519     1   109.7800468 425.094400
   9660   9661   9662     1   108.0100461 406.684800
   9660   9661   9663     1   108.0100461 406.684800
   9660   9664   9665     1   108.0100461 406.684800
   9660   9664   9666     1   108.0100461 406.684800
   9660   9667   9668     1   108.0100461 406.684800
   9660   9667   9669     1   108.0100461 406.684800
   9661   9660   9689     1   110.1100470 384.091200
   9661   9673   9674     1   109.8000471 387.438400
   9661   9673   9675     1   109.8000471 387.438400
   9662   9661   9673     1   110.5600475 386.601600
   9662   9661   9663     1   109.7500473 328.025600
   9663   9661   9673     1   110.5600475 386.601600
   9664   9660   9689     1   110.1100470 384.091200
   9664   9676   9677     1   109.8000471 387.438400
   9664   9676   9678     1   109.8000471 387.438400
   9665   9664   9676     1   110.5600475 386.601600
   9665   9664   9666     1   109.7500473 328.025600
   9666   9664   9676     1   110.5600475 386.601600
   9667   9660   9689     1   110.1100470 384.091200
   9667   9670   9671     1   109.8000471 387.438400
   9667   9670   9672     1   109.8000471 387.438400
   9668   9667   9670     1   110.5600475 386.601600
   9668   9667   9669     1   109.7500473 328.025600
   9669   9667   9670     1   110.5600475 386.601600
   9670   9679   9680     1   109.5600471 388.275200
   9670   9679   9681     1   109.5600471 388.275200
   9671   9670   9679     1   109.8000471 387.438400
   9671   9670   9672     1   107.5800459 329.699200
   9672   9670   9679     1   109.8000471 387.438400
   9673   9685   9686     1   109.5600471 388.275200
   9673   9685   9687     1   109.5600471 388.275200
   9674   9673   9685     1   109.8000471 387.438400
   9674   9673   9675     1   107.5800459 329.699200
   9675   9673   9685     1   109.8000471 387.438400
   9676   9682   9683     1   109.5600471 388.275200
   9676   9682   9684     1   109.5600471 388.275200
   9677   9676   9682     1   109.8000471 387.438400
   9677   9676   9678     1   107.5800459 329.699200
   9678   9676   9682     1   109.8000471 387.438400
   9680   9679   9688     1   109.7800468 425.094400
   9680   9679   9681     1   108.4600466 328.025600
   9681   9679   9688     1   109.7800468 425.094400
   9683   9682  17542     1   109.7800468 425.094400
   9683   9682   9684     1   108.4600466 328.025600
   9684   9682  17542     1   109.7800468 425.094400
   9686   9685  17565     1   109.7800468 425.094400
   9686   9685   9687     1   108.4600466 328.025600
   9687   9685  17565     1   109.7800468 425.094400
   9690   9691   9692     1   108.0100461 406.684800
   9690   9691   9693     1   108.0100461 406.684800
   9690   9694   9695     1   108.0100461 406.684800
   9690   9694   9696     1   108.0100461 406.684800
   9690   9697   9698     1   108.0100461 406.684800
   9690   9697   9699     1   108.0100461 406.684800
   9691   9690   9719     1   110.1100470 384.091200
   9691   9703   9704     1   109.8000471 387.438400
   9691   9703   9705     1   109.8000471 387.438400
   9692   9691   9703     1   110.5600475 386.601600
   9692   9691   9693     1   109.7500473 328.025600
   9693   9691   9703     1   110.5600475 386.601600
   9694   9690   9719     1   110.1100470 384.091200
   9694   9706   9707     1   109.8000471 387.438400
   9694   9706   9708     1   109.8000471 387.438400
   9695   9694   9706     1   110.5600475 386.601600
   9695   9694   9696     1   109.7500473 328.025600
   9696   9694   9706     1   110.5600475 386.601600
   9697   9690   9719     1   110.1100470 384.091200
   9697   9700   9701     1   109.8000471 387.438400
   9697   9700   9702     1   109.8000471 387.438400
   9698   9697   9700     1   110.5600475 386.601600
   9698   9697   9699     1   109.7500473 328.025600
   9699   9697   9700     1   110.5600475 386.601600
   9700   9709   9710     1   109.5600471 388.275200
   9700   9709   9711     1   109.5600471 388.275200
   9701   9700   9709     1   109.8000471 387.438400
   9701   9700   9702     1   107.5800459 329.699200
   9702   9700   9709     1   109.8000471 387.438400
   9703   9715   9716     1   109.5600471 388.275200
   9703   9715   9717     1   109.5600471 388.275200
   9704   9703   9715     1   109.8000471 387.438400
   9704   9703   9705     1   107.5800459 329.699200
   9705   9703   9715     1   109.8000471 387.438400
   9706   9712   9713     1   109.5600471 388.275200
   9706   9712   9714     1   109.5600471 388.275200
   9707   9706   9712     1   109.8000471 387.438400
   9707   9706   9708     1   107.5800459 329.699200
   9708   9706   9712     1   109.8000471 387.438400
   9710   9709   9718     1   109.7800468 425.094400
   9710   9709   9711     1   108.4600466 328.025600
   9711   9709   9718     1   109.7800468 425.094400
   9713   9712  17588     1   109.7800468 425.094400
   9713   9712   9714     1   108.4600466 328.025600
   9714   9712  17588     1   109.7800468 425.094400
   9716   9715  17611     1   109.7800468 425.094400
   9716   9715   9717     1   108.4600466 328.025600
   9717   9715  17611     1   109.7800468 425.094400
   9720   9721   9722     1   108.0100461 406.684800
   9720   9721   9723     1   108.0100461 406.684800
   9720   9724   9725     1   108.0100461 406.684800
   9720   9724   9726     1   108.0100461 406.684800
   9720   9727   9728     1   108.0100461 406.684800
   9720   9727   9729     1   108.0100461 406.684800
   9721   9720   9749     1   110.1100470 384.091200
   9721   9733   9734     1   109.8000471 387.438400
   9721   9733   9735     1   109.8000471 387.438400
   9722   9721   9733     1   110.5600475 386.601600
   9722   9721   9723     1   109.7500473 328.025600
   9723   9721   9733     1   110.5600475 386.601600
   9724   9720   9749     1   110.1100470 384.091200
   9724   9736   9737     1   109.8000471 387.438400
   9724   9736   9738     1   109.8000471 387.438400
   9725   9724   9736     1   110.5600475 386.601600
   9725   9724   9726     1   109.7500473 328.025600
   9726   9724   9736     1   110.5600475 386.601600
   9727   9720   9749     1   110.1100470 384.091200
   9727   9730   9731     1   109.8000471 387.438400
   9727   9730   9732     1   109.8000471 387.438400
   9728   9727   9730     1   110.5600475 386.601600
   9728   9727   9729     1   109.7500473 328.025600
   9729   9727   9730     1   110.5600475 386.601600
   9730   9739   9740     1   109.5600471 388.275200
   9730   9739   9741     1   109.5600471 388.275200
   9731   9730   9739     1   109.8000471 387.438400
   9731   9730   9732     1   107.5800459 329.699200
   9732   9730   9739     1   109.8000471 387.438400
   9733   9745   9746     1   109.5600471 388.275200
   9733   9745   9747     1   109.5600471 388.275200
   9734   9733   9745     1   109.8000471 387.438400
   9734   9733   9735     1   107.5800459 329.699200
   9735   9733   9745     1   109.8000471 387.438400
   9736   9742   9743     1   109.5600471 388.275200
   9736   9742   9744     1   109.5600471 388.275200
   9737   9736   9742     1   109.8000471 387.438400
   9737   9736   9738     1   107.5800459 329.699200
   9738   9736   9742     1   109.8000471 387.438400
   9740   9739   9748     1   109.7800468 425.094400
   9740   9739   9741     1   108.4600466 328.025600
   9741   9739   9748     1   109.7800468 425.094400
   9743   9742  17634     1   109.7800468 425.094400
   9743   9742   9744     1   108.4600466 328.025600
   9744   9742  17634     1   109.7800468 425.094400
   9746   9745  17657     1   109.7800468 425.094400
   9746   9745   9747     1   108.4600466 328.025600
   9747   9745  17657     1   109.7800468 425.094400
   9750   9751   9752     1   108.0100461 406.684800
   9750   9751   9753     1   108.0100461 406.684800
   9750   9754   9755     1   108.0100461 406.684800
   9750   9754   9756     1   108.0100461 406.684800
   9750   9757   9758     1   108.0100461 406.684800
   9750   9757   9759     1   108.0100461 406.684800
   9751   9750   9779     1   110.1100470 384.091200
   9751   9763   9764     1   109.8000471 387.438400
   9751   9763   9765     1   109.8000471 387.438400
   9752   9751   9763     1   110.5600475 386.601600
   9752   9751   9753     1   109.7500473 328.025600
   9753   9751   9763     1   110.5600475 386.601600
   9754   9750   9779     1   110.1100470 384.091200
   9754   9766   9767     1   109.8000471 387.438400
   9754   9766   9768     1   109.8000471 387.438400
   9755   9754   9766     1   110.5600475 386.601600
   9755   9754   9756     1   109.7500473 328.025600
   9756   9754   9766     1   110.5600475 386.601600
   9757   9750   9779     1   110.1100470 384.091200
   9757   9760   9761     1   109.8000471 387.438400
   9757   9760   9762     1   109.8000471 387.438400
   9758   9757   9760     1   110.5600475 386.601600
   9758   9757   9759     1   109.7500473 328.025600
   9759   9757   9760     1   110.5600475 386.601600
   9760   9769   9770     1   109.5600471 388.275200
   9760   9769   9771     1   109.5600471 388.275200
   9761   9760   9769     1   109.8000471 387.438400
   9761   9760   9762     1   107.5800459 329.699200
   9762   9760   9769     1   109.8000471 387.438400
   9763   9775   9776     1   109.5600471 388.275200
   9763   9775   9777     1   109.5600471 388.275200
   9764   9763   9775     1   109.8000471 387.438400
   9764   9763   9765     1   107.5800459 329.699200
   9765   9763   9775     1   109.8000471 387.438400
   9766   9772   9773     1   109.5600471 388.275200
   9766   9772   9774     1   109.5600471 388.275200
   9767   9766   9772     1   109.8000471 387.438400
   9767   9766   9768     1   107.5800459 329.699200
   9768   9766   9772     1   109.8000471 387.438400
   9770   9769   9778     1   109.7800468 425.094400
   9770   9769   9771     1   108.4600466 328.025600
   9771   9769   9778     1   109.7800468 425.094400
   9773   9772  17680     1   109.7800468 425.094400
   9773   9772   9774     1   108.4600466 328.025600
   9774   9772  17680     1   109.7800468 425.094400
   9776   9775  17703     1   109.7800468 425.094400
   9776   9775   9777     1   108.4600466 328.025600
   9777   9775  17703     1   109.7800468 425.094400
   9780   9781   9782     1   108.0100461 406.684800
   9780   9781   9783     1   108.0100461 406.684800
   9780   9784   9785     1   108.0100461 406.684800
   9780   9784   9786     1   108.0100461 406.684800
   9780   9787   9788     1   108.0100461 406.684800
   9780   9787   9789     1   108.0100461 406.684800
   9781   9780   9809     1   110.1100470 384.091200
   9781   9793   9794     1   109.8000471 387.438400
   9781   9793   9795     1   109.8000471 387.438400
   9782   9781   9793     1   110.5600475 386.601600
   9782   9781   9783     1   109.7500473 328.025600
   9783   9781   9793     1   110.5600475 386.601600
   9784   9780   9809     1   110.1100470 384.091200
   9784   9796   9797     1   109.8000471 387.438400
   9784   9796   9798     1   109.8000471 387.438400
   9785   9784   9796     1   110.5600475 386.601600
   9785   9784   9786     1   109.7500473 328.025600
   9786   9784   9796     1   110.5600475 386.601600
   9787   9780   9809     1   110.1100470 384.091200
   9787   9790   9791     1   109.8000471 387.438400
   9787   9790   9792     1   109.8000471 387.438400
   9788   9787   9790     1   110.5600475 386.601600
   9788   9787   9789     1   109.7500473 328.025600
   9789   9787   9790     1   110.5600475 386.601600
   9790   9799   9800     1   109.5600471 388.275200
   9790   9799   9801     1   109.5600471 388.275200
   9791   9790   9799     1   109.8000471 387.438400
   9791   9790   9792     1   107.5800459 329.699200
   9792   9790   9799     1   109.8000471 387.438400
   9793   9805   9806     1   109.5600471 388.275200
   9793   9805   9807     1   109.5600471 388.275200
   9794   9793   9805     1   109.8000471 387.438400
   9794   9793   9795     1   107.5800459 329.699200
   9795   9793   9805     1   109.8000471 387.438400
   9796   9802   9803     1   109.5600471 388.275200
   9796   9802   9804     1   109.5600471 388.275200
   9797   9796   9802     1   109.8000471 387.438400
   9797   9796   9798     1   107.5800459 329.699200
   9798   9796   9802     1   109.8000471 387.438400
   9800   9799   9808     1   109.7800468 425.094400
   9800   9799   9801     1   108.4600466 328.025600
   9801   9799   9808     1   109.7800468 425.094400
   9803   9802  17726     1   109.7800468 425.094400
   9803   9802   9804     1   108.4600466 328.025600
   9804   9802  17726     1   109.7800468 425.094400
   9806   9805  17749     1   109.7800468 425.094400
   9806   9805   9807     1   108.4600466 328.025600
   9807   9805  17749     1   109.7800468 425.094400
   9810   9811   9812     1   108.0100461 406.684800
   9810   9811   9813     1   108.0100461 406.684800
   9810   9814   9815     1   108.0100461 406.684800
   9810   9814   9816     1   108.0100461 406.684800
   9810   9817   9818     1   108.0100461 406.684800
   9810   9817   9819     1   108.0100461 406.684800
   9811   9810   9839     1   110.1100470 384.091200
   9811   9823   9824     1   109.8000471 387.438400
   9811   9823   9825     1   109.8000471 387.438400
   9812   9811   9823     1   110.5600475 386.601600
   9812   9811   9813     1   109.7500473 328.025600
   9813   9811   9823     1   110.5600475 386.601600
   9814   9810   9839     1   110.1100470 384.091200
   9814   9826   9827     1   109.8000471 387.438400
   9814   9826   9828     1   109.8000471 387.438400
   9815   9814   9826     1   110.5600475 386.601600
   9815   9814   9816     1   109.7500473 328.025600
   9816   9814   9826     1   110.5600475 386.601600
   9817   9810   9839     1   110.1100470 384.091200
   9817   9820   9821     1   109.8000471 387.438400
   9817   9820   9822     1   109.8000471 387.438400
   9818   9817   9820     1   110.5600475 386.601600
   9818   9817   9819     1   109.7500473 328.025600
   9819   9817   9820     1   110.5600475 386.601600
   9820   9829   9830     1   109.5600471 388.275200
   9820   9829   9831     1   109.5600471 388.275200
   9821   9820   9829     1   109.8000471 387.438400
   9821   9820   9822     1   107.5800459 329.699200
   9822   9820   9829     1   109.8000471 387.438400
   9823   9835   9836     1   109.5600471 388.275200
   9823   9835   9837     1   109.5600471 388.275200
   9824   9823   9835     1   109.8000471 387.438400
   9824   9823   9825     1   107.5800459 329.699200
   9825   9823   9835     1   109.8000471 387.438400
   9826   9832   9833     1   109.5600471 388.275200
   9826   9832   9834     1   109.5600471 388.275200
   9827   9826   9832     1   109.8000471 387.438400
   9827   9826   9828     1   107.5800459 329.699200
   9828   9826   9832     1   109.8000471 387.438400
   9830   9829   9838     1   109.7800468 425.094400
   9830   9829   9831     1   108.4600466 328.025600
   9831   9829   9838     1   109.7800468 425.094400
   9833   9832  17772     1   109.7800468 425.094400
   9833   9832   9834     1   108.4600466 328.025600
   9834   9832  17772     1   109.7800468 425.094400
   9836   9835  17795     1   109.7800468 425.094400
   9836   9835   9837     1   108.4600466 328.025600
   9837   9835  17795     1   109.7800468 425.094400
   9840   9841   9842     1   108.0100461 406.684800
   9840   9841   9843     1   108.0100461 406.684800
   9840   9844   9845     1   108.0100461 406.684800
   9840   9844   9846     1   108.0100461 406.684800
   9840   9847   9848     1   108.0100461 406.684800
   9840   9847   9849     1   108.0100461 406.684800
   9841   9840   9869     1   110.1100470 384.091200
   9841   9853   9854     1   109.8000471 387.438400
   9841   9853   9855     1   109.8000471 387.438400
   9842   9841   9853     1   110.5600475 386.601600
   9842   9841   9843     1   109.7500473 328.025600
   9843   9841   9853     1   110.5600475 386.601600
   9844   9840   9869     1   110.1100470 384.091200
   9844   9856   9857     1   109.8000471 387.438400
   9844   9856   9858     1   109.8000471 387.438400
   9845   9844   9856     1   110.5600475 386.601600
   9845   9844   9846     1   109.7500473 328.025600
   9846   9844   9856     1   110.5600475 386.601600
   9847   9840   9869     1   110.1100470 384.091200
   9847   9850   9851     1   109.8000471 387.438400
   9847   9850   9852     1   109.8000471 387.438400
   9848   9847   9850     1   110.5600475 386.601600
   9848   9847   9849     1   109.7500473 328.025600
   9849   9847   9850     1   110.5600475 386.601600
   9850   9859   9860     1   109.5600471 388.275200
   9850   9859   9861     1   109.5600471 388.275200
   9851   9850   9859     1   109.8000471 387.438400
   9851   9850   9852     1   107.5800459 329.699200
   9852   9850   9859     1   109.8000471 387.438400
   9853   9865   9866     1   109.5600471 388.275200
   9853   9865   9867     1   109.5600471 388.275200
   9854   9853   9865     1   109.8000471 387.438400
   9854   9853   9855     1   107.5800459 329.699200
   9855   9853   9865     1   109.8000471 387.438400
   9856   9862   9863     1   109.5600471 388.275200
   9856   9862   9864     1   109.5600471 388.275200
   9857   9856   9862     1   109.8000471 387.438400
   9857   9856   9858     1   107.5800459 329.699200
   9858   9856   9862     1   109.8000471 387.438400
   9860   9859   9868     1   109.7800468 425.094400
   9860   9859   9861     1   108.4600466 328.025600
   9861   9859   9868     1   109.7800468 425.094400
   9863   9862  17818     1   109.7800468 425.094400
   9863   9862   9864     1   108.4600466 328.025600
   9864   9862  17818     1   109.7800468 425.094400
   9866   9865  17841     1   109.7800468 425.094400
   9866   9865   9867     1   108.4600466 328.025600
   9867   9865  17841     1   109.7800468 425.094400
   9870   9871   9872     1   108.0100461 406.684800
   9870   9871   9873     1   108.0100461 406.684800
   9870   9874   9875     1   108.0100461 406.684800
   9870   9874   9876     1   108.0100461 406.684800
   9870   9877   9878     1   108.0100461 406.684800
   9870   9877   9879     1   108.0100461 406.684800
   9871   9870   9899     1   110.1100470 384.091200
   9871   9883   9884     1   109.8000471 387.438400
   9871   9883   9885     1   109.8000471 387.438400
   9872   9871   9883     1   110.5600475 386.601600
   9872   9871   9873     1   109.7500473 328.025600
   9873   9871   9883     1   110.5600475 386.601600
   9874   9870   9899     1   110.1100470 384.091200
   9874   9886   9887     1   109.8000471 387.438400
   9874   9886   9888     1   109.8000471 387.438400
   9875   9874   9886     1   110.5600475 386.601600
   9875   9874   9876     1   109.7500473 328.025600
   9876   9874   9886     1   110.5600475 386.601600
   9877   9870   9899     1   110.1100470 384.091200
   9877   9880   9881     1   109.8000471 387.438400
   9877   9880   9882     1   109.8000471 387.438400
   9878   9877   9880     1   110.5600475 386.601600
   9878   9877   9879     1   109.7500473 328.025600
   9879   9877   9880     1   110.5600475 386.601600
   9880   9889   9890     1   109.5600471 388.275200
   9880   9889   9891     1   109.5600471 388.275200
   9881   9880   9889     1   109.8000471 387.438400
   9881   9880   9882     1   107.5800459 329.699200
   9882   9880   9889     1   109.8000471 387.438400
   9883   9895   9896     1   109.5600471 388.275200
   9883   9895   9897     1   109.5600471 388.275200
   9884   9883   9895     1   109.8000471 387.438400
   9884   9883   9885     1   107.5800459 329.699200
   9885   9883   9895     1   109.8000471 387.438400
   9886   9892   9893     1   109.5600471 388.275200
   9886   9892   9894     1   109.5600471 388.275200
   9887   9886   9892     1   109.8000471 387.438400
   9887   9886   9888     1   107.5800459 329.699200
   9888   9886   9892     1   109.8000471 387.438400
   9890   9889   9898     1   109.7800468 425.094400
   9890   9889   9891     1   108.4600466 328.025600
   9891   9889   9898     1   109.7800468 425.094400
   9893   9892  17864     1   109.7800468 425.094400
   9893   9892   9894     1   108.4600466 328.025600
   9894   9892  17864     1   109.7800468 425.094400
   9896   9895  17887     1   109.7800468 425.094400
   9896   9895   9897     1   108.4600466 328.025600
   9897   9895  17887     1   109.7800468 425.094400
   9900   9901   9902     1   108.0100461 406.684800
   9900   9901   9903     1   108.0100461 406.684800
   9900   9904   9905     1   108.0100461 406.684800
   9900   9904   9906     1   108.0100461 406.684800
   9900   9907   9908     1   108.0100461 406.684800
   9900   9907   9909     1   108.0100461 406.684800
   9901   9900   9929     1   110.1100470 384.091200
   9901   9913   9914     1   109.8000471 387.438400
   9901   9913   9915     1   109.8000471 387.438400
   9902   9901   9913     1   110.5600475 386.601600
   9902   9901   9903     1   109.7500473 328.025600
   9903   9901   9913     1   110.5600475 386.601600
   9904   9900   9929     1   110.1100470 384.091200
   9904   9916   9917     1   109.8000471 387.438400
   9904   9916   9918     1   109.8000471 387.438400
   9905   9904   9916     1   110.5600475 386.601600
   9905   9904   9906     1   109.7500473 328.025600
   9906   9904   9916     1   110.5600475 386.601600
   9907   9900   9929     1   110.1100470 384.091200
   9907   9910   9911     1   109.8000471 387.438400
   9907   9910   9912     1   109.8000471 387.438400
   9908   9907   9910     1   110.5600475 386.601600
   9908   9907   9909     1   109.7500473 328.025600
   9909   9907   9910     1   110.5600475 386.601600
   9910   9919   9920     1   109.5600471 388.275200
   9910   9919   9921     1   109.5600471 388.275200
   9911   9910   9919     1   109.8000471 387.438400
   9911   9910   9912     1   107.5800459 329.699200
   9912   9910   9919     1   109.8000471 387.438400
   9913   9925   9926     1   109.5600471 388.275200
   9913   9925   9927     1   109.5600471 388.275200
   9914   9913   9925     1   109.8000471 387.438400
   9914   9913   9915     1   107.5800459 329.699200
   9915   9913   9925     1   109.8000471 387.438400
   9916   9922   9923     1   109.5600471 388.275200
   9916   9922   9924     1   109.5600471 388.275200
   9917   9916   9922     1   109.8000471 387.438400
   9917   9916   9918     1   107.5800459 329.699200
   9918   9916   9922     1   109.8000471 387.438400
   9920   9919   9928     1   109.7800468 425.094400
   9920   9919   9921     1   108.4600466 328.025600
   9921   9919   9928     1   109.7800468 425.094400
   9923   9922  17910     1   109.7800468 425.094400
   9923   9922   9924     1   108.4600466 328.025600
   9924   9922  17910     1   109.7800468 425.094400
   9926   9925  17933     1   109.7800468 425.094400
   9926   9925   9927     1   108.4600466 328.025600
   9927   9925  17933     1   109.7800468 425.094400
   9930   9931   9932     1   108.0100461 406.684800
   9930   9931   9933     1   108.0100461 406.684800
   9930   9934   9935     1   108.0100461 406.684800
   9930   9934   9936     1   108.0100461 406.684800
   9930   9937   9938     1   108.0100461 406.684800
   9930   9937   9939     1   108.0100461 406.684800
   9931   9930   9959     1   110.1100470 384.091200
   9931   9943   9944     1   109.8000471 387.438400
   9931   9943   9945     1   109.8000471 387.438400
   9932   9931   9943     1   110.5600475 386.601600
   9932   9931   9933     1   109.7500473 328.025600
   9933   9931   9943     1   110.5600475 386.601600
   9934   9930   9959     1   110.1100470 384.091200
   9934   9946   9947     1   109.8000471 387.438400
   9934   9946   9948     1   109.8000471 387.438400
   9935   9934   9946     1   110.5600475 386.601600
   9935   9934   9936     1   109.7500473 328.025600
   9936   9934   9946     1   110.5600475 386.601600
   9937   9930   9959     1   110.1100470 384.091200
   9937   9940   9941     1   109.8000471 387.438400
   9937   9940   9942     1   109.8000471 387.438400
   9938   9937   9940     1   110.5600475 386.601600
   9938   9937   9939     1   109.7500473 328.025600
   9939   9937   9940     1   110.5600475 386.601600
   9940   9949   9950     1   109.5600471 388.275200
   9940   9949   9951     1   109.5600471 388.275200
   9941   9940   9949     1   109.8000471 387.438400
   9941   9940   9942     1   107.5800459 329.699200
   9942   9940   9949     1   109.8000471 387.438400
   9943   9955   9956     1   109.5600471 388.275200
   9943   9955   9957     1   109.5600471 388.275200
   9944   9943   9955     1   109.8000471 387.438400
   9944   9943   9945     1   107.5800459 329.699200
   9945   9943   9955     1   109.8000471 387.438400
   9946   9952   9953     1   109.5600471 388.275200
   9946   9952   9954     1   109.5600471 388.275200
   9947   9946   9952     1   109.8000471 387.438400
   9947   9946   9948     1   107.5800459 329.699200
   9948   9946   9952     1   109.8000471 387.438400
   9950   9949   9958     1   109.7800468 425.094400
   9950   9949   9951     1   108.4600466 328.025600
   9951   9949   9958     1   109.7800468 425.094400
   9953   9952  17956     1   109.7800468 425.094400
   9953   9952   9954     1   108.4600466 328.025600
   9954   9952  17956     1   109.7800468 425.094400
   9956   9955  17979     1   109.7800468 425.094400
   9956   9955   9957     1   108.4600466 328.025600
   9957   9955  17979     1   109.7800468 425.094400
   9960   9961   9962     1   108.0100461 406.684800
   9960   9961   9963     1   108.0100461 406.684800
   9960   9964   9965     1   108.0100461 406.684800
   9960   9964   9966     1   108.0100461 406.684800
   9960   9967   9968     1   108.0100461 406.684800
   9960   9967   9969     1   108.0100461 406.684800
   9961   9960   9989     1   110.1100470 384.091200
   9961   9973   9974     1   109.8000471 387.438400
   9961   9973   9975     1   109.8000471 387.438400
   9962   9961   9973     1   110.5600475 386.601600
   9962   9961   9963     1   109.7500473 328.025600
   9963   9961   9973     1   110.5600475 386.601600
   9964   9960   9989     1   110.1100470 384.091200
   9964   9976   9977     1   109.8000471 387.438400
   9964   9976   9978     1   109.8000471 387.438400
   9965   9964   9976     1   110.5600475 386.601600
   9965   9964   9966     1   109.7500473 328.025600
   9966   9964   9976     1   110.5600475 386.601600
   9967   9960   9989     1   110.1100470 384.091200
   9967   9970   9971     1   109.8000471 387.438400
   9967   9970   9972     1   109.8000471 387.438400
   9968   9967   9970     1   110.5600475 386.601600
   9968   9967   9969     1   109.7500473 328.025600
   9969   9967   9970     1   110.5600475 386.601600
   9970   9979   9980     1   109.5600471 388.275200
   9970   9979   9981     1   109.5600471 388.275200
   9971   9970   9979     1   109.8000471 387.438400
   9971   9970   9972     1   107.5800459 329.699200
   9972   9970   9979     1   109.8000471 387.438400
   9973   9985   9986     1   109.5600471 388.275200
   9973   9985   9987     1   109.5600471 388.275200
   9974   9973   9985     1   109.8000471 387.438400
   9974   9973   9975     1   107.5800459 329.699200
   9975   9973   9985     1   109.8000471 387.438400
   9976   9982   9983     1   109.5600471 388.275200
   9976   9982   9984     1   109.5600471 388.275200
   9977   9976   9982     1   109.8000471 387.438400
   9977   9976   9978     1   107.5800459 329.699200
   9978   9976   9982     1   109.8000471 387.438400
   9980   9979   9988     1   109.7800468 425.094400
   9980   9979   9981     1   108.4600466 328.025600
   9981   9979   9988     1   109.7800468 425.094400
   9983   9982  18002     1   109.7800468 425.094400
   9983   9982   9984     1   108.4600466 328.025600
   9984   9982  18002     1   109.7800468 425.094400
   9986   9985  18025     1   109.7800468 425.094400
   9986   9985   9987     1   108.4600466 328.025600
   9987   9985  18025     1   109.7800468 425.094400
   9990   9991   9992     1   108.0100461 406.684800
   9990   9991   9993     1   108.0100461 406.684800
   9990   9994   9995     1   108.0100461 406.684800
   9990   9994   9996     1   108.0100461 406.684800
   9990   9997   9998     1   108.0100461 406.684800
   9990   9997   9999     1   108.0100461 406.684800
   9991   9990  10019     1   110.1100470 384.091200
   9991  10003  10004     1   109.8000471 387.438400
   9991  10003  10005     1   109.8000471 387.438400
   9992   9991  10003     1   110.5600475 386.601600
   9992   9991   9993     1   109.7500473 328.025600
   9993   9991  10003     1   110.5600475 386.601600
   9994   9990  10019     1   110.1100470 384.091200
   9994  10006  10007     1   109.8000471 387.438400
   9994  10006  10008     1   109.8000471 387.438400
   9995   9994  10006     1   110.5600475 386.601600
   9995   9994   9996     1   109.7500473 328.025600
   9996   9994  10006     1   110.5600475 386.601600
   9997   9990  10019     1   110.1100470 384.091200
   9997  10000  10001     1   109.8000471 387.438400
   9997  10000  10002     1   109.8000471 387.438400
   9998   9997  10000     1   110.5600475 386.601600
   9998   9997   9999     1   109.7500473 328.025600
   9999   9997  10000     1   110.5600475 386.601600
  10000  10009  10010     1   109.5600471 388.275200
  10000  10009  10011     1   109.5600471 388.275200
  10001  10000  10009     1   109.8000471 387.438400
  10001  10000  10002     1   107.5800459 329.699200
  10002  10000  10009     1   109.8000471 387.438400
  10003  10015  10016     1   109.5600471 388.275200
  10003  10015  10017     1   109.5600471 388.275200
  10004  10003  10015     1   109.8000471 387.438400
  10004  10003  10005     1   107.5800459 329.699200
  10005  10003  10015     1   109.8000471 387.438400
  10006  10012  10013     1   109.5600471 388.275200
  10006  10012  10014     1   109.5600471 388.275200
  10007  10006  10012     1   109.8000471 387.438400
  10007  10006  10008     1   107.5800459 329.699200
  10008  10006  10012     1   109.8000471 387.438400
  10010  10009  10018     1   109.7800468 425.094400
  10010  10009  10011     1   108.4600466 328.025600
  10011  10009  10018     1   109.7800468 425.094400
  10013  10012  18048     1   109.7800468 425.094400
  10013  10012  10014     1   108.4600466 328.025600
  10014  10012  18048     1   109.7800468 425.094400
  10016  10015  18071     1   109.7800468 425.094400
  10016  10015  10017     1   108.4600466 328.025600
  10017  10015  18071     1   109.7800468 425.094400
  10020  10021  10022     1   108.0100461 406.684800
  10020  10021  10023     1   108.0100461 406.684800
  10020  10024  10025     1   108.0100461 406.684800
  10020  10024  10026     1   108.0100461 406.684800
  10020  10027  10028     1   108.0100461 406.684800
  10020  10027  10029     1   108.0100461 406.684800
  10021  10020  10049     1   110.1100470 384.091200
  10021  10033  10034     1   109.8000471 387.438400
  10021  10033  10035     1   109.8000471 387.438400
  10022  10021  10033     1   110.5600475 386.601600
  10022  10021  10023     1   109.7500473 328.025600
  10023  10021  10033     1   110.5600475 386.601600
  10024  10020  10049     1   110.1100470 384.091200
  10024  10036  10037     1   109.8000471 387.438400
  10024  10036  10038     1   109.8000471 387.438400
  10025  10024  10036     1   110.5600475 386.601600
  10025  10024  10026     1   109.7500473 328.025600
  10026  10024  10036     1   110.5600475 386.601600
  10027  10020  10049     1   110.1100470 384.091200
  10027  10030  10031     1   109.8000471 387.438400
  10027  10030  10032     1   109.8000471 387.438400
  10028  10027  10030     1   110.5600475 386.601600
  10028  10027  10029     1   109.7500473 328.025600
  10029  10027  10030     1   110.5600475 386.601600
  10030  10039  10040     1   109.5600471 388.275200
  10030  10039  10041     1   109.5600471 388.275200
  10031  10030  10039     1   109.8000471 387.438400
  10031  10030  10032     1   107.5800459 329.699200
  10032  10030  10039     1   109.8000471 387.438400
  10033  10045  10046     1   109.5600471 388.275200
  10033  10045  10047     1   109.5600471 388.275200
  10034  10033  10045     1   109.8000471 387.438400
  10034  10033  10035     1   107.5800459 329.699200
  10035  10033  10045     1   109.8000471 387.438400
  10036  10042  10043     1   109.5600471 388.275200
  10036  10042  10044     1   109.5600471 388.275200
  10037  10036  10042     1   109.8000471 387.438400
  10037  10036  10038     1   107.5800459 329.699200
  10038  10036  10042     1   109.8000471 387.438400
  10040  10039  10048     1   109.7800468 425.094400
  10040  10039  10041     1   108.4600466 328.025600
  10041  10039  10048     1   109.7800468 425.094400
  10043  10042  18094     1   109.7800468 425.094400
  10043  10042  10044     1   108.4600466 328.025600
  10044  10042  18094     1   109.7800468 425.094400
  10046  10045  18117     1   109.7800468 425.094400
  10046  10045  10047     1   108.4600466 328.025600
  10047  10045  18117     1   109.7800468 425.094400
  10050  10051  10052     1   108.0100461 406.684800
  10050  10051  10053     1   108.0100461 406.684800
  10050  10054  10055     1   108.0100461 406.684800
  10050  10054  10056     1   108.0100461 406.684800
  10050  10057  10058     1   108.0100461 406.684800
  10050  10057  10059     1   108.0100461 406.684800
  10051  10050  10079     1   110.1100470 384.091200
  10051  10063  10064     1   109.8000471 387.438400
  10051  10063  10065     1   109.8000471 387.438400
  10052  10051  10063     1   110.5600475 386.601600
  10052  10051  10053     1   109.7500473 328.025600
  10053  10051  10063     1   110.5600475 386.601600
  10054  10050  10079     1   110.1100470 384.091200
  10054  10066  10067     1   109.8000471 387.438400
  10054  10066  10068     1   109.8000471 387.438400
  10055  10054  10066     1   110.5600475 386.601600
  10055  10054  10056     1   109.7500473 328.025600
  10056  10054  10066     1   110.5600475 386.601600
  10057  10050  10079     1   110.1100470 384.091200
  10057  10060  10061     1   109.8000471 387.438400
  10057  10060  10062     1   109.8000471 387.438400
  10058  10057  10060     1   110.5600475 386.601600
  10058  10057  10059     1   109.7500473 328.025600
  10059  10057  10060     1   110.5600475 386.601600
  10060  10069  10070     1   109.5600471 388.275200
  10060  10069  10071     1   109.5600471 388.275200
  10061  10060  10069     1   109.8000471 387.438400
  10061  10060  10062     1   107.5800459 329.699200
  10062  10060  10069     1   109.8000471 387.438400
  10063  10075  10076     1   109.5600471 388.275200
  10063  10075  10077     1   109.5600471 388.275200
  10064  10063  10075     1   109.8000471 387.438400
  10064  10063  10065     1   107.5800459 329.699200
  10065  10063  10075     1   109.8000471 387.438400
  10066  10072  10073     1   109.5600471 388.275200
  10066  10072  10074     1   109.5600471 388.275200
  10067  10066  10072     1   109.8000471 387.438400
  10067  10066  10068     1   107.5800459 329.699200
  10068  10066  10072     1   109.8000471 387.438400
  10070  10069  10078     1   109.7800468 425.094400
  10070  10069  10071     1   108.4600466 328.025600
  10071  10069  10078     1   109.7800468 425.094400
  10073  10072  18140     1   109.7800468 425.094400
  10073  10072  10074     1   108.4600466 328.025600
  10074  10072  18140     1   109.7800468 425.094400
  10076  10075  18163     1   109.7800468 425.094400
  10076  10075  10077     1   108.4600466 328.025600
  10077  10075  18163     1   109.7800468 425.094400
  10080  10081  10082     1   108.0100461 406.684800
  10080  10081  10083     1   108.0100461 406.684800
  10080  10084  10085     1   108.0100461 406.684800
  10080  10084  10086     1   108.0100461 406.684800
  10080  10087  10088     1   108.0100461 406.684800
  10080  10087  10089     1   108.0100461 406.684800
  10081  10080  10109     1   110.1100470 384.091200
  10081  10093  10094     1   109.8000471 387.438400
  10081  10093  10095     1   109.8000471 387.438400
  10082  10081  10093     1   110.5600475 386.601600
  10082  10081  10083     1   109.7500473 328.025600
  10083  10081  10093     1   110.5600475 386.601600
  10084  10080  10109     1   110.1100470 384.091200
  10084  10096  10097     1   109.8000471 387.438400
  10084  10096  10098     1   109.8000471 387.438400
  10085  10084  10096     1   110.5600475 386.601600
  10085  10084  10086     1   109.7500473 328.025600
  10086  10084  10096     1   110.5600475 386.601600
  10087  10080  10109     1   110.1100470 384.091200
  10087  10090  10091     1   109.8000471 387.438400
  10087  10090  10092     1   109.8000471 387.438400
  10088  10087  10090     1   110.5600475 386.601600
  10088  10087  10089     1   109.7500473 328.025600
  10089  10087  10090     1   110.5600475 386.601600
  10090  10099  10100     1   109.5600471 388.275200
  10090  10099  10101     1   109.5600471 388.275200
  10091  10090  10099     1   109.8000471 387.438400
  10091  10090  10092     1   107.5800459 329.699200
  10092  10090  10099     1   109.8000471 387.438400
  10093  10105  10106     1   109.5600471 388.275200
  10093  10105  10107     1   109.5600471 388.275200
  10094  10093  10105     1   109.8000471 387.438400
  10094  10093  10095     1   107.5800459 329.699200
  10095  10093  10105     1   109.8000471 387.438400
  10096  10102  10103     1   109.5600471 388.275200
  10096  10102  10104     1   109.5600471 388.275200
  10097  10096  10102     1   109.8000471 387.438400
  10097  10096  10098     1   107.5800459 329.699200
  10098  10096  10102     1   109.8000471 387.438400
  10100  10099  10108     1   109.7800468 425.094400
  10100  10099  10101     1   108.4600466 328.025600
  10101  10099  10108     1   109.7800468 425.094400
  10103  10102  18186     1   109.7800468 425.094400
  10103  10102  10104     1   108.4600466 328.025600
  10104  10102  18186     1   109.7800468 425.094400
  10106  10105  18209     1   109.7800468 425.094400
  10106  10105  10107     1   108.4600466 328.025600
  10107  10105  18209     1   109.7800468 425.094400
  10110  10111  10112     1   108.0100461 406.684800
  10110  10111  10113     1   108.0100461 406.684800
  10110  10114  10115     1   108.0100461 406.684800
  10110  10114  10116     1   108.0100461 406.684800
  10110  10117  10118     1   108.0100461 406.684800
  10110  10117  10119     1   108.0100461 406.684800
  10111  10110  10139     1   110.1100470 384.091200
  10111  10123  10124     1   109.8000471 387.438400
  10111  10123  10125     1   109.8000471 387.438400
  10112  10111  10123     1   110.5600475 386.601600
  10112  10111  10113     1   109.7500473 328.025600
  10113  10111  10123     1   110.5600475 386.601600
  10114  10110  10139     1   110.1100470 384.091200
  10114  10126  10127     1   109.8000471 387.438400
  10114  10126  10128     1   109.8000471 387.438400
  10115  10114  10126     1   110.5600475 386.601600
  10115  10114  10116     1   109.7500473 328.025600
  10116  10114  10126     1   110.5600475 386.601600
  10117  10110  10139     1   110.1100470 384.091200
  10117  10120  10121     1   109.8000471 387.438400
  10117  10120  10122     1   109.8000471 387.438400
  10118  10117  10120     1   110.5600475 386.601600
  10118  10117  10119     1   109.7500473 328.025600
  10119  10117  10120     1   110.5600475 386.601600
  10120  10129  10130     1   109.5600471 388.275200
  10120  10129  10131     1   109.5600471 388.275200
  10121  10120  10129     1   109.8000471 387.438400
  10121  10120  10122     1   107.5800459 329.699200
  10122  10120  10129     1   109.8000471 387.438400
  10123  10135  10136     1   109.5600471 388.275200
  10123  10135  10137     1   109.5600471 388.275200
  10124  10123  10135     1   109.8000471 387.438400
  10124  10123  10125     1   107.5800459 329.699200
  10125  10123  10135     1   109.8000471 387.438400
  10126  10132  10133     1   109.5600471 388.275200
  10126  10132  10134     1   109.5600471 388.275200
  10127  10126  10132     1   109.8000471 387.438400
  10127  10126  10128     1   107.5800459 329.699200
  10128  10126  10132     1   109.8000471 387.438400
  10130  10129  10138     1   109.7800468 425.094400
  10130  10129  10131     1   108.4600466 328.025600
  10131  10129  10138     1   109.7800468 425.094400
  10133  10132  18232     1   109.7800468 425.094400
  10133  10132  10134     1   108.4600466 328.025600
  10134  10132  18232     1   109.7800468 425.094400
  10136  10135  18255     1   109.7800468 425.094400
  10136  10135  10137     1   108.4600466 328.025600
  10137  10135  18255     1   109.7800468 425.094400
  10140  10141  10142     1   108.0100461 406.684800
  10140  10141  10143     1   108.0100461 406.684800
  10140  10144  10145     1   108.0100461 406.684800
  10140  10144  10146     1   108.0100461 406.684800
  10140  10147  10148     1   108.0100461 406.684800
  10140  10147  10149     1   108.0100461 406.684800
  10141  10140  10169     1   110.1100470 384.091200
  10141  10153  10154     1   109.8000471 387.438400
  10141  10153  10155     1   109.8000471 387.438400
  10142  10141  10153     1   110.5600475 386.601600
  10142  10141  10143     1   109.7500473 328.025600
  10143  10141  10153     1   110.5600475 386.601600
  10144  10140  10169     1   110.1100470 384.091200
  10144  10156  10157     1   109.8000471 387.438400
  10144  10156  10158     1   109.8000471 387.438400
  10145  10144  10156     1   110.5600475 386.601600
  10145  10144  10146     1   109.7500473 328.025600
  10146  10144  10156     1   110.5600475 386.601600
  10147  10140  10169     1   110.1100470 384.091200
  10147  10150  10151     1   109.8000471 387.438400
  10147  10150  10152     1   109.8000471 387.438400
  10148  10147  10150     1   110.5600475 386.601600
  10148  10147  10149     1   109.7500473 328.025600
  10149  10147  10150     1   110.5600475 386.601600
  10150  10159  10160     1   109.5600471 388.275200
  10150  10159  10161     1   109.5600471 388.275200
  10151  10150  10159     1   109.8000471 387.438400
  10151  10150  10152     1   107.5800459 329.699200
  10152  10150  10159     1   109.8000471 387.438400
  10153  10165  10166     1   109.5600471 388.275200
  10153  10165  10167     1   109.5600471 388.275200
  10154  10153  10165     1   109.8000471 387.438400
  10154  10153  10155     1   107.5800459 329.699200
  10155  10153  10165     1   109.8000471 387.438400
  10156  10162  10163     1   109.5600471 388.275200
  10156  10162  10164     1   109.5600471 388.275200
  10157  10156  10162     1   109.8000471 387.438400
  10157  10156  10158     1   107.5800459 329.699200
  10158  10156  10162     1   109.8000471 387.438400
  10160  10159  10168     1   109.7800468 425.094400
  10160  10159  10161     1   108.4600466 328.025600
  10161  10159  10168     1   109.7800468 425.094400
  10163  10162  18278     1   109.7800468 425.094400
  10163  10162  10164     1   108.4600466 328.025600
  10164  10162  18278     1   109.7800468 425.094400
  10166  10165  18301     1   109.7800468 425.094400
  10166  10165  10167     1   108.4600466 328.025600
  10167  10165  18301     1   109.7800468 425.094400
  10170  10171  10172     1   108.0100461 406.684800
  10170  10171  10173     1   108.0100461 406.684800
  10170  10174  10175     1   108.0100461 406.684800
  10170  10174  10176     1   108.0100461 406.684800
  10170  10177  10178     1   108.0100461 406.684800
  10170  10177  10179     1   108.0100461 406.684800
  10171  10170  10199     1   110.1100470 384.091200
  10171  10183  10184     1   109.8000471 387.438400
  10171  10183  10185     1   109.8000471 387.438400
  10172  10171  10183     1   110.5600475 386.601600
  10172  10171  10173     1   109.7500473 328.025600
  10173  10171  10183     1   110.5600475 386.601600
  10174  10170  10199     1   110.1100470 384.091200
  10174  10186  10187     1   109.8000471 387.438400
  10174  10186  10188     1   109.8000471 387.438400
  10175  10174  10186     1   110.5600475 386.601600
  10175  10174  10176     1   109.7500473 328.025600
  10176  10174  10186     1   110.5600475 386.601600
  10177  10170  10199     1   110.1100470 384.091200
  10177  10180  10181     1   109.8000471 387.438400
  10177  10180  10182     1   109.8000471 387.438400
  10178  10177  10180     1   110.5600475 386.601600
  10178  10177  10179     1   109.7500473 328.025600
  10179  10177  10180     1   110.5600475 386.601600
  10180  10189  10190     1   109.5600471 388.275200
  10180  10189  10191     1   109.5600471 388.275200
  10181  10180  10189     1   109.8000471 387.438400
  10181  10180  10182     1   107.5800459 329.699200
  10182  10180  10189     1   109.8000471 387.438400
  10183  10195  10196     1   109.5600471 388.275200
  10183  10195  10197     1   109.5600471 388.275200
  10184  10183  10195     1   109.8000471 387.438400
  10184  10183  10185     1   107.5800459 329.699200
  10185  10183  10195     1   109.8000471 387.438400
  10186  10192  10193     1   109.5600471 388.275200
  10186  10192  10194     1   109.5600471 388.275200
  10187  10186  10192     1   109.8000471 387.438400
  10187  10186  10188     1   107.5800459 329.699200
  10188  10186  10192     1   109.8000471 387.438400
  10190  10189  10198     1   109.7800468 425.094400
  10190  10189  10191     1   108.4600466 328.025600
  10191  10189  10198     1   109.7800468 425.094400
  10193  10192  18324     1   109.7800468 425.094400
  10193  10192  10194     1   108.4600466 328.025600
  10194  10192  18324     1   109.7800468 425.094400
  10196  10195  18347     1   109.7800468 425.094400
  10196  10195  10197     1   108.4600466 328.025600
  10197  10195  18347     1   109.7800468 425.094400
  10200  10201  10202     1   108.0100461 406.684800
  10200  10201  10203     1   108.0100461 406.684800
  10200  10204  10205     1   108.0100461 406.684800
  10200  10204  10206     1   108.0100461 406.684800
  10200  10207  10208     1   108.0100461 406.684800
  10200  10207  10209     1   108.0100461 406.684800
  10201  10200  10229     1   110.1100470 384.091200
  10201  10213  10214     1   109.8000471 387.438400
  10201  10213  10215     1   109.8000471 387.438400
  10202  10201  10213     1   110.5600475 386.601600
  10202  10201  10203     1   109.7500473 328.025600
  10203  10201  10213     1   110.5600475 386.601600
  10204  10200  10229     1   110.1100470 384.091200
  10204  10216  10217     1   109.8000471 387.438400
  10204  10216  10218     1   109.8000471 387.438400
  10205  10204  10216     1   110.5600475 386.601600
  10205  10204  10206     1   109.7500473 328.025600
  10206  10204  10216     1   110.5600475 386.601600
  10207  10200  10229     1   110.1100470 384.091200
  10207  10210  10211     1   109.8000471 387.438400
  10207  10210  10212     1   109.8000471 387.438400
  10208  10207  10210     1   110.5600475 386.601600
  10208  10207  10209     1   109.7500473 328.025600
  10209  10207  10210     1   110.5600475 386.601600
  10210  10219  10220     1   109.5600471 388.275200
  10210  10219  10221     1   109.5600471 388.275200
  10211  10210  10219     1   109.8000471 387.438400
  10211  10210  10212     1   107.5800459 329.699200
  10212  10210  10219     1   109.8000471 387.438400
  10213  10225  10226     1   109.5600471 388.275200
  10213  10225  10227     1   109.5600471 388.275200
  10214  10213  10225     1   109.8000471 387.438400
  10214  10213  10215     1   107.5800459 329.699200
  10215  10213  10225     1   109.8000471 387.438400
  10216  10222  10223     1   109.5600471 388.275200
  10216  10222  10224     1   109.5600471 388.275200
  10217  10216  10222     1   109.8000471 387.438400
  10217  10216  10218     1   107.5800459 329.699200
  10218  10216  10222     1   109.8000471 387.438400
  10220  10219  10228     1   109.7800468 425.094400
  10220  10219  10221     1   108.4600466 328.025600
  10221  10219  10228     1   109.7800468 425.094400
  10223  10222  18370     1   109.7800468 425.094400
  10223  10222  10224     1   108.4600466 328.025600
  10224  10222  18370     1   109.7800468 425.094400
  10226  10225  18393     1   109.7800468 425.094400
  10226  10225  10227     1   108.4600466 328.025600
  10227  10225  18393     1   109.7800468 425.094400
  10230  10231  10232     1   108.0100461 406.684800
  10230  10231  10233     1   108.0100461 406.684800
  10230  10234  10235     1   108.0100461 406.684800
  10230  10234  10236     1   108.0100461 406.684800
  10230  10237  10238     1   108.0100461 406.684800
  10230  10237  10239     1   108.0100461 406.684800
  10231  10230  10259     1   110.1100470 384.091200
  10231  10243  10244     1   109.8000471 387.438400
  10231  10243  10245     1   109.8000471 387.438400
  10232  10231  10243     1   110.5600475 386.601600
  10232  10231  10233     1   109.7500473 328.025600
  10233  10231  10243     1   110.5600475 386.601600
  10234  10230  10259     1   110.1100470 384.091200
  10234  10246  10247     1   109.8000471 387.438400
  10234  10246  10248     1   109.8000471 387.438400
  10235  10234  10246     1   110.5600475 386.601600
  10235  10234  10236     1   109.7500473 328.025600
  10236  10234  10246     1   110.5600475 386.601600
  10237  10230  10259     1   110.1100470 384.091200
  10237  10240  10241     1   109.8000471 387.438400
  10237  10240  10242     1   109.8000471 387.438400
  10238  10237  10240     1   110.5600475 386.601600
  10238  10237  10239     1   109.7500473 328.025600
  10239  10237  10240     1   110.5600475 386.601600
  10240  10249  10250     1   109.5600471 388.275200
  10240  10249  10251     1   109.5600471 388.275200
  10241  10240  10249     1   109.8000471 387.438400
  10241  10240  10242     1   107.5800459 329.699200
  10242  10240  10249     1   109.8000471 387.438400
  10243  10255  10256     1   109.5600471 388.275200
  10243  10255  10257     1   109.5600471 388.275200
  10244  10243  10255     1   109.8000471 387.438400
  10244  10243  10245     1   107.5800459 329.699200
  10245  10243  10255     1   109.8000471 387.438400
  10246  10252  10253     1   109.5600471 388.275200
  10246  10252  10254     1   109.5600471 388.275200
  10247  10246  10252     1   109.8000471 387.438400
  10247  10246  10248     1   107.5800459 329.699200
  10248  10246  10252     1   109.8000471 387.438400
  10250  10249  10258     1   109.7800468 425.094400
  10250  10249  10251     1   108.4600466 328.025600
  10251  10249  10258     1   109.7800468 425.094400
  10253  10252  18416     1   109.7800468 425.094400
  10253  10252  10254     1   108.4600466 328.025600
  10254  10252  18416     1   109.7800468 425.094400
  10256  10255  18439     1   109.7800468 425.094400
  10256  10255  10257     1   108.4600466 328.025600
  10257  10255  18439     1   109.7800468 425.094400
  10260  10261  10262     1   108.0100461 406.684800
  10260  10261  10263     1   108.0100461 406.684800
  10260  10264  10265     1   108.0100461 406.684800
  10260  10264  10266     1   108.0100461 406.684800
  10260  10267  10268     1   108.0100461 406.684800
  10260  10267  10269     1   108.0100461 406.684800
  10261  10260  10289     1   110.1100470 384.091200
  10261  10273  10274     1   109.8000471 387.438400
  10261  10273  10275     1   109.8000471 387.438400
  10262  10261  10273     1   110.5600475 386.601600
  10262  10261  10263     1   109.7500473 328.025600
  10263  10261  10273     1   110.5600475 386.601600
  10264  10260  10289     1   110.1100470 384.091200
  10264  10276  10277     1   109.8000471 387.438400
  10264  10276  10278     1   109.8000471 387.438400
  10265  10264  10276     1   110.5600475 386.601600
  10265  10264  10266     1   109.7500473 328.025600
  10266  10264  10276     1   110.5600475 386.601600
  10267  10260  10289     1   110.1100470 384.091200
  10267  10270  10271     1   109.8000471 387.438400
  10267  10270  10272     1   109.8000471 387.438400
  10268  10267  10270     1   110.5600475 386.601600
  10268  10267  10269     1   109.7500473 328.025600
  10269  10267  10270     1   110.5600475 386.601600
  10270  10279  10280     1   109.5600471 388.275200
  10270  10279  10281     1   109.5600471 388.275200
  10271  10270  10279     1   109.8000471 387.438400
  10271  10270  10272     1   107.5800459 329.699200
  10272  10270  10279     1   109.8000471 387.438400
  10273  10285  10286     1   109.5600471 388.275200
  10273  10285  10287     1   109.5600471 388.275200
  10274  10273  10285     1   109.8000471 387.438400
  10274  10273  10275     1   107.5800459 329.699200
  10275  10273  10285     1   109.8000471 387.438400
  10276  10282  10283     1   109.5600471 388.275200
  10276  10282  10284     1   109.5600471 388.275200
  10277  10276  10282     1   109.8000471 387.438400
  10277  10276  10278     1   107.5800459 329.699200
  10278  10276  10282     1   109.8000471 387.438400
  10280  10279  10288     1   109.7800468 425.094400
  10280  10279  10281     1   108.4600466 328.025600
  10281  10279  10288     1   109.7800468 425.094400
  10283  10282  18462     1   109.7800468 425.094400
  10283  10282  10284     1   108.4600466 328.025600
  10284  10282  18462     1   109.7800468 425.094400
  10286  10285  18485     1   109.7800468 425.094400
  10286  10285  10287     1   108.4600466 328.025600
  10287  10285  18485     1   109.7800468 425.094400
  10290  10291  10292     1   108.0100461 406.684800
  10290  10291  10293     1   108.0100461 406.684800
  10290  10294  10295     1   108.0100461 406.684800
  10290  10294  10296     1   108.0100461 406.684800
  10290  10297  10298     1   108.0100461 406.684800
  10290  10297  10299     1   108.0100461 406.684800
  10291  10290  10319     1   110.1100470 384.091200
  10291  10303  10304     1   109.8000471 387.438400
  10291  10303  10305     1   109.8000471 387.438400
  10292  10291  10303     1   110.5600475 386.601600
  10292  10291  10293     1   109.7500473 328.025600
  10293  10291  10303     1   110.5600475 386.601600
  10294  10290  10319     1   110.1100470 384.091200
  10294  10306  10307     1   109.8000471 387.438400
  10294  10306  10308     1   109.8000471 387.438400
  10295  10294  10306     1   110.5600475 386.601600
  10295  10294  10296     1   109.7500473 328.025600
  10296  10294  10306     1   110.5600475 386.601600
  10297  10290  10319     1   110.1100470 384.091200
  10297  10300  10301     1   109.8000471 387.438400
  10297  10300  10302     1   109.8000471 387.438400
  10298  10297  10300     1   110.5600475 386.601600
  10298  10297  10299     1   109.7500473 328.025600
  10299  10297  10300     1   110.5600475 386.601600
  10300  10309  10310     1   109.5600471 388.275200
  10300  10309  10311     1   109.5600471 388.275200
  10301  10300  10309     1   109.8000471 387.438400
  10301  10300  10302     1   107.5800459 329.699200
  10302  10300  10309     1   109.8000471 387.438400
  10303  10315  10316     1   109.5600471 388.275200
  10303  10315  10317     1   109.5600471 388.275200
  10304  10303  10315     1   109.8000471 387.438400
  10304  10303  10305     1   107.5800459 329.699200
  10305  10303  10315     1   109.8000471 387.438400
  10306  10312  10313     1   109.5600471 388.275200
  10306  10312  10314     1   109.5600471 388.275200
  10307  10306  10312     1   109.8000471 387.438400
  10307  10306  10308     1   107.5800459 329.699200
  10308  10306  10312     1   109.8000471 387.438400
  10310  10309  10318     1   109.7800468 425.094400
  10310  10309  10311     1   108.4600466 328.025600
  10311  10309  10318     1   109.7800468 425.094400
  10313  10312  18508     1   109.7800468 425.094400
  10313  10312  10314     1   108.4600466 328.025600
  10314  10312  18508     1   109.7800468 425.094400
  10316  10315  18531     1   109.7800468 425.094400
  10316  10315  10317     1   108.4600466 328.025600
  10317  10315  18531     1   109.7800468 425.094400
  10320  10321  10322     1   108.0100461 406.684800
  10320  10321  10323     1   108.0100461 406.684800
  10320  10324  10325     1   108.0100461 406.684800
  10320  10324  10326     1   108.0100461 406.684800
  10320  10327  10328     1   108.0100461 406.684800
  10320  10327  10329     1   108.0100461 406.684800
  10321  10320  10349     1   110.1100470 384.091200
  10321  10333  10334     1   109.8000471 387.438400
  10321  10333  10335     1   109.8000471 387.438400
  10322  10321  10333     1   110.5600475 386.601600
  10322  10321  10323     1   109.7500473 328.025600
  10323  10321  10333     1   110.5600475 386.601600
  10324  10320  10349     1   110.1100470 384.091200
  10324  10336  10337     1   109.8000471 387.438400
  10324  10336  10338     1   109.8000471 387.438400
  10325  10324  10336     1   110.5600475 386.601600
  10325  10324  10326     1   109.7500473 328.025600
  10326  10324  10336     1   110.5600475 386.601600
  10327  10320  10349     1   110.1100470 384.091200
  10327  10330  10331     1   109.8000471 387.438400
  10327  10330  10332     1   109.8000471 387.438400
  10328  10327  10330     1   110.5600475 386.601600
  10328  10327  10329     1   109.7500473 328.025600
  10329  10327  10330     1   110.5600475 386.601600
  10330  10339  10340     1   109.5600471 388.275200
  10330  10339  10341     1   109.5600471 388.275200
  10331  10330  10339     1   109.8000471 387.438400
  10331  10330  10332     1   107.5800459 329.699200
  10332  10330  10339     1   109.8000471 387.438400
  10333  10345  10346     1   109.5600471 388.275200
  10333  10345  10347     1   109.5600471 388.275200
  10334  10333  10345     1   109.8000471 387.438400
  10334  10333  10335     1   107.5800459 329.699200
  10335  10333  10345     1   109.8000471 387.438400
  10336  10342  10343     1   109.5600471 388.275200
  10336  10342  10344     1   109.5600471 388.275200
  10337  10336  10342     1   109.8000471 387.438400
  10337  10336  10338     1   107.5800459 329.699200
  10338  10336  10342     1   109.8000471 387.438400
  10340  10339  10348     1   109.7800468 425.094400
  10340  10339  10341     1   108.4600466 328.025600
  10341  10339  10348     1   109.7800468 425.094400
  10343  10342  18554     1   109.7800468 425.094400
  10343  10342  10344     1   108.4600466 328.025600
  10344  10342  18554     1   109.7800468 425.094400
  10346  10345  18577     1   109.7800468 425.094400
  10346  10345  10347     1   108.4600466 328.025600
  10347  10345  18577     1   109.7800468 425.094400
  10350  10351  10352     1   108.0100461 406.684800
  10350  10351  10353     1   108.0100461 406.684800
  10350  10354  10355     1   108.0100461 406.684800
  10350  10354  10356     1   108.0100461 406.684800
  10350  10357  10358     1   108.0100461 406.684800
  10350  10357  10359     1   108.0100461 406.684800
  10351  10350  10379     1   110.1100470 384.091200
  10351  10363  10364     1   109.8000471 387.438400
  10351  10363  10365     1   109.8000471 387.438400
  10352  10351  10363     1   110.5600475 386.601600
  10352  10351  10353     1   109.7500473 328.025600
  10353  10351  10363     1   110.5600475 386.601600
  10354  10350  10379     1   110.1100470 384.091200
  10354  10366  10367     1   109.8000471 387.438400
  10354  10366  10368     1   109.8000471 387.438400
  10355  10354  10366     1   110.5600475 386.601600
  10355  10354  10356     1   109.7500473 328.025600
  10356  10354  10366     1   110.5600475 386.601600
  10357  10350  10379     1   110.1100470 384.091200
  10357  10360  10361     1   109.8000471 387.438400
  10357  10360  10362     1   109.8000471 387.438400
  10358  10357  10360     1   110.5600475 386.601600
  10358  10357  10359     1   109.7500473 328.025600
  10359  10357  10360     1   110.5600475 386.601600
  10360  10369  10370     1   109.5600471 388.275200
  10360  10369  10371     1   109.5600471 388.275200
  10361  10360  10369     1   109.8000471 387.438400
  10361  10360  10362     1   107.5800459 329.699200
  10362  10360  10369     1   109.8000471 387.438400
  10363  10375  10376     1   109.5600471 388.275200
  10363  10375  10377     1   109.5600471 388.275200
  10364  10363  10375     1   109.8000471 387.438400
  10364  10363  10365     1   107.5800459 329.699200
  10365  10363  10375     1   109.8000471 387.438400
  10366  10372  10373     1   109.5600471 388.275200
  10366  10372  10374     1   109.5600471 388.275200
  10367  10366  10372     1   109.8000471 387.438400
  10367  10366  10368     1   107.5800459 329.699200
  10368  10366  10372     1   109.8000471 387.438400
  10370  10369  10378     1   109.7800468 425.094400
  10370  10369  10371     1   108.4600466 328.025600
  10371  10369  10378     1   109.7800468 425.094400
  10373  10372  18600     1   109.7800468 425.094400
  10373  10372  10374     1   108.4600466 328.025600
  10374  10372  18600     1   109.7800468 425.094400
  10376  10375  18623     1   109.7800468 425.094400
  10376  10375  10377     1   108.4600466 328.025600
  10377  10375  18623     1   109.7800468 425.094400
  10380  10381  10382     1   108.0100461 406.684800
  10380  10381  10383     1   108.0100461 406.684800
  10380  10384  10385     1   108.0100461 406.684800
  10380  10384  10386     1   108.0100461 406.684800
  10380  10387  10388     1   108.0100461 406.684800
  10380  10387  10389     1   108.0100461 406.684800
  10381  10380  10409     1   110.1100470 384.091200
  10381  10393  10394     1   109.8000471 387.438400
  10381  10393  10395     1   109.8000471 387.438400
  10382  10381  10393     1   110.5600475 386.601600
  10382  10381  10383     1   109.7500473 328.025600
  10383  10381  10393     1   110.5600475 386.601600
  10384  10380  10409     1   110.1100470 384.091200
  10384  10396  10397     1   109.8000471 387.438400
  10384  10396  10398     1   109.8000471 387.438400
  10385  10384  10396     1   110.5600475 386.601600
  10385  10384  10386     1   109.7500473 328.025600
  10386  10384  10396     1   110.5600475 386.601600
  10387  10380  10409     1   110.1100470 384.091200
  10387  10390  10391     1   109.8000471 387.438400
  10387  10390  10392     1   109.8000471 387.438400
  10388  10387  10390     1   110.5600475 386.601600
  10388  10387  10389     1   109.7500473 328.025600
  10389  10387  10390     1   110.5600475 386.601600
  10390  10399  10400     1   109.5600471 388.275200
  10390  10399  10401     1   109.5600471 388.275200
  10391  10390  10399     1   109.8000471 387.438400
  10391  10390  10392     1   107.5800459 329.699200
  10392  10390  10399     1   109.8000471 387.438400
  10393  10405  10406     1   109.5600471 388.275200
  10393  10405  10407     1   109.5600471 388.275200
  10394  10393  10405     1   109.8000471 387.438400
  10394  10393  10395     1   107.5800459 329.699200
  10395  10393  10405     1   109.8000471 387.438400
  10396  10402  10403     1   109.5600471 388.275200
  10396  10402  10404     1   109.5600471 388.275200
  10397  10396  10402     1   109.8000471 387.438400
  10397  10396  10398     1   107.5800459 329.699200
  10398  10396  10402     1   109.8000471 387.438400
  10400  10399  10408     1   109.7800468 425.094400
  10400  10399  10401     1   108.4600466 328.025600
  10401  10399  10408     1   109.7800468 425.094400
  10403  10402  18646     1   109.7800468 425.094400
  10403  10402  10404     1   108.4600466 328.025600
  10404  10402  18646     1   109.7800468 425.094400
  10406  10405  18669     1   109.7800468 425.094400
  10406  10405  10407     1   108.4600466 328.025600
  10407  10405  18669     1   109.7800468 425.094400
  10410  10411  10412     1   108.0100461 406.684800
  10410  10411  10413     1   108.0100461 406.684800
  10410  10414  10415     1   108.0100461 406.684800
  10410  10414  10416     1   108.0100461 406.684800
  10410  10417  10418     1   108.0100461 406.684800
  10410  10417  10419     1   108.0100461 406.684800
  10411  10410  10439     1   110.1100470 384.091200
  10411  10423  10424     1   109.8000471 387.438400
  10411  10423  10425     1   109.8000471 387.438400
  10412  10411  10423     1   110.5600475 386.601600
  10412  10411  10413     1   109.7500473 328.025600
  10413  10411  10423     1   110.5600475 386.601600
  10414  10410  10439     1   110.1100470 384.091200
  10414  10426  10427     1   109.8000471 387.438400
  10414  10426  10428     1   109.8000471 387.438400
  10415  10414  10426     1   110.5600475 386.601600
  10415  10414  10416     1   109.7500473 328.025600
  10416  10414  10426     1   110.5600475 386.601600
  10417  10410  10439     1   110.1100470 384.091200
  10417  10420  10421     1   109.8000471 387.438400
  10417  10420  10422     1   109.8000471 387.438400
  10418  10417  10420     1   110.5600475 386.601600
  10418  10417  10419     1   109.7500473 328.025600
  10419  10417  10420     1   110.5600475 386.601600
  10420  10429  10430     1   109.5600471 388.275200
  10420  10429  10431     1   109.5600471 388.275200
  10421  10420  10429     1   109.8000471 387.438400
  10421  10420  10422     1   107.5800459 329.699200
  10422  10420  10429     1   109.8000471 387.438400
  10423  10435  10436     1   109.5600471 388.275200
  10423  10435  10437     1   109.5600471 388.275200
  10424  10423  10435     1   109.8000471 387.438400
  10424  10423  10425     1   107.5800459 329.699200
  10425  10423  10435     1   109.8000471 387.438400
  10426  10432  10433     1   109.5600471 388.275200
  10426  10432  10434     1   109.5600471 388.275200
  10427  10426  10432     1   109.8000471 387.438400
  10427  10426  10428     1   107.5800459 329.699200
  10428  10426  10432     1   109.8000471 387.438400
  10430  10429  10438     1   109.7800468 425.094400
  10430  10429  10431     1   108.4600466 328.025600
  10431  10429  10438     1   109.7800468 425.094400
  10433  10432  18692     1   109.7800468 425.094400
  10433  10432  10434     1   108.4600466 328.025600
  10434  10432  18692     1   109.7800468 425.094400
  10436  10435  18715     1   109.7800468 425.094400
  10436  10435  10437     1   108.4600466 328.025600
  10437  10435  18715     1   109.7800468 425.094400
  10440  10441  10442     1   108.0100461 406.684800
  10440  10441  10443     1   108.0100461 406.684800
  10440  10444  10445     1   108.0100461 406.684800
  10440  10444  10446     1   108.0100461 406.684800
  10440  10447  10448     1   108.0100461 406.684800
  10440  10447  10449     1   108.0100461 406.684800
  10441  10440  10469     1   110.1100470 384.091200
  10441  10453  10454     1   109.8000471 387.438400
  10441  10453  10455     1   109.8000471 387.438400
  10442  10441  10453     1   110.5600475 386.601600
  10442  10441  10443     1   109.7500473 328.025600
  10443  10441  10453     1   110.5600475 386.601600
  10444  10440  10469     1   110.1100470 384.091200
  10444  10456  10457     1   109.8000471 387.438400
  10444  10456  10458     1   109.8000471 387.438400
  10445  10444  10456     1   110.5600475 386.601600
  10445  10444  10446     1   109.7500473 328.025600
  10446  10444  10456     1   110.5600475 386.601600
  10447  10440  10469     1   110.1100470 384.091200
  10447  10450  10451     1   109.8000471 387.438400
  10447  10450  10452     1   109.8000471 387.438400
  10448  10447  10450     1   110.5600475 386.601600
  10448  10447  10449     1   109.7500473 328.025600
  10449  10447  10450     1   110.5600475 386.601600
  10450  10459  10460     1   109.5600471 388.275200
  10450  10459  10461     1   109.5600471 388.275200
  10451  10450  10459     1   109.8000471 387.438400
  10451  10450  10452     1   107.5800459 329.699200
  10452  10450  10459     1   109.8000471 387.438400
  10453  10465  10466     1   109.5600471 388.275200
  10453  10465  10467     1   109.5600471 388.275200
  10454  10453  10465     1   109.8000471 387.438400
  10454  10453  10455     1   107.5800459 329.699200
  10455  10453  10465     1   109.8000471 387.438400
  10456  10462  10463     1   109.5600471 388.275200
  10456  10462  10464     1   109.5600471 388.275200
  10457  10456  10462     1   109.8000471 387.438400
  10457  10456  10458     1   107.5800459 329.699200
  10458  10456  10462     1   109.8000471 387.438400
  10460  10459  10468     1   109.7800468 425.094400
  10460  10459  10461     1   108.4600466 328.025600
  10461  10459  10468     1   109.7800468 425.094400
  10463  10462  18738     1   109.7800468 425.094400
  10463  10462  10464     1   108.4600466 328.025600
  10464  10462  18738     1   109.7800468 425.094400
  10466  10465  18761     1   109.7800468 425.094400
  10466  10465  10467     1   108.4600466 328.025600
  10467  10465  18761     1   109.7800468 425.094400
  10470  10471  10472     1   108.0100461 406.684800
  10470  10471  10473     1   108.0100461 406.684800
  10470  10474  10475     1   108.0100461 406.684800
  10470  10474  10476     1   108.0100461 406.684800
  10470  10477  10478     1   108.0100461 406.684800
  10470  10477  10479     1   108.0100461 406.684800
  10471  10470  10499     1   110.1100470 384.091200
  10471  10483  10484     1   109.8000471 387.438400
  10471  10483  10485     1   109.8000471 387.438400
  10472  10471  10483     1   110.5600475 386.601600
  10472  10471  10473     1   109.7500473 328.025600
  10473  10471  10483     1   110.5600475 386.601600
  10474  10470  10499     1   110.1100470 384.091200
  10474  10486  10487     1   109.8000471 387.438400
  10474  10486  10488     1   109.8000471 387.438400
  10475  10474  10486     1   110.5600475 386.601600
  10475  10474  10476     1   109.7500473 328.025600
  10476  10474  10486     1   110.5600475 386.601600
  10477  10470  10499     1   110.1100470 384.091200
  10477  10480  10481     1   109.8000471 387.438400
  10477  10480  10482     1   109.8000471 387.438400
  10478  10477  10480     1   110.5600475 386.601600
  10478  10477  10479     1   109.7500473 328.025600
  10479  10477  10480     1   110.5600475 386.601600
  10480  10489  10490     1   109.5600471 388.275200
  10480  10489  10491     1   109.5600471 388.275200
  10481  10480  10489     1   109.8000471 387.438400
  10481  10480  10482     1   107.5800459 329.699200
  10482  10480  10489     1   109.8000471 387.438400
  10483  10495  10496     1   109.5600471 388.275200
  10483  10495  10497     1   109.5600471 388.275200
  10484  10483  10495     1   109.8000471 387.438400
  10484  10483  10485     1   107.5800459 329.699200
  10485  10483  10495     1   109.8000471 387.438400
  10486  10492  10493     1   109.5600471 388.275200
  10486  10492  10494     1   109.5600471 388.275200
  10487  10486  10492     1   109.8000471 387.438400
  10487  10486  10488     1   107.5800459 329.699200
  10488  10486  10492     1   109.8000471 387.438400
  10490  10489  10498     1   109.7800468 425.094400
  10490  10489  10491     1   108.4600466 328.025600
  10491  10489  10498     1   109.7800468 425.094400
  10493  10492  18784     1   109.7800468 425.094400
  10493  10492  10494     1   108.4600466 328.025600
  10494  10492  18784     1   109.7800468 425.094400
  10496  10495  18807     1   109.7800468 425.094400
  10496  10495  10497     1   108.4600466 328.025600
  10497  10495  18807     1   109.7800468 425.094400
  10500  10501  10502     1   108.0100461 406.684800
  10500  10501  10503     1   108.0100461 406.684800
  10500  10504  10505     1   108.0100461 406.684800
  10500  10504  10506     1   108.0100461 406.684800
  10500  10507  10508     1   108.0100461 406.684800
  10500  10507  10509     1   108.0100461 406.684800
  10501  10500  10529     1   110.1100470 384.091200
  10501  10513  10514     1   109.8000471 387.438400
  10501  10513  10515     1   109.8000471 387.438400
  10502  10501  10513     1   110.5600475 386.601600
  10502  10501  10503     1   109.7500473 328.025600
  10503  10501  10513     1   110.5600475 386.601600
  10504  10500  10529     1   110.1100470 384.091200
  10504  10516  10517     1   109.8000471 387.438400
  10504  10516  10518     1   109.8000471 387.438400
  10505  10504  10516     1   110.5600475 386.601600
  10505  10504  10506     1   109.7500473 328.025600
  10506  10504  10516     1   110.5600475 386.601600
  10507  10500  10529     1   110.1100470 384.091200
  10507  10510  10511     1   109.8000471 387.438400
  10507  10510  10512     1   109.8000471 387.438400
  10508  10507  10510     1   110.5600475 386.601600
  10508  10507  10509     1   109.7500473 328.025600
  10509  10507  10510     1   110.5600475 386.601600
  10510  10519  10520     1   109.5600471 388.275200
  10510  10519  10521     1   109.5600471 388.275200
  10511  10510  10519     1   109.8000471 387.438400
  10511  10510  10512     1   107.5800459 329.699200
  10512  10510  10519     1   109.8000471 387.438400
  10513  10525  10526     1   109.5600471 388.275200
  10513  10525  10527     1   109.5600471 388.275200
  10514  10513  10525     1   109.8000471 387.438400
  10514  10513  10515     1   107.5800459 329.699200
  10515  10513  10525     1   109.8000471 387.438400
  10516  10522  10523     1   109.5600471 388.275200
  10516  10522  10524     1   109.5600471 388.275200
  10517  10516  10522     1   109.8000471 387.438400
  10517  10516  10518     1   107.5800459 329.699200
  10518  10516  10522     1   109.8000471 387.438400
  10520  10519  10528     1   109.7800468 425.094400
  10520  10519  10521     1   108.4600466 328.025600
  10521  10519  10528     1   109.7800468 425.094400
  10523  10522  18830     1   109.7800468 425.094400
  10523  10522  10524     1   108.4600466 328.025600
  10524  10522  18830     1   109.7800468 425.094400
  10526  10525  18853     1   109.7800468 425.094400
  10526  10525  10527     1   108.4600466 328.025600
  10527  10525  18853     1   109.7800468 425.094400
  10530  10531  10532     1   108.0100461 406.684800
  10530  10531  10533     1   108.0100461 406.684800
  10530  10534  10535     1   108.0100461 406.684800
  10530  10534  10536     1   108.0100461 406.684800
  10530  10537  10538     1   108.0100461 406.684800
  10530  10537  10539     1   108.0100461 406.684800
  10531  10530  10559     1   110.1100470 384.091200
  10531  10543  10544     1   109.8000471 387.438400
  10531  10543  10545     1   109.8000471 387.438400
  10532  10531  10543     1   110.5600475 386.601600
  10532  10531  10533     1   109.7500473 328.025600
  10533  10531  10543     1   110.5600475 386.601600
  10534  10530  10559     1   110.1100470 384.091200
  10534  10546  10547     1   109.8000471 387.438400
  10534  10546  10548     1   109.8000471 387.438400
  10535  10534  10546     1   110.5600475 386.601600
  10535  10534  10536     1   109.7500473 328.025600
  10536  10534  10546     1   110.5600475 386.601600
  10537  10530  10559     1   110.1100470 384.091200
  10537  10540  10541     1   109.8000471 387.438400
  10537  10540  10542     1   109.8000471 387.438400
  10538  10537  10540     1   110.5600475 386.601600
  10538  10537  10539     1   109.7500473 328.025600
  10539  10537  10540     1   110.5600475 386.601600
  10540  10549  10550     1   109.5600471 388.275200
  10540  10549  10551     1   109.5600471 388.275200
  10541  10540  10549     1   109.8000471 387.438400
  10541  10540  10542     1   107.5800459 329.699200
  10542  10540  10549     1   109.8000471 387.438400
  10543  10555  10556     1   109.5600471 388.275200
  10543  10555  10557     1   109.5600471 388.275200
  10544  10543  10555     1   109.8000471 387.438400
  10544  10543  10545     1   107.5800459 329.699200
  10545  10543  10555     1   109.8000471 387.438400
  10546  10552  10553     1   109.5600471 388.275200
  10546  10552  10554     1   109.5600471 388.275200
  10547  10546  10552     1   109.8000471 387.438400
  10547  10546  10548     1   107.5800459 329.699200
  10548  10546  10552     1   109.8000471 387.438400
  10550  10549  10558     1   109.7800468 425.094400
  10550  10549  10551     1   108.4600466 328.025600
  10551  10549  10558     1   109.7800468 425.094400
  10553  10552  18876     1   109.7800468 425.094400
  10553  10552  10554     1   108.4600466 328.025600
  10554  10552  18876     1   109.7800468 425.094400
  10556  10555  18899     1   109.7800468 425.094400
  10556  10555  10557     1   108.4600466 328.025600
  10557  10555  18899     1   109.7800468 425.094400
  10560  10561  10562     1   108.0100461 406.684800
  10560  10561  10563     1   108.0100461 406.684800
  10560  10564  10565     1   108.0100461 406.684800
  10560  10564  10566     1   108.0100461 406.684800
  10560  10567  10568     1   108.0100461 406.684800
  10560  10567  10569     1   108.0100461 406.684800
  10561  10560  10589     1   110.1100470 384.091200
  10561  10573  10574     1   109.8000471 387.438400
  10561  10573  10575     1   109.8000471 387.438400
  10562  10561  10573     1   110.5600475 386.601600
  10562  10561  10563     1   109.7500473 328.025600
  10563  10561  10573     1   110.5600475 386.601600
  10564  10560  10589     1   110.1100470 384.091200
  10564  10576  10577     1   109.8000471 387.438400
  10564  10576  10578     1   109.8000471 387.438400
  10565  10564  10576     1   110.5600475 386.601600
  10565  10564  10566     1   109.7500473 328.025600
  10566  10564  10576     1   110.5600475 386.601600
  10567  10560  10589     1   110.1100470 384.091200
  10567  10570  10571     1   109.8000471 387.438400
  10567  10570  10572     1   109.8000471 387.438400
  10568  10567  10570     1   110.5600475 386.601600
  10568  10567  10569     1   109.7500473 328.025600
  10569  10567  10570     1   110.5600475 386.601600
  10570  10579  10580     1   109.5600471 388.275200
  10570  10579  10581     1   109.5600471 388.275200
  10571  10570  10579     1   109.8000471 387.438400
  10571  10570  10572     1   107.5800459 329.699200
  10572  10570  10579     1   109.8000471 387.438400
  10573  10585  10586     1   109.5600471 388.275200
  10573  10585  10587     1   109.5600471 388.275200
  10574  10573  10585     1   109.8000471 387.438400
  10574  10573  10575     1   107.5800459 329.699200
  10575  10573  10585     1   109.8000471 387.438400
  10576  10582  10583     1   109.5600471 388.275200
  10576  10582  10584     1   109.5600471 388.275200
  10577  10576  10582     1   109.8000471 387.438400
  10577  10576  10578     1   107.5800459 329.699200
  10578  10576  10582     1   109.8000471 387.438400
  10580  10579  10588     1   109.7800468 425.094400
  10580  10579  10581     1   108.4600466 328.025600
  10581  10579  10588     1   109.7800468 425.094400
  10583  10582  18922     1   109.7800468 425.094400
  10583  10582  10584     1   108.4600466 328.025600
  10584  10582  18922     1   109.7800468 425.094400
  10586  10585  18945     1   109.7800468 425.094400
  10586  10585  10587     1   108.4600466 328.025600
  10587  10585  18945     1   109.7800468 425.094400
  10590  10591  10592     1   108.0100461 406.684800
  10590  10591  10593     1   108.0100461 406.684800
  10590  10594  10595     1   108.0100461 406.684800
  10590  10594  10596     1   108.0100461 406.684800
  10590  10597  10598     1   108.0100461 406.684800
  10590  10597  10599     1   108.0100461 406.684800
  10591  10590  10619     1   110.1100470 384.091200
  10591  10603  10604     1   109.8000471 387.438400
  10591  10603  10605     1   109.8000471 387.438400
  10592  10591  10603     1   110.5600475 386.601600
  10592  10591  10593     1   109.7500473 328.025600
  10593  10591  10603     1   110.5600475 386.601600
  10594  10590  10619     1   110.1100470 384.091200
  10594  10606  10607     1   109.8000471 387.438400
  10594  10606  10608     1   109.8000471 387.438400
  10595  10594  10606     1   110.5600475 386.601600
  10595  10594  10596     1   109.7500473 328.025600
  10596  10594  10606     1   110.5600475 386.601600
  10597  10590  10619     1   110.1100470 384.091200
  10597  10600  10601     1   109.8000471 387.438400
  10597  10600  10602     1   109.8000471 387.438400
  10598  10597  10600     1   110.5600475 386.601600
  10598  10597  10599     1   109.7500473 328.025600
  10599  10597  10600     1   110.5600475 386.601600
  10600  10609  10610     1   109.5600471 388.275200
  10600  10609  10611     1   109.5600471 388.275200
  10601  10600  10609     1   109.8000471 387.438400
  10601  10600  10602     1   107.5800459 329.699200
  10602  10600  10609     1   109.8000471 387.438400
  10603  10615  10616     1   109.5600471 388.275200
  10603  10615  10617     1   109.5600471 388.275200
  10604  10603  10615     1   109.8000471 387.438400
  10604  10603  10605     1   107.5800459 329.699200
  10605  10603  10615     1   109.8000471 387.438400
  10606  10612  10613     1   109.5600471 388.275200
  10606  10612  10614     1   109.5600471 388.275200
  10607  10606  10612     1   109.8000471 387.438400
  10607  10606  10608     1   107.5800459 329.699200
  10608  10606  10612     1   109.8000471 387.438400
  10610  10609  10618     1   109.7800468 425.094400
  10610  10609  10611     1   108.4600466 328.025600
  10611  10609  10618     1   109.7800468 425.094400
  10613  10612  18968     1   109.7800468 425.094400
  10613  10612  10614     1   108.4600466 328.025600
  10614  10612  18968     1   109.7800468 425.094400
  10616  10615  18991     1   109.7800468 425.094400
  10616  10615  10617     1   108.4600466 328.025600
  10617  10615  18991     1   109.7800468 425.094400
  10620  10621  10622     1   108.0100461 406.684800
  10620  10621  10623     1   108.0100461 406.684800
  10620  10624  10625     1   108.0100461 406.684800
  10620  10624  10626     1   108.0100461 406.684800
  10620  10627  10628     1   108.0100461 406.684800
  10620  10627  10629     1   108.0100461 406.684800
  10621  10620  10649     1   110.1100470 384.091200
  10621  10633  10634     1   109.8000471 387.438400
  10621  10633  10635     1   109.8000471 387.438400
  10622  10621  10633     1   110.5600475 386.601600
  10622  10621  10623     1   109.7500473 328.025600
  10623  10621  10633     1   110.5600475 386.601600
  10624  10620  10649     1   110.1100470 384.091200
  10624  10636  10637     1   109.8000471 387.438400
  10624  10636  10638     1   109.8000471 387.438400
  10625  10624  10636     1   110.5600475 386.601600
  10625  10624  10626     1   109.7500473 328.025600
  10626  10624  10636     1   110.5600475 386.601600
  10627  10620  10649     1   110.1100470 384.091200
  10627  10630  10631     1   109.8000471 387.438400
  10627  10630  10632     1   109.8000471 387.438400
  10628  10627  10630     1   110.5600475 386.601600
  10628  10627  10629     1   109.7500473 328.025600
  10629  10627  10630     1   110.5600475 386.601600
  10630  10639  10640     1   109.5600471 388.275200
  10630  10639  10641     1   109.5600471 388.275200
  10631  10630  10639     1   109.8000471 387.438400
  10631  10630  10632     1   107.5800459 329.699200
  10632  10630  10639     1   109.8000471 387.438400
  10633  10645  10646     1   109.5600471 388.275200
  10633  10645  10647     1   109.5600471 388.275200
  10634  10633  10645     1   109.8000471 387.438400
  10634  10633  10635     1   107.5800459 329.699200
  10635  10633  10645     1   109.8000471 387.438400
  10636  10642  10643     1   109.5600471 388.275200
  10636  10642  10644     1   109.5600471 388.275200
  10637  10636  10642     1   109.8000471 387.438400
  10637  10636  10638     1   107.5800459 329.699200
  10638  10636  10642     1   109.8000471 387.438400
  10640  10639  10648     1   109.7800468 425.094400
  10640  10639  10641     1   108.4600466 328.025600
  10641  10639  10648     1   109.7800468 425.094400
  10643  10642  19014     1   109.7800468 425.094400
  10643  10642  10644     1   108.4600466 328.025600
  10644  10642  19014     1   109.7800468 425.094400
  10646  10645  19037     1   109.7800468 425.094400
  10646  10645  10647     1   108.4600466 328.025600
  10647  10645  19037     1   109.7800468 425.094400
  10650  10651  10652     1   108.0100461 406.684800
  10650  10651  10653     1   108.0100461 406.684800
  10650  10654  10655     1   108.0100461 406.684800
  10650  10654  10656     1   108.0100461 406.684800
  10650  10657  10658     1   108.0100461 406.684800
  10650  10657  10659     1   108.0100461 406.684800
  10651  10650  10679     1   110.1100470 384.091200
  10651  10663  10664     1   109.8000471 387.438400
  10651  10663  10665     1   109.8000471 387.438400
  10652  10651  10663     1   110.5600475 386.601600
  10652  10651  10653     1   109.7500473 328.025600
  10653  10651  10663     1   110.5600475 386.601600
  10654  10650  10679     1   110.1100470 384.091200
  10654  10666  10667     1   109.8000471 387.438400
  10654  10666  10668     1   109.8000471 387.438400
  10655  10654  10666     1   110.5600475 386.601600
  10655  10654  10656     1   109.7500473 328.025600
  10656  10654  10666     1   110.5600475 386.601600
  10657  10650  10679     1   110.1100470 384.091200
  10657  10660  10661     1   109.8000471 387.438400
  10657  10660  10662     1   109.8000471 387.438400
  10658  10657  10660     1   110.5600475 386.601600
  10658  10657  10659     1   109.7500473 328.025600
  10659  10657  10660     1   110.5600475 386.601600
  10660  10669  10670     1   109.5600471 388.275200
  10660  10669  10671     1   109.5600471 388.275200
  10661  10660  10669     1   109.8000471 387.438400
  10661  10660  10662     1   107.5800459 329.699200
  10662  10660  10669     1   109.8000471 387.438400
  10663  10675  10676     1   109.5600471 388.275200
  10663  10675  10677     1   109.5600471 388.275200
  10664  10663  10675     1   109.8000471 387.438400
  10664  10663  10665     1   107.5800459 329.699200
  10665  10663  10675     1   109.8000471 387.438400
  10666  10672  10673     1   109.5600471 388.275200
  10666  10672  10674     1   109.5600471 388.275200
  10667  10666  10672     1   109.8000471 387.438400
  10667  10666  10668     1   107.5800459 329.699200
  10668  10666  10672     1   109.8000471 387.438400
  10670  10669  10678     1   109.7800468 425.094400
  10670  10669  10671     1   108.4600466 328.025600
  10671  10669  10678     1   109.7800468 425.094400
  10673  10672  19060     1   109.7800468 425.094400
  10673  10672  10674     1   108.4600466 328.025600
  10674  10672  19060     1   109.7800468 425.094400
  10676  10675  19083     1   109.7800468 425.094400
  10676  10675  10677     1   108.4600466 328.025600
  10677  10675  19083     1   109.7800468 425.094400
  10680  10681  10682     1   108.0100461 406.684800
  10680  10681  10683     1   108.0100461 406.684800
  10680  10684  10685     1   108.0100461 406.684800
  10680  10684  10686     1   108.0100461 406.684800
  10680  10687  10688     1   108.0100461 406.684800
  10680  10687  10689     1   108.0100461 406.684800
  10681  10680  10709     1   110.1100470 384.091200
  10681  10693  10694     1   109.8000471 387.438400
  10681  10693  10695     1   109.8000471 387.438400
  10682  10681  10693     1   110.5600475 386.601600
  10682  10681  10683     1   109.7500473 328.025600
  10683  10681  10693     1   110.5600475 386.601600
  10684  10680  10709     1   110.1100470 384.091200
  10684  10696  10697     1   109.8000471 387.438400
  10684  10696  10698     1   109.8000471 387.438400
  10685  10684  10696     1   110.5600475 386.601600
  10685  10684  10686     1   109.7500473 328.025600
  10686  10684  10696     1   110.5600475 386.601600
  10687  10680  10709     1   110.1100470 384.091200
  10687  10690  10691     1   109.8000471 387.438400
  10687  10690  10692     1   109.8000471 387.438400
  10688  10687  10690     1   110.5600475 386.601600
  10688  10687  10689     1   109.7500473 328.025600
  10689  10687  10690     1   110.5600475 386.601600
  10690  10699  10700     1   109.5600471 388.275200
  10690  10699  10701     1   109.5600471 388.275200
  10691  10690  10699     1   109.8000471 387.438400
  10691  10690  10692     1   107.5800459 329.699200
  10692  10690  10699     1   109.8000471 387.438400
  10693  10705  10706     1   109.5600471 388.275200
  10693  10705  10707     1   109.5600471 388.275200
  10694  10693  10705     1   109.8000471 387.438400
  10694  10693  10695     1   107.5800459 329.699200
  10695  10693  10705     1   109.8000471 387.438400
  10696  10702  10703     1   109.5600471 388.275200
  10696  10702  10704     1   109.5600471 388.275200
  10697  10696  10702     1   109.8000471 387.438400
  10697  10696  10698     1   107.5800459 329.699200
  10698  10696  10702     1   109.8000471 387.438400
  10700  10699  10708     1   109.7800468 425.094400
  10700  10699  10701     1   108.4600466 328.025600
  10701  10699  10708     1   109.7800468 425.094400
  10703  10702  19106     1   109.7800468 425.094400
  10703  10702  10704     1   108.4600466 328.025600
  10704  10702  19106     1   109.7800468 425.094400
  10706  10705  19129     1   109.7800468 425.094400
  10706  10705  10707     1   108.4600466 328.025600
  10707  10705  19129     1   109.7800468 425.094400
  10710  10711  10712     1   108.0100461 406.684800
  10710  10711  10713     1   108.0100461 406.684800
  10710  10714  10715     1   108.0100461 406.684800
  10710  10714  10716     1   108.0100461 406.684800
  10710  10717  10718     1   108.0100461 406.684800
  10710  10717  10719     1   108.0100461 406.684800
  10711  10710  10739     1   110.1100470 384.091200
  10711  10723  10724     1   109.8000471 387.438400
  10711  10723  10725     1   109.8000471 387.438400
  10712  10711  10723     1   110.5600475 386.601600
  10712  10711  10713     1   109.7500473 328.025600
  10713  10711  10723     1   110.5600475 386.601600
  10714  10710  10739     1   110.1100470 384.091200
  10714  10726  10727     1   109.8000471 387.438400
  10714  10726  10728     1   109.8000471 387.438400
  10715  10714  10726     1   110.5600475 386.601600
  10715  10714  10716     1   109.7500473 328.025600
  10716  10714  10726     1   110.5600475 386.601600
  10717  10710  10739     1   110.1100470 384.091200
  10717  10720  10721     1   109.8000471 387.438400
  10717  10720  10722     1   109.8000471 387.438400
  10718  10717  10720     1   110.5600475 386.601600
  10718  10717  10719     1   109.7500473 328.025600
  10719  10717  10720     1   110.5600475 386.601600
  10720  10729  10730     1   109.5600471 388.275200
  10720  10729  10731     1   109.5600471 388.275200
  10721  10720  10729     1   109.8000471 387.438400
  10721  10720  10722     1   107.5800459 329.699200
  10722  10720  10729     1   109.8000471 387.438400
  10723  10735  10736     1   109.5600471 388.275200
  10723  10735  10737     1   109.5600471 388.275200
  10724  10723  10735     1   109.8000471 387.438400
  10724  10723  10725     1   107.5800459 329.699200
  10725  10723  10735     1   109.8000471 387.438400
  10726  10732  10733     1   109.5600471 388.275200
  10726  10732  10734     1   109.5600471 388.275200
  10727  10726  10732     1   109.8000471 387.438400
  10727  10726  10728     1   107.5800459 329.699200
  10728  10726  10732     1   109.8000471 387.438400
  10730  10729  10738     1   109.7800468 425.094400
  10730  10729  10731     1   108.4600466 328.025600
  10731  10729  10738     1   109.7800468 425.094400
  10733  10732  19152     1   109.7800468 425.094400
  10733  10732  10734     1   108.4600466 328.025600
  10734  10732  19152     1   109.7800468 425.094400
  10736  10735  19175     1   109.7800468 425.094400
  10736  10735  10737     1   108.4600466 328.025600
  10737  10735  19175     1   109.7800468 425.094400
  10740  10741  10742     1   108.0100461 406.684800
  10740  10741  10743     1   108.0100461 406.684800
  10740  10744  10745     1   108.0100461 406.684800
  10740  10744  10746     1   108.0100461 406.684800
  10740  10747  10748     1   108.0100461 406.684800
  10740  10747  10749     1   108.0100461 406.684800
  10741  10740  10769     1   110.1100470 384.091200
  10741  10753  10754     1   109.8000471 387.438400
  10741  10753  10755     1   109.8000471 387.438400
  10742  10741  10753     1   110.5600475 386.601600
  10742  10741  10743     1   109.7500473 328.025600
  10743  10741  10753     1   110.5600475 386.601600
  10744  10740  10769     1   110.1100470 384.091200
  10744  10756  10757     1   109.8000471 387.438400
  10744  10756  10758     1   109.8000471 387.438400
  10745  10744  10756     1   110.5600475 386.601600
  10745  10744  10746     1   109.7500473 328.025600
  10746  10744  10756     1   110.5600475 386.601600
  10747  10740  10769     1   110.1100470 384.091200
  10747  10750  10751     1   109.8000471 387.438400
  10747  10750  10752     1   109.8000471 387.438400
  10748  10747  10750     1   110.5600475 386.601600
  10748  10747  10749     1   109.7500473 328.025600
  10749  10747  10750     1   110.5600475 386.601600
  10750  10759  10760     1   109.5600471 388.275200
  10750  10759  10761     1   109.5600471 388.275200
  10751  10750  10759     1   109.8000471 387.438400
  10751  10750  10752     1   107.5800459 329.699200
  10752  10750  10759     1   109.8000471 387.438400
  10753  10765  10766     1   109.5600471 388.275200
  10753  10765  10767     1   109.5600471 388.275200
  10754  10753  10765     1   109.8000471 387.438400
  10754  10753  10755     1   107.5800459 329.699200
  10755  10753  10765     1   109.8000471 387.438400
  10756  10762  10763     1   109.5600471 388.275200
  10756  10762  10764     1   109.5600471 388.275200
  10757  10756  10762     1   109.8000471 387.438400
  10757  10756  10758     1   107.5800459 329.699200
  10758  10756  10762     1   109.8000471 387.438400
  10760  10759  10768     1   109.7800468 425.094400
  10760  10759  10761     1   108.4600466 328.025600
  10761  10759  10768     1   109.7800468 425.094400
  10763  10762  19198     1   109.7800468 425.094400
  10763  10762  10764     1   108.4600466 328.025600
  10764  10762  19198     1   109.7800468 425.094400
  10766  10765  19221     1   109.7800468 425.094400
  10766  10765  10767     1   108.4600466 328.025600
  10767  10765  19221     1   109.7800468 425.094400
  10770  10771  10772     1   108.0100461 406.684800
  10770  10771  10773     1   108.0100461 406.684800
  10770  10774  10775     1   108.0100461 406.684800
  10770  10774  10776     1   108.0100461 406.684800
  10770  10777  10778     1   108.0100461 406.684800
  10770  10777  10779     1   108.0100461 406.684800
  10771  10770  10799     1   110.1100470 384.091200
  10771  10783  10784     1   109.8000471 387.438400
  10771  10783  10785     1   109.8000471 387.438400
  10772  10771  10783     1   110.5600475 386.601600
  10772  10771  10773     1   109.7500473 328.025600
  10773  10771  10783     1   110.5600475 386.601600
  10774  10770  10799     1   110.1100470 384.091200
  10774  10786  10787     1   109.8000471 387.438400
  10774  10786  10788     1   109.8000471 387.438400
  10775  10774  10786     1   110.5600475 386.601600
  10775  10774  10776     1   109.7500473 328.025600
  10776  10774  10786     1   110.5600475 386.601600
  10777  10770  10799     1   110.1100470 384.091200
  10777  10780  10781     1   109.8000471 387.438400
  10777  10780  10782     1   109.8000471 387.438400
  10778  10777  10780     1   110.5600475 386.601600
  10778  10777  10779     1   109.7500473 328.025600
  10779  10777  10780     1   110.5600475 386.601600
  10780  10789  10790     1   109.5600471 388.275200
  10780  10789  10791     1   109.5600471 388.275200
  10781  10780  10789     1   109.8000471 387.438400
  10781  10780  10782     1   107.5800459 329.699200
  10782  10780  10789     1   109.8000471 387.438400
  10783  10795  10796     1   109.5600471 388.275200
  10783  10795  10797     1   109.5600471 388.275200
  10784  10783  10795     1   109.8000471 387.438400
  10784  10783  10785     1   107.5800459 329.699200
  10785  10783  10795     1   109.8000471 387.438400
  10786  10792  10793     1   109.5600471 388.275200
  10786  10792  10794     1   109.5600471 388.275200
  10787  10786  10792     1   109.8000471 387.438400
  10787  10786  10788     1   107.5800459 329.699200
  10788  10786  10792     1   109.8000471 387.438400
  10790  10789  10798     1   109.7800468 425.094400
  10790  10789  10791     1   108.4600466 328.025600
  10791  10789  10798     1   109.7800468 425.094400
  10793  10792  19244     1   109.7800468 425.094400
  10793  10792  10794     1   108.4600466 328.025600
  10794  10792  19244     1   109.7800468 425.094400
  10796  10795  19267     1   109.7800468 425.094400
  10796  10795  10797     1   108.4600466 328.025600
  10797  10795  19267     1   109.7800468 425.094400
  10800  10801  10802     1   108.0100461 406.684800
  10800  10801  10803     1   108.0100461 406.684800
  10800  10804  10805     1   108.0100461 406.684800
  10800  10804  10806     1   108.0100461 406.684800
  10800  10807  10808     1   108.0100461 406.684800
  10800  10807  10809     1   108.0100461 406.684800
  10801  10800  10829     1   110.1100470 384.091200
  10801  10813  10814     1   109.8000471 387.438400
  10801  10813  10815     1   109.8000471 387.438400
  10802  10801  10813     1   110.5600475 386.601600
  10802  10801  10803     1   109.7500473 328.025600
  10803  10801  10813     1   110.5600475 386.601600
  10804  10800  10829     1   110.1100470 384.091200
  10804  10816  10817     1   109.8000471 387.438400
  10804  10816  10818     1   109.8000471 387.438400
  10805  10804  10816     1   110.5600475 386.601600
  10805  10804  10806     1   109.7500473 328.025600
  10806  10804  10816     1   110.5600475 386.601600
  10807  10800  10829     1   110.1100470 384.091200
  10807  10810  10811     1   109.8000471 387.438400
  10807  10810  10812     1   109.8000471 387.438400
  10808  10807  10810     1   110.5600475 386.601600
  10808  10807  10809     1   109.7500473 328.025600
  10809  10807  10810     1   110.5600475 386.601600
  10810  10819  10820     1   109.5600471 388.275200
  10810  10819  10821     1   109.5600471 388.275200
  10811  10810  10819     1   109.8000471 387.438400
  10811  10810  10812     1   107.5800459 329.699200
  10812  10810  10819     1   109.8000471 387.438400
  10813  10825  10826     1   109.5600471 388.275200
  10813  10825  10827     1   109.5600471 388.275200
  10814  10813  10825     1   109.8000471 387.438400
  10814  10813  10815     1   107.5800459 329.699200
  10815  10813  10825     1   109.8000471 387.438400
  10816  10822  10823     1   109.5600471 388.275200
  10816  10822  10824     1   109.5600471 388.275200
  10817  10816  10822     1   109.8000471 387.438400
  10817  10816  10818     1   107.5800459 329.699200
  10818  10816  10822     1   109.8000471 387.438400
  10820  10819  10828     1   109.7800468 425.094400
  10820  10819  10821     1   108.4600466 328.025600
  10821  10819  10828     1   109.7800468 425.094400
  10823  10822  19290     1   109.7800468 425.094400
  10823  10822  10824     1   108.4600466 328.025600
  10824  10822  19290     1   109.7800468 425.094400
  10826  10825  19313     1   109.7800468 425.094400
  10826  10825  10827     1   108.4600466 328.025600
  10827  10825  19313     1   109.7800468 425.094400
  10830  10831  10832     1   108.0100461 406.684800
  10830  10831  10833     1   108.0100461 406.684800
  10830  10834  10835     1   108.0100461 406.684800
  10830  10834  10836     1   108.0100461 406.684800
  10830  10837  10838     1   108.0100461 406.684800
  10830  10837  10839     1   108.0100461 406.684800
  10831  10830  10859     1   110.1100470 384.091200
  10831  10843  10844     1   109.8000471 387.438400
  10831  10843  10845     1   109.8000471 387.438400
  10832  10831  10843     1   110.5600475 386.601600
  10832  10831  10833     1   109.7500473 328.025600
  10833  10831  10843     1   110.5600475 386.601600
  10834  10830  10859     1   110.1100470 384.091200
  10834  10846  10847     1   109.8000471 387.438400
  10834  10846  10848     1   109.8000471 387.438400
  10835  10834  10846     1   110.5600475 386.601600
  10835  10834  10836     1   109.7500473 328.025600
  10836  10834  10846     1   110.5600475 386.601600
  10837  10830  10859     1   110.1100470 384.091200
  10837  10840  10841     1   109.8000471 387.438400
  10837  10840  10842     1   109.8000471 387.438400
  10838  10837  10840     1   110.5600475 386.601600
  10838  10837  10839     1   109.7500473 328.025600
  10839  10837  10840     1   110.5600475 386.601600
  10840  10849  10850     1   109.5600471 388.275200
  10840  10849  10851     1   109.5600471 388.275200
  10841  10840  10849     1   109.8000471 387.438400
  10841  10840  10842     1   107.5800459 329.699200
  10842  10840  10849     1   109.8000471 387.438400
  10843  10855  10856     1   109.5600471 388.275200
  10843  10855  10857     1   109.5600471 388.275200
  10844  10843  10855     1   109.8000471 387.438400
  10844  10843  10845     1   107.5800459 329.699200
  10845  10843  10855     1   109.8000471 387.438400
  10846  10852  10853     1   109.5600471 388.275200
  10846  10852  10854     1   109.5600471 388.275200
  10847  10846  10852     1   109.8000471 387.438400
  10847  10846  10848     1   107.5800459 329.699200
  10848  10846  10852     1   109.8000471 387.438400
  10850  10849  10858     1   109.7800468 425.094400
  10850  10849  10851     1   108.4600466 328.025600
  10851  10849  10858     1   109.7800468 425.094400
  10853  10852  19336     1   109.7800468 425.094400
  10853  10852  10854     1   108.4600466 328.025600
  10854  10852  19336     1   109.7800468 425.094400
  10856  10855  19359     1   109.7800468 425.094400
  10856  10855  10857     1   108.4600466 328.025600
  10857  10855  19359     1   109.7800468 425.094400
  10860  10861  10862     1   108.0100461 406.684800
  10860  10861  10863     1   108.0100461 406.684800
  10860  10864  10865     1   108.0100461 406.684800
  10860  10864  10866     1   108.0100461 406.684800
  10860  10867  10868     1   108.0100461 406.684800
  10860  10867  10869     1   108.0100461 406.684800
  10861  10860  10889     1   110.1100470 384.091200
  10861  10873  10874     1   109.8000471 387.438400
  10861  10873  10875     1   109.8000471 387.438400
  10862  10861  10873     1   110.5600475 386.601600
  10862  10861  10863     1   109.7500473 328.025600
  10863  10861  10873     1   110.5600475 386.601600
  10864  10860  10889     1   110.1100470 384.091200
  10864  10876  10877     1   109.8000471 387.438400
  10864  10876  10878     1   109.8000471 387.438400
  10865  10864  10876     1   110.5600475 386.601600
  10865  10864  10866     1   109.7500473 328.025600
  10866  10864  10876     1   110.5600475 386.601600
  10867  10860  10889     1   110.1100470 384.091200
  10867  10870  10871     1   109.8000471 387.438400
  10867  10870  10872     1   109.8000471 387.438400
  10868  10867  10870     1   110.5600475 386.601600
  10868  10867  10869     1   109.7500473 328.025600
  10869  10867  10870     1   110.5600475 386.601600
  10870  10879  10880     1   109.5600471 388.275200
  10870  10879  10881     1   109.5600471 388.275200
  10871  10870  10879     1   109.8000471 387.438400
  10871  10870  10872     1   107.5800459 329.699200
  10872  10870  10879     1   109.8000471 387.438400
  10873  10885  10886     1   109.5600471 388.275200
  10873  10885  10887     1   109.5600471 388.275200
  10874  10873  10885     1   109.8000471 387.438400
  10874  10873  10875     1   107.5800459 329.699200
  10875  10873  10885     1   109.8000471 387.438400
  10876  10882  10883     1   109.5600471 388.275200
  10876  10882  10884     1   109.5600471 388.275200
  10877  10876  10882     1   109.8000471 387.438400
  10877  10876  10878     1   107.5800459 329.699200
  10878  10876  10882     1   109.8000471 387.438400
  10880  10879  10888     1   109.7800468 425.094400
  10880  10879  10881     1   108.4600466 328.025600
  10881  10879  10888     1   109.7800468 425.094400
  10883  10882  19382     1   109.7800468 425.094400
  10883  10882  10884     1   108.4600466 328.025600
  10884  10882  19382     1   109.7800468 425.094400
  10886  10885  19405     1   109.7800468 425.094400
  10886  10885  10887     1   108.4600466 328.025600
  10887  10885  19405     1   109.7800468 425.094400
  10890  10891  10892     1   108.0100461 406.684800
  10890  10891  10893     1   108.0100461 406.684800
  10890  10894  10895     1   108.0100461 406.684800
  10890  10894  10896     1   108.0100461 406.684800
  10890  10897  10898     1   108.0100461 406.684800
  10890  10897  10899     1   108.0100461 406.684800
  10891  10890  10919     1   110.1100470 384.091200
  10891  10903  10904     1   109.8000471 387.438400
  10891  10903  10905     1   109.8000471 387.438400
  10892  10891  10903     1   110.5600475 386.601600
  10892  10891  10893     1   109.7500473 328.025600
  10893  10891  10903     1   110.5600475 386.601600
  10894  10890  10919     1   110.1100470 384.091200
  10894  10906  10907     1   109.8000471 387.438400
  10894  10906  10908     1   109.8000471 387.438400
  10895  10894  10906     1   110.5600475 386.601600
  10895  10894  10896     1   109.7500473 328.025600
  10896  10894  10906     1   110.5600475 386.601600
  10897  10890  10919     1   110.1100470 384.091200
  10897  10900  10901     1   109.8000471 387.438400
  10897  10900  10902     1   109.8000471 387.438400
  10898  10897  10900     1   110.5600475 386.601600
  10898  10897  10899     1   109.7500473 328.025600
  10899  10897  10900     1   110.5600475 386.601600
  10900  10909  10910     1   109.5600471 388.275200
  10900  10909  10911     1   109.5600471 388.275200
  10901  10900  10909     1   109.8000471 387.438400
  10901  10900  10902     1   107.5800459 329.699200
  10902  10900  10909     1   109.8000471 387.438400
  10903  10915  10916     1   109.5600471 388.275200
  10903  10915  10917     1   109.5600471 388.275200
  10904  10903  10915     1   109.8000471 387.438400
  10904  10903  10905     1   107.5800459 329.699200
  10905  10903  10915     1   109.8000471 387.438400
  10906  10912  10913     1   109.5600471 388.275200
  10906  10912  10914     1   109.5600471 388.275200
  10907  10906  10912     1   109.8000471 387.438400
  10907  10906  10908     1   107.5800459 329.699200
  10908  10906  10912     1   109.8000471 387.438400
  10910  10909  10918     1   109.7800468 425.094400
  10910  10909  10911     1   108.4600466 328.025600
  10911  10909  10918     1   109.7800468 425.094400
  10913  10912  19428     1   109.7800468 425.094400
  10913  10912  10914     1   108.4600466 328.025600
  10914  10912  19428     1   109.7800468 425.094400
  10916  10915  19451     1   109.7800468 425.094400
  10916  10915  10917     1   108.4600466 328.025600
  10917  10915  19451     1   109.7800468 425.094400
  10920  10921  10922     1   108.0100461 406.684800
  10920  10921  10923     1   108.0100461 406.684800
  10920  10924  10925     1   108.0100461 406.684800
  10920  10924  10926     1   108.0100461 406.684800
  10920  10927  10928     1   108.0100461 406.684800
  10920  10927  10929     1   108.0100461 406.684800
  10921  10920  10949     1   110.1100470 384.091200
  10921  10933  10934     1   109.8000471 387.438400
  10921  10933  10935     1   109.8000471 387.438400
  10922  10921  10933     1   110.5600475 386.601600
  10922  10921  10923     1   109.7500473 328.025600
  10923  10921  10933     1   110.5600475 386.601600
  10924  10920  10949     1   110.1100470 384.091200
  10924  10936  10937     1   109.8000471 387.438400
  10924  10936  10938     1   109.8000471 387.438400
  10925  10924  10936     1   110.5600475 386.601600
  10925  10924  10926     1   109.7500473 328.025600
  10926  10924  10936     1   110.5600475 386.601600
  10927  10920  10949     1   110.1100470 384.091200
  10927  10930  10931     1   109.8000471 387.438400
  10927  10930  10932     1   109.8000471 387.438400
  10928  10927  10930     1   110.5600475 386.601600
  10928  10927  10929     1   109.7500473 328.025600
  10929  10927  10930     1   110.5600475 386.601600
  10930  10939  10940     1   109.5600471 388.275200
  10930  10939  10941     1   109.5600471 388.275200
  10931  10930  10939     1   109.8000471 387.438400
  10931  10930  10932     1   107.5800459 329.699200
  10932  10930  10939     1   109.8000471 387.438400
  10933  10945  10946     1   109.5600471 388.275200
  10933  10945  10947     1   109.5600471 388.275200
  10934  10933  10945     1   109.8000471 387.438400
  10934  10933  10935     1   107.5800459 329.699200
  10935  10933  10945     1   109.8000471 387.438400
  10936  10942  10943     1   109.5600471 388.275200
  10936  10942  10944     1   109.5600471 388.275200
  10937  10936  10942     1   109.8000471 387.438400
  10937  10936  10938     1   107.5800459 329.699200
  10938  10936  10942     1   109.8000471 387.438400
  10940  10939  10948     1   109.7800468 425.094400
  10940  10939  10941     1   108.4600466 328.025600
  10941  10939  10948     1   109.7800468 425.094400
  10943  10942  19474     1   109.7800468 425.094400
  10943  10942  10944     1   108.4600466 328.025600
  10944  10942  19474     1   109.7800468 425.094400
  10946  10945  19497     1   109.7800468 425.094400
  10946  10945  10947     1   108.4600466 328.025600
  10947  10945  19497     1   109.7800468 425.094400
  10950  10951  10952     1   108.0100461 406.684800
  10950  10951  10953     1   108.0100461 406.684800
  10950  10954  10955     1   108.0100461 406.684800
  10950  10954  10956     1   108.0100461 406.684800
  10950  10957  10958     1   108.0100461 406.684800
  10950  10957  10959     1   108.0100461 406.684800
  10951  10950  10979     1   110.1100470 384.091200
  10951  10963  10964     1   109.8000471 387.438400
  10951  10963  10965     1   109.8000471 387.438400
  10952  10951  10963     1   110.5600475 386.601600
  10952  10951  10953     1   109.7500473 328.025600
  10953  10951  10963     1   110.5600475 386.601600
  10954  10950  10979     1   110.1100470 384.091200
  10954  10966  10967     1   109.8000471 387.438400
  10954  10966  10968     1   109.8000471 387.438400
  10955  10954  10966     1   110.5600475 386.601600
  10955  10954  10956     1   109.7500473 328.025600
  10956  10954  10966     1   110.5600475 386.601600
  10957  10950  10979     1   110.1100470 384.091200
  10957  10960  10961     1   109.8000471 387.438400
  10957  10960  10962     1   109.8000471 387.438400
  10958  10957  10960     1   110.5600475 386.601600
  10958  10957  10959     1   109.7500473 328.025600
  10959  10957  10960     1   110.5600475 386.601600
  10960  10969  10970     1   109.5600471 388.275200
  10960  10969  10971     1   109.5600471 388.275200
  10961  10960  10969     1   109.8000471 387.438400
  10961  10960  10962     1   107.5800459 329.699200
  10962  10960  10969     1   109.8000471 387.438400
  10963  10975  10976     1   109.5600471 388.275200
  10963  10975  10977     1   109.5600471 388.275200
  10964  10963  10975     1   109.8000471 387.438400
  10964  10963  10965     1   107.5800459 329.699200
  10965  10963  10975     1   109.8000471 387.438400
  10966  10972  10973     1   109.5600471 388.275200
  10966  10972  10974     1   109.5600471 388.275200
  10967  10966  10972     1   109.8000471 387.438400
  10967  10966  10968     1   107.5800459 329.699200
  10968  10966  10972     1   109.8000471 387.438400
  10970  10969  10978     1   109.7800468 425.094400
  10970  10969  10971     1   108.4600466 328.025600
  10971  10969  10978     1   109.7800468 425.094400
  10973  10972  19520     1   109.7800468 425.094400
  10973  10972  10974     1   108.4600466 328.025600
  10974  10972  19520     1   109.7800468 425.094400
  10976  10975  19543     1   109.7800468 425.094400
  10976  10975  10977     1   108.4600466 328.025600
  10977  10975  19543     1   109.7800468 425.094400
  10980  10981  10982     1   108.0100461 406.684800
  10980  10981  10983     1   108.0100461 406.684800
  10980  10984  10985     1   108.0100461 406.684800
  10980  10984  10986     1   108.0100461 406.684800
  10980  10987  10988     1   108.0100461 406.684800
  10980  10987  10989     1   108.0100461 406.684800
  10981  10980  11009     1   110.1100470 384.091200
  10981  10993  10994     1   109.8000471 387.438400
  10981  10993  10995     1   109.8000471 387.438400
  10982  10981  10993     1   110.5600475 386.601600
  10982  10981  10983     1   109.7500473 328.025600
  10983  10981  10993     1   110.5600475 386.601600
  10984  10980  11009     1   110.1100470 384.091200
  10984  10996  10997     1   109.8000471 387.438400
  10984  10996  10998     1   109.8000471 387.438400
  10985  10984  10996     1   110.5600475 386.601600
  10985  10984  10986     1   109.7500473 328.025600
  10986  10984  10996     1   110.5600475 386.601600
  10987  10980  11009     1   110.1100470 384.091200
  10987  10990  10991     1   109.8000471 387.438400
  10987  10990  10992     1   109.8000471 387.438400
  10988  10987  10990     1   110.5600475 386.601600
  10988  10987  10989     1   109.7500473 328.025600
  10989  10987  10990     1   110.5600475 386.601600
  10990  10999  11000     1   109.5600471 388.275200
  10990  10999  11001     1   109.5600471 388.275200
  10991  10990  10999     1   109.8000471 387.438400
  10991  10990  10992     1   107.5800459 329.699200
  10992  10990  10999     1   109.8000471 387.438400
  10993  11005  11006     1   109.5600471 388.275200
  10993  11005  11007     1   109.5600471 388.275200
  10994  10993  11005     1   109.8000471 387.438400
  10994  10993  10995     1   107.5800459 329.699200
  10995  10993  11005     1   109.8000471 387.438400
  10996  11002  11003     1   109.5600471 388.275200
  10996  11002  11004     1   109.5600471 388.275200
  10997  10996  11002     1   109.8000471 387.438400
  10997  10996  10998     1   107.5800459 329.699200
  10998  10996  11002     1   109.8000471 387.438400
  11000  10999  11008     1   109.7800468 425.094400
  11000  10999  11001     1   108.4600466 328.025600
  11001  10999  11008     1   109.7800468 425.094400
  11003  11002  19566     1   109.7800468 425.094400
  11003  11002  11004     1   108.4600466 328.025600
  11004  11002  19566     1   109.7800468 425.094400
  11006  11005  19589     1   109.7800468 425.094400
  11006  11005  11007     1   108.4600466 328.025600
  11007  11005  19589     1   109.7800468 425.094400
  11010  11011  11012     1   108.0100461 406.684800
  11010  11011  11013     1   108.0100461 406.684800
  11010  11014  11015     1   108.0100461 406.684800
  11010  11014  11016     1   108.0100461 406.684800
  11010  11017  11018     1   108.0100461 406.684800
  11010  11017  11019     1   108.0100461 406.684800
  11011  11010  11039     1   110.1100470 384.091200
  11011  11023  11024     1   109.8000471 387.438400
  11011  11023  11025     1   109.8000471 387.438400
  11012  11011  11023     1   110.5600475 386.601600
  11012  11011  11013     1   109.7500473 328.025600
  11013  11011  11023     1   110.5600475 386.601600
  11014  11010  11039     1   110.1100470 384.091200
  11014  11026  11027     1   109.8000471 387.438400
  11014  11026  11028     1   109.8000471 387.438400
  11015  11014  11026     1   110.5600475 386.601600
  11015  11014  11016     1   109.7500473 328.025600
  11016  11014  11026     1   110.5600475 386.601600
  11017  11010  11039     1   110.1100470 384.091200
  11017  11020  11021     1   109.8000471 387.438400
  11017  11020  11022     1   109.8000471 387.438400
  11018  11017  11020     1   110.5600475 386.601600
  11018  11017  11019     1   109.7500473 328.025600
  11019  11017  11020     1   110.5600475 386.601600
  11020  11029  11030     1   109.5600471 388.275200
  11020  11029  11031     1   109.5600471 388.275200
  11021  11020  11029     1   109.8000471 387.438400
  11021  11020  11022     1   107.5800459 329.699200
  11022  11020  11029     1   109.8000471 387.438400
  11023  11035  11036     1   109.5600471 388.275200
  11023  11035  11037     1   109.5600471 388.275200
  11024  11023  11035     1   109.8000471 387.438400
  11024  11023  11025     1   107.5800459 329.699200
  11025  11023  11035     1   109.8000471 387.438400
  11026  11032  11033     1   109.5600471 388.275200
  11026  11032  11034     1   109.5600471 388.275200
  11027  11026  11032     1   109.8000471 387.438400
  11027  11026  11028     1   107.5800459 329.699200
  11028  11026  11032     1   109.8000471 387.438400
  11030  11029  11038     1   109.7800468 425.094400
  11030  11029  11031     1   108.4600466 328.025600
  11031  11029  11038     1   109.7800468 425.094400
  11033  11032  19612     1   109.7800468 425.094400
  11033  11032  11034     1   108.4600466 328.025600
  11034  11032  19612     1   109.7800468 425.094400
  11036  11035  19635     1   109.7800468 425.094400
  11036  11035  11037     1   108.4600466 328.025600
  11037  11035  19635     1   109.7800468 425.094400
  11040  11041  11042     1   108.0100461 406.684800
  11040  11041  11043     1   108.0100461 406.684800
  11040  11044  11045     1   108.0100461 406.684800
  11040  11044  11046     1   108.0100461 406.684800
  11040  11047  11048     1   108.0100461 406.684800
  11040  11047  11049     1   108.0100461 406.684800
  11041  11040  11069     1   110.1100470 384.091200
  11041  11053  11054     1   109.8000471 387.438400
  11041  11053  11055     1   109.8000471 387.438400
  11042  11041  11053     1   110.5600475 386.601600
  11042  11041  11043     1   109.7500473 328.025600
  11043  11041  11053     1   110.5600475 386.601600
  11044  11040  11069     1   110.1100470 384.091200
  11044  11056  11057     1   109.8000471 387.438400
  11044  11056  11058     1   109.8000471 387.438400
  11045  11044  11056     1   110.5600475 386.601600
  11045  11044  11046     1   109.7500473 328.025600
  11046  11044  11056     1   110.5600475 386.601600
  11047  11040  11069     1   110.1100470 384.091200
  11047  11050  11051     1   109.8000471 387.438400
  11047  11050  11052     1   109.8000471 387.438400
  11048  11047  11050     1   110.5600475 386.601600
  11048  11047  11049     1   109.7500473 328.025600
  11049  11047  11050     1   110.5600475 386.601600
  11050  11059  11060     1   109.5600471 388.275200
  11050  11059  11061     1   109.5600471 388.275200
  11051  11050  11059     1   109.8000471 387.438400
  11051  11050  11052     1   107.5800459 329.699200
  11052  11050  11059     1   109.8000471 387.438400
  11053  11065  11066     1   109.5600471 388.275200
  11053  11065  11067     1   109.5600471 388.275200
  11054  11053  11065     1   109.8000471 387.438400
  11054  11053  11055     1   107.5800459 329.699200
  11055  11053  11065     1   109.8000471 387.438400
  11056  11062  11063     1   109.5600471 388.275200
  11056  11062  11064     1   109.5600471 388.275200
  11057  11056  11062     1   109.8000471 387.438400
  11057  11056  11058     1   107.5800459 329.699200
  11058  11056  11062     1   109.8000471 387.438400
  11060  11059  11068     1   109.7800468 425.094400
  11060  11059  11061     1   108.4600466 328.025600
  11061  11059  11068     1   109.7800468 425.094400
  11063  11062  19658     1   109.7800468 425.094400
  11063  11062  11064     1   108.4600466 328.025600
  11064  11062  19658     1   109.7800468 425.094400
  11066  11065  19681     1   109.7800468 425.094400
  11066  11065  11067     1   108.4600466 328.025600
  11067  11065  19681     1   109.7800468 425.094400
  11070  11071  11072     1   108.0100461 406.684800
  11070  11071  11073     1   108.0100461 406.684800
  11070  11074  11075     1   108.0100461 406.684800
  11070  11074  11076     1   108.0100461 406.684800
  11070  11077  11078     1   108.0100461 406.684800
  11070  11077  11079     1   108.0100461 406.684800
  11071  11070  11099     1   110.1100470 384.091200
  11071  11083  11084     1   109.8000471 387.438400
  11071  11083  11085     1   109.8000471 387.438400
  11072  11071  11083     1   110.5600475 386.601600
  11072  11071  11073     1   109.7500473 328.025600
  11073  11071  11083     1   110.5600475 386.601600
  11074  11070  11099     1   110.1100470 384.091200
  11074  11086  11087     1   109.8000471 387.438400
  11074  11086  11088     1   109.8000471 387.438400
  11075  11074  11086     1   110.5600475 386.601600
  11075  11074  11076     1   109.7500473 328.025600
  11076  11074  11086     1   110.5600475 386.601600
  11077  11070  11099     1   110.1100470 384.091200
  11077  11080  11081     1   109.8000471 387.438400
  11077  11080  11082     1   109.8000471 387.438400
  11078  11077  11080     1   110.5600475 386.601600
  11078  11077  11079     1   109.7500473 328.025600
  11079  11077  11080     1   110.5600475 386.601600
  11080  11089  11090     1   109.5600471 388.275200
  11080  11089  11091     1   109.5600471 388.275200
  11081  11080  11089     1   109.8000471 387.438400
  11081  11080  11082     1   107.5800459 329.699200
  11082  11080  11089     1   109.8000471 387.438400
  11083  11095  11096     1   109.5600471 388.275200
  11083  11095  11097     1   109.5600471 388.275200
  11084  11083  11095     1   109.8000471 387.438400
  11084  11083  11085     1   107.5800459 329.699200
  11085  11083  11095     1   109.8000471 387.438400
  11086  11092  11093     1   109.5600471 388.275200
  11086  11092  11094     1   109.5600471 388.275200
  11087  11086  11092     1   109.8000471 387.438400
  11087  11086  11088     1   107.5800459 329.699200
  11088  11086  11092     1   109.8000471 387.438400
  11090  11089  11098     1   109.7800468 425.094400
  11090  11089  11091     1   108.4600466 328.025600
  11091  11089  11098     1   109.7800468 425.094400
  11093  11092  19704     1   109.7800468 425.094400
  11093  11092  11094     1   108.4600466 328.025600
  11094  11092  19704     1   109.7800468 425.094400
  11096  11095  19727     1   109.7800468 425.094400
  11096  11095  11097     1   108.4600466 328.025600
  11097  11095  19727     1   109.7800468 425.094400
  11100  11101  11102     1   108.0100461 406.684800
  11100  11101  11103     1   108.0100461 406.684800
  11100  11104  11105     1   108.0100461 406.684800
  11100  11104  11106     1   108.0100461 406.684800
  11100  11107  11108     1   108.0100461 406.684800
  11100  11107  11109     1   108.0100461 406.684800
  11101  11100  11129     1   110.1100470 384.091200
  11101  11113  11114     1   109.8000471 387.438400
  11101  11113  11115     1   109.8000471 387.438400
  11102  11101  11113     1   110.5600475 386.601600
  11102  11101  11103     1   109.7500473 328.025600
  11103  11101  11113     1   110.5600475 386.601600
  11104  11100  11129     1   110.1100470 384.091200
  11104  11116  11117     1   109.8000471 387.438400
  11104  11116  11118     1   109.8000471 387.438400
  11105  11104  11116     1   110.5600475 386.601600
  11105  11104  11106     1   109.7500473 328.025600
  11106  11104  11116     1   110.5600475 386.601600
  11107  11100  11129     1   110.1100470 384.091200
  11107  11110  11111     1   109.8000471 387.438400
  11107  11110  11112     1   109.8000471 387.438400
  11108  11107  11110     1   110.5600475 386.601600
  11108  11107  11109     1   109.7500473 328.025600
  11109  11107  11110     1   110.5600475 386.601600
  11110  11119  11120     1   109.5600471 388.275200
  11110  11119  11121     1   109.5600471 388.275200
  11111  11110  11119     1   109.8000471 387.438400
  11111  11110  11112     1   107.5800459 329.699200
  11112  11110  11119     1   109.8000471 387.438400
  11113  11125  11126     1   109.5600471 388.275200
  11113  11125  11127     1   109.5600471 388.275200
  11114  11113  11125     1   109.8000471 387.438400
  11114  11113  11115     1   107.5800459 329.699200
  11115  11113  11125     1   109.8000471 387.438400
  11116  11122  11123     1   109.5600471 388.275200
  11116  11122  11124     1   109.5600471 388.275200
  11117  11116  11122     1   109.8000471 387.438400
  11117  11116  11118     1   107.5800459 329.699200
  11118  11116  11122     1   109.8000471 387.438400
  11120  11119  11128     1   109.7800468 425.094400
  11120  11119  11121     1   108.4600466 328.025600
  11121  11119  11128     1   109.7800468 425.094400
  11123  11122  19750     1   109.7800468 425.094400
  11123  11122  11124     1   108.4600466 328.025600
  11124  11122  19750     1   109.7800468 425.094400
  11126  11125  19773     1   109.7800468 425.094400
  11126  11125  11127     1   108.4600466 328.025600
  11127  11125  19773     1   109.7800468 425.094400
  11130  11131  11132     1   108.0100461 406.684800
  11130  11131  11133     1   108.0100461 406.684800
  11130  11134  11135     1   108.0100461 406.684800
  11130  11134  11136     1   108.0100461 406.684800
  11130  11137  11138     1   108.0100461 406.684800
  11130  11137  11139     1   108.0100461 406.684800
  11131  11130  11159     1   110.1100470 384.091200
  11131  11143  11144     1   109.8000471 387.438400
  11131  11143  11145     1   109.8000471 387.438400
  11132  11131  11143     1   110.5600475 386.601600
  11132  11131  11133     1   109.7500473 328.025600
  11133  11131  11143     1   110.5600475 386.601600
  11134  11130  11159     1   110.1100470 384.091200
  11134  11146  11147     1   109.8000471 387.438400
  11134  11146  11148     1   109.8000471 387.438400
  11135  11134  11146     1   110.5600475 386.601600
  11135  11134  11136     1   109.7500473 328.025600
  11136  11134  11146     1   110.5600475 386.601600
  11137  11130  11159     1   110.1100470 384.091200
  11137  11140  11141     1   109.8000471 387.438400
  11137  11140  11142     1   109.8000471 387.438400
  11138  11137  11140     1   110.5600475 386.601600
  11138  11137  11139     1   109.7500473 328.025600
  11139  11137  11140     1   110.5600475 386.601600
  11140  11149  11150     1   109.5600471 388.275200
  11140  11149  11151     1   109.5600471 388.275200
  11141  11140  11149     1   109.8000471 387.438400
  11141  11140  11142     1   107.5800459 329.699200
  11142  11140  11149     1   109.8000471 387.438400
  11143  11155  11156     1   109.5600471 388.275200
  11143  11155  11157     1   109.5600471 388.275200
  11144  11143  11155     1   109.8000471 387.438400
  11144  11143  11145     1   107.5800459 329.699200
  11145  11143  11155     1   109.8000471 387.438400
  11146  11152  11153     1   109.5600471 388.275200
  11146  11152  11154     1   109.5600471 388.275200
  11147  11146  11152     1   109.8000471 387.438400
  11147  11146  11148     1   107.5800459 329.699200
  11148  11146  11152     1   109.8000471 387.438400
  11150  11149  11158     1   109.7800468 425.094400
  11150  11149  11151     1   108.4600466 328.025600
  11151  11149  11158     1   109.7800468 425.094400
  11153  11152  19796     1   109.7800468 425.094400
  11153  11152  11154     1   108.4600466 328.025600
  11154  11152  19796     1   109.7800468 425.094400
  11156  11155  19819     1   109.7800468 425.094400
  11156  11155  11157     1   108.4600466 328.025600
  11157  11155  19819     1   109.7800468 425.094400
  11160  11161  11162     1   108.0100461 406.684800
  11160  11161  11163     1   108.0100461 406.684800
  11160  11164  11165     1   108.0100461 406.684800
  11160  11164  11166     1   108.0100461 406.684800
  11160  11167  11168     1   108.0100461 406.684800
  11160  11167  11169     1   108.0100461 406.684800
  11161  11160  11189     1   110.1100470 384.091200
  11161  11173  11174     1   109.8000471 387.438400
  11161  11173  11175     1   109.8000471 387.438400
  11162  11161  11173     1   110.5600475 386.601600
  11162  11161  11163     1   109.7500473 328.025600
  11163  11161  11173     1   110.5600475 386.601600
  11164  11160  11189     1   110.1100470 384.091200
  11164  11176  11177     1   109.8000471 387.438400
  11164  11176  11178     1   109.8000471 387.438400
  11165  11164  11176     1   110.5600475 386.601600
  11165  11164  11166     1   109.7500473 328.025600
  11166  11164  11176     1   110.5600475 386.601600
  11167  11160  11189     1   110.1100470 384.091200
  11167  11170  11171     1   109.8000471 387.438400
  11167  11170  11172     1   109.8000471 387.438400
  11168  11167  11170     1   110.5600475 386.601600
  11168  11167  11169     1   109.7500473 328.025600
  11169  11167  11170     1   110.5600475 386.601600
  11170  11179  11180     1   109.5600471 388.275200
  11170  11179  11181     1   109.5600471 388.275200
  11171  11170  11179     1   109.8000471 387.438400
  11171  11170  11172     1   107.5800459 329.699200
  11172  11170  11179     1   109.8000471 387.438400
  11173  11185  11186     1   109.5600471 388.275200
  11173  11185  11187     1   109.5600471 388.275200
  11174  11173  11185     1   109.8000471 387.438400
  11174  11173  11175     1   107.5800459 329.699200
  11175  11173  11185     1   109.8000471 387.438400
  11176  11182  11183     1   109.5600471 388.275200
  11176  11182  11184     1   109.5600471 388.275200
  11177  11176  11182     1   109.8000471 387.438400
  11177  11176  11178     1   107.5800459 329.699200
  11178  11176  11182     1   109.8000471 387.438400
  11180  11179  11188     1   109.7800468 425.094400
  11180  11179  11181     1   108.4600466 328.025600
  11181  11179  11188     1   109.7800468 425.094400
  11183  11182  19842     1   109.7800468 425.094400
  11183  11182  11184     1   108.4600466 328.025600
  11184  11182  19842     1   109.7800468 425.094400
  11186  11185  19865     1   109.7800468 425.094400
  11186  11185  11187     1   108.4600466 328.025600
  11187  11185  19865     1   109.7800468 425.094400
  11190  11191  11192     1   108.0100461 406.684800
  11190  11191  11193     1   108.0100461 406.684800
  11190  11194  11195     1   108.0100461 406.684800
  11190  11194  11196     1   108.0100461 406.684800
  11190  11197  11198     1   108.0100461 406.684800
  11190  11197  11199     1   108.0100461 406.684800
  11191  11190  11219     1   110.1100470 384.091200
  11191  11203  11204     1   109.8000471 387.438400
  11191  11203  11205     1   109.8000471 387.438400
  11192  11191  11203     1   110.5600475 386.601600
  11192  11191  11193     1   109.7500473 328.025600
  11193  11191  11203     1   110.5600475 386.601600
  11194  11190  11219     1   110.1100470 384.091200
  11194  11206  11207     1   109.8000471 387.438400
  11194  11206  11208     1   109.8000471 387.438400
  11195  11194  11206     1   110.5600475 386.601600
  11195  11194  11196     1   109.7500473 328.025600
  11196  11194  11206     1   110.5600475 386.601600
  11197  11190  11219     1   110.1100470 384.091200
  11197  11200  11201     1   109.8000471 387.438400
  11197  11200  11202     1   109.8000471 387.438400
  11198  11197  11200     1   110.5600475 386.601600
  11198  11197  11199     1   109.7500473 328.025600
  11199  11197  11200     1   110.5600475 386.601600
  11200  11209  11210     1   109.5600471 388.275200
  11200  11209  11211     1   109.5600471 388.275200
  11201  11200  11209     1   109.8000471 387.438400
  11201  11200  11202     1   107.5800459 329.699200
  11202  11200  11209     1   109.8000471 387.438400
  11203  11215  11216     1   109.5600471 388.275200
  11203  11215  11217     1   109.5600471 388.275200
  11204  11203  11215     1   109.8000471 387.438400
  11204  11203  11205     1   107.5800459 329.699200
  11205  11203  11215     1   109.8000471 387.438400
  11206  11212  11213     1   109.5600471 388.275200
  11206  11212  11214     1   109.5600471 388.275200
  11207  11206  11212     1   109.8000471 387.438400
  11207  11206  11208     1   107.5800459 329.699200
  11208  11206  11212     1   109.8000471 387.438400
  11210  11209  11218     1   109.7800468 425.094400
  11210  11209  11211     1   108.4600466 328.025600
  11211  11209  11218     1   109.7800468 425.094400
  11213  11212  19888     1   109.7800468 425.094400
  11213  11212  11214     1   108.4600466 328.025600
  11214  11212  19888     1   109.7800468 425.094400
  11216  11215  19911     1   109.7800468 425.094400
  11216  11215  11217     1   108.4600466 328.025600
  11217  11215  19911     1   109.7800468 425.094400
  11220  11221  11222     1   108.0100461 406.684800
  11220  11221  11223     1   108.0100461 406.684800
  11220  11224  11225     1   108.0100461 406.684800
  11220  11224  11226     1   108.0100461 406.684800
  11220  11227  11228     1   108.0100461 406.684800
  11220  11227  11229     1   108.0100461 406.684800
  11221  11220  11249     1   110.1100470 384.091200
  11221  11233  11234     1   109.8000471 387.438400
  11221  11233  11235     1   109.8000471 387.438400
  11222  11221  11233     1   110.5600475 386.601600
  11222  11221  11223     1   109.7500473 328.025600
  11223  11221  11233     1   110.5600475 386.601600
  11224  11220  11249     1   110.1100470 384.091200
  11224  11236  11237     1   109.8000471 387.438400
  11224  11236  11238     1   109.8000471 387.438400
  11225  11224  11236     1   110.5600475 386.601600
  11225  11224  11226     1   109.7500473 328.025600
  11226  11224  11236     1   110.5600475 386.601600
  11227  11220  11249     1   110.1100470 384.091200
  11227  11230  11231     1   109.8000471 387.438400
  11227  11230  11232     1   109.8000471 387.438400
  11228  11227  11230     1   110.5600475 386.601600
  11228  11227  11229     1   109.7500473 328.025600
  11229  11227  11230     1   110.5600475 386.601600
  11230  11239  11240     1   109.5600471 388.275200
  11230  11239  11241     1   109.5600471 388.275200
  11231  11230  11239     1   109.8000471 387.438400
  11231  11230  11232     1   107.5800459 329.699200
  11232  11230  11239     1   109.8000471 387.438400
  11233  11245  11246     1   109.5600471 388.275200
  11233  11245  11247     1   109.5600471 388.275200
  11234  11233  11245     1   109.8000471 387.438400
  11234  11233  11235     1   107.5800459 329.699200
  11235  11233  11245     1   109.8000471 387.438400
  11236  11242  11243     1   109.5600471 388.275200
  11236  11242  11244     1   109.5600471 388.275200
  11237  11236  11242     1   109.8000471 387.438400
  11237  11236  11238     1   107.5800459 329.699200
  11238  11236  11242     1   109.8000471 387.438400
  11240  11239  11248     1   109.7800468 425.094400
  11240  11239  11241     1   108.4600466 328.025600
  11241  11239  11248     1   109.7800468 425.094400
  11243  11242  19934     1   109.7800468 425.094400
  11243  11242  11244     1   108.4600466 328.025600
  11244  11242  19934     1   109.7800468 425.094400
  11246  11245  19957     1   109.7800468 425.094400
  11246  11245  11247     1   108.4600466 328.025600
  11247  11245  19957     1   109.7800468 425.094400
  11250  11251  11252     1   108.0100461 406.684800
  11250  11251  11253     1   108.0100461 406.684800
  11250  11254  11255     1   108.0100461 406.684800
  11250  11254  11256     1   108.0100461 406.684800
  11250  11257  11258     1   108.0100461 406.684800
  11250  11257  11259     1   108.0100461 406.684800
  11251  11250  11279     1   110.1100470 384.091200
  11251  11263  11264     1   109.8000471 387.438400
  11251  11263  11265     1   109.8000471 387.438400
  11252  11251  11263     1   110.5600475 386.601600
  11252  11251  11253     1   109.7500473 328.025600
  11253  11251  11263     1   110.5600475 386.601600
  11254  11250  11279     1   110.1100470 384.091200
  11254  11266  11267     1   109.8000471 387.438400
  11254  11266  11268     1   109.8000471 387.438400
  11255  11254  11266     1   110.5600475 386.601600
  11255  11254  11256     1   109.7500473 328.025600
  11256  11254  11266     1   110.5600475 386.601600
  11257  11250  11279     1   110.1100470 384.091200
  11257  11260  11261     1   109.8000471 387.438400
  11257  11260  11262     1   109.8000471 387.438400
  11258  11257  11260     1   110.5600475 386.601600
  11258  11257  11259     1   109.7500473 328.025600
  11259  11257  11260     1   110.5600475 386.601600
  11260  11269  11270     1   109.5600471 388.275200
  11260  11269  11271     1   109.5600471 388.275200
  11261  11260  11269     1   109.8000471 387.438400
  11261  11260  11262     1   107.5800459 329.699200
  11262  11260  11269     1   109.8000471 387.438400
  11263  11275  11276     1   109.5600471 388.275200
  11263  11275  11277     1   109.5600471 388.275200
  11264  11263  11275     1   109.8000471 387.438400
  11264  11263  11265     1   107.5800459 329.699200
  11265  11263  11275     1   109.8000471 387.438400
  11266  11272  11273     1   109.5600471 388.275200
  11266  11272  11274     1   109.5600471 388.275200
  11267  11266  11272     1   109.8000471 387.438400
  11267  11266  11268     1   107.5800459 329.699200
  11268  11266  11272     1   109.8000471 387.438400
  11270  11269  11278     1   109.7800468 425.094400
  11270  11269  11271     1   108.4600466 328.025600
  11271  11269  11278     1   109.7800468 425.094400
  11273  11272  19980     1   109.7800468 425.094400
  11273  11272  11274     1   108.4600466 328.025600
  11274  11272  19980     1   109.7800468 425.094400
  11276  11275  20003     1   109.7800468 425.094400
  11276  11275  11277     1   108.4600466 328.025600
  11277  11275  20003     1   109.7800468 425.094400
  11280  11281  11282     1   108.0100461 406.684800
  11280  11281  11283     1   108.0100461 406.684800
  11280  11284  11285     1   108.0100461 406.684800
  11280  11284  11286     1   108.0100461 406.684800
  11280  11287  11288     1   108.0100461 406.684800
  11280  11287  11289     1   108.0100461 406.684800
  11281  11280  11309     1   110.1100470 384.091200
  11281  11293  11294     1   109.8000471 387.438400
  11281  11293  11295     1   109.8000471 387.438400
  11282  11281  11293     1   110.5600475 386.601600
  11282  11281  11283     1   109.7500473 328.025600
  11283  11281  11293     1   110.5600475 386.601600
  11284  11280  11309     1   110.1100470 384.091200
  11284  11296  11297     1   109.8000471 387.438400
  11284  11296  11298     1   109.8000471 387.438400
  11285  11284  11296     1   110.5600475 386.601600
  11285  11284  11286     1   109.7500473 328.025600
  11286  11284  11296     1   110.5600475 386.601600
  11287  11280  11309     1   110.1100470 384.091200
  11287  11290  11291     1   109.8000471 387.438400
  11287  11290  11292     1   109.8000471 387.438400
  11288  11287  11290     1   110.5600475 386.601600
  11288  11287  11289     1   109.7500473 328.025600
  11289  11287  11290     1   110.5600475 386.601600
  11290  11299  11300     1   109.5600471 388.275200
  11290  11299  11301     1   109.5600471 388.275200
  11291  11290  11299     1   109.8000471 387.438400
  11291  11290  11292     1   107.5800459 329.699200
  11292  11290  11299     1   109.8000471 387.438400
  11293  11305  11306     1   109.5600471 388.275200
  11293  11305  11307     1   109.5600471 388.275200
  11294  11293  11305     1   109.8000471 387.438400
  11294  11293  11295     1   107.5800459 329.699200
  11295  11293  11305     1   109.8000471 387.438400
  11296  11302  11303     1   109.5600471 388.275200
  11296  11302  11304     1   109.5600471 388.275200
  11297  11296  11302     1   109.8000471 387.438400
  11297  11296  11298     1   107.5800459 329.699200
  11298  11296  11302     1   109.8000471 387.438400
  11300  11299  11308     1   109.7800468 425.094400
  11300  11299  11301     1   108.4600466 328.025600
  11301  11299  11308     1   109.7800468 425.094400
  11303  11302  20026     1   109.7800468 425.094400
  11303  11302  11304     1   108.4600466 328.025600
  11304  11302  20026     1   109.7800468 425.094400
  11306  11305  20049     1   109.7800468 425.094400
  11306  11305  11307     1   108.4600466 328.025600
  11307  11305  20049     1   109.7800468 425.094400
  11310  11311  11312     1   108.0100461 406.684800
  11310  11311  11313     1   108.0100461 406.684800
  11310  11314  11315     1   108.0100461 406.684800
  11310  11314  11316     1   108.0100461 406.684800
  11310  11317  11318     1   108.0100461 406.684800
  11310  11317  11319     1   108.0100461 406.684800
  11311  11310  11339     1   110.1100470 384.091200
  11311  11323  11324     1   109.8000471 387.438400
  11311  11323  11325     1   109.8000471 387.438400
  11312  11311  11323     1   110.5600475 386.601600
  11312  11311  11313     1   109.7500473 328.025600
  11313  11311  11323     1   110.5600475 386.601600
  11314  11310  11339     1   110.1100470 384.091200
  11314  11326  11327     1   109.8000471 387.438400
  11314  11326  11328     1   109.8000471 387.438400
  11315  11314  11326     1   110.5600475 386.601600
  11315  11314  11316     1   109.7500473 328.025600
  11316  11314  11326     1   110.5600475 386.601600
  11317  11310  11339     1   110.1100470 384.091200
  11317  11320  11321     1   109.8000471 387.438400
  11317  11320  11322     1   109.8000471 387.438400
  11318  11317  11320     1   110.5600475 386.601600
  11318  11317  11319     1   109.7500473 328.025600
  11319  11317  11320     1   110.5600475 386.601600
  11320  11329  11330     1   109.5600471 388.275200
  11320  11329  11331     1   109.5600471 388.275200
  11321  11320  11329     1   109.8000471 387.438400
  11321  11320  11322     1   107.5800459 329.699200
  11322  11320  11329     1   109.8000471 387.438400
  11323  11335  11336     1   109.5600471 388.275200
  11323  11335  11337     1   109.5600471 388.275200
  11324  11323  11335     1   109.8000471 387.438400
  11324  11323  11325     1   107.5800459 329.699200
  11325  11323  11335     1   109.8000471 387.438400
  11326  11332  11333     1   109.5600471 388.275200
  11326  11332  11334     1   109.5600471 388.275200
  11327  11326  11332     1   109.8000471 387.438400
  11327  11326  11328     1   107.5800459 329.699200
  11328  11326  11332     1   109.8000471 387.438400
  11330  11329  11338     1   109.7800468 425.094400
  11330  11329  11331     1   108.4600466 328.025600
  11331  11329  11338     1   109.7800468 425.094400
  11333  11332  20072     1   109.7800468 425.094400
  11333  11332  11334     1   108.4600466 328.025600
  11334  11332  20072     1   109.7800468 425.094400
  11336  11335  20095     1   109.7800468 425.094400
  11336  11335  11337     1   108.4600466 328.025600
  11337  11335  20095     1   109.7800468 425.094400
  11340  11341  11342     1   108.0100461 406.684800
  11340  11341  11343     1   108.0100461 406.684800
  11340  11344  11345     1   108.0100461 406.684800
  11340  11344  11346     1   108.0100461 406.684800
  11340  11347  11348     1   108.0100461 406.684800
  11340  11347  11349     1   108.0100461 406.684800
  11341  11340  11369     1   110.1100470 384.091200
  11341  11353  11354     1   109.8000471 387.438400
  11341  11353  11355     1   109.8000471 387.438400
  11342  11341  11353     1   110.5600475 386.601600
  11342  11341  11343     1   109.7500473 328.025600
  11343  11341  11353     1   110.5600475 386.601600
  11344  11340  11369     1   110.1100470 384.091200
  11344  11356  11357     1   109.8000471 387.438400
  11344  11356  11358     1   109.8000471 387.438400
  11345  11344  11356     1   110.5600475 386.601600
  11345  11344  11346     1   109.7500473 328.025600
  11346  11344  11356     1   110.5600475 386.601600
  11347  11340  11369     1   110.1100470 384.091200
  11347  11350  11351     1   109.8000471 387.438400
  11347  11350  11352     1   109.8000471 387.438400
  11348  11347  11350     1   110.5600475 386.601600
  11348  11347  11349     1   109.7500473 328.025600
  11349  11347  11350     1   110.5600475 386.601600
  11350  11359  11360     1   109.5600471 388.275200
  11350  11359  11361     1   109.5600471 388.275200
  11351  11350  11359     1   109.8000471 387.438400
  11351  11350  11352     1   107.5800459 329.699200
  11352  11350  11359     1   109.8000471 387.438400
  11353  11365  11366     1   109.5600471 388.275200
  11353  11365  11367     1   109.5600471 388.275200
  11354  11353  11365     1   109.8000471 387.438400
  11354  11353  11355     1   107.5800459 329.699200
  11355  11353  11365     1   109.8000471 387.438400
  11356  11362  11363     1   109.5600471 388.275200
  11356  11362  11364     1   109.5600471 388.275200
  11357  11356  11362     1   109.8000471 387.438400
  11357  11356  11358     1   107.5800459 329.699200
  11358  11356  11362     1   109.8000471 387.438400
  11360  11359  11368     1   109.7800468 425.094400
  11360  11359  11361     1   108.4600466 328.025600
  11361  11359  11368     1   109.7800468 425.094400
  11363  11362  20118     1   109.7800468 425.094400
  11363  11362  11364     1   108.4600466 328.025600
  11364  11362  20118     1   109.7800468 425.094400
  11366  11365  20141     1   109.7800468 425.094400
  11366  11365  11367     1   108.4600466 328.025600
  11367  11365  20141     1   109.7800468 425.094400
  11370  11371  11372     1   108.0100461 406.684800
  11370  11371  11373     1   108.0100461 406.684800
  11370  11374  11375     1   108.0100461 406.684800
  11370  11374  11376     1   108.0100461 406.684800
  11370  11377  11378     1   108.0100461 406.684800
  11370  11377  11379     1   108.0100461 406.684800
  11371  11370  11399     1   110.1100470 384.091200
  11371  11383  11384     1   109.8000471 387.438400
  11371  11383  11385     1   109.8000471 387.438400
  11372  11371  11383     1   110.5600475 386.601600
  11372  11371  11373     1   109.7500473 328.025600
  11373  11371  11383     1   110.5600475 386.601600
  11374  11370  11399     1   110.1100470 384.091200
  11374  11386  11387     1   109.8000471 387.438400
  11374  11386  11388     1   109.8000471 387.438400
  11375  11374  11386     1   110.5600475 386.601600
  11375  11374  11376     1   109.7500473 328.025600
  11376  11374  11386     1   110.5600475 386.601600
  11377  11370  11399     1   110.1100470 384.091200
  11377  11380  11381     1   109.8000471 387.438400
  11377  11380  11382     1   109.8000471 387.438400
  11378  11377  11380     1   110.5600475 386.601600
  11378  11377  11379     1   109.7500473 328.025600
  11379  11377  11380     1   110.5600475 386.601600
  11380  11389  11390     1   109.5600471 388.275200
  11380  11389  11391     1   109.5600471 388.275200
  11381  11380  11389     1   109.8000471 387.438400
  11381  11380  11382     1   107.5800459 329.699200
  11382  11380  11389     1   109.8000471 387.438400
  11383  11395  11396     1   109.5600471 388.275200
  11383  11395  11397     1   109.5600471 388.275200
  11384  11383  11395     1   109.8000471 387.438400
  11384  11383  11385     1   107.5800459 329.699200
  11385  11383  11395     1   109.8000471 387.438400
  11386  11392  11393     1   109.5600471 388.275200
  11386  11392  11394     1   109.5600471 388.275200
  11387  11386  11392     1   109.8000471 387.438400
  11387  11386  11388     1   107.5800459 329.699200
  11388  11386  11392     1   109.8000471 387.438400
  11390  11389  11398     1   109.7800468 425.094400
  11390  11389  11391     1   108.4600466 328.025600
  11391  11389  11398     1   109.7800468 425.094400
  11393  11392  20164     1   109.7800468 425.094400
  11393  11392  11394     1   108.4600466 328.025600
  11394  11392  20164     1   109.7800468 425.094400
  11396  11395  20187     1   109.7800468 425.094400
  11396  11395  11397     1   108.4600466 328.025600
  11397  11395  20187     1   109.7800468 425.094400
  11400  11401  11402     1   108.0100461 406.684800
  11400  11401  11403     1   108.0100461 406.684800
  11400  11404  11405     1   108.0100461 406.684800
  11400  11404  11406     1   108.0100461 406.684800
  11400  11407  11408     1   108.0100461 406.684800
  11400  11407  11409     1   108.0100461 406.684800
  11401  11400  11429     1   110.1100470 384.091200
  11401  11413  11414     1   109.8000471 387.438400
  11401  11413  11415     1   109.8000471 387.438400
  11402  11401  11413     1   110.5600475 386.601600
  11402  11401  11403     1   109.7500473 328.025600
  11403  11401  11413     1   110.5600475 386.601600
  11404  11400  11429     1   110.1100470 384.091200
  11404  11416  11417     1   109.8000471 387.438400
  11404  11416  11418     1   109.8000471 387.438400
  11405  11404  11416     1   110.5600475 386.601600
  11405  11404  11406     1   109.7500473 328.025600
  11406  11404  11416     1   110.5600475 386.601600
  11407  11400  11429     1   110.1100470 384.091200
  11407  11410  11411     1   109.8000471 387.438400
  11407  11410  11412     1   109.8000471 387.438400
  11408  11407  11410     1   110.5600475 386.601600
  11408  11407  11409     1   109.7500473 328.025600
  11409  11407  11410     1   110.5600475 386.601600
  11410  11419  11420     1   109.5600471 388.275200
  11410  11419  11421     1   109.5600471 388.275200
  11411  11410  11419     1   109.8000471 387.438400
  11411  11410  11412     1   107.5800459 329.699200
  11412  11410  11419     1   109.8000471 387.438400
  11413  11425  11426     1   109.5600471 388.275200
  11413  11425  11427     1   109.5600471 388.275200
  11414  11413  11425     1   109.8000471 387.438400
  11414  11413  11415     1   107.5800459 329.699200
  11415  11413  11425     1   109.8000471 387.438400
  11416  11422  11423     1   109.5600471 388.275200
  11416  11422  11424     1   109.5600471 388.275200
  11417  11416  11422     1   109.8000471 387.438400
  11417  11416  11418     1   107.5800459 329.699200
  11418  11416  11422     1   109.8000471 387.438400
  11420  11419  11428     1   109.7800468 425.094400
  11420  11419  11421     1   108.4600466 328.025600
  11421  11419  11428     1   109.7800468 425.094400
  11423  11422  20210     1   109.7800468 425.094400
  11423  11422  11424     1   108.4600466 328.025600
  11424  11422  20210     1   109.7800468 425.094400
  11426  11425  20233     1   109.7800468 425.094400
  11426  11425  11427     1   108.4600466 328.025600
  11427  11425  20233     1   109.7800468 425.094400
  11430  11431  11432     1   108.0100461 406.684800
  11430  11431  11433     1   108.0100461 406.684800
  11430  11434  11435     1   108.0100461 406.684800
  11430  11434  11436     1   108.0100461 406.684800
  11430  11437  11438     1   108.0100461 406.684800
  11430  11437  11439     1   108.0100461 406.684800
  11431  11430  11459     1   110.1100470 384.091200
  11431  11443  11444     1   109.8000471 387.438400
  11431  11443  11445     1   109.8000471 387.438400
  11432  11431  11443     1   110.5600475 386.601600
  11432  11431  11433     1   109.7500473 328.025600
  11433  11431  11443     1   110.5600475 386.601600
  11434  11430  11459     1   110.1100470 384.091200
  11434  11446  11447     1   109.8000471 387.438400
  11434  11446  11448     1   109.8000471 387.438400
  11435  11434  11446     1   110.5600475 386.601600
  11435  11434  11436     1   109.7500473 328.025600
  11436  11434  11446     1   110.5600475 386.601600
  11437  11430  11459     1   110.1100470 384.091200
  11437  11440  11441     1   109.8000471 387.438400
  11437  11440  11442     1   109.8000471 387.438400
  11438  11437  11440     1   110.5600475 386.601600
  11438  11437  11439     1   109.7500473 328.025600
  11439  11437  11440     1   110.5600475 386.601600
  11440  11449  11450     1   109.5600471 388.275200
  11440  11449  11451     1   109.5600471 388.275200
  11441  11440  11449     1   109.8000471 387.438400
  11441  11440  11442     1   107.5800459 329.699200
  11442  11440  11449     1   109.8000471 387.438400
  11443  11455  11456     1   109.5600471 388.275200
  11443  11455  11457     1   109.5600471 388.275200
  11444  11443  11455     1   109.8000471 387.438400
  11444  11443  11445     1   107.5800459 329.699200
  11445  11443  11455     1   109.8000471 387.438400
  11446  11452  11453     1   109.5600471 388.275200
  11446  11452  11454     1   109.5600471 388.275200
  11447  11446  11452     1   109.8000471 387.438400
  11447  11446  11448     1   107.5800459 329.699200
  11448  11446  11452     1   109.8000471 387.438400
  11450  11449  11458     1   109.7800468 425.094400
  11450  11449  11451     1   108.4600466 328.025600
  11451  11449  11458     1   109.7800468 425.094400
  11453  11452  20256     1   109.7800468 425.094400
  11453  11452  11454     1   108.4600466 328.025600
  11454  11452  20256     1   109.7800468 425.094400
  11456  11455  20279     1   109.7800468 425.094400
  11456  11455  11457     1   108.4600466 328.025600
  11457  11455  20279     1   109.7800468 425.094400
  11460  11461  11463     1   109.5600471 388.275200
  11460  11474  11478     1   109.5600471 388.275200
  11460  11474  11479     1   109.5600471 388.275200
  11461  11460  11462     1   109.5600471 388.275200
  11461  11464  11468     1   109.5600471 388.275200
  11461  11473  11476     1   107.2600461 396.643200
  11462  11460  11474     1   109.5600471 388.275200
  11462  11460  11482     1   109.7800468 425.094400
  11463  11461  11464     1   109.5600471 388.275200
  11463  11461  11473     1   110.2600474 425.931200
  11464  11465  11467     1   109.5600471 388.275200
  11464  11472  11475     1   107.2600461 396.643200
  11465  11464  11468     1   109.5600471 388.275200
  11465  11466  11469     1   110.2200475 386.601600
  11465  11471  11477     1   107.2600461 396.643200
  11466  11465  11467     1   109.5600471 388.275200
  11467  11465  11471     1   110.2600474 425.931200
  11468  11464  11472     1   110.2600474 425.931200
  11469  11466  11470     1   109.5800467 425.931200
  11469  11466  11482     1   109.5800467 425.931200
  11474  11480  11481     1   107.2600461 396.643200
  11478  11474  11480     1   110.2600474 425.931200
  11478  11474  11479     1   108.4600466 328.025600
  11479  11474  11480     1   110.2600474 425.931200
  11483  11484  11486     1   109.5600471 388.275200
  11483  11497  11501     1   109.5600471 388.275200
  11483  11497  11502     1   109.5600471 388.275200
  11484  11487  11491     1   109.5600471 388.275200
  11484  11496  11499     1   107.2600461 396.643200
  11484  11483  11485     1   109.5600471 388.275200
  11485  11483  11497     1   109.5600471 388.275200
  11485  11483  11505     1   109.7800468 425.094400
  11486  11484  11487     1   109.5600471 388.275200
  11486  11484  11496     1   110.2600474 425.931200
  11487  11488  11490     1   109.5600471 388.275200
  11487  11495  11498     1   107.2600461 396.643200
  11488  11489  11492     1   110.2200475 386.601600
  11488  11494  11500     1   107.2600461 396.643200
  11488  11487  11491     1   109.5600471 388.275200
  11489  11488  11490     1   109.5600471 388.275200
  11490  11488  11494     1   110.2600474 425.931200
  11491  11487  11495     1   110.2600474 425.931200
  11492  11489  11493     1   109.5800467 425.931200
  11492  11489  11505     1   109.5800467 425.931200
  11497  11503  11504     1   107.2600461 396.643200
  11501  11497  11503     1   110.2600474 425.931200
  11501  11497  11502     1   108.4600466 328.025600
  11502  11497  11503     1   110.2600474 425.931200
  11506  11507  11509     1   109.5600471 388.275200
  11506  11520  11524     1   109.5600471 388.275200
  11506  11520  11525     1   109.5600471 388.275200
  11507  11506  11508     1   109.5600471 388.275200
  11507  11510  11514     1   109.5600471 388.275200
  11507  11519  11522     1   107.2600461 396.643200
  11508  11506  11520     1   109.5600471 388.275200
  11508  11506  11528     1   109.7800468 425.094400
  11509  11507  11510     1   109.5600471 388.275200
  11509  11507  11519     1   110.2600474 425.931200
  11510  11511  11513     1   109.5600471 388.275200
  11510  11518  11521     1   107.2600461 396.643200
  11511  11510  11514     1   109.5600471 388.275200
  11511  11512  11515     1   110.2200475 386.601600
  11511  11517  11523     1   107.2600461 396.643200
  11512  11511  11513     1   109.5600471 388.275200
  11513  11511  11517     1   110.2600474 425.931200
  11514  11510  11518     1   110.2600474 425.931200
  11515  11512  11516     1   109.5800467 425.931200
  11515  11512  11528     1   109.5800467 425.931200
  11520  11526  11527     1   107.2600461 396.643200
  11524  11520  11526     1   110.2600474 425.931200
  11524  11520  11525     1   108.4600466 328.025600
  11525  11520  11526     1   110.2600474 425.931200
  11529  11530  11532     1   109.5600471 388.275200
  11529  11543  11547     1   109.5600471 388.275200
  11529  11543  11548     1   109.5600471 388.275200
  11530  11533  11537     1   109.5600471 388.275200
  11530  11542  11545     1   107.2600461 396.643200
  11530  11529  11531     1   109.5600471 388.275200
  11531  11529  11543     1   109.5600471 388.275200
  11531  11529  11551     1   109.7800468 425.094400
  11532  11530  11533     1   109.5600471 388.275200
  11532  11530  11542     1   110.2600474 425.931200
  11533  11534  11536     1   109.5600471 388.275200
  11533  11541  11544     1   107.2600461 396.643200
  11534  11535  11538     1   110.2200475 386.601600
  11534  11540  11546     1   107.2600461 396.643200
  11534  11533  11537     1   109.5600471 388.275200
  11535  11534  11536     1   109.5600471 388.275200
  11536  11534  11540     1   110.2600474 425.931200
  11537  11533  11541     1   110.2600474 425.931200
  11538  11535  11539     1   109.5800467 425.931200
  11538  11535  11551     1   109.5800467 425.931200
  11543  11549  11550     1   107.2600461 396.643200
  11547  11543  11549     1   110.2600474 425.931200
  11547  11543  11548     1   108.4600466 328.025600
  11548  11543  11549     1   110.2600474 425.931200
  11552  11553  11555     1   109.5600471 388.275200
  11552  11566  11570     1   109.5600471 388.275200
  11552  11566  11571     1   109.5600471 388.275200
  11553  11552  11554     1   109.5600471 388.275200
  11553  11556  11560     1   109.5600471 388.275200
  11553  11565  11568     1   107.2600461 396.643200
  11554  11552  11566     1   109.5600471 388.275200
  11554  11552  11574     1   109.7800468 425.094400
  11555  11553  11556     1   109.5600471 388.275200
  11555  11553  11565     1   110.2600474 425.931200
  11556  11557  11559     1   109.5600471 388.275200
  11556  11564  11567     1   107.2600461 396.643200
  11557  11556  11560     1   109.5600471 388.275200
  11557  11558  11561     1   110.2200475 386.601600
  11557  11563  11569     1   107.2600461 396.643200
  11558  11557  11559     1   109.5600471 388.275200
  11559  11557  11563     1   110.2600474 425.931200
  11560  11556  11564     1   110.2600474 425.931200
  11561  11558  11562     1   109.5800467 425.931200
  11561  11558  11574     1   109.5800467 425.931200
  11566  11572  11573     1   107.2600461 396.643200
  11570  11566  11572     1   110.2600474 425.931200
  11570  11566  11571     1   108.4600466 328.025600
  11571  11566  11572     1   110.2600474 425.931200
  11575  11576  11578     1   109.5600471 388.275200
  11575  11589  11593     1   109.5600471 388.275200
  11575  11589  11594     1   109.5600471 388.275200
  11576  11579  11583     1   109.5600471 388.275200
  11576  11588  11591     1   107.2600461 396.643200
  11576  11575  11577     1   109.5600471 388.275200
  11577  11575  11589     1   109.5600471 388.275200
  11577  11575  11597     1   109.7800468 425.094400
  11578  11576  11579     1   109.5600471 388.275200
  11578  11576  11588     1   110.2600474 425.931200
  11579  11580  11582     1   109.5600471 388.275200
  11579  11587  11590     1   107.2600461 396.643200
  11580  11581  11584     1   110.2200475 386.601600
  11580  11586  11592     1   107.2600461 396.643200
  11580  11579  11583     1   109.5600471 388.275200
  11581  11580  11582     1   109.5600471 388.275200
  11582  11580  11586     1   110.2600474 425.931200
  11583  11579  11587     1   110.2600474 425.931200
  11584  11581  11585     1   109.5800467 425.931200
  11584  11581  11597     1   109.5800467 425.931200
  11589  11595  11596     1   107.2600461 396.643200
  11593  11589  11595     1   110.2600474 425.931200
  11593  11589  11594     1   108.4600466 328.025600
  11594  11589  11595     1   110.2600474 425.931200
  11598  11599  11601     1   109.5600471 388.275200
  11598  11612  11616     1   109.5600471 388.275200
  11598  11612  11617     1   109.5600471 388.275200
  11599  11598  11600     1   109.5600471 388.275200
  11599  11602  11606     1   109.5600471 388.275200
  11599  11611  11614     1   107.2600461 396.643200
  11600  11598  11612     1   109.5600471 388.275200
  11600  11598  11620     1   109.7800468 425.094400
  11601  11599  11602     1   109.5600471 388.275200
  11601  11599  11611     1   110.2600474 425.931200
  11602  11603  11605     1   109.5600471 388.275200
  11602  11610  11613     1   107.2600461 396.643200
  11603  11602  11606     1   109.5600471 388.275200
  11603  11604  11607     1   110.2200475 386.601600
  11603  11609  11615     1   107.2600461 396.643200
  11604  11603  11605     1   109.5600471 388.275200
  11605  11603  11609     1   110.2600474 425.931200
  11606  11602  11610     1   110.2600474 425.931200
  11607  11604  11608     1   109.5800467 425.931200
  11607  11604  11620     1   109.5800467 425.931200
  11612  11618  11619     1   107.2600461 396.643200
  11616  11612  11618     1   110.2600474 425.931200
  11616  11612  11617     1   108.4600466 328.025600
  11617  11612  11618     1   110.2600474 425.931200
  11621  11622  11624     1   109.5600471 388.275200
  11621  11635  11639     1   109.5600471 388.275200
  11621  11635  11640     1   109.5600471 388.275200
  11622  11625  11629     1   109.5600471 388.275200
  11622  11634  11637     1   107.2600461 396.643200
  11622  11621  11623     1   109.5600471 388.275200
  11623  11621  11635     1   109.5600471 388.275200
  11623  11621  11643     1   109.7800468 425.094400
  11624  11622  11625     1   109.5600471 388.275200
  11624  11622  11634     1   110.2600474 425.931200
  11625  11626  11628     1   109.5600471 388.275200
  11625  11633  11636     1   107.2600461 396.643200
  11626  11627  11630     1   110.2200475 386.601600
  11626  11632  11638     1   107.2600461 396.643200
  11626  11625  11629     1   109.5600471 388.275200
  11627  11626  11628     1   109.5600471 388.275200
  11628  11626  11632     1   110.2600474 425.931200
  11629  11625  11633     1   110.2600474 425.931200
  11630  11627  11631     1   109.5800467 425.931200
  11630  11627  11643     1   109.5800467 425.931200
  11635  11641  11642     1   107.2600461 396.643200
  11639  11635  11641     1   110.2600474 425.931200
  11639  11635  11640     1   108.4600466 328.025600
  11640  11635  11641     1   110.2600474 425.931200
  11644  11645  11647     1   109.5600471 388.275200
  11644  11658  11662     1   109.5600471 388.275200
  11644  11658  11663     1   109.5600471 388.275200
  11645  11644  11646     1   109.5600471 388.275200
  11645  11648  11652     1   109.5600471 388.275200
  11645  11657  11660     1   107.2600461 396.643200
  11646  11644  11658     1   109.5600471 388.275200
  11646  11644  11666     1   109.7800468 425.094400
  11647  11645  11648     1   109.5600471 388.275200
  11647  11645  11657     1   110.2600474 425.931200
  11648  11649  11651     1   109.5600471 388.275200
  11648  11656  11659     1   107.2600461 396.643200
  11649  11648  11652     1   109.5600471 388.275200
  11649  11650  11653     1   110.2200475 386.601600
  11649  11655  11661     1   107.2600461 396.643200
  11650  11649  11651     1   109.5600471 388.275200
  11651  11649  11655     1   110.2600474 425.931200
  11652  11648  11656     1   110.2600474 425.931200
  11653  11650  11654     1   109.5800467 425.931200
  11653  11650  11666     1   109.5800467 425.931200
  11658  11664  11665     1   107.2600461 396.643200
  11662  11658  11664     1   110.2600474 425.931200
  11662  11658  11663     1   108.4600466 328.025600
  11663  11658  11664     1   110.2600474 425.931200
  11667  11668  11670     1   109.5600471 388.275200
  11667  11681  11685     1   109.5600471 388.275200
  11667  11681  11686     1   109.5600471 388.275200
  11668  11671  11675     1   109.5600471 388.275200
  11668  11680  11683     1   107.2600461 396.643200
  11668  11667  11669     1   109.5600471 388.275200
  11669  11667  11681     1   109.5600471 388.275200
  11669  11667  11689     1   109.7800468 425.094400
  11670  11668  11671     1   109.5600471 388.275200
  11670  11668  11680     1   110.2600474 425.931200
  11671  11672  11674     1   109.5600471 388.275200
  11671  11679  11682     1   107.2600461 396.643200
  11672  11673  11676     1   110.2200475 386.601600
  11672  11678  11684     1   107.2600461 396.643200
  11672  11671  11675     1   109.5600471 388.275200
  11673  11672  11674     1   109.5600471 388.275200
  11674  11672  11678     1   110.2600474 425.931200
  11675  11671  11679     1   110.2600474 425.931200
  11676  11673  11677     1   109.5800467 425.931200
  11676  11673  11689     1   109.5800467 425.931200
  11681  11687  11688     1   107.2600461 396.643200
  11685  11681  11687     1   110.2600474 425.931200
  11685  11681  11686     1   108.4600466 328.025600
  11686  11681  11687     1   110.2600474 425.931200
  11690  11691  11693     1   109.5600471 388.275200
  11690  11704  11708     1   109.5600471 388.275200
  11690  11704  11709     1   109.5600471 388.275200
  11691  11690  11692     1   109.5600471 388.275200
  11691  11694  11698     1   109.5600471 388.275200
  11691  11703  11706     1   107.2600461 396.643200
  11692  11690  11704     1   109.5600471 388.275200
  11692  11690  11712     1   109.7800468 425.094400
  11693  11691  11694     1   109.5600471 388.275200
  11693  11691  11703     1   110.2600474 425.931200
  11694  11695  11697     1   109.5600471 388.275200
  11694  11702  11705     1   107.2600461 396.643200
  11695  11694  11698     1   109.5600471 388.275200
  11695  11696  11699     1   110.2200475 386.601600
  11695  11701  11707     1   107.2600461 396.643200
  11696  11695  11697     1   109.5600471 388.275200
  11697  11695  11701     1   110.2600474 425.931200
  11698  11694  11702     1   110.2600474 425.931200
  11699  11696  11700     1   109.5800467 425.931200
  11699  11696  11712     1   109.5800467 425.931200
  11704  11710  11711     1   107.2600461 396.643200
  11708  11704  11710     1   110.2600474 425.931200
  11708  11704  11709     1   108.4600466 328.025600
  11709  11704  11710     1   110.2600474 425.931200
  11713  11714  11716     1   109.5600471 388.275200
  11713  11727  11731     1   109.5600471 388.275200
  11713  11727  11732     1   109.5600471 388.275200
  11714  11717  11721     1   109.5600471 388.275200
  11714  11726  11729     1   107.2600461 396.643200
  11714  11713  11715     1   109.5600471 388.275200
  11715  11713  11727     1   109.5600471 388.275200
  11715  11713  11735     1   109.7800468 425.094400
  11716  11714  11717     1   109.5600471 388.275200
  11716  11714  11726     1   110.2600474 425.931200
  11717  11718  11720     1   109.5600471 388.275200
  11717  11725  11728     1   107.2600461 396.643200
  11718  11719  11722     1   110.2200475 386.601600
  11718  11724  11730     1   107.2600461 396.643200
  11718  11717  11721     1   109.5600471 388.275200
  11719  11718  11720     1   109.5600471 388.275200
  11720  11718  11724     1   110.2600474 425.931200
  11721  11717  11725     1   110.2600474 425.931200
  11722  11719  11723     1   109.5800467 425.931200
  11722  11719  11735     1   109.5800467 425.931200
  11727  11733  11734     1   107.2600461 396.643200
  11731  11727  11733     1   110.2600474 425.931200
  11731  11727  11732     1   108.4600466 328.025600
  11732  11727  11733     1   110.2600474 425.931200
  11736  11737  11739     1   109.5600471 388.275200
  11736  11750  11754     1   109.5600471 388.275200
  11736  11750  11755     1   109.5600471 388.275200
  11737  11736  11738     1   109.5600471 388.275200
  11737  11740  11744     1   109.5600471 388.275200
  11737  11749  11752     1   107.2600461 396.643200
  11738  11736  11750     1   109.5600471 388.275200
  11738  11736  11758     1   109.7800468 425.094400
  11739  11737  11740     1   109.5600471 388.275200
  11739  11737  11749     1   110.2600474 425.931200
  11740  11741  11743     1   109.5600471 388.275200
  11740  11748  11751     1   107.2600461 396.643200
  11741  11740  11744     1   109.5600471 388.275200
  11741  11742  11745     1   110.2200475 386.601600
  11741  11747  11753     1   107.2600461 396.643200
  11742  11741  11743     1   109.5600471 388.275200
  11743  11741  11747     1   110.2600474 425.931200
  11744  11740  11748     1   110.2600474 425.931200
  11745  11742  11746     1   109.5800467 425.931200
  11745  11742  11758     1   109.5800467 425.931200
  11750  11756  11757     1   107.2600461 396.643200
  11754  11750  11756     1   110.2600474 425.931200
  11754  11750  11755     1   108.4600466 328.025600
  11755  11750  11756     1   110.2600474 425.931200
  11759  11760  11762     1   109.5600471 388.275200
  11759  11773  11777     1   109.5600471 388.275200
  11759  11773  11778     1   109.5600471 388.275200
  11760  11763  11767     1   109.5600471 388.275200
  11760  11772  11775     1   107.2600461 396.643200
  11760  11759  11761     1   109.5600471 388.275200
  11761  11759  11773     1   109.5600471 388.275200
  11761  11759  11781     1   109.7800468 425.094400
  11762  11760  11763     1   109.5600471 388.275200
  11762  11760  11772     1   110.2600474 425.931200
  11763  11764  11766     1   109.5600471 388.275200
  11763  11771  11774     1   107.2600461 396.643200
  11764  11765  11768     1   110.2200475 386.601600
  11764  11770  11776     1   107.2600461 396.643200
  11764  11763  11767     1   109.5600471 388.275200
  11765  11764  11766     1   109.5600471 388.275200
  11766  11764  11770     1   110.2600474 425.931200
  11767  11763  11771     1   110.2600474 425.931200
  11768  11765  11769     1   109.5800467 425.931200
  11768  11765  11781     1   109.5800467 425.931200
  11773  11779  11780     1   107.2600461 396.643200
  11777  11773  11779     1   110.2600474 425.931200
  11777  11773  11778     1   108.4600466 328.025600
  11778  11773  11779     1   110.2600474 425.931200
  11782  11783  11785     1   109.5600471 388.275200
  11782  11796  11800     1   109.5600471 388.275200
  11782  11796  11801     1   109.5600471 388.275200
  11783  11782  11784     1   109.5600471 388.275200
  11783  11786  11790     1   109.5600471 388.275200
  11783  11795  11798     1   107.2600461 396.643200
  11784  11782  11796     1   109.5600471 388.275200
  11784  11782  11804     1   109.7800468 425.094400
  11785  11783  11786     1   109.5600471 388.275200
  11785  11783  11795     1   110.2600474 425.931200
  11786  11787  11789     1   109.5600471 388.275200
  11786  11794  11797     1   107.2600461 396.643200
  11787  11786  11790     1   109.5600471 388.275200
  11787  11788  11791     1   110.2200475 386.601600
  11787  11793  11799     1   107.2600461 396.643200
  11788  11787  11789     1   109.5600471 388.275200
  11789  11787  11793     1   110.2600474 425.931200
  11790  11786  11794     1   110.2600474 425.931200
  11791  11788  11792     1   109.5800467 425.931200
  11791  11788  11804     1   109.5800467 425.931200
  11796  11802  11803     1   107.2600461 396.643200
  11800  11796  11802     1   110.2600474 425.931200
  11800  11796  11801     1   108.4600466 328.025600
  11801  11796  11802     1   110.2600474 425.931200
  11805  11806  11808     1   109.5600471 388.275200
  11805  11819  11823     1   109.5600471 388.275200
  11805  11819  11824     1   109.5600471 388.275200
  11806  11809  11813     1   109.5600471 388.275200
  11806  11818  11821     1   107.2600461 396.643200
  11806  11805  11807     1   109.5600471 388.275200
  11807  11805  11819     1   109.5600471 388.275200
  11807  11805  11827     1   109.7800468 425.094400
  11808  11806  11809     1   109.5600471 388.275200
  11808  11806  11818     1   110.2600474 425.931200
  11809  11810  11812     1   109.5600471 388.275200
  11809  11817  11820     1   107.2600461 396.643200
  11810  11811  11814     1   110.2200475 386.601600
  11810  11816  11822     1   107.2600461 396.643200
  11810  11809  11813     1   109.5600471 388.275200
  11811  11810  11812     1   109.5600471 388.275200
  11812  11810  11816     1   110.2600474 425.931200
  11813  11809  11817     1   110.2600474 425.931200
  11814  11811  11815     1   109.5800467 425.931200
  11814  11811  11827     1   109.5800467 425.931200
  11819  11825  11826     1   107.2600461 396.643200
  11823  11819  11825     1   110.2600474 425.931200
  11823  11819  11824     1   108.4600466 328.025600
  11824  11819  11825     1   110.2600474 425.931200
  11828  11829  11831     1   109.5600471 388.275200
  11828  11842  11846     1   109.5600471 388.275200
  11828  11842  11847     1   109.5600471 388.275200
  11829  11828  11830     1   109.5600471 388.275200
  11829  11832  11836     1   109.5600471 388.275200
  11829  11841  11844     1   107.2600461 396.643200
  11830  11828  11842     1   109.5600471 388.275200
  11830  11828  11850     1   109.7800468 425.094400
  11831  11829  11832     1   109.5600471 388.275200
  11831  11829  11841     1   110.2600474 425.931200
  11832  11833  11835     1   109.5600471 388.275200
  11832  11840  11843     1   107.2600461 396.643200
  11833  11832  11836     1   109.5600471 388.275200
  11833  11834  11837     1   110.2200475 386.601600
  11833  11839  11845     1   107.2600461 396.643200
  11834  11833  11835     1   109.5600471 388.275200
  11835  11833  11839     1   110.2600474 425.931200
  11836  11832  11840     1   110.2600474 425.931200
  11837  11834  11838     1   109.5800467 425.931200
  11837  11834  11850     1   109.5800467 425.931200
  11842  11848  11849     1   107.2600461 396.643200
  11846  11842  11848     1   110.2600474 425.931200
  11846  11842  11847     1   108.4600466 328.025600
  11847  11842  11848     1   110.2600474 425.931200
  11851  11852  11854     1   109.5600471 388.275200
  11851  11865  11869     1   109.5600471 388.275200
  11851  11865  11870     1   109.5600471 388.275200
  11852  11855  11859     1   109.5600471 388.275200
  11852  11864  11867     1   107.2600461 396.643200
  11852  11851  11853     1   109.5600471 388.275200
  11853  11851  11865     1   109.5600471 388.275200
  11853  11851  11873     1   109.7800468 425.094400
  11854  11852  11855     1   109.5600471 388.275200
  11854  11852  11864     1   110.2600474 425.931200
  11855  11856  11858     1   109.5600471 388.275200
  11855  11863  11866     1   107.2600461 396.643200
  11856  11857  11860     1   110.2200475 386.601600
  11856  11862  11868     1   107.2600461 396.643200
  11856  11855  11859     1   109.5600471 388.275200
  11857  11856  11858     1   109.5600471 388.275200
  11858  11856  11862     1   110.2600474 425.931200
  11859  11855  11863     1   110.2600474 425.931200
  11860  11857  11861     1   109.5800467 425.931200
  11860  11857  11873     1   109.5800467 425.931200
  11865  11871  11872     1   107.2600461 396.643200
  11869  11865  11871     1   110.2600474 425.931200
  11869  11865  11870     1   108.4600466 328.025600
  11870  11865  11871     1   110.2600474 425.931200
  11874  11875  11877     1   109.5600471 388.275200
  11874  11888  11892     1   109.5600471 388.275200
  11874  11888  11893     1   109.5600471 388.275200
  11875  11874  11876     1   109.5600471 388.275200
  11875  11878  11882     1   109.5600471 388.275200
  11875  11887  11890     1   107.2600461 396.643200
  11876  11874  11888     1   109.5600471 388.275200
  11876  11874  11896     1   109.7800468 425.094400
  11877  11875  11878     1   109.5600471 388.275200
  11877  11875  11887     1   110.2600474 425.931200
  11878  11879  11881     1   109.5600471 388.275200
  11878  11886  11889     1   107.2600461 396.643200
  11879  11878  11882     1   109.5600471 388.275200
  11879  11880  11883     1   110.2200475 386.601600
  11879  11885  11891     1   107.2600461 396.643200
  11880  11879  11881     1   109.5600471 388.275200
  11881  11879  11885     1   110.2600474 425.931200
  11882  11878  11886     1   110.2600474 425.931200
  11883  11880  11884     1   109.5800467 425.931200
  11883  11880  11896     1   109.5800467 425.931200
  11888  11894  11895     1   107.2600461 396.643200
  11892  11888  11894     1   110.2600474 425.931200
  11892  11888  11893     1   108.4600466 328.025600
  11893  11888  11894     1   110.2600474 425.931200
  11897  11898  11900     1   109.5600471 388.275200
  11897  11911  11915     1   109.5600471 388.275200
  11897  11911  11916     1   109.5600471 388.275200
  11898  11901  11905     1   109.5600471 388.275200
  11898  11910  11913     1   107.2600461 396.643200
  11898  11897  11899     1   109.5600471 388.275200
  11899  11897  11911     1   109.5600471 388.275200
  11899  11897  11919     1   109.7800468 425.094400
  11900  11898  11901     1   109.5600471 388.275200
  11900  11898  11910     1   110.2600474 425.931200
  11901  11902  11904     1   109.5600471 388.275200
  11901  11909  11912     1   107.2600461 396.643200
  11902  11903  11906     1   110.2200475 386.601600
  11902  11908  11914     1   107.2600461 396.643200
  11902  11901  11905     1   109.5600471 388.275200
  11903  11902  11904     1   109.5600471 388.275200
  11904  11902  11908     1   110.2600474 425.931200
  11905  11901  11909     1   110.2600474 425.931200
  11906  11903  11907     1   109.5800467 425.931200
  11906  11903  11919     1   109.5800467 425.931200
  11911  11917  11918     1   107.2600461 396.643200
  11915  11911  11917     1   110.2600474 425.931200
  11915  11911  11916     1   108.4600466 328.025600
  11916  11911  11917     1   110.2600474 425.931200
  11920  11921  11923     1   109.5600471 388.275200
  11920  11934  11938     1   109.5600471 388.275200
  11920  11934  11939     1   109.5600471 388.275200
  11921  11920  11922     1   109.5600471 388.275200
  11921  11924  11928     1   109.5600471 388.275200
  11921  11933  11936     1   107.2600461 396.643200
  11922  11920  11934     1   109.5600471 388.275200
  11922  11920  11942     1   109.7800468 425.094400
  11923  11921  11924     1   109.5600471 388.275200
  11923  11921  11933     1   110.2600474 425.931200
  11924  11925  11927     1   109.5600471 388.275200
  11924  11932  11935     1   107.2600461 396.643200
  11925  11924  11928     1   109.5600471 388.275200
  11925  11926  11929     1   110.2200475 386.601600
  11925  11931  11937     1   107.2600461 396.643200
  11926  11925  11927     1   109.5600471 388.275200
  11927  11925  11931     1   110.2600474 425.931200
  11928  11924  11932     1   110.2600474 425.931200
  11929  11926  11930     1   109.5800467 425.931200
  11929  11926  11942     1   109.5800467 425.931200
  11934  11940  11941     1   107.2600461 396.643200
  11938  11934  11940     1   110.2600474 425.931200
  11938  11934  11939     1   108.4600466 328.025600
  11939  11934  11940     1   110.2600474 425.931200
  11943  11944  11946     1   109.5600471 388.275200
  11943  11957  11961     1   109.5600471 388.275200
  11943  11957  11962     1   109.5600471 388.275200
  11944  11947  11951     1   109.5600471 388.275200
  11944  11956  11959     1   107.2600461 396.643200
  11944  11943  11945     1   109.5600471 388.275200
  11945  11943  11957     1   109.5600471 388.275200
  11945  11943  11965     1   109.7800468 425.094400
  11946  11944  11947     1   109.5600471 388.275200
  11946  11944  11956     1   110.2600474 425.931200
  11947  11948  11950     1   109.5600471 388.275200
  11947  11955  11958     1   107.2600461 396.643200
  11948  11949  11952     1   110.2200475 386.601600
  11948  11954  11960     1   107.2600461 396.643200
  11948  11947  11951     1   109.5600471 388.275200
  11949  11948  11950     1   109.5600471 388.275200
  11950  11948  11954     1   110.2600474 425.931200
  11951  11947  11955     1   110.2600474 425.931200
  11952  11949  11953     1   109.5800467 425.931200
  11952  11949  11965     1   109.5800467 425.931200
  11957  11963  11964     1   107.2600461 396.643200
  11961  11957  11963     1   110.2600474 425.931200
  11961  11957  11962     1   108.4600466 328.025600
  11962  11957  11963     1   110.2600474 425.931200
  11966  11967  11969     1   109.5600471 388.275200
  11966  11980  11984     1   109.5600471 388.275200
  11966  11980  11985     1   109.5600471 388.275200
  11967  11966  11968     1   109.5600471 388.275200
  11967  11970  11974     1   109.5600471 388.275200
  11967  11979  11982     1   107.2600461 396.643200
  11968  11966  11980     1   109.5600471 388.275200
  11968  11966  11988     1   109.7800468 425.094400
  11969  11967  11970     1   109.5600471 388.275200
  11969  11967  11979     1   110.2600474 425.931200
  11970  11971  11973     1   109.5600471 388.275200
  11970  11978  11981     1   107.2600461 396.643200
  11971  11970  11974     1   109.5600471 388.275200
  11971  11972  11975     1   110.2200475 386.601600
  11971  11977  11983     1   107.2600461 396.643200
  11972  11971  11973     1   109.5600471 388.275200
  11973  11971  11977     1   110.2600474 425.931200
  11974  11970  11978     1   110.2600474 425.931200
  11975  11972  11976     1   109.5800467 425.931200
  11975  11972  11988     1   109.5800467 425.931200
  11980  11986  11987     1   107.2600461 396.643200
  11984  11980  11986     1   110.2600474 425.931200
  11984  11980  11985     1   108.4600466 328.025600
  11985  11980  11986     1   110.2600474 425.931200
  11989  11990  11992     1   109.5600471 388.275200
  11989  12003  12007     1   109.5600471 388.275200
  11989  12003  12008     1   109.5600471 388.275200
  11990  11993  11997     1   109.5600471 388.275200
  11990  12002  12005     1   107.2600461 396.643200
  11990  11989  11991     1   109.5600471 388.275200
  11991  11989  12003     1   109.5600471 388.275200
  11991  11989  12011     1   109.7800468 425.094400
  11992  11990  11993     1   109.5600471 388.275200
  11992  11990  12002     1   110.2600474 425.931200
  11993  11994  11996     1   109.5600471 388.275200
  11993  12001  12004     1   107.2600461 396.643200
  11994  11995  11998     1   110.2200475 386.601600
  11994  12000  12006     1   107.2600461 396.643200
  11994  11993  11997     1   109.5600471 388.275200
  11995  11994  11996     1   109.5600471 388.275200
  11996  11994  12000     1   110.2600474 425.931200
  11997  11993  12001     1   110.2600474 425.931200
  11998  11995  11999     1   109.5800467 425.931200
  11998  11995  12011     1   109.5800467 425.931200
  12003  12009  12010     1   107.2600461 396.643200
  12007  12003  12009     1   110.2600474 425.931200
  12007  12003  12008     1   108.4600466 328.025600
  12008  12003  12009     1   110.2600474 425.931200
  12012  12013  12015     1   109.5600471 388.275200
  12012  12026  12030     1   109.5600471 388.275200
  12012  12026  12031     1   109.5600471 388.275200
  12013  12012  12014     1   109.5600471 388.275200
  12013  12016  12020     1   109.5600471 388.275200
  12013  12025  12028     1   107.2600461 396.643200
  12014  12012  12026     1   109.5600471 388.275200
  12014  12012  12034     1   109.7800468 425.094400
  12015  12013  12016     1   109.5600471 388.275200
  12015  12013  12025     1   110.2600474 425.931200
  12016  12017  12019     1   109.5600471 388.275200
  12016  12024  12027     1   107.2600461 396.643200
  12017  12016  12020     1   109.5600471 388.275200
  12017  12018  12021     1   110.2200475 386.601600
  12017  12023  12029     1   107.2600461 396.643200
  12018  12017  12019     1   109.5600471 388.275200
  12019  12017  12023     1   110.2600474 425.931200
  12020  12016  12024     1   110.2600474 425.931200
  12021  12018  12022     1   109.5800467 425.931200
  12021  12018  12034     1   109.5800467 425.931200
  12026  12032  12033     1   107.2600461 396.643200
  12030  12026  12032     1   110.2600474 425.931200
  12030  12026  12031     1   108.4600466 328.025600
  12031  12026  12032     1   110.2600474 425.931200
  12035  12036  12038     1   109.5600471 388.275200
  12035  12049  12053     1   109.5600471 388.275200
  12035  12049  12054     1   109.5600471 388.275200
  12036  12039  12043     1   109.5600471 388.275200
  12036  12048  12051     1   107.2600461 396.643200
  12036  12035  12037     1   109.5600471 388.275200
  12037  12035  12049     1   109.5600471 388.275200
  12037  12035  12057     1   109.7800468 425.094400
  12038  12036  12039     1   109.5600471 388.275200
  12038  12036  12048     1   110.2600474 425.931200
  12039  12040  12042     1   109.5600471 388.275200
  12039  12047  12050     1   107.2600461 396.643200
  12040  12041  12044     1   110.2200475 386.601600
  12040  12046  12052     1   107.2600461 396.643200
  12040  12039  12043     1   109.5600471 388.275200
  12041  12040  12042     1   109.5600471 388.275200
  12042  12040  12046     1   110.2600474 425.931200
  12043  12039  12047     1   110.2600474 425.931200
  12044  12041  12045     1   109.5800467 425.931200
  12044  12041  12057     1   109.5800467 425.931200
  12049  12055  12056     1   107.2600461 396.643200
  12053  12049  12055     1   110.2600474 425.931200
  12053  12049  12054     1   108.4600466 328.025600
  12054  12049  12055     1   110.2600474 425.931200
  12058  12059  12061     1   109.5600471 388.275200
  12058  12072  12076     1   109.5600471 388.275200
  12058  12072  12077     1   109.5600471 388.275200
  12059  12058  12060     1   109.5600471 388.275200
  12059  12062  12066     1   109.5600471 388.275200
  12059  12071  12074     1   107.2600461 396.643200
  12060  12058  12072     1   109.5600471 388.275200
  12060  12058  12080     1   109.7800468 425.094400
  12061  12059  12062     1   109.5600471 388.275200
  12061  12059  12071     1   110.2600474 425.931200
  12062  12063  12065     1   109.5600471 388.275200
  12062  12070  12073     1   107.2600461 396.643200
  12063  12062  12066     1   109.5600471 388.275200
  12063  12064  12067     1   110.2200475 386.601600
  12063  12069  12075     1   107.2600461 396.643200
  12064  12063  12065     1   109.5600471 388.275200
  12065  12063  12069     1   110.2600474 425.931200
  12066  12062  12070     1   110.2600474 425.931200
  12067  12064  12068     1   109.5800467 425.931200
  12067  12064  12080     1   109.5800467 425.931200
  12072  12078  12079     1   107.2600461 396.643200
  12076  12072  12078     1   110.2600474 425.931200
  12076  12072  12077     1   108.4600466 328.025600
  12077  12072  12078     1   110.2600474 425.931200
  12081  12082  12084     1   109.5600471 388.275200
  12081  12095  12099     1   109.5600471 388.275200
  12081  12095  12100     1   109.5600471 388.275200
  12082  12085  12089     1   109.5600471 388.275200
  12082  12094  12097     1   107.2600461 396.643200
  12082  12081  12083     1   109.5600471 388.275200
  12083  12081  12095     1   109.5600471 388.275200
  12083  12081  12103     1   109.7800468 425.094400
  12084  12082  12085     1   109.5600471 388.275200
  12084  12082  12094     1   110.2600474 425.931200
  12085  12086  12088     1   109.5600471 388.275200
  12085  12093  12096     1   107.2600461 396.643200
  12086  12087  12090     1   110.2200475 386.601600
  12086  12092  12098     1   107.2600461 396.643200
  12086  12085  12089     1   109.5600471 388.275200
  12087  12086  12088     1   109.5600471 388.275200
  12088  12086  12092     1   110.2600474 425.931200
  12089  12085  12093     1   110.2600474 425.931200
  12090  12087  12091     1   109.5800467 425.931200
  12090  12087  12103     1   109.5800467 425.931200
  12095  12101  12102     1   107.2600461 396.643200
  12099  12095  12101     1   110.2600474 425.931200
  12099  12095  12100     1   108.4600466 328.025600
  12100  12095  12101     1   110.2600474 425.931200
  12104  12105  12107     1   109.5600471 388.275200
  12104  12118  12122     1   109.5600471 388.275200
  12104  12118  12123     1   109.5600471 388.275200
  12105  12104  12106     1   109.5600471 388.275200
  12105  12108  12112     1   109.5600471 388.275200
  12105  12117  12120     1   107.2600461 396.643200
  12106  12104  12118     1   109.5600471 388.275200
  12106  12104  12126     1   109.7800468 425.094400
  12107  12105  12108     1   109.5600471 388.275200
  12107  12105  12117     1   110.2600474 425.931200
  12108  12109  12111     1   109.5600471 388.275200
  12108  12116  12119     1   107.2600461 396.643200
  12109  12108  12112     1   109.5600471 388.275200
  12109  12110  12113     1   110.2200475 386.601600
  12109  12115  12121     1   107.2600461 396.643200
  12110  12109  12111     1   109.5600471 388.275200
  12111  12109  12115     1   110.2600474 425.931200
  12112  12108  12116     1   110.2600474 425.931200
  12113  12110  12114     1   109.5800467 425.931200
  12113  12110  12126     1   109.5800467 425.931200
  12118  12124  12125     1   107.2600461 396.643200
  12122  12118  12124     1   110.2600474 425.931200
  12122  12118  12123     1   108.4600466 328.025600
  12123  12118  12124     1   110.2600474 425.931200
  12127  12128  12130     1   109.5600471 388.275200
  12127  12141  12145     1   109.5600471 388.275200
  12127  12141  12146     1   109.5600471 388.275200
  12128  12131  12135     1   109.5600471 388.275200
  12128  12140  12143     1   107.2600461 396.643200
  12128  12127  12129     1   109.5600471 388.275200
  12129  12127  12141     1   109.5600471 388.275200
  12129  12127  12149     1   109.7800468 425.094400
  12130  12128  12131     1   109.5600471 388.275200
  12130  12128  12140     1   110.2600474 425.931200
  12131  12132  12134     1   109.5600471 388.275200
  12131  12139  12142     1   107.2600461 396.643200
  12132  12133  12136     1   110.2200475 386.601600
  12132  12138  12144     1   107.2600461 396.643200
  12132  12131  12135     1   109.5600471 388.275200
  12133  12132  12134     1   109.5600471 388.275200
  12134  12132  12138     1   110.2600474 425.931200
  12135  12131  12139     1   110.2600474 425.931200
  12136  12133  12137     1   109.5800467 425.931200
  12136  12133  12149     1   109.5800467 425.931200
  12141  12147  12148     1   107.2600461 396.643200
  12145  12141  12147     1   110.2600474 425.931200
  12145  12141  12146     1   108.4600466 328.025600
  12146  12141  12147     1   110.2600474 425.931200
  12150  12151  12153     1   109.5600471 388.275200
  12150  12164  12168     1   109.5600471 388.275200
  12150  12164  12169     1   109.5600471 388.275200
  12151  12150  12152     1   109.5600471 388.275200
  12151  12154  12158     1   109.5600471 388.275200
  12151  12163  12166     1   107.2600461 396.643200
  12152  12150  12164     1   109.5600471 388.275200
  12152  12150  12172     1   109.7800468 425.094400
  12153  12151  12154     1   109.5600471 388.275200
  12153  12151  12163     1   110.2600474 425.931200
  12154  12155  12157     1   109.5600471 388.275200
  12154  12162  12165     1   107.2600461 396.643200
  12155  12154  12158     1   109.5600471 388.275200
  12155  12156  12159     1   110.2200475 386.601600
  12155  12161  12167     1   107.2600461 396.643200
  12156  12155  12157     1   109.5600471 388.275200
  12157  12155  12161     1   110.2600474 425.931200
  12158  12154  12162     1   110.2600474 425.931200
  12159  12156  12160     1   109.5800467 425.931200
  12159  12156  12172     1   109.5800467 425.931200
  12164  12170  12171     1   107.2600461 396.643200
  12168  12164  12170     1   110.2600474 425.931200
  12168  12164  12169     1   108.4600466 328.025600
  12169  12164  12170     1   110.2600474 425.931200
  12173  12174  12176     1   109.5600471 388.275200
  12173  12187  12191     1   109.5600471 388.275200
  12173  12187  12192     1   109.5600471 388.275200
  12174  12177  12181     1   109.5600471 388.275200
  12174  12186  12189     1   107.2600461 396.643200
  12174  12173  12175     1   109.5600471 388.275200
  12175  12173  12187     1   109.5600471 388.275200
  12175  12173  12195     1   109.7800468 425.094400
  12176  12174  12177     1   109.5600471 388.275200
  12176  12174  12186     1   110.2600474 425.931200
  12177  12178  12180     1   109.5600471 388.275200
  12177  12185  12188     1   107.2600461 396.643200
  12178  12179  12182     1   110.2200475 386.601600
  12178  12184  12190     1   107.2600461 396.643200
  12178  12177  12181     1   109.5600471 388.275200
  12179  12178  12180     1   109.5600471 388.275200
  12180  12178  12184     1   110.2600474 425.931200
  12181  12177  12185     1   110.2600474 425.931200
  12182  12179  12183     1   109.5800467 425.931200
  12182  12179  12195     1   109.5800467 425.931200
  12187  12193  12194     1   107.2600461 396.643200
  12191  12187  12193     1   110.2600474 425.931200
  12191  12187  12192     1   108.4600466 328.025600
  12192  12187  12193     1   110.2600474 425.931200
  12196  12197  12199     1   109.5600471 388.275200
  12196  12210  12214     1   109.5600471 388.275200
  12196  12210  12215     1   109.5600471 388.275200
  12197  12196  12198     1   109.5600471 388.275200
  12197  12200  12204     1   109.5600471 388.275200
  12197  12209  12212     1   107.2600461 396.643200
  12198  12196  12210     1   109.5600471 388.275200
  12198  12196  12218     1   109.7800468 425.094400
  12199  12197  12200     1   109.5600471 388.275200
  12199  12197  12209     1   110.2600474 425.931200
  12200  12201  12203     1   109.5600471 388.275200
  12200  12208  12211     1   107.2600461 396.643200
  12201  12200  12204     1   109.5600471 388.275200
  12201  12202  12205     1   110.2200475 386.601600
  12201  12207  12213     1   107.2600461 396.643200
  12202  12201  12203     1   109.5600471 388.275200
  12203  12201  12207     1   110.2600474 425.931200
  12204  12200  12208     1   110.2600474 425.931200
  12205  12202  12206     1   109.5800467 425.931200
  12205  12202  12218     1   109.5800467 425.931200
  12210  12216  12217     1   107.2600461 396.643200
  12214  12210  12216     1   110.2600474 425.931200
  12214  12210  12215     1   108.4600466 328.025600
  12215  12210  12216     1   110.2600474 425.931200
  12219  12220  12222     1   109.5600471 388.275200
  12219  12233  12237     1   109.5600471 388.275200
  12219  12233  12238     1   109.5600471 388.275200
  12220  12223  12227     1   109.5600471 388.275200
  12220  12232  12235     1   107.2600461 396.643200
  12220  12219  12221     1   109.5600471 388.275200
  12221  12219  12233     1   109.5600471 388.275200
  12221  12219  12241     1   109.7800468 425.094400
  12222  12220  12223     1   109.5600471 388.275200
  12222  12220  12232     1   110.2600474 425.931200
  12223  12224  12226     1   109.5600471 388.275200
  12223  12231  12234     1   107.2600461 396.643200
  12224  12225  12228     1   110.2200475 386.601600
  12224  12230  12236     1   107.2600461 396.643200
  12224  12223  12227     1   109.5600471 388.275200
  12225  12224  12226     1   109.5600471 388.275200
  12226  12224  12230     1   110.2600474 425.931200
  12227  12223  12231     1   110.2600474 425.931200
  12228  12225  12229     1   109.5800467 425.931200
  12228  12225  12241     1   109.5800467 425.931200
  12233  12239  12240     1   107.2600461 396.643200
  12237  12233  12239     1   110.2600474 425.931200
  12237  12233  12238     1   108.4600466 328.025600
  12238  12233  12239     1   110.2600474 425.931200
  12242  12243  12245     1   109.5600471 388.275200
  12242  12256  12260     1   109.5600471 388.275200
  12242  12256  12261     1   109.5600471 388.275200
  12243  12242  12244     1   109.5600471 388.275200
  12243  12246  12250     1   109.5600471 388.275200
  12243  12255  12258     1   107.2600461 396.643200
  12244  12242  12256     1   109.5600471 388.275200
  12244  12242  12264     1   109.7800468 425.094400
  12245  12243  12246     1   109.5600471 388.275200
  12245  12243  12255     1   110.2600474 425.931200
  12246  12247  12249     1   109.5600471 388.275200
  12246  12254  12257     1   107.2600461 396.643200
  12247  12246  12250     1   109.5600471 388.275200
  12247  12248  12251     1   110.2200475 386.601600
  12247  12253  12259     1   107.2600461 396.643200
  12248  12247  12249     1   109.5600471 388.275200
  12249  12247  12253     1   110.2600474 425.931200
  12250  12246  12254     1   110.2600474 425.931200
  12251  12248  12252     1   109.5800467 425.931200
  12251  12248  12264     1   109.5800467 425.931200
  12256  12262  12263     1   107.2600461 396.643200
  12260  12256  12262     1   110.2600474 425.931200
  12260  12256  12261     1   108.4600466 328.025600
  12261  12256  12262     1   110.2600474 425.931200
  12265  12266  12268     1   109.5600471 388.275200
  12265  12279  12283     1   109.5600471 388.275200
  12265  12279  12284     1   109.5600471 388.275200
  12266  12269  12273     1   109.5600471 388.275200
  12266  12278  12281     1   107.2600461 396.643200
  12266  12265  12267     1   109.5600471 388.275200
  12267  12265  12279     1   109.5600471 388.275200
  12267  12265  12287     1   109.7800468 425.094400
  12268  12266  12269     1   109.5600471 388.275200
  12268  12266  12278     1   110.2600474 425.931200
  12269  12270  12272     1   109.5600471 388.275200
  12269  12277  12280     1   107.2600461 396.643200
  12270  12271  12274     1   110.2200475 386.601600
  12270  12276  12282     1   107.2600461 396.643200
  12270  12269  12273     1   109.5600471 388.275200
  12271  12270  12272     1   109.5600471 388.275200
  12272  12270  12276     1   110.2600474 425.931200
  12273  12269  12277     1   110.2600474 425.931200
  12274  12271  12275     1   109.5800467 425.931200
  12274  12271  12287     1   109.5800467 425.931200
  12279  12285  12286     1   107.2600461 396.643200
  12283  12279  12285     1   110.2600474 425.931200
  12283  12279  12284     1   108.4600466 328.025600
  12284  12279  12285     1   110.2600474 425.931200
  12288  12289  12291     1   109.5600471 388.275200
  12288  12302  12306     1   109.5600471 388.275200
  12288  12302  12307     1   109.5600471 388.275200
  12289  12288  12290     1   109.5600471 388.275200
  12289  12292  12296     1   109.5600471 388.275200
  12289  12301  12304     1   107.2600461 396.643200
  12290  12288  12302     1   109.5600471 388.275200
  12290  12288  12310     1   109.7800468 425.094400
  12291  12289  12292     1   109.5600471 388.275200
  12291  12289  12301     1   110.2600474 425.931200
  12292  12293  12295     1   109.5600471 388.275200
  12292  12300  12303     1   107.2600461 396.643200
  12293  12292  12296     1   109.5600471 388.275200
  12293  12294  12297     1   110.2200475 386.601600
  12293  12299  12305     1   107.2600461 396.643200
  12294  12293  12295     1   109.5600471 388.275200
  12295  12293  12299     1   110.2600474 425.931200
  12296  12292  12300     1   110.2600474 425.931200
  12297  12294  12298     1   109.5800467 425.931200
  12297  12294  12310     1   109.5800467 425.931200
  12302  12308  12309     1   107.2600461 396.643200
  12306  12302  12308     1   110.2600474 425.931200
  12306  12302  12307     1   108.4600466 328.025600
  12307  12302  12308     1   110.2600474 425.931200
  12311  12312  12314     1   109.5600471 388.275200
  12311  12325  12329     1   109.5600471 388.275200
  12311  12325  12330     1   109.5600471 388.275200
  12312  12315  12319     1   109.5600471 388.275200
  12312  12324  12327     1   107.2600461 396.643200
  12312  12311  12313     1   109.5600471 388.275200
  12313  12311  12325     1   109.5600471 388.275200
  12313  12311  12333     1   109.7800468 425.094400
  12314  12312  12315     1   109.5600471 388.275200
  12314  12312  12324     1   110.2600474 425.931200
  12315  12316  12318     1   109.5600471 388.275200
  12315  12323  12326     1   107.2600461 396.643200
  12316  12317  12320     1   110.2200475 386.601600
  12316  12322  12328     1   107.2600461 396.643200
  12316  12315  12319     1   109.5600471 388.275200
  12317  12316  12318     1   109.5600471 388.275200
  12318  12316  12322     1   110.2600474 425.931200
  12319  12315  12323     1   110.2600474 425.931200
  12320  12317  12321     1   109.5800467 425.931200
  12320  12317  12333     1   109.5800467 425.931200
  12325  12331  12332     1   107.2600461 396.643200
  12329  12325  12331     1   110.2600474 425.931200
  12329  12325  12330     1   108.4600466 328.025600
  12330  12325  12331     1   110.2600474 425.931200
  12334  12335  12337     1   109.5600471 388.275200
  12334  12348  12352     1   109.5600471 388.275200
  12334  12348  12353     1   109.5600471 388.275200
  12335  12334  12336     1   109.5600471 388.275200
  12335  12338  12342     1   109.5600471 388.275200
  12335  12347  12350     1   107.2600461 396.643200
  12336  12334  12348     1   109.5600471 388.275200
  12336  12334  12356     1   109.7800468 425.094400
  12337  12335  12338     1   109.5600471 388.275200
  12337  12335  12347     1   110.2600474 425.931200
  12338  12339  12341     1   109.5600471 388.275200
  12338  12346  12349     1   107.2600461 396.643200
  12339  12338  12342     1   109.5600471 388.275200
  12339  12340  12343     1   110.2200475 386.601600
  12339  12345  12351     1   107.2600461 396.643200
  12340  12339  12341     1   109.5600471 388.275200
  12341  12339  12345     1   110.2600474 425.931200
  12342  12338  12346     1   110.2600474 425.931200
  12343  12340  12344     1   109.5800467 425.931200
  12343  12340  12356     1   109.5800467 425.931200
  12348  12354  12355     1   107.2600461 396.643200
  12352  12348  12354     1   110.2600474 425.931200
  12352  12348  12353     1   108.4600466 328.025600
  12353  12348  12354     1   110.2600474 425.931200
  12357  12358  12360     1   109.5600471 388.275200
  12357  12371  12375     1   109.5600471 388.275200
  12357  12371  12376     1   109.5600471 388.275200
  12358  12361  12365     1   109.5600471 388.275200
  12358  12370  12373     1   107.2600461 396.643200
  12358  12357  12359     1   109.5600471 388.275200
  12359  12357  12371     1   109.5600471 388.275200
  12359  12357  12379     1   109.7800468 425.094400
  12360  12358  12361     1   109.5600471 388.275200
  12360  12358  12370     1   110.2600474 425.931200
  12361  12362  12364     1   109.5600471 388.275200
  12361  12369  12372     1   107.2600461 396.643200
  12362  12363  12366     1   110.2200475 386.601600
  12362  12368  12374     1   107.2600461 396.643200
  12362  12361  12365     1   109.5600471 388.275200
  12363  12362  12364     1   109.5600471 388.275200
  12364  12362  12368     1   110.2600474 425.931200
  12365  12361  12369     1   110.2600474 425.931200
  12366  12363  12367     1   109.5800467 425.931200
  12366  12363  12379     1   109.5800467 425.931200
  12371  12377  12378     1   107.2600461 396.643200
  12375  12371  12377     1   110.2600474 425.931200
  12375  12371  12376     1   108.4600466 328.025600
  12376  12371  12377     1   110.2600474 425.931200
  12380  12381  12383     1   109.5600471 388.275200
  12380  12394  12398     1   109.5600471 388.275200
  12380  12394  12399     1   109.5600471 388.275200
  12381  12380  12382     1   109.5600471 388.275200
  12381  12384  12388     1   109.5600471 388.275200
  12381  12393  12396     1   107.2600461 396.643200
  12382  12380  12394     1   109.5600471 388.275200
  12382  12380  12402     1   109.7800468 425.094400
  12383  12381  12384     1   109.5600471 388.275200
  12383  12381  12393     1   110.2600474 425.931200
  12384  12385  12387     1   109.5600471 388.275200
  12384  12392  12395     1   107.2600461 396.643200
  12385  12384  12388     1   109.5600471 388.275200
  12385  12386  12389     1   110.2200475 386.601600
  12385  12391  12397     1   107.2600461 396.643200
  12386  12385  12387     1   109.5600471 388.275200
  12387  12385  12391     1   110.2600474 425.931200
  12388  12384  12392     1   110.2600474 425.931200
  12389  12386  12390     1   109.5800467 425.931200
  12389  12386  12402     1   109.5800467 425.931200
  12394  12400  12401     1   107.2600461 396.643200
  12398  12394  12400     1   110.2600474 425.931200
  12398  12394  12399     1   108.4600466 328.025600
  12399  12394  12400     1   110.2600474 425.931200
  12403  12404  12406     1   109.5600471 388.275200
  12403  12417  12421     1   109.5600471 388.275200
  12403  12417  12422     1   109.5600471 388.275200
  12404  12407  12411     1   109.5600471 388.275200
  12404  12416  12419     1   107.2600461 396.643200
  12404  12403  12405     1   109.5600471 388.275200
  12405  12403  12417     1   109.5600471 388.275200
  12405  12403  12425     1   109.7800468 425.094400
  12406  12404  12407     1   109.5600471 388.275200
  12406  12404  12416     1   110.2600474 425.931200
  12407  12408  12410     1   109.5600471 388.275200
  12407  12415  12418     1   107.2600461 396.643200
  12408  12409  12412     1   110.2200475 386.601600
  12408  12414  12420     1   107.2600461 396.643200
  12408  12407  12411     1   109.5600471 388.275200
  12409  12408  12410     1   109.5600471 388.275200
  12410  12408  12414     1   110.2600474 425.931200
  12411  12407  12415     1   110.2600474 425.931200
  12412  12409  12413     1   109.5800467 425.931200
  12412  12409  12425     1   109.5800467 425.931200
  12417  12423  12424     1   107.2600461 396.643200
  12421  12417  12423     1   110.2600474 425.931200
  12421  12417  12422     1   108.4600466 328.025600
  12422  12417  12423     1   110.2600474 425.931200
  12426  12427  12429     1   109.5600471 388.275200
  12426  12440  12444     1   109.5600471 388.275200
  12426  12440  12445     1   109.5600471 388.275200
  12427  12426  12428     1   109.5600471 388.275200
  12427  12430  12434     1   109.5600471 388.275200
  12427  12439  12442     1   107.2600461 396.643200
  12428  12426  12440     1   109.5600471 388.275200
  12428  12426  12448     1   109.7800468 425.094400
  12429  12427  12430     1   109.5600471 388.275200
  12429  12427  12439     1   110.2600474 425.931200
  12430  12431  12433     1   109.5600471 388.275200
  12430  12438  12441     1   107.2600461 396.643200
  12431  12430  12434     1   109.5600471 388.275200
  12431  12432  12435     1   110.2200475 386.601600
  12431  12437  12443     1   107.2600461 396.643200
  12432  12431  12433     1   109.5600471 388.275200
  12433  12431  12437     1   110.2600474 425.931200
  12434  12430  12438     1   110.2600474 425.931200
  12435  12432  12436     1   109.5800467 425.931200
  12435  12432  12448     1   109.5800467 425.931200
  12440  12446  12447     1   107.2600461 396.643200
  12444  12440  12446     1   110.2600474 425.931200
  12444  12440  12445     1   108.4600466 328.025600
  12445  12440  12446     1   110.2600474 425.931200
  12449  12450  12452     1   109.5600471 388.275200
  12449  12463  12467     1   109.5600471 388.275200
  12449  12463  12468     1   109.5600471 388.275200
  12450  12453  12457     1   109.5600471 388.275200
  12450  12462  12465     1   107.2600461 396.643200
  12450  12449  12451     1   109.5600471 388.275200
  12451  12449  12463     1   109.5600471 388.275200
  12451  12449  12471     1   109.7800468 425.094400
  12452  12450  12453     1   109.5600471 388.275200
  12452  12450  12462     1   110.2600474 425.931200
  12453  12454  12456     1   109.5600471 388.275200
  12453  12461  12464     1   107.2600461 396.643200
  12454  12455  12458     1   110.2200475 386.601600
  12454  12460  12466     1   107.2600461 396.643200
  12454  12453  12457     1   109.5600471 388.275200
  12455  12454  12456     1   109.5600471 388.275200
  12456  12454  12460     1   110.2600474 425.931200
  12457  12453  12461     1   110.2600474 425.931200
  12458  12455  12459     1   109.5800467 425.931200
  12458  12455  12471     1   109.5800467 425.931200
  12463  12469  12470     1   107.2600461 396.643200
  12467  12463  12469     1   110.2600474 425.931200
  12467  12463  12468     1   108.4600466 328.025600
  12468  12463  12469     1   110.2600474 425.931200
  12472  12473  12475     1   109.5600471 388.275200
  12472  12486  12490     1   109.5600471 388.275200
  12472  12486  12491     1   109.5600471 388.275200
  12473  12472  12474     1   109.5600471 388.275200
  12473  12476  12480     1   109.5600471 388.275200
  12473  12485  12488     1   107.2600461 396.643200
  12474  12472  12486     1   109.5600471 388.275200
  12474  12472  12494     1   109.7800468 425.094400
  12475  12473  12476     1   109.5600471 388.275200
  12475  12473  12485     1   110.2600474 425.931200
  12476  12477  12479     1   109.5600471 388.275200
  12476  12484  12487     1   107.2600461 396.643200
  12477  12476  12480     1   109.5600471 388.275200
  12477  12478  12481     1   110.2200475 386.601600
  12477  12483  12489     1   107.2600461 396.643200
  12478  12477  12479     1   109.5600471 388.275200
  12479  12477  12483     1   110.2600474 425.931200
  12480  12476  12484     1   110.2600474 425.931200
  12481  12478  12482     1   109.5800467 425.931200
  12481  12478  12494     1   109.5800467 425.931200
  12486  12492  12493     1   107.2600461 396.643200
  12490  12486  12492     1   110.2600474 425.931200
  12490  12486  12491     1   108.4600466 328.025600
  12491  12486  12492     1   110.2600474 425.931200
  12495  12496  12498     1   109.5600471 388.275200
  12495  12509  12513     1   109.5600471 388.275200
  12495  12509  12514     1   109.5600471 388.275200
  12496  12499  12503     1   109.5600471 388.275200
  12496  12508  12511     1   107.2600461 396.643200
  12496  12495  12497     1   109.5600471 388.275200
  12497  12495  12509     1   109.5600471 388.275200
  12497  12495  12517     1   109.7800468 425.094400
  12498  12496  12499     1   109.5600471 388.275200
  12498  12496  12508     1   110.2600474 425.931200
  12499  12500  12502     1   109.5600471 388.275200
  12499  12507  12510     1   107.2600461 396.643200
  12500  12501  12504     1   110.2200475 386.601600
  12500  12506  12512     1   107.2600461 396.643200
  12500  12499  12503     1   109.5600471 388.275200
  12501  12500  12502     1   109.5600471 388.275200
  12502  12500  12506     1   110.2600474 425.931200
  12503  12499  12507     1   110.2600474 425.931200
  12504  12501  12505     1   109.5800467 425.931200
  12504  12501  12517     1   109.5800467 425.931200
  12509  12515  12516     1   107.2600461 396.643200
  12513  12509  12515     1   110.2600474 425.931200
  12513  12509  12514     1   108.4600466 328.025600
  12514  12509  12515     1   110.2600474 425.931200
  12518  12519  12521     1   109.5600471 388.275200
  12518  12532  12536     1   109.5600471 388.275200
  12518  12532  12537     1   109.5600471 388.275200
  12519  12518  12520     1   109.5600471 388.275200
  12519  12522  12526     1   109.5600471 388.275200
  12519  12531  12534     1   107.2600461 396.643200
  12520  12518  12532     1   109.5600471 388.275200
  12520  12518  12540     1   109.7800468 425.094400
  12521  12519  12522     1   109.5600471 388.275200
  12521  12519  12531     1   110.2600474 425.931200
  12522  12523  12525     1   109.5600471 388.275200
  12522  12530  12533     1   107.2600461 396.643200
  12523  12522  12526     1   109.5600471 388.275200
  12523  12524  12527     1   110.2200475 386.601600
  12523  12529  12535     1   107.2600461 396.643200
  12524  12523  12525     1   109.5600471 388.275200
  12525  12523  12529     1   110.2600474 425.931200
  12526  12522  12530     1   110.2600474 425.931200
  12527  12524  12528     1   109.5800467 425.931200
  12527  12524  12540     1   109.5800467 425.931200
  12532  12538  12539     1   107.2600461 396.643200
  12536  12532  12538     1   110.2600474 425.931200
  12536  12532  12537     1   108.4600466 328.025600
  12537  12532  12538     1   110.2600474 425.931200
  12541  12542  12544     1   109.5600471 388.275200
  12541  12555  12559     1   109.5600471 388.275200
  12541  12555  12560     1   109.5600471 388.275200
  12542  12545  12549     1   109.5600471 388.275200
  12542  12554  12557     1   107.2600461 396.643200
  12542  12541  12543     1   109.5600471 388.275200
  12543  12541  12555     1   109.5600471 388.275200
  12543  12541  12563     1   109.7800468 425.094400
  12544  12542  12545     1   109.5600471 388.275200
  12544  12542  12554     1   110.2600474 425.931200
  12545  12546  12548     1   109.5600471 388.275200
  12545  12553  12556     1   107.2600461 396.643200
  12546  12547  12550     1   110.2200475 386.601600
  12546  12552  12558     1   107.2600461 396.643200
  12546  12545  12549     1   109.5600471 388.275200
  12547  12546  12548     1   109.5600471 388.275200
  12548  12546  12552     1   110.2600474 425.931200
  12549  12545  12553     1   110.2600474 425.931200
  12550  12547  12551     1   109.5800467 425.931200
  12550  12547  12563     1   109.5800467 425.931200
  12555  12561  12562     1   107.2600461 396.643200
  12559  12555  12561     1   110.2600474 425.931200
  12559  12555  12560     1   108.4600466 328.025600
  12560  12555  12561     1   110.2600474 425.931200
  12564  12565  12567     1   109.5600471 388.275200
  12564  12578  12582     1   109.5600471 388.275200
  12564  12578  12583     1   109.5600471 388.275200
  12565  12564  12566     1   109.5600471 388.275200
  12565  12568  12572     1   109.5600471 388.275200
  12565  12577  12580     1   107.2600461 396.643200
  12566  12564  12578     1   109.5600471 388.275200
  12566  12564  12586     1   109.7800468 425.094400
  12567  12565  12568     1   109.5600471 388.275200
  12567  12565  12577     1   110.2600474 425.931200
  12568  12569  12571     1   109.5600471 388.275200
  12568  12576  12579     1   107.2600461 396.643200
  12569  12568  12572     1   109.5600471 388.275200
  12569  12570  12573     1   110.2200475 386.601600
  12569  12575  12581     1   107.2600461 396.643200
  12570  12569  12571     1   109.5600471 388.275200
  12571  12569  12575     1   110.2600474 425.931200
  12572  12568  12576     1   110.2600474 425.931200
  12573  12570  12574     1   109.5800467 425.931200
  12573  12570  12586     1   109.5800467 425.931200
  12578  12584  12585     1   107.2600461 396.643200
  12582  12578  12584     1   110.2600474 425.931200
  12582  12578  12583     1   108.4600466 328.025600
  12583  12578  12584     1   110.2600474 425.931200
  12587  12588  12590     1   109.5600471 388.275200
  12587  12601  12605     1   109.5600471 388.275200
  12587  12601  12606     1   109.5600471 388.275200
  12588  12591  12595     1   109.5600471 388.275200
  12588  12600  12603     1   107.2600461 396.643200
  12588  12587  12589     1   109.5600471 388.275200
  12589  12587  12601     1   109.5600471 388.275200
  12589  12587  12609     1   109.7800468 425.094400
  12590  12588  12591     1   109.5600471 388.275200
  12590  12588  12600     1   110.2600474 425.931200
  12591  12592  12594     1   109.5600471 388.275200
  12591  12599  12602     1   107.2600461 396.643200
  12592  12593  12596     1   110.2200475 386.601600
  12592  12598  12604     1   107.2600461 396.643200
  12592  12591  12595     1   109.5600471 388.275200
  12593  12592  12594     1   109.5600471 388.275200
  12594  12592  12598     1   110.2600474 425.931200
  12595  12591  12599     1   110.2600474 425.931200
  12596  12593  12597     1   109.5800467 425.931200
  12596  12593  12609     1   109.5800467 425.931200
  12601  12607  12608     1   107.2600461 396.643200
  12605  12601  12607     1   110.2600474 425.931200
  12605  12601  12606     1   108.4600466 328.025600
  12606  12601  12607     1   110.2600474 425.931200
  12610  12611  12613     1   109.5600471 388.275200
  12610  12624  12628     1   109.5600471 388.275200
  12610  12624  12629     1   109.5600471 388.275200
  12611  12610  12612     1   109.5600471 388.275200
  12611  12614  12618     1   109.5600471 388.275200
  12611  12623  12626     1   107.2600461 396.643200
  12612  12610  12624     1   109.5600471 388.275200
  12612  12610  12632     1   109.7800468 425.094400
  12613  12611  12614     1   109.5600471 388.275200
  12613  12611  12623     1   110.2600474 425.931200
  12614  12615  12617     1   109.5600471 388.275200
  12614  12622  12625     1   107.2600461 396.643200
  12615  12614  12618     1   109.5600471 388.275200
  12615  12616  12619     1   110.2200475 386.601600
  12615  12621  12627     1   107.2600461 396.643200
  12616  12615  12617     1   109.5600471 388.275200
  12617  12615  12621     1   110.2600474 425.931200
  12618  12614  12622     1   110.2600474 425.931200
  12619  12616  12620     1   109.5800467 425.931200
  12619  12616  12632     1   109.5800467 425.931200
  12624  12630  12631     1   107.2600461 396.643200
  12628  12624  12630     1   110.2600474 425.931200
  12628  12624  12629     1   108.4600466 328.025600
  12629  12624  12630     1   110.2600474 425.931200
  12633  12634  12636     1   109.5600471 388.275200
  12633  12647  12651     1   109.5600471 388.275200
  12633  12647  12652     1   109.5600471 388.275200
  12634  12637  12641     1   109.5600471 388.275200
  12634  12646  12649     1   107.2600461 396.643200
  12634  12633  12635     1   109.5600471 388.275200
  12635  12633  12647     1   109.5600471 388.275200
  12635  12633  12655     1   109.7800468 425.094400
  12636  12634  12637     1   109.5600471 388.275200
  12636  12634  12646     1   110.2600474 425.931200
  12637  12638  12640     1   109.5600471 388.275200
  12637  12645  12648     1   107.2600461 396.643200
  12638  12639  12642     1   110.2200475 386.601600
  12638  12644  12650     1   107.2600461 396.643200
  12638  12637  12641     1   109.5600471 388.275200
  12639  12638  12640     1   109.5600471 388.275200
  12640  12638  12644     1   110.2600474 425.931200
  12641  12637  12645     1   110.2600474 425.931200
  12642  12639  12643     1   109.5800467 425.931200
  12642  12639  12655     1   109.5800467 425.931200
  12647  12653  12654     1   107.2600461 396.643200
  12651  12647  12653     1   110.2600474 425.931200
  12651  12647  12652     1   108.4600466 328.025600
  12652  12647  12653     1   110.2600474 425.931200
  12656  12657  12659     1   109.5600471 388.275200
  12656  12670  12674     1   109.5600471 388.275200
  12656  12670  12675     1   109.5600471 388.275200
  12657  12656  12658     1   109.5600471 388.275200
  12657  12660  12664     1   109.5600471 388.275200
  12657  12669  12672     1   107.2600461 396.643200
  12658  12656  12670     1   109.5600471 388.275200
  12658  12656  12678     1   109.7800468 425.094400
  12659  12657  12660     1   109.5600471 388.275200
  12659  12657  12669     1   110.2600474 425.931200
  12660  12661  12663     1   109.5600471 388.275200
  12660  12668  12671     1   107.2600461 396.643200
  12661  12660  12664     1   109.5600471 388.275200
  12661  12662  12665     1   110.2200475 386.601600
  12661  12667  12673     1   107.2600461 396.643200
  12662  12661  12663     1   109.5600471 388.275200
  12663  12661  12667     1   110.2600474 425.931200
  12664  12660  12668     1   110.2600474 425.931200
  12665  12662  12666     1   109.5800467 425.931200
  12665  12662  12678     1   109.5800467 425.931200
  12670  12676  12677     1   107.2600461 396.643200
  12674  12670  12676     1   110.2600474 425.931200
  12674  12670  12675     1   108.4600466 328.025600
  12675  12670  12676     1   110.2600474 425.931200
  12679  12680  12682     1   109.5600471 388.275200
  12679  12693  12697     1   109.5600471 388.275200
  12679  12693  12698     1   109.5600471 388.275200
  12680  12683  12687     1   109.5600471 388.275200
  12680  12692  12695     1   107.2600461 396.643200
  12680  12679  12681     1   109.5600471 388.275200
  12681  12679  12693     1   109.5600471 388.275200
  12681  12679  12701     1   109.7800468 425.094400
  12682  12680  12683     1   109.5600471 388.275200
  12682  12680  12692     1   110.2600474 425.931200
  12683  12684  12686     1   109.5600471 388.275200
  12683  12691  12694     1   107.2600461 396.643200
  12684  12685  12688     1   110.2200475 386.601600
  12684  12690  12696     1   107.2600461 396.643200
  12684  12683  12687     1   109.5600471 388.275200
  12685  12684  12686     1   109.5600471 388.275200
  12686  12684  12690     1   110.2600474 425.931200
  12687  12683  12691     1   110.2600474 425.931200
  12688  12685  12689     1   109.5800467 425.931200
  12688  12685  12701     1   109.5800467 425.931200
  12693  12699  12700     1   107.2600461 396.643200
  12697  12693  12699     1   110.2600474 425.931200
  12697  12693  12698     1   108.4600466 328.025600
  12698  12693  12699     1   110.2600474 425.931200
  12702  12703  12705     1   109.5600471 388.275200
  12702  12716  12720     1   109.5600471 388.275200
  12702  12716  12721     1   109.5600471 388.275200
  12703  12702  12704     1   109.5600471 388.275200
  12703  12706  12710     1   109.5600471 388.275200
  12703  12715  12718     1   107.2600461 396.643200
  12704  12702  12716     1   109.5600471 388.275200
  12704  12702  12724     1   109.7800468 425.094400
  12705  12703  12706     1   109.5600471 388.275200
  12705  12703  12715     1   110.2600474 425.931200
  12706  12707  12709     1   109.5600471 388.275200
  12706  12714  12717     1   107.2600461 396.643200
  12707  12706  12710     1   109.5600471 388.275200
  12707  12708  12711     1   110.2200475 386.601600
  12707  12713  12719     1   107.2600461 396.643200
  12708  12707  12709     1   109.5600471 388.275200
  12709  12707  12713     1   110.2600474 425.931200
  12710  12706  12714     1   110.2600474 425.931200
  12711  12708  12712     1   109.5800467 425.931200
  12711  12708  12724     1   109.5800467 425.931200
  12716  12722  12723     1   107.2600461 396.643200
  12720  12716  12722     1   110.2600474 425.931200
  12720  12716  12721     1   108.4600466 328.025600
  12721  12716  12722     1   110.2600474 425.931200
  12725  12726  12728     1   109.5600471 388.275200
  12725  12739  12743     1   109.5600471 388.275200
  12725  12739  12744     1   109.5600471 388.275200
  12726  12729  12733     1   109.5600471 388.275200
  12726  12738  12741     1   107.2600461 396.643200
  12726  12725  12727     1   109.5600471 388.275200
  12727  12725  12739     1   109.5600471 388.275200
  12727  12725  12747     1   109.7800468 425.094400
  12728  12726  12729     1   109.5600471 388.275200
  12728  12726  12738     1   110.2600474 425.931200
  12729  12730  12732     1   109.5600471 388.275200
  12729  12737  12740     1   107.2600461 396.643200
  12730  12731  12734     1   110.2200475 386.601600
  12730  12736  12742     1   107.2600461 396.643200
  12730  12729  12733     1   109.5600471 388.275200
  12731  12730  12732     1   109.5600471 388.275200
  12732  12730  12736     1   110.2600474 425.931200
  12733  12729  12737     1   110.2600474 425.931200
  12734  12731  12735     1   109.5800467 425.931200
  12734  12731  12747     1   109.5800467 425.931200
  12739  12745  12746     1   107.2600461 396.643200
  12743  12739  12745     1   110.2600474 425.931200
  12743  12739  12744     1   108.4600466 328.025600
  12744  12739  12745     1   110.2600474 425.931200
  12748  12749  12751     1   109.5600471 388.275200
  12748  12762  12766     1   109.5600471 388.275200
  12748  12762  12767     1   109.5600471 388.275200
  12749  12748  12750     1   109.5600471 388.275200
  12749  12752  12756     1   109.5600471 388.275200
  12749  12761  12764     1   107.2600461 396.643200
  12750  12748  12762     1   109.5600471 388.275200
  12750  12748  12770     1   109.7800468 425.094400
  12751  12749  12752     1   109.5600471 388.275200
  12751  12749  12761     1   110.2600474 425.931200
  12752  12753  12755     1   109.5600471 388.275200
  12752  12760  12763     1   107.2600461 396.643200
  12753  12752  12756     1   109.5600471 388.275200
  12753  12754  12757     1   110.2200475 386.601600
  12753  12759  12765     1   107.2600461 396.643200
  12754  12753  12755     1   109.5600471 388.275200
  12755  12753  12759     1   110.2600474 425.931200
  12756  12752  12760     1   110.2600474 425.931200
  12757  12754  12758     1   109.5800467 425.931200
  12757  12754  12770     1   109.5800467 425.931200
  12762  12768  12769     1   107.2600461 396.643200
  12766  12762  12768     1   110.2600474 425.931200
  12766  12762  12767     1   108.4600466 328.025600
  12767  12762  12768     1   110.2600474 425.931200
  12771  12772  12774     1   109.5600471 388.275200
  12771  12785  12789     1   109.5600471 388.275200
  12771  12785  12790     1   109.5600471 388.275200
  12772  12775  12779     1   109.5600471 388.275200
  12772  12784  12787     1   107.2600461 396.643200
  12772  12771  12773     1   109.5600471 388.275200
  12773  12771  12785     1   109.5600471 388.275200
  12773  12771  12793     1   109.7800468 425.094400
  12774  12772  12775     1   109.5600471 388.275200
  12774  12772  12784     1   110.2600474 425.931200
  12775  12776  12778     1   109.5600471 388.275200
  12775  12783  12786     1   107.2600461 396.643200
  12776  12777  12780     1   110.2200475 386.601600
  12776  12782  12788     1   107.2600461 396.643200
  12776  12775  12779     1   109.5600471 388.275200
  12777  12776  12778     1   109.5600471 388.275200
  12778  12776  12782     1   110.2600474 425.931200
  12779  12775  12783     1   110.2600474 425.931200
  12780  12777  12781     1   109.5800467 425.931200
  12780  12777  12793     1   109.5800467 425.931200
  12785  12791  12792     1   107.2600461 396.643200
  12789  12785  12791     1   110.2600474 425.931200
  12789  12785  12790     1   108.4600466 328.025600
  12790  12785  12791     1   110.2600474 425.931200
  12794  12795  12797     1   109.5600471 388.275200
  12794  12808  12812     1   109.5600471 388.275200
  12794  12808  12813     1   109.5600471 388.275200
  12795  12794  12796     1   109.5600471 388.275200
  12795  12798  12802     1   109.5600471 388.275200
  12795  12807  12810     1   107.2600461 396.643200
  12796  12794  12808     1   109.5600471 388.275200
  12796  12794  12816     1   109.7800468 425.094400
  12797  12795  12798     1   109.5600471 388.275200
  12797  12795  12807     1   110.2600474 425.931200
  12798  12799  12801     1   109.5600471 388.275200
  12798  12806  12809     1   107.2600461 396.643200
  12799  12798  12802     1   109.5600471 388.275200
  12799  12800  12803     1   110.2200475 386.601600
  12799  12805  12811     1   107.2600461 396.643200
  12800  12799  12801     1   109.5600471 388.275200
  12801  12799  12805     1   110.2600474 425.931200
  12802  12798  12806     1   110.2600474 425.931200
  12803  12800  12804     1   109.5800467 425.931200
  12803  12800  12816     1   109.5800467 425.931200
  12808  12814  12815     1   107.2600461 396.643200
  12812  12808  12814     1   110.2600474 425.931200
  12812  12808  12813     1   108.4600466 328.025600
  12813  12808  12814     1   110.2600474 425.931200
  12817  12818  12820     1   109.5600471 388.275200
  12817  12831  12835     1   109.5600471 388.275200
  12817  12831  12836     1   109.5600471 388.275200
  12818  12821  12825     1   109.5600471 388.275200
  12818  12830  12833     1   107.2600461 396.643200
  12818  12817  12819     1   109.5600471 388.275200
  12819  12817  12831     1   109.5600471 388.275200
  12819  12817  12839     1   109.7800468 425.094400
  12820  12818  12821     1   109.5600471 388.275200
  12820  12818  12830     1   110.2600474 425.931200
  12821  12822  12824     1   109.5600471 388.275200
  12821  12829  12832     1   107.2600461 396.643200
  12822  12823  12826     1   110.2200475 386.601600
  12822  12828  12834     1   107.2600461 396.643200
  12822  12821  12825     1   109.5600471 388.275200
  12823  12822  12824     1   109.5600471 388.275200
  12824  12822  12828     1   110.2600474 425.931200
  12825  12821  12829     1   110.2600474 425.931200
  12826  12823  12827     1   109.5800467 425.931200
  12826  12823  12839     1   109.5800467 425.931200
  12831  12837  12838     1   107.2600461 396.643200
  12835  12831  12837     1   110.2600474 425.931200
  12835  12831  12836     1   108.4600466 328.025600
  12836  12831  12837     1   110.2600474 425.931200
  12840  12841  12843     1   109.5600471 388.275200
  12840  12854  12858     1   109.5600471 388.275200
  12840  12854  12859     1   109.5600471 388.275200
  12841  12840  12842     1   109.5600471 388.275200
  12841  12844  12848     1   109.5600471 388.275200
  12841  12853  12856     1   107.2600461 396.643200
  12842  12840  12854     1   109.5600471 388.275200
  12842  12840  12862     1   109.7800468 425.094400
  12843  12841  12844     1   109.5600471 388.275200
  12843  12841  12853     1   110.2600474 425.931200
  12844  12845  12847     1   109.5600471 388.275200
  12844  12852  12855     1   107.2600461 396.643200
  12845  12844  12848     1   109.5600471 388.275200
  12845  12846  12849     1   110.2200475 386.601600
  12845  12851  12857     1   107.2600461 396.643200
  12846  12845  12847     1   109.5600471 388.275200
  12847  12845  12851     1   110.2600474 425.931200
  12848  12844  12852     1   110.2600474 425.931200
  12849  12846  12850     1   109.5800467 425.931200
  12849  12846  12862     1   109.5800467 425.931200
  12854  12860  12861     1   107.2600461 396.643200
  12858  12854  12860     1   110.2600474 425.931200
  12858  12854  12859     1   108.4600466 328.025600
  12859  12854  12860     1   110.2600474 425.931200
  12863  12864  12866     1   109.5600471 388.275200
  12863  12877  12881     1   109.5600471 388.275200
  12863  12877  12882     1   109.5600471 388.275200
  12864  12867  12871     1   109.5600471 388.275200
  12864  12876  12879     1   107.2600461 396.643200
  12864  12863  12865     1   109.5600471 388.275200
  12865  12863  12877     1   109.5600471 388.275200
  12865  12863  12885     1   109.7800468 425.094400
  12866  12864  12867     1   109.5600471 388.275200
  12866  12864  12876     1   110.2600474 425.931200
  12867  12868  12870     1   109.5600471 388.275200
  12867  12875  12878     1   107.2600461 396.643200
  12868  12869  12872     1   110.2200475 386.601600
  12868  12874  12880     1   107.2600461 396.643200
  12868  12867  12871     1   109.5600471 388.275200
  12869  12868  12870     1   109.5600471 388.275200
  12870  12868  12874     1   110.2600474 425.931200
  12871  12867  12875     1   110.2600474 425.931200
  12872  12869  12873     1   109.5800467 425.931200
  12872  12869  12885     1   109.5800467 425.931200
  12877  12883  12884     1   107.2600461 396.643200
  12881  12877  12883     1   110.2600474 425.931200
  12881  12877  12882     1   108.4600466 328.025600
  12882  12877  12883     1   110.2600474 425.931200
  12886  12887  12889     1   109.5600471 388.275200
  12886  12900  12904     1   109.5600471 388.275200
  12886  12900  12905     1   109.5600471 388.275200
  12887  12886  12888     1   109.5600471 388.275200
  12887  12890  12894     1   109.5600471 388.275200
  12887  12899  12902     1   107.2600461 396.643200
  12888  12886  12900     1   109.5600471 388.275200
  12888  12886  12908     1   109.7800468 425.094400
  12889  12887  12890     1   109.5600471 388.275200
  12889  12887  12899     1   110.2600474 425.931200
  12890  12891  12893     1   109.5600471 388.275200
  12890  12898  12901     1   107.2600461 396.643200
  12891  12890  12894     1   109.5600471 388.275200
  12891  12892  12895     1   110.2200475 386.601600
  12891  12897  12903     1   107.2600461 396.643200
  12892  12891  12893     1   109.5600471 388.275200
  12893  12891  12897     1   110.2600474 425.931200
  12894  12890  12898     1   110.2600474 425.931200
  12895  12892  12896     1   109.5800467 425.931200
  12895  12892  12908     1   109.5800467 425.931200
  12900  12906  12907     1   107.2600461 396.643200
  12904  12900  12906     1   110.2600474 425.931200
  12904  12900  12905     1   108.4600466 328.025600
  12905  12900  12906     1   110.2600474 425.931200
  12909  12910  12912     1   109.5600471 388.275200
  12909  12923  12927     1   109.5600471 388.275200
  12909  12923  12928     1   109.5600471 388.275200
  12910  12913  12917     1   109.5600471 388.275200
  12910  12922  12925     1   107.2600461 396.643200
  12910  12909  12911     1   109.5600471 388.275200
  12911  12909  12923     1   109.5600471 388.275200
  12911  12909  12931     1   109.7800468 425.094400
  12912  12910  12913     1   109.5600471 388.275200
  12912  12910  12922     1   110.2600474 425.931200
  12913  12914  12916     1   109.5600471 388.275200
  12913  12921  12924     1   107.2600461 396.643200
  12914  12915  12918     1   110.2200475 386.601600
  12914  12920  12926     1   107.2600461 396.643200
  12914  12913  12917     1   109.5600471 388.275200
  12915  12914  12916     1   109.5600471 388.275200
  12916  12914  12920     1   110.2600474 425.931200
  12917  12913  12921     1   110.2600474 425.931200
  12918  12915  12919     1   109.5800467 425.931200
  12918  12915  12931     1   109.5800467 425.931200
  12923  12929  12930     1   107.2600461 396.643200
  12927  12923  12929     1   110.2600474 425.931200
  12927  12923  12928     1   108.4600466 328.025600
  12928  12923  12929     1   110.2600474 425.931200
  12932  12933  12935     1   109.5600471 388.275200
  12932  12946  12950     1   109.5600471 388.275200
  12932  12946  12951     1   109.5600471 388.275200
  12933  12932  12934     1   109.5600471 388.275200
  12933  12936  12940     1   109.5600471 388.275200
  12933  12945  12948     1   107.2600461 396.643200
  12934  12932  12946     1   109.5600471 388.275200
  12934  12932  12954     1   109.7800468 425.094400
  12935  12933  12936     1   109.5600471 388.275200
  12935  12933  12945     1   110.2600474 425.931200
  12936  12937  12939     1   109.5600471 388.275200
  12936  12944  12947     1   107.2600461 396.643200
  12937  12936  12940     1   109.5600471 388.275200
  12937  12938  12941     1   110.2200475 386.601600
  12937  12943  12949     1   107.2600461 396.643200
  12938  12937  12939     1   109.5600471 388.275200
  12939  12937  12943     1   110.2600474 425.931200
  12940  12936  12944     1   110.2600474 425.931200
  12941  12938  12942     1   109.5800467 425.931200
  12941  12938  12954     1   109.5800467 425.931200
  12946  12952  12953     1   107.2600461 396.643200
  12950  12946  12952     1   110.2600474 425.931200
  12950  12946  12951     1   108.4600466 328.025600
  12951  12946  12952     1   110.2600474 425.931200
  12955  12956  12958     1   109.5600471 388.275200
  12955  12969  12973     1   109.5600471 388.275200
  12955  12969  12974     1   109.5600471 388.275200
  12956  12959  12963     1   109.5600471 388.275200
  12956  12968  12971     1   107.2600461 396.643200
  12956  12955  12957     1   109.5600471 388.275200
  12957  12955  12969     1   109.5600471 388.275200
  12957  12955  12977     1   109.7800468 425.094400
  12958  12956  12959     1   109.5600471 388.275200
  12958  12956  12968     1   110.2600474 425.931200
  12959  12960  12962     1   109.5600471 388.275200
  12959  12967  12970     1   107.2600461 396.643200
  12960  12961  12964     1   110.2200475 386.601600
  12960  12966  12972     1   107.2600461 396.643200
  12960  12959  12963     1   109.5600471 388.275200
  12961  12960  12962     1   109.5600471 388.275200
  12962  12960  12966     1   110.2600474 425.931200
  12963  12959  12967     1   110.2600474 425.931200
  12964  12961  12965     1   109.5800467 425.931200
  12964  12961  12977     1   109.5800467 425.931200
  12969  12975  12976     1   107.2600461 396.643200
  12973  12969  12975     1   110.2600474 425.931200
  12973  12969  12974     1   108.4600466 328.025600
  12974  12969  12975     1   110.2600474 425.931200
  12978  12979  12981     1   109.5600471 388.275200
  12978  12992  12996     1   109.5600471 388.275200
  12978  12992  12997     1   109.5600471 388.275200
  12979  12978  12980     1   109.5600471 388.275200
  12979  12982  12986     1   109.5600471 388.275200
  12979  12991  12994     1   107.2600461 396.643200
  12980  12978  12992     1   109.5600471 388.275200
  12980  12978  13000     1   109.7800468 425.094400
  12981  12979  12982     1   109.5600471 388.275200
  12981  12979  12991     1   110.2600474 425.931200
  12982  12983  12985     1   109.5600471 388.275200
  12982  12990  12993     1   107.2600461 396.643200
  12983  12982  12986     1   109.5600471 388.275200
  12983  12984  12987     1   110.2200475 386.601600
  12983  12989  12995     1   107.2600461 396.643200
  12984  12983  12985     1   109.5600471 388.275200
  12985  12983  12989     1   110.2600474 425.931200
  12986  12982  12990     1   110.2600474 425.931200
  12987  12984  12988     1   109.5800467 425.931200
  12987  12984  13000     1   109.5800467 425.931200
  12992  12998  12999     1   107.2600461 396.643200
  12996  12992  12998     1   110.2600474 425.931200
  12996  12992  12997     1   108.4600466 328.025600
  12997  12992  12998     1   110.2600474 425.931200
  13001  13002  13004     1   109.5600471 388.275200
  13001  13015  13019     1   109.5600471 388.275200
  13001  13015  13020     1   109.5600471 388.275200
  13002  13005  13009     1   109.5600471 388.275200
  13002  13014  13017     1   107.2600461 396.643200
  13002  13001  13003     1   109.5600471 388.275200
  13003  13001  13015     1   109.5600471 388.275200
  13003  13001  13023     1   109.7800468 425.094400
  13004  13002  13005     1   109.5600471 388.275200
  13004  13002  13014     1   110.2600474 425.931200
  13005  13006  13008     1   109.5600471 388.275200
  13005  13013  13016     1   107.2600461 396.643200
  13006  13007  13010     1   110.2200475 386.601600
  13006  13012  13018     1   107.2600461 396.643200
  13006  13005  13009     1   109.5600471 388.275200
  13007  13006  13008     1   109.5600471 388.275200
  13008  13006  13012     1   110.2600474 425.931200
  13009  13005  13013     1   110.2600474 425.931200
  13010  13007  13011     1   109.5800467 425.931200
  13010  13007  13023     1   109.5800467 425.931200
  13015  13021  13022     1   107.2600461 396.643200
  13019  13015  13021     1   110.2600474 425.931200
  13019  13015  13020     1   108.4600466 328.025600
  13020  13015  13021     1   110.2600474 425.931200
  13024  13025  13027     1   109.5600471 388.275200
  13024  13038  13042     1   109.5600471 388.275200
  13024  13038  13043     1   109.5600471 388.275200
  13025  13024  13026     1   109.5600471 388.275200
  13025  13028  13032     1   109.5600471 388.275200
  13025  13037  13040     1   107.2600461 396.643200
  13026  13024  13038     1   109.5600471 388.275200
  13026  13024  13046     1   109.7800468 425.094400
  13027  13025  13028     1   109.5600471 388.275200
  13027  13025  13037     1   110.2600474 425.931200
  13028  13029  13031     1   109.5600471 388.275200
  13028  13036  13039     1   107.2600461 396.643200
  13029  13028  13032     1   109.5600471 388.275200
  13029  13030  13033     1   110.2200475 386.601600
  13029  13035  13041     1   107.2600461 396.643200
  13030  13029  13031     1   109.5600471 388.275200
  13031  13029  13035     1   110.2600474 425.931200
  13032  13028  13036     1   110.2600474 425.931200
  13033  13030  13034     1   109.5800467 425.931200
  13033  13030  13046     1   109.5800467 425.931200
  13038  13044  13045     1   107.2600461 396.643200
  13042  13038  13044     1   110.2600474 425.931200
  13042  13038  13043     1   108.4600466 328.025600
  13043  13038  13044     1   110.2600474 425.931200
  13047  13048  13050     1   109.5600471 388.275200
  13047  13061  13065     1   109.5600471 388.275200
  13047  13061  13066     1   109.5600471 388.275200
  13048  13051  13055     1   109.5600471 388.275200
  13048  13060  13063     1   107.2600461 396.643200
  13048  13047  13049     1   109.5600471 388.275200
  13049  13047  13061     1   109.5600471 388.275200
  13049  13047  13069     1   109.7800468 425.094400
  13050  13048  13051     1   109.5600471 388.275200
  13050  13048  13060     1   110.2600474 425.931200
  13051  13052  13054     1   109.5600471 388.275200
  13051  13059  13062     1   107.2600461 396.643200
  13052  13053  13056     1   110.2200475 386.601600
  13052  13058  13064     1   107.2600461 396.643200
  13052  13051  13055     1   109.5600471 388.275200
  13053  13052  13054     1   109.5600471 388.275200
  13054  13052  13058     1   110.2600474 425.931200
  13055  13051  13059     1   110.2600474 425.931200
  13056  13053  13057     1   109.5800467 425.931200
  13056  13053  13069     1   109.5800467 425.931200
  13061  13067  13068     1   107.2600461 396.643200
  13065  13061  13067     1   110.2600474 425.931200
  13065  13061  13066     1   108.4600466 328.025600
  13066  13061  13067     1   110.2600474 425.931200
  13070  13071  13073     1   109.5600471 388.275200
  13070  13084  13088     1   109.5600471 388.275200
  13070  13084  13089     1   109.5600471 388.275200
  13071  13070  13072     1   109.5600471 388.275200
  13071  13074  13078     1   109.5600471 388.275200
  13071  13083  13086     1   107.2600461 396.643200
  13072  13070  13084     1   109.5600471 388.275200
  13072  13070  13092     1   109.7800468 425.094400
  13073  13071  13074     1   109.5600471 388.275200
  13073  13071  13083     1   110.2600474 425.931200
  13074  13075  13077     1   109.5600471 388.275200
  13074  13082  13085     1   107.2600461 396.643200
  13075  13074  13078     1   109.5600471 388.275200
  13075  13076  13079     1   110.2200475 386.601600
  13075  13081  13087     1   107.2600461 396.643200
  13076  13075  13077     1   109.5600471 388.275200
  13077  13075  13081     1   110.2600474 425.931200
  13078  13074  13082     1   110.2600474 425.931200
  13079  13076  13080     1   109.5800467 425.931200
  13079  13076  13092     1   109.5800467 425.931200
  13084  13090  13091     1   107.2600461 396.643200
  13088  13084  13090     1   110.2600474 425.931200
  13088  13084  13089     1   108.4600466 328.025600
  13089  13084  13090     1   110.2600474 425.931200
  13093  13094  13096     1   109.5600471 388.275200
  13093  13107  13111     1   109.5600471 388.275200
  13093  13107  13112     1   109.5600471 388.275200
  13094  13097  13101     1   109.5600471 388.275200
  13094  13106  13109     1   107.2600461 396.643200
  13094  13093  13095     1   109.5600471 388.275200
  13095  13093  13107     1   109.5600471 388.275200
  13095  13093  13115     1   109.7800468 425.094400
  13096  13094  13097     1   109.5600471 388.275200
  13096  13094  13106     1   110.2600474 425.931200
  13097  13098  13100     1   109.5600471 388.275200
  13097  13105  13108     1   107.2600461 396.643200
  13098  13099  13102     1   110.2200475 386.601600
  13098  13104  13110     1   107.2600461 396.643200
  13098  13097  13101     1   109.5600471 388.275200
  13099  13098  13100     1   109.5600471 388.275200
  13100  13098  13104     1   110.2600474 425.931200
  13101  13097  13105     1   110.2600474 425.931200
  13102  13099  13103     1   109.5800467 425.931200
  13102  13099  13115     1   109.5800467 425.931200
  13107  13113  13114     1   107.2600461 396.643200
  13111  13107  13113     1   110.2600474 425.931200
  13111  13107  13112     1   108.4600466 328.025600
  13112  13107  13113     1   110.2600474 425.931200
  13116  13117  13119     1   109.5600471 388.275200
  13116  13130  13134     1   109.5600471 388.275200
  13116  13130  13135     1   109.5600471 388.275200
  13117  13116  13118     1   109.5600471 388.275200
  13117  13120  13124     1   109.5600471 388.275200
  13117  13129  13132     1   107.2600461 396.643200
  13118  13116  13130     1   109.5600471 388.275200
  13118  13116  13138     1   109.7800468 425.094400
  13119  13117  13120     1   109.5600471 388.275200
  13119  13117  13129     1   110.2600474 425.931200
  13120  13121  13123     1   109.5600471 388.275200
  13120  13128  13131     1   107.2600461 396.643200
  13121  13120  13124     1   109.5600471 388.275200
  13121  13122  13125     1   110.2200475 386.601600
  13121  13127  13133     1   107.2600461 396.643200
  13122  13121  13123     1   109.5600471 388.275200
  13123  13121  13127     1   110.2600474 425.931200
  13124  13120  13128     1   110.2600474 425.931200
  13125  13122  13126     1   109.5800467 425.931200
  13125  13122  13138     1   109.5800467 425.931200
  13130  13136  13137     1   107.2600461 396.643200
  13134  13130  13136     1   110.2600474 425.931200
  13134  13130  13135     1   108.4600466 328.025600
  13135  13130  13136     1   110.2600474 425.931200
  13139  13140  13142     1   109.5600471 388.275200
  13139  13153  13157     1   109.5600471 388.275200
  13139  13153  13158     1   109.5600471 388.275200
  13140  13143  13147     1   109.5600471 388.275200
  13140  13152  13155     1   107.2600461 396.643200
  13140  13139  13141     1   109.5600471 388.275200
  13141  13139  13153     1   109.5600471 388.275200
  13141  13139  13161     1   109.7800468 425.094400
  13142  13140  13143     1   109.5600471 388.275200
  13142  13140  13152     1   110.2600474 425.931200
  13143  13144  13146     1   109.5600471 388.275200
  13143  13151  13154     1   107.2600461 396.643200
  13144  13145  13148     1   110.2200475 386.601600
  13144  13150  13156     1   107.2600461 396.643200
  13144  13143  13147     1   109.5600471 388.275200
  13145  13144  13146     1   109.5600471 388.275200
  13146  13144  13150     1   110.2600474 425.931200
  13147  13143  13151     1   110.2600474 425.931200
  13148  13145  13149     1   109.5800467 425.931200
  13148  13145  13161     1   109.5800467 425.931200
  13153  13159  13160     1   107.2600461 396.643200
  13157  13153  13159     1   110.2600474 425.931200
  13157  13153  13158     1   108.4600466 328.025600
  13158  13153  13159     1   110.2600474 425.931200
  13162  13163  13165     1   109.5600471 388.275200
  13162  13176  13180     1   109.5600471 388.275200
  13162  13176  13181     1   109.5600471 388.275200
  13163  13162  13164     1   109.5600471 388.275200
  13163  13166  13170     1   109.5600471 388.275200
  13163  13175  13178     1   107.2600461 396.643200
  13164  13162  13176     1   109.5600471 388.275200
  13164  13162  13184     1   109.7800468 425.094400
  13165  13163  13166     1   109.5600471 388.275200
  13165  13163  13175     1   110.2600474 425.931200
  13166  13167  13169     1   109.5600471 388.275200
  13166  13174  13177     1   107.2600461 396.643200
  13167  13166  13170     1   109.5600471 388.275200
  13167  13168  13171     1   110.2200475 386.601600
  13167  13173  13179     1   107.2600461 396.643200
  13168  13167  13169     1   109.5600471 388.275200
  13169  13167  13173     1   110.2600474 425.931200
  13170  13166  13174     1   110.2600474 425.931200
  13171  13168  13172     1   109.5800467 425.931200
  13171  13168  13184     1   109.5800467 425.931200
  13176  13182  13183     1   107.2600461 396.643200
  13180  13176  13182     1   110.2600474 425.931200
  13180  13176  13181     1   108.4600466 328.025600
  13181  13176  13182     1   110.2600474 425.931200
  13185  13186  13188     1   109.5600471 388.275200
  13185  13199  13203     1   109.5600471 388.275200
  13185  13199  13204     1   109.5600471 388.275200
  13186  13189  13193     1   109.5600471 388.275200
  13186  13198  13201     1   107.2600461 396.643200
  13186  13185  13187     1   109.5600471 388.275200
  13187  13185  13199     1   109.5600471 388.275200
  13187  13185  13207     1   109.7800468 425.094400
  13188  13186  13189     1   109.5600471 388.275200
  13188  13186  13198     1   110.2600474 425.931200
  13189  13190  13192     1   109.5600471 388.275200
  13189  13197  13200     1   107.2600461 396.643200
  13190  13191  13194     1   110.2200475 386.601600
  13190  13196  13202     1   107.2600461 396.643200
  13190  13189  13193     1   109.5600471 388.275200
  13191  13190  13192     1   109.5600471 388.275200
  13192  13190  13196     1   110.2600474 425.931200
  13193  13189  13197     1   110.2600474 425.931200
  13194  13191  13195     1   109.5800467 425.931200
  13194  13191  13207     1   109.5800467 425.931200
  13199  13205  13206     1   107.2600461 396.643200
  13203  13199  13205     1   110.2600474 425.931200
  13203  13199  13204     1   108.4600466 328.025600
  13204  13199  13205     1   110.2600474 425.931200
  13208  13209  13211     1   109.5600471 388.275200
  13208  13222  13226     1   109.5600471 388.275200
  13208  13222  13227     1   109.5600471 388.275200
  13209  13208  13210     1   109.5600471 388.275200
  13209  13212  13216     1   109.5600471 388.275200
  13209  13221  13224     1   107.2600461 396.643200
  13210  13208  13222     1   109.5600471 388.275200
  13210  13208  13230     1   109.7800468 425.094400
  13211  13209  13212     1   109.5600471 388.275200
  13211  13209  13221     1   110.2600474 425.931200
  13212  13213  13215     1   109.5600471 388.275200
  13212  13220  13223     1   107.2600461 396.643200
  13213  13212  13216     1   109.5600471 388.275200
  13213  13214  13217     1   110.2200475 386.601600
  13213  13219  13225     1   107.2600461 396.643200
  13214  13213  13215     1   109.5600471 388.275200
  13215  13213  13219     1   110.2600474 425.931200
  13216  13212  13220     1   110.2600474 425.931200
  13217  13214  13218     1   109.5800467 425.931200
  13217  13214  13230     1   109.5800467 425.931200
  13222  13228  13229     1   107.2600461 396.643200
  13226  13222  13228     1   110.2600474 425.931200
  13226  13222  13227     1   108.4600466 328.025600
  13227  13222  13228     1   110.2600474 425.931200
  13231  13232  13234     1   109.5600471 388.275200
  13231  13245  13249     1   109.5600471 388.275200
  13231  13245  13250     1   109.5600471 388.275200
  13232  13235  13239     1   109.5600471 388.275200
  13232  13244  13247     1   107.2600461 396.643200
  13232  13231  13233     1   109.5600471 388.275200
  13233  13231  13245     1   109.5600471 388.275200
  13233  13231  13253     1   109.7800468 425.094400
  13234  13232  13235     1   109.5600471 388.275200
  13234  13232  13244     1   110.2600474 425.931200
  13235  13236  13238     1   109.5600471 388.275200
  13235  13243  13246     1   107.2600461 396.643200
  13236  13237  13240     1   110.2200475 386.601600
  13236  13242  13248     1   107.2600461 396.643200
  13236  13235  13239     1   109.5600471 388.275200
  13237  13236  13238     1   109.5600471 388.275200
  13238  13236  13242     1   110.2600474 425.931200
  13239  13235  13243     1   110.2600474 425.931200
  13240  13237  13241     1   109.5800467 425.931200
  13240  13237  13253     1   109.5800467 425.931200
  13245  13251  13252     1   107.2600461 396.643200
  13249  13245  13251     1   110.2600474 425.931200
  13249  13245  13250     1   108.4600466 328.025600
  13250  13245  13251     1   110.2600474 425.931200
  13254  13255  13257     1   109.5600471 388.275200
  13254  13268  13272     1   109.5600471 388.275200
  13254  13268  13273     1   109.5600471 388.275200
  13255  13254  13256     1   109.5600471 388.275200
  13255  13258  13262     1   109.5600471 388.275200
  13255  13267  13270     1   107.2600461 396.643200
  13256  13254  13268     1   109.5600471 388.275200
  13256  13254  13276     1   109.7800468 425.094400
  13257  13255  13258     1   109.5600471 388.275200
  13257  13255  13267     1   110.2600474 425.931200
  13258  13259  13261     1   109.5600471 388.275200
  13258  13266  13269     1   107.2600461 396.643200
  13259  13258  13262     1   109.5600471 388.275200
  13259  13260  13263     1   110.2200475 386.601600
  13259  13265  13271     1   107.2600461 396.643200
  13260  13259  13261     1   109.5600471 388.275200
  13261  13259  13265     1   110.2600474 425.931200
  13262  13258  13266     1   110.2600474 425.931200
  13263  13260  13264     1   109.5800467 425.931200
  13263  13260  13276     1   109.5800467 425.931200
  13268  13274  13275     1   107.2600461 396.643200
  13272  13268  13274     1   110.2600474 425.931200
  13272  13268  13273     1   108.4600466 328.025600
  13273  13268  13274     1   110.2600474 425.931200
  13277  13278  13280     1   109.5600471 388.275200
  13277  13291  13295     1   109.5600471 388.275200
  13277  13291  13296     1   109.5600471 388.275200
  13278  13281  13285     1   109.5600471 388.275200
  13278  13290  13293     1   107.2600461 396.643200
  13278  13277  13279     1   109.5600471 388.275200
  13279  13277  13291     1   109.5600471 388.275200
  13279  13277  13299     1   109.7800468 425.094400
  13280  13278  13281     1   109.5600471 388.275200
  13280  13278  13290     1   110.2600474 425.931200
  13281  13282  13284     1   109.5600471 388.275200
  13281  13289  13292     1   107.2600461 396.643200
  13282  13283  13286     1   110.2200475 386.601600
  13282  13288  13294     1   107.2600461 396.643200
  13282  13281  13285     1   109.5600471 388.275200
  13283  13282  13284     1   109.5600471 388.275200
  13284  13282  13288     1   110.2600474 425.931200
  13285  13281  13289     1   110.2600474 425.931200
  13286  13283  13287     1   109.5800467 425.931200
  13286  13283  13299     1   109.5800467 425.931200
  13291  13297  13298     1   107.2600461 396.643200
  13295  13291  13297     1   110.2600474 425.931200
  13295  13291  13296     1   108.4600466 328.025600
  13296  13291  13297     1   110.2600474 425.931200
  13300  13301  13303     1   109.5600471 388.275200
  13300  13314  13318     1   109.5600471 388.275200
  13300  13314  13319     1   109.5600471 388.275200
  13301  13300  13302     1   109.5600471 388.275200
  13301  13304  13308     1   109.5600471 388.275200
  13301  13313  13316     1   107.2600461 396.643200
  13302  13300  13314     1   109.5600471 388.275200
  13302  13300  13322     1   109.7800468 425.094400
  13303  13301  13304     1   109.5600471 388.275200
  13303  13301  13313     1   110.2600474 425.931200
  13304  13305  13307     1   109.5600471 388.275200
  13304  13312  13315     1   107.2600461 396.643200
  13305  13304  13308     1   109.5600471 388.275200
  13305  13306  13309     1   110.2200475 386.601600
  13305  13311  13317     1   107.2600461 396.643200
  13306  13305  13307     1   109.5600471 388.275200
  13307  13305  13311     1   110.2600474 425.931200
  13308  13304  13312     1   110.2600474 425.931200
  13309  13306  13310     1   109.5800467 425.931200
  13309  13306  13322     1   109.5800467 425.931200
  13314  13320  13321     1   107.2600461 396.643200
  13318  13314  13320     1   110.2600474 425.931200
  13318  13314  13319     1   108.4600466 328.025600
  13319  13314  13320     1   110.2600474 425.931200
  13323  13324  13326     1   109.5600471 388.275200
  13323  13337  13341     1   109.5600471 388.275200
  13323  13337  13342     1   109.5600471 388.275200
  13324  13327  13331     1   109.5600471 388.275200
  13324  13336  13339     1   107.2600461 396.643200
  13324  13323  13325     1   109.5600471 388.275200
  13325  13323  13337     1   109.5600471 388.275200
  13325  13323  13345     1   109.7800468 425.094400
  13326  13324  13327     1   109.5600471 388.275200
  13326  13324  13336     1   110.2600474 425.931200
  13327  13328  13330     1   109.5600471 388.275200
  13327  13335  13338     1   107.2600461 396.643200
  13328  13329  13332     1   110.2200475 386.601600
  13328  13334  13340     1   107.2600461 396.643200
  13328  13327  13331     1   109.5600471 388.275200
  13329  13328  13330     1   109.5600471 388.275200
  13330  13328  13334     1   110.2600474 425.931200
  13331  13327  13335     1   110.2600474 425.931200
  13332  13329  13333     1   109.5800467 425.931200
  13332  13329  13345     1   109.5800467 425.931200
  13337  13343  13344     1   107.2600461 396.643200
  13341  13337  13343     1   110.2600474 425.931200
  13341  13337  13342     1   108.4600466 328.025600
  13342  13337  13343     1   110.2600474 425.931200
  13346  13347  13349     1   109.5600471 388.275200
  13346  13360  13364     1   109.5600471 388.275200
  13346  13360  13365     1   109.5600471 388.275200
  13347  13346  13348     1   109.5600471 388.275200
  13347  13350  13354     1   109.5600471 388.275200
  13347  13359  13362     1   107.2600461 396.643200
  13348  13346  13360     1   109.5600471 388.275200
  13348  13346  13368     1   109.7800468 425.094400
  13349  13347  13350     1   109.5600471 388.275200
  13349  13347  13359     1   110.2600474 425.931200
  13350  13351  13353     1   109.5600471 388.275200
  13350  13358  13361     1   107.2600461 396.643200
  13351  13350  13354     1   109.5600471 388.275200
  13351  13352  13355     1   110.2200475 386.601600
  13351  13357  13363     1   107.2600461 396.643200
  13352  13351  13353     1   109.5600471 388.275200
  13353  13351  13357     1   110.2600474 425.931200
  13354  13350  13358     1   110.2600474 425.931200
  13355  13352  13356     1   109.5800467 425.931200
  13355  13352  13368     1   109.5800467 425.931200
  13360  13366  13367     1   107.2600461 396.643200
  13364  13360  13366     1   110.2600474 425.931200
  13364  13360  13365     1   108.4600466 328.025600
  13365  13360  13366     1   110.2600474 425.931200
  13369  13370  13372     1   109.5600471 388.275200
  13369  13383  13387     1   109.5600471 388.275200
  13369  13383  13388     1   109.5600471 388.275200
  13370  13373  13377     1   109.5600471 388.275200
  13370  13382  13385     1   107.2600461 396.643200
  13370  13369  13371     1   109.5600471 388.275200
  13371  13369  13383     1   109.5600471 388.275200
  13371  13369  13391     1   109.7800468 425.094400
  13372  13370  13373     1   109.5600471 388.275200
  13372  13370  13382     1   110.2600474 425.931200
  13373  13374  13376     1   109.5600471 388.275200
  13373  13381  13384     1   107.2600461 396.643200
  13374  13375  13378     1   110.2200475 386.601600
  13374  13380  13386     1   107.2600461 396.643200
  13374  13373  13377     1   109.5600471 388.275200
  13375  13374  13376     1   109.5600471 388.275200
  13376  13374  13380     1   110.2600474 425.931200
  13377  13373  13381     1   110.2600474 425.931200
  13378  13375  13379     1   109.5800467 425.931200
  13378  13375  13391     1   109.5800467 425.931200
  13383  13389  13390     1   107.2600461 396.643200
  13387  13383  13389     1   110.2600474 425.931200
  13387  13383  13388     1   108.4600466 328.025600
  13388  13383  13389     1   110.2600474 425.931200
  13392  13393  13395     1   109.5600471 388.275200
  13392  13406  13410     1   109.5600471 388.275200
  13392  13406  13411     1   109.5600471 388.275200
  13393  13392  13394     1   109.5600471 388.275200
  13393  13396  13400     1   109.5600471 388.275200
  13393  13405  13408     1   107.2600461 396.643200
  13394  13392  13406     1   109.5600471 388.275200
  13394  13392  13414     1   109.7800468 425.094400
  13395  13393  13396     1   109.5600471 388.275200
  13395  13393  13405     1   110.2600474 425.931200
  13396  13397  13399     1   109.5600471 388.275200
  13396  13404  13407     1   107.2600461 396.643200
  13397  13396  13400     1   109.5600471 388.275200
  13397  13398  13401     1   110.2200475 386.601600
  13397  13403  13409     1   107.2600461 396.643200
  13398  13397  13399     1   109.5600471 388.275200
  13399  13397  13403     1   110.2600474 425.931200
  13400  13396  13404     1   110.2600474 425.931200
  13401  13398  13402     1   109.5800467 425.931200
  13401  13398  13414     1   109.5800467 425.931200
  13406  13412  13413     1   107.2600461 396.643200
  13410  13406  13412     1   110.2600474 425.931200
  13410  13406  13411     1   108.4600466 328.025600
  13411  13406  13412     1   110.2600474 425.931200
  13415  13416  13418     1   109.5600471 388.275200
  13415  13429  13433     1   109.5600471 388.275200
  13415  13429  13434     1   109.5600471 388.275200
  13416  13419  13423     1   109.5600471 388.275200
  13416  13428  13431     1   107.2600461 396.643200
  13416  13415  13417     1   109.5600471 388.275200
  13417  13415  13429     1   109.5600471 388.275200
  13417  13415  13437     1   109.7800468 425.094400
  13418  13416  13419     1   109.5600471 388.275200
  13418  13416  13428     1   110.2600474 425.931200
  13419  13420  13422     1   109.5600471 388.275200
  13419  13427  13430     1   107.2600461 396.643200
  13420  13421  13424     1   110.2200475 386.601600
  13420  13426  13432     1   107.2600461 396.643200
  13420  13419  13423     1   109.5600471 388.275200
  13421  13420  13422     1   109.5600471 388.275200
  13422  13420  13426     1   110.2600474 425.931200
  13423  13419  13427     1   110.2600474 425.931200
  13424  13421  13425     1   109.5800467 425.931200
  13424  13421  13437     1   109.5800467 425.931200
  13429  13435  13436     1   107.2600461 396.643200
  13433  13429  13435     1   110.2600474 425.931200
  13433  13429  13434     1   108.4600466 328.025600
  13434  13429  13435     1   110.2600474 425.931200
  13438  13439  13441     1   109.5600471 388.275200
  13438  13452  13456     1   109.5600471 388.275200
  13438  13452  13457     1   109.5600471 388.275200
  13439  13438  13440     1   109.5600471 388.275200
  13439  13442  13446     1   109.5600471 388.275200
  13439  13451  13454     1   107.2600461 396.643200
  13440  13438  13452     1   109.5600471 388.275200
  13440  13438  13460     1   109.7800468 425.094400
  13441  13439  13442     1   109.5600471 388.275200
  13441  13439  13451     1   110.2600474 425.931200
  13442  13443  13445     1   109.5600471 388.275200
  13442  13450  13453     1   107.2600461 396.643200
  13443  13442  13446     1   109.5600471 388.275200
  13443  13444  13447     1   110.2200475 386.601600
  13443  13449  13455     1   107.2600461 396.643200
  13444  13443  13445     1   109.5600471 388.275200
  13445  13443  13449     1   110.2600474 425.931200
  13446  13442  13450     1   110.2600474 425.931200
  13447  13444  13448     1   109.5800467 425.931200
  13447  13444  13460     1   109.5800467 425.931200
  13452  13458  13459     1   107.2600461 396.643200
  13456  13452  13458     1   110.2600474 425.931200
  13456  13452  13457     1   108.4600466 328.025600
  13457  13452  13458     1   110.2600474 425.931200
  13461  13462  13464     1   109.5600471 388.275200
  13461  13475  13479     1   109.5600471 388.275200
  13461  13475  13480     1   109.5600471 388.275200
  13462  13465  13469     1   109.5600471 388.275200
  13462  13474  13477     1   107.2600461 396.643200
  13462  13461  13463     1   109.5600471 388.275200
  13463  13461  13475     1   109.5600471 388.275200
  13463  13461  13483     1   109.7800468 425.094400
  13464  13462  13465     1   109.5600471 388.275200
  13464  13462  13474     1   110.2600474 425.931200
  13465  13466  13468     1   109.5600471 388.275200
  13465  13473  13476     1   107.2600461 396.643200
  13466  13467  13470     1   110.2200475 386.601600
  13466  13472  13478     1   107.2600461 396.643200
  13466  13465  13469     1   109.5600471 388.275200
  13467  13466  13468     1   109.5600471 388.275200
  13468  13466  13472     1   110.2600474 425.931200
  13469  13465  13473     1   110.2600474 425.931200
  13470  13467  13471     1   109.5800467 425.931200
  13470  13467  13483     1   109.5800467 425.931200
  13475  13481  13482     1   107.2600461 396.643200
  13479  13475  13481     1   110.2600474 425.931200
  13479  13475  13480     1   108.4600466 328.025600
  13480  13475  13481     1   110.2600474 425.931200
  13484  13485  13487     1   109.5600471 388.275200
  13484  13498  13502     1   109.5600471 388.275200
  13484  13498  13503     1   109.5600471 388.275200
  13485  13484  13486     1   109.5600471 388.275200
  13485  13488  13492     1   109.5600471 388.275200
  13485  13497  13500     1   107.2600461 396.643200
  13486  13484  13498     1   109.5600471 388.275200
  13486  13484  13506     1   109.7800468 425.094400
  13487  13485  13488     1   109.5600471 388.275200
  13487  13485  13497     1   110.2600474 425.931200
  13488  13489  13491     1   109.5600471 388.275200
  13488  13496  13499     1   107.2600461 396.643200
  13489  13488  13492     1   109.5600471 388.275200
  13489  13490  13493     1   110.2200475 386.601600
  13489  13495  13501     1   107.2600461 396.643200
  13490  13489  13491     1   109.5600471 388.275200
  13491  13489  13495     1   110.2600474 425.931200
  13492  13488  13496     1   110.2600474 425.931200
  13493  13490  13494     1   109.5800467 425.931200
  13493  13490  13506     1   109.5800467 425.931200
  13498  13504  13505     1   107.2600461 396.643200
  13502  13498  13504     1   110.2600474 425.931200
  13502  13498  13503     1   108.4600466 328.025600
  13503  13498  13504     1   110.2600474 425.931200
  13507  13508  13510     1   109.5600471 388.275200
  13507  13521  13525     1   109.5600471 388.275200
  13507  13521  13526     1   109.5600471 388.275200
  13508  13511  13515     1   109.5600471 388.275200
  13508  13520  13523     1   107.2600461 396.643200
  13508  13507  13509     1   109.5600471 388.275200
  13509  13507  13521     1   109.5600471 388.275200
  13509  13507  13529     1   109.7800468 425.094400
  13510  13508  13511     1   109.5600471 388.275200
  13510  13508  13520     1   110.2600474 425.931200
  13511  13512  13514     1   109.5600471 388.275200
  13511  13519  13522     1   107.2600461 396.643200
  13512  13513  13516     1   110.2200475 386.601600
  13512  13518  13524     1   107.2600461 396.643200
  13512  13511  13515     1   109.5600471 388.275200
  13513  13512  13514     1   109.5600471 388.275200
  13514  13512  13518     1   110.2600474 425.931200
  13515  13511  13519     1   110.2600474 425.931200
  13516  13513  13517     1   109.5800467 425.931200
  13516  13513  13529     1   109.5800467 425.931200
  13521  13527  13528     1   107.2600461 396.643200
  13525  13521  13527     1   110.2600474 425.931200
  13525  13521  13526     1   108.4600466 328.025600
  13526  13521  13527     1   110.2600474 425.931200
  13530  13531  13533     1   109.5600471 388.275200
  13530  13544  13548     1   109.5600471 388.275200
  13530  13544  13549     1   109.5600471 388.275200
  13531  13530  13532     1   109.5600471 388.275200
  13531  13534  13538     1   109.5600471 388.275200
  13531  13543  13546     1   107.2600461 396.643200
  13532  13530  13544     1   109.5600471 388.275200
  13532  13530  13552     1   109.7800468 425.094400
  13533  13531  13534     1   109.5600471 388.275200
  13533  13531  13543     1   110.2600474 425.931200
  13534  13535  13537     1   109.5600471 388.275200
  13534  13542  13545     1   107.2600461 396.643200
  13535  13534  13538     1   109.5600471 388.275200
  13535  13536  13539     1   110.2200475 386.601600
  13535  13541  13547     1   107.2600461 396.643200
  13536  13535  13537     1   109.5600471 388.275200
  13537  13535  13541     1   110.2600474 425.931200
  13538  13534  13542     1   110.2600474 425.931200
  13539  13536  13540     1   109.5800467 425.931200
  13539  13536  13552     1   109.5800467 425.931200
  13544  13550  13551     1   107.2600461 396.643200
  13548  13544  13550     1   110.2600474 425.931200
  13548  13544  13549     1   108.4600466 328.025600
  13549  13544  13550     1   110.2600474 425.931200
  13553  13554  13556     1   109.5600471 388.275200
  13553  13567  13571     1   109.5600471 388.275200
  13553  13567  13572     1   109.5600471 388.275200
  13554  13557  13561     1   109.5600471 388.275200
  13554  13566  13569     1   107.2600461 396.643200
  13554  13553  13555     1   109.5600471 388.275200
  13555  13553  13567     1   109.5600471 388.275200
  13555  13553  13575     1   109.7800468 425.094400
  13556  13554  13557     1   109.5600471 388.275200
  13556  13554  13566     1   110.2600474 425.931200
  13557  13558  13560     1   109.5600471 388.275200
  13557  13565  13568     1   107.2600461 396.643200
  13558  13559  13562     1   110.2200475 386.601600
  13558  13564  13570     1   107.2600461 396.643200
  13558  13557  13561     1   109.5600471 388.275200
  13559  13558  13560     1   109.5600471 388.275200
  13560  13558  13564     1   110.2600474 425.931200
  13561  13557  13565     1   110.2600474 425.931200
  13562  13559  13563     1   109.5800467 425.931200
  13562  13559  13575     1   109.5800467 425.931200
  13567  13573  13574     1   107.2600461 396.643200
  13571  13567  13573     1   110.2600474 425.931200
  13571  13567  13572     1   108.4600466 328.025600
  13572  13567  13573     1   110.2600474 425.931200
  13576  13577  13579     1   109.5600471 388.275200
  13576  13590  13594     1   109.5600471 388.275200
  13576  13590  13595     1   109.5600471 388.275200
  13577  13576  13578     1   109.5600471 388.275200
  13577  13580  13584     1   109.5600471 388.275200
  13577  13589  13592     1   107.2600461 396.643200
  13578  13576  13590     1   109.5600471 388.275200
  13578  13576  13598     1   109.7800468 425.094400
  13579  13577  13580     1   109.5600471 388.275200
  13579  13577  13589     1   110.2600474 425.931200
  13580  13581  13583     1   109.5600471 388.275200
  13580  13588  13591     1   107.2600461 396.643200
  13581  13580  13584     1   109.5600471 388.275200
  13581  13582  13585     1   110.2200475 386.601600
  13581  13587  13593     1   107.2600461 396.643200
  13582  13581  13583     1   109.5600471 388.275200
  13583  13581  13587     1   110.2600474 425.931200
  13584  13580  13588     1   110.2600474 425.931200
  13585  13582  13586     1   109.5800467 425.931200
  13585  13582  13598     1   109.5800467 425.931200
  13590  13596  13597     1   107.2600461 396.643200
  13594  13590  13596     1   110.2600474 425.931200
  13594  13590  13595     1   108.4600466 328.025600
  13595  13590  13596     1   110.2600474 425.931200
  13599  13600  13602     1   109.5600471 388.275200
  13599  13613  13617     1   109.5600471 388.275200
  13599  13613  13618     1   109.5600471 388.275200
  13600  13603  13607     1   109.5600471 388.275200
  13600  13612  13615     1   107.2600461 396.643200
  13600  13599  13601     1   109.5600471 388.275200
  13601  13599  13613     1   109.5600471 388.275200
  13601  13599  13621     1   109.7800468 425.094400
  13602  13600  13603     1   109.5600471 388.275200
  13602  13600  13612     1   110.2600474 425.931200
  13603  13604  13606     1   109.5600471 388.275200
  13603  13611  13614     1   107.2600461 396.643200
  13604  13605  13608     1   110.2200475 386.601600
  13604  13610  13616     1   107.2600461 396.643200
  13604  13603  13607     1   109.5600471 388.275200
  13605  13604  13606     1   109.5600471 388.275200
  13606  13604  13610     1   110.2600474 425.931200
  13607  13603  13611     1   110.2600474 425.931200
  13608  13605  13609     1   109.5800467 425.931200
  13608  13605  13621     1   109.5800467 425.931200
  13613  13619  13620     1   107.2600461 396.643200
  13617  13613  13619     1   110.2600474 425.931200
  13617  13613  13618     1   108.4600466 328.025600
  13618  13613  13619     1   110.2600474 425.931200
  13622  13623  13625     1   109.5600471 388.275200
  13622  13636  13640     1   109.5600471 388.275200
  13622  13636  13641     1   109.5600471 388.275200
  13623  13622  13624     1   109.5600471 388.275200
  13623  13626  13630     1   109.5600471 388.275200
  13623  13635  13638     1   107.2600461 396.643200
  13624  13622  13636     1   109.5600471 388.275200
  13624  13622  13644     1   109.7800468 425.094400
  13625  13623  13626     1   109.5600471 388.275200
  13625  13623  13635     1   110.2600474 425.931200
  13626  13627  13629     1   109.5600471 388.275200
  13626  13634  13637     1   107.2600461 396.643200
  13627  13626  13630     1   109.5600471 388.275200
  13627  13628  13631     1   110.2200475 386.601600
  13627  13633  13639     1   107.2600461 396.643200
  13628  13627  13629     1   109.5600471 388.275200
  13629  13627  13633     1   110.2600474 425.931200
  13630  13626  13634     1   110.2600474 425.931200
  13631  13628  13632     1   109.5800467 425.931200
  13631  13628  13644     1   109.5800467 425.931200
  13636  13642  13643     1   107.2600461 396.643200
  13640  13636  13642     1   110.2600474 425.931200
  13640  13636  13641     1   108.4600466 328.025600
  13641  13636  13642     1   110.2600474 425.931200
  13645  13646  13648     1   109.5600471 388.275200
  13645  13659  13663     1   109.5600471 388.275200
  13645  13659  13664     1   109.5600471 388.275200
  13646  13649  13653     1   109.5600471 388.275200
  13646  13658  13661     1   107.2600461 396.643200
  13646  13645  13647     1   109.5600471 388.275200
  13647  13645  13659     1   109.5600471 388.275200
  13647  13645  13667     1   109.7800468 425.094400
  13648  13646  13649     1   109.5600471 388.275200
  13648  13646  13658     1   110.2600474 425.931200
  13649  13650  13652     1   109.5600471 388.275200
  13649  13657  13660     1   107.2600461 396.643200
  13650  13651  13654     1   110.2200475 386.601600
  13650  13656  13662     1   107.2600461 396.643200
  13650  13649  13653     1   109.5600471 388.275200
  13651  13650  13652     1   109.5600471 388.275200
  13652  13650  13656     1   110.2600474 425.931200
  13653  13649  13657     1   110.2600474 425.931200
  13654  13651  13655     1   109.5800467 425.931200
  13654  13651  13667     1   109.5800467 425.931200
  13659  13665  13666     1   107.2600461 396.643200
  13663  13659  13665     1   110.2600474 425.931200
  13663  13659  13664     1   108.4600466 328.025600
  13664  13659  13665     1   110.2600474 425.931200
  13668  13669  13671     1   109.5600471 388.275200
  13668  13682  13686     1   109.5600471 388.275200
  13668  13682  13687     1   109.5600471 388.275200
  13669  13668  13670     1   109.5600471 388.275200
  13669  13672  13676     1   109.5600471 388.275200
  13669  13681  13684     1   107.2600461 396.643200
  13670  13668  13682     1   109.5600471 388.275200
  13670  13668  13690     1   109.7800468 425.094400
  13671  13669  13672     1   109.5600471 388.275200
  13671  13669  13681     1   110.2600474 425.931200
  13672  13673  13675     1   109.5600471 388.275200
  13672  13680  13683     1   107.2600461 396.643200
  13673  13672  13676     1   109.5600471 388.275200
  13673  13674  13677     1   110.2200475 386.601600
  13673  13679  13685     1   107.2600461 396.643200
  13674  13673  13675     1   109.5600471 388.275200
  13675  13673  13679     1   110.2600474 425.931200
  13676  13672  13680     1   110.2600474 425.931200
  13677  13674  13678     1   109.5800467 425.931200
  13677  13674  13690     1   109.5800467 425.931200
  13682  13688  13689     1   107.2600461 396.643200
  13686  13682  13688     1   110.2600474 425.931200
  13686  13682  13687     1   108.4600466 328.025600
  13687  13682  13688     1   110.2600474 425.931200
  13691  13692  13694     1   109.5600471 388.275200
  13691  13705  13709     1   109.5600471 388.275200
  13691  13705  13710     1   109.5600471 388.275200
  13692  13695  13699     1   109.5600471 388.275200
  13692  13704  13707     1   107.2600461 396.643200
  13692  13691  13693     1   109.5600471 388.275200
  13693  13691  13705     1   109.5600471 388.275200
  13693  13691  13713     1   109.7800468 425.094400
  13694  13692  13695     1   109.5600471 388.275200
  13694  13692  13704     1   110.2600474 425.931200
  13695  13696  13698     1   109.5600471 388.275200
  13695  13703  13706     1   107.2600461 396.643200
  13696  13697  13700     1   110.2200475 386.601600
  13696  13702  13708     1   107.2600461 396.643200
  13696  13695  13699     1   109.5600471 388.275200
  13697  13696  13698     1   109.5600471 388.275200
  13698  13696  13702     1   110.2600474 425.931200
  13699  13695  13703     1   110.2600474 425.931200
  13700  13697  13701     1   109.5800467 425.931200
  13700  13697  13713     1   109.5800467 425.931200
  13705  13711  13712     1   107.2600461 396.643200
  13709  13705  13711     1   110.2600474 425.931200
  13709  13705  13710     1   108.4600466 328.025600
  13710  13705  13711     1   110.2600474 425.931200
  13714  13715  13717     1   109.5600471 388.275200
  13714  13728  13732     1   109.5600471 388.275200
  13714  13728  13733     1   109.5600471 388.275200
  13715  13714  13716     1   109.5600471 388.275200
  13715  13718  13722     1   109.5600471 388.275200
  13715  13727  13730     1   107.2600461 396.643200
  13716  13714  13728     1   109.5600471 388.275200
  13716  13714  13736     1   109.7800468 425.094400
  13717  13715  13718     1   109.5600471 388.275200
  13717  13715  13727     1   110.2600474 425.931200
  13718  13719  13721     1   109.5600471 388.275200
  13718  13726  13729     1   107.2600461 396.643200
  13719  13718  13722     1   109.5600471 388.275200
  13719  13720  13723     1   110.2200475 386.601600
  13719  13725  13731     1   107.2600461 396.643200
  13720  13719  13721     1   109.5600471 388.275200
  13721  13719  13725     1   110.2600474 425.931200
  13722  13718  13726     1   110.2600474 425.931200
  13723  13720  13724     1   109.5800467 425.931200
  13723  13720  13736     1   109.5800467 425.931200
  13728  13734  13735     1   107.2600461 396.643200
  13732  13728  13734     1   110.2600474 425.931200
  13732  13728  13733     1   108.4600466 328.025600
  13733  13728  13734     1   110.2600474 425.931200
  13737  13738  13740     1   109.5600471 388.275200
  13737  13751  13755     1   109.5600471 388.275200
  13737  13751  13756     1   109.5600471 388.275200
  13738  13741  13745     1   109.5600471 388.275200
  13738  13750  13753     1   107.2600461 396.643200
  13738  13737  13739     1   109.5600471 388.275200
  13739  13737  13751     1   109.5600471 388.275200
  13739  13737  13759     1   109.7800468 425.094400
  13740  13738  13741     1   109.5600471 388.275200
  13740  13738  13750     1   110.2600474 425.931200
  13741  13742  13744     1   109.5600471 388.275200
  13741  13749  13752     1   107.2600461 396.643200
  13742  13743  13746     1   110.2200475 386.601600
  13742  13748  13754     1   107.2600461 396.643200
  13742  13741  13745     1   109.5600471 388.275200
  13743  13742  13744     1   109.5600471 388.275200
  13744  13742  13748     1   110.2600474 425.931200
  13745  13741  13749     1   110.2600474 425.931200
  13746  13743  13747     1   109.5800467 425.931200
  13746  13743  13759     1   109.5800467 425.931200
  13751  13757  13758     1   107.2600461 396.643200
  13755  13751  13757     1   110.2600474 425.931200
  13755  13751  13756     1   108.4600466 328.025600
  13756  13751  13757     1   110.2600474 425.931200
  13760  13761  13763     1   109.5600471 388.275200
  13760  13774  13778     1   109.5600471 388.275200
  13760  13774  13779     1   109.5600471 388.275200
  13761  13760  13762     1   109.5600471 388.275200
  13761  13764  13768     1   109.5600471 388.275200
  13761  13773  13776     1   107.2600461 396.643200
  13762  13760  13774     1   109.5600471 388.275200
  13762  13760  13782     1   109.7800468 425.094400
  13763  13761  13764     1   109.5600471 388.275200
  13763  13761  13773     1   110.2600474 425.931200
  13764  13765  13767     1   109.5600471 388.275200
  13764  13772  13775     1   107.2600461 396.643200
  13765  13764  13768     1   109.5600471 388.275200
  13765  13766  13769     1   110.2200475 386.601600
  13765  13771  13777     1   107.2600461 396.643200
  13766  13765  13767     1   109.5600471 388.275200
  13767  13765  13771     1   110.2600474 425.931200
  13768  13764  13772     1   110.2600474 425.931200
  13769  13766  13770     1   109.5800467 425.931200
  13769  13766  13782     1   109.5800467 425.931200
  13774  13780  13781     1   107.2600461 396.643200
  13778  13774  13780     1   110.2600474 425.931200
  13778  13774  13779     1   108.4600466 328.025600
  13779  13774  13780     1   110.2600474 425.931200
  13783  13784  13786     1   109.5600471 388.275200
  13783  13797  13801     1   109.5600471 388.275200
  13783  13797  13802     1   109.5600471 388.275200
  13784  13787  13791     1   109.5600471 388.275200
  13784  13796  13799     1   107.2600461 396.643200
  13784  13783  13785     1   109.5600471 388.275200
  13785  13783  13797     1   109.5600471 388.275200
  13785  13783  13805     1   109.7800468 425.094400
  13786  13784  13787     1   109.5600471 388.275200
  13786  13784  13796     1   110.2600474 425.931200
  13787  13788  13790     1   109.5600471 388.275200
  13787  13795  13798     1   107.2600461 396.643200
  13788  13789  13792     1   110.2200475 386.601600
  13788  13794  13800     1   107.2600461 396.643200
  13788  13787  13791     1   109.5600471 388.275200
  13789  13788  13790     1   109.5600471 388.275200
  13790  13788  13794     1   110.2600474 425.931200
  13791  13787  13795     1   110.2600474 425.931200
  13792  13789  13793     1   109.5800467 425.931200
  13792  13789  13805     1   109.5800467 425.931200
  13797  13803  13804     1   107.2600461 396.643200
  13801  13797  13803     1   110.2600474 425.931200
  13801  13797  13802     1   108.4600466 328.025600
  13802  13797  13803     1   110.2600474 425.931200
  13806  13807  13809     1   109.5600471 388.275200
  13806  13820  13824     1   109.5600471 388.275200
  13806  13820  13825     1   109.5600471 388.275200
  13807  13806  13808     1   109.5600471 388.275200
  13807  13810  13814     1   109.5600471 388.275200
  13807  13819  13822     1   107.2600461 396.643200
  13808  13806  13820     1   109.5600471 388.275200
  13808  13806  13828     1   109.7800468 425.094400
  13809  13807  13810     1   109.5600471 388.275200
  13809  13807  13819     1   110.2600474 425.931200
  13810  13811  13813     1   109.5600471 388.275200
  13810  13818  13821     1   107.2600461 396.643200
  13811  13810  13814     1   109.5600471 388.275200
  13811  13812  13815     1   110.2200475 386.601600
  13811  13817  13823     1   107.2600461 396.643200
  13812  13811  13813     1   109.5600471 388.275200
  13813  13811  13817     1   110.2600474 425.931200
  13814  13810  13818     1   110.2600474 425.931200
  13815  13812  13816     1   109.5800467 425.931200
  13815  13812  13828     1   109.5800467 425.931200
  13820  13826  13827     1   107.2600461 396.643200
  13824  13820  13826     1   110.2600474 425.931200
  13824  13820  13825     1   108.4600466 328.025600
  13825  13820  13826     1   110.2600474 425.931200
  13829  13830  13832     1   109.5600471 388.275200
  13829  13843  13847     1   109.5600471 388.275200
  13829  13843  13848     1   109.5600471 388.275200
  13830  13833  13837     1   109.5600471 388.275200
  13830  13842  13845     1   107.2600461 396.643200
  13830  13829  13831     1   109.5600471 388.275200
  13831  13829  13843     1   109.5600471 388.275200
  13831  13829  13851     1   109.7800468 425.094400
  13832  13830  13833     1   109.5600471 388.275200
  13832  13830  13842     1   110.2600474 425.931200
  13833  13834  13836     1   109.5600471 388.275200
  13833  13841  13844     1   107.2600461 396.643200
  13834  13835  13838     1   110.2200475 386.601600
  13834  13840  13846     1   107.2600461 396.643200
  13834  13833  13837     1   109.5600471 388.275200
  13835  13834  13836     1   109.5600471 388.275200
  13836  13834  13840     1   110.2600474 425.931200
  13837  13833  13841     1   110.2600474 425.931200
  13838  13835  13839     1   109.5800467 425.931200
  13838  13835  13851     1   109.5800467 425.931200
  13843  13849  13850     1   107.2600461 396.643200
  13847  13843  13849     1   110.2600474 425.931200
  13847  13843  13848     1   108.4600466 328.025600
  13848  13843  13849     1   110.2600474 425.931200
  13852  13853  13855     1   109.5600471 388.275200
  13852  13866  13870     1   109.5600471 388.275200
  13852  13866  13871     1   109.5600471 388.275200
  13853  13852  13854     1   109.5600471 388.275200
  13853  13856  13860     1   109.5600471 388.275200
  13853  13865  13868     1   107.2600461 396.643200
  13854  13852  13866     1   109.5600471 388.275200
  13854  13852  13874     1   109.7800468 425.094400
  13855  13853  13856     1   109.5600471 388.275200
  13855  13853  13865     1   110.2600474 425.931200
  13856  13857  13859     1   109.5600471 388.275200
  13856  13864  13867     1   107.2600461 396.643200
  13857  13856  13860     1   109.5600471 388.275200
  13857  13858  13861     1   110.2200475 386.601600
  13857  13863  13869     1   107.2600461 396.643200
  13858  13857  13859     1   109.5600471 388.275200
  13859  13857  13863     1   110.2600474 425.931200
  13860  13856  13864     1   110.2600474 425.931200
  13861  13858  13862     1   109.5800467 425.931200
  13861  13858  13874     1   109.5800467 425.931200
  13866  13872  13873     1   107.2600461 396.643200
  13870  13866  13872     1   110.2600474 425.931200
  13870  13866  13871     1   108.4600466 328.025600
  13871  13866  13872     1   110.2600474 425.931200
  13875  13876  13878     1   109.5600471 388.275200
  13875  13889  13893     1   109.5600471 388.275200
  13875  13889  13894     1   109.5600471 388.275200
  13876  13879  13883     1   109.5600471 388.275200
  13876  13888  13891     1   107.2600461 396.643200
  13876  13875  13877     1   109.5600471 388.275200
  13877  13875  13889     1   109.5600471 388.275200
  13877  13875  13897     1   109.7800468 425.094400
  13878  13876  13879     1   109.5600471 388.275200
  13878  13876  13888     1   110.2600474 425.931200
  13879  13880  13882     1   109.5600471 388.275200
  13879  13887  13890     1   107.2600461 396.643200
  13880  13881  13884     1   110.2200475 386.601600
  13880  13886  13892     1   107.2600461 396.643200
  13880  13879  13883     1   109.5600471 388.275200
  13881  13880  13882     1   109.5600471 388.275200
  13882  13880  13886     1   110.2600474 425.931200
  13883  13879  13887     1   110.2600474 425.931200
  13884  13881  13885     1   109.5800467 425.931200
  13884  13881  13897     1   109.5800467 425.931200
  13889  13895  13896     1   107.2600461 396.643200
  13893  13889  13895     1   110.2600474 425.931200
  13893  13889  13894     1   108.4600466 328.025600
  13894  13889  13895     1   110.2600474 425.931200
  13898  13899  13901     1   109.5600471 388.275200
  13898  13912  13916     1   109.5600471 388.275200
  13898  13912  13917     1   109.5600471 388.275200
  13899  13898  13900     1   109.5600471 388.275200
  13899  13902  13906     1   109.5600471 388.275200
  13899  13911  13914     1   107.2600461 396.643200
  13900  13898  13912     1   109.5600471 388.275200
  13900  13898  13920     1   109.7800468 425.094400
  13901  13899  13902     1   109.5600471 388.275200
  13901  13899  13911     1   110.2600474 425.931200
  13902  13903  13905     1   109.5600471 388.275200
  13902  13910  13913     1   107.2600461 396.643200
  13903  13902  13906     1   109.5600471 388.275200
  13903  13904  13907     1   110.2200475 386.601600
  13903  13909  13915     1   107.2600461 396.643200
  13904  13903  13905     1   109.5600471 388.275200
  13905  13903  13909     1   110.2600474 425.931200
  13906  13902  13910     1   110.2600474 425.931200
  13907  13904  13908     1   109.5800467 425.931200
  13907  13904  13920     1   109.5800467 425.931200
  13912  13918  13919     1   107.2600461 396.643200
  13916  13912  13918     1   110.2600474 425.931200
  13916  13912  13917     1   108.4600466 328.025600
  13917  13912  13918     1   110.2600474 425.931200
  13921  13922  13924     1   109.5600471 388.275200
  13921  13935  13939     1   109.5600471 388.275200
  13921  13935  13940     1   109.5600471 388.275200
  13922  13925  13929     1   109.5600471 388.275200
  13922  13934  13937     1   107.2600461 396.643200
  13922  13921  13923     1   109.5600471 388.275200
  13923  13921  13935     1   109.5600471 388.275200
  13923  13921  13943     1   109.7800468 425.094400
  13924  13922  13925     1   109.5600471 388.275200
  13924  13922  13934     1   110.2600474 425.931200
  13925  13926  13928     1   109.5600471 388.275200
  13925  13933  13936     1   107.2600461 396.643200
  13926  13927  13930     1   110.2200475 386.601600
  13926  13932  13938     1   107.2600461 396.643200
  13926  13925  13929     1   109.5600471 388.275200
  13927  13926  13928     1   109.5600471 388.275200
  13928  13926  13932     1   110.2600474 425.931200
  13929  13925  13933     1   110.2600474 425.931200
  13930  13927  13931     1   109.5800467 425.931200
  13930  13927  13943     1   109.5800467 425.931200
  13935  13941  13942     1   107.2600461 396.643200
  13939  13935  13941     1   110.2600474 425.931200
  13939  13935  13940     1   108.4600466 328.025600
  13940  13935  13941     1   110.2600474 425.931200
  13944  13945  13947     1   109.5600471 388.275200
  13944  13958  13962     1   109.5600471 388.275200
  13944  13958  13963     1   109.5600471 388.275200
  13945  13944  13946     1   109.5600471 388.275200
  13945  13948  13952     1   109.5600471 388.275200
  13945  13957  13960     1   107.2600461 396.643200
  13946  13944  13958     1   109.5600471 388.275200
  13946  13944  13966     1   109.7800468 425.094400
  13947  13945  13948     1   109.5600471 388.275200
  13947  13945  13957     1   110.2600474 425.931200
  13948  13949  13951     1   109.5600471 388.275200
  13948  13956  13959     1   107.2600461 396.643200
  13949  13948  13952     1   109.5600471 388.275200
  13949  13950  13953     1   110.2200475 386.601600
  13949  13955  13961     1   107.2600461 396.643200
  13950  13949  13951     1   109.5600471 388.275200
  13951  13949  13955     1   110.2600474 425.931200
  13952  13948  13956     1   110.2600474 425.931200
  13953  13950  13954     1   109.5800467 425.931200
  13953  13950  13966     1   109.5800467 425.931200
  13958  13964  13965     1   107.2600461 396.643200
  13962  13958  13964     1   110.2600474 425.931200
  13962  13958  13963     1   108.4600466 328.025600
  13963  13958  13964     1   110.2600474 425.931200
  13967  13968  13970     1   109.5600471 388.275200
  13967  13981  13985     1   109.5600471 388.275200
  13967  13981  13986     1   109.5600471 388.275200
  13968  13971  13975     1   109.5600471 388.275200
  13968  13980  13983     1   107.2600461 396.643200
  13968  13967  13969     1   109.5600471 388.275200
  13969  13967  13981     1   109.5600471 388.275200
  13969  13967  13989     1   109.7800468 425.094400
  13970  13968  13971     1   109.5600471 388.275200
  13970  13968  13980     1   110.2600474 425.931200
  13971  13972  13974     1   109.5600471 388.275200
  13971  13979  13982     1   107.2600461 396.643200
  13972  13973  13976     1   110.2200475 386.601600
  13972  13978  13984     1   107.2600461 396.643200
  13972  13971  13975     1   109.5600471 388.275200
  13973  13972  13974     1   109.5600471 388.275200
  13974  13972  13978     1   110.2600474 425.931200
  13975  13971  13979     1   110.2600474 425.931200
  13976  13973  13977     1   109.5800467 425.931200
  13976  13973  13989     1   109.5800467 425.931200
  13981  13987  13988     1   107.2600461 396.643200
  13985  13981  13987     1   110.2600474 425.931200
  13985  13981  13986     1   108.4600466 328.025600
  13986  13981  13987     1   110.2600474 425.931200
  13990  13991  13993     1   109.5600471 388.275200
  13990  14004  14008     1   109.5600471 388.275200
  13990  14004  14009     1   109.5600471 388.275200
  13991  13990  13992     1   109.5600471 388.275200
  13991  13994  13998     1   109.5600471 388.275200
  13991  14003  14006     1   107.2600461 396.643200
  13992  13990  14004     1   109.5600471 388.275200
  13992  13990  14012     1   109.7800468 425.094400
  13993  13991  13994     1   109.5600471 388.275200
  13993  13991  14003     1   110.2600474 425.931200
  13994  13995  13997     1   109.5600471 388.275200
  13994  14002  14005     1   107.2600461 396.643200
  13995  13994  13998     1   109.5600471 388.275200
  13995  13996  13999     1   110.2200475 386.601600
  13995  14001  14007     1   107.2600461 396.643200
  13996  13995  13997     1   109.5600471 388.275200
  13997  13995  14001     1   110.2600474 425.931200
  13998  13994  14002     1   110.2600474 425.931200
  13999  13996  14000     1   109.5800467 425.931200
  13999  13996  14012     1   109.5800467 425.931200
  14004  14010  14011     1   107.2600461 396.643200
  14008  14004  14010     1   110.2600474 425.931200
  14008  14004  14009     1   108.4600466 328.025600
  14009  14004  14010     1   110.2600474 425.931200
  14013  14014  14016     1   109.5600471 388.275200
  14013  14027  14031     1   109.5600471 388.275200
  14013  14027  14032     1   109.5600471 388.275200
  14014  14017  14021     1   109.5600471 388.275200
  14014  14026  14029     1   107.2600461 396.643200
  14014  14013  14015     1   109.5600471 388.275200
  14015  14013  14027     1   109.5600471 388.275200
  14015  14013  14035     1   109.7800468 425.094400
  14016  14014  14017     1   109.5600471 388.275200
  14016  14014  14026     1   110.2600474 425.931200
  14017  14018  14020     1   109.5600471 388.275200
  14017  14025  14028     1   107.2600461 396.643200
  14018  14019  14022     1   110.2200475 386.601600
  14018  14024  14030     1   107.2600461 396.643200
  14018  14017  14021     1   109.5600471 388.275200
  14019  14018  14020     1   109.5600471 388.275200
  14020  14018  14024     1   110.2600474 425.931200
  14021  14017  14025     1   110.2600474 425.931200
  14022  14019  14023     1   109.5800467 425.931200
  14022  14019  14035     1   109.5800467 425.931200
  14027  14033  14034     1   107.2600461 396.643200
  14031  14027  14033     1   110.2600474 425.931200
  14031  14027  14032     1   108.4600466 328.025600
  14032  14027  14033     1   110.2600474 425.931200
  14036  14037  14039     1   109.5600471 388.275200
  14036  14050  14054     1   109.5600471 388.275200
  14036  14050  14055     1   109.5600471 388.275200
  14037  14036  14038     1   109.5600471 388.275200
  14037  14040  14044     1   109.5600471 388.275200
  14037  14049  14052     1   107.2600461 396.643200
  14038  14036  14050     1   109.5600471 388.275200
  14038  14036  14058     1   109.7800468 425.094400
  14039  14037  14040     1   109.5600471 388.275200
  14039  14037  14049     1   110.2600474 425.931200
  14040  14041  14043     1   109.5600471 388.275200
  14040  14048  14051     1   107.2600461 396.643200
  14041  14040  14044     1   109.5600471 388.275200
  14041  14042  14045     1   110.2200475 386.601600
  14041  14047  14053     1   107.2600461 396.643200
  14042  14041  14043     1   109.5600471 388.275200
  14043  14041  14047     1   110.2600474 425.931200
  14044  14040  14048     1   110.2600474 425.931200
  14045  14042  14046     1   109.5800467 425.931200
  14045  14042  14058     1   109.5800467 425.931200
  14050  14056  14057     1   107.2600461 396.643200
  14054  14050  14056     1   110.2600474 425.931200
  14054  14050  14055     1   108.4600466 328.025600
  14055  14050  14056     1   110.2600474 425.931200
  14059  14060  14062     1   109.5600471 388.275200
  14059  14073  14077     1   109.5600471 388.275200
  14059  14073  14078     1   109.5600471 388.275200
  14060  14063  14067     1   109.5600471 388.275200
  14060  14072  14075     1   107.2600461 396.643200
  14060  14059  14061     1   109.5600471 388.275200
  14061  14059  14073     1   109.5600471 388.275200
  14061  14059  14081     1   109.7800468 425.094400
  14062  14060  14063     1   109.5600471 388.275200
  14062  14060  14072     1   110.2600474 425.931200
  14063  14064  14066     1   109.5600471 388.275200
  14063  14071  14074     1   107.2600461 396.643200
  14064  14065  14068     1   110.2200475 386.601600
  14064  14070  14076     1   107.2600461 396.643200
  14064  14063  14067     1   109.5600471 388.275200
  14065  14064  14066     1   109.5600471 388.275200
  14066  14064  14070     1   110.2600474 425.931200
  14067  14063  14071     1   110.2600474 425.931200
  14068  14065  14069     1   109.5800467 425.931200
  14068  14065  14081     1   109.5800467 425.931200
  14073  14079  14080     1   107.2600461 396.643200
  14077  14073  14079     1   110.2600474 425.931200
  14077  14073  14078     1   108.4600466 328.025600
  14078  14073  14079     1   110.2600474 425.931200
  14082  14083  14085     1   109.5600471 388.275200
  14082  14096  14100     1   109.5600471 388.275200
  14082  14096  14101     1   109.5600471 388.275200
  14083  14082  14084     1   109.5600471 388.275200
  14083  14086  14090     1   109.5600471 388.275200
  14083  14095  14098     1   107.2600461 396.643200
  14084  14082  14096     1   109.5600471 388.275200
  14084  14082  14104     1   109.7800468 425.094400
  14085  14083  14086     1   109.5600471 388.275200
  14085  14083  14095     1   110.2600474 425.931200
  14086  14087  14089     1   109.5600471 388.275200
  14086  14094  14097     1   107.2600461 396.643200
  14087  14086  14090     1   109.5600471 388.275200
  14087  14088  14091     1   110.2200475 386.601600
  14087  14093  14099     1   107.2600461 396.643200
  14088  14087  14089     1   109.5600471 388.275200
  14089  14087  14093     1   110.2600474 425.931200
  14090  14086  14094     1   110.2600474 425.931200
  14091  14088  14092     1   109.5800467 425.931200
  14091  14088  14104     1   109.5800467 425.931200
  14096  14102  14103     1   107.2600461 396.643200
  14100  14096  14102     1   110.2600474 425.931200
  14100  14096  14101     1   108.4600466 328.025600
  14101  14096  14102     1   110.2600474 425.931200
  14105  14106  14108     1   109.5600471 388.275200
  14105  14119  14123     1   109.5600471 388.275200
  14105  14119  14124     1   109.5600471 388.275200
  14106  14109  14113     1   109.5600471 388.275200
  14106  14118  14121     1   107.2600461 396.643200
  14106  14105  14107     1   109.5600471 388.275200
  14107  14105  14119     1   109.5600471 388.275200
  14107  14105  14127     1   109.7800468 425.094400
  14108  14106  14109     1   109.5600471 388.275200
  14108  14106  14118     1   110.2600474 425.931200
  14109  14110  14112     1   109.5600471 388.275200
  14109  14117  14120     1   107.2600461 396.643200
  14110  14111  14114     1   110.2200475 386.601600
  14110  14116  14122     1   107.2600461 396.643200
  14110  14109  14113     1   109.5600471 388.275200
  14111  14110  14112     1   109.5600471 388.275200
  14112  14110  14116     1   110.2600474 425.931200
  14113  14109  14117     1   110.2600474 425.931200
  14114  14111  14115     1   109.5800467 425.931200
  14114  14111  14127     1   109.5800467 425.931200
  14119  14125  14126     1   107.2600461 396.643200
  14123  14119  14125     1   110.2600474 425.931200
  14123  14119  14124     1   108.4600466 328.025600
  14124  14119  14125     1   110.2600474 425.931200
  14128  14129  14131     1   109.5600471 388.275200
  14128  14142  14146     1   109.5600471 388.275200
  14128  14142  14147     1   109.5600471 388.275200
  14129  14128  14130     1   109.5600471 388.275200
  14129  14132  14136     1   109.5600471 388.275200
  14129  14141  14144     1   107.2600461 396.643200
  14130  14128  14142     1   109.5600471 388.275200
  14130  14128  14150     1   109.7800468 425.094400
  14131  14129  14132     1   109.5600471 388.275200
  14131  14129  14141     1   110.2600474 425.931200
  14132  14133  14135     1   109.5600471 388.275200
  14132  14140  14143     1   107.2600461 396.643200
  14133  14132  14136     1   109.5600471 388.275200
  14133  14134  14137     1   110.2200475 386.601600
  14133  14139  14145     1   107.2600461 396.643200
  14134  14133  14135     1   109.5600471 388.275200
  14135  14133  14139     1   110.2600474 425.931200
  14136  14132  14140     1   110.2600474 425.931200
  14137  14134  14138     1   109.5800467 425.931200
  14137  14134  14150     1   109.5800467 425.931200
  14142  14148  14149     1   107.2600461 396.643200
  14146  14142  14148     1   110.2600474 425.931200
  14146  14142  14147     1   108.4600466 328.025600
  14147  14142  14148     1   110.2600474 425.931200
  14151  14152  14154     1   109.5600471 388.275200
  14151  14165  14169     1   109.5600471 388.275200
  14151  14165  14170     1   109.5600471 388.275200
  14152  14155  14159     1   109.5600471 388.275200
  14152  14164  14167     1   107.2600461 396.643200
  14152  14151  14153     1   109.5600471 388.275200
  14153  14151  14165     1   109.5600471 388.275200
  14153  14151  14173     1   109.7800468 425.094400
  14154  14152  14155     1   109.5600471 388.275200
  14154  14152  14164     1   110.2600474 425.931200
  14155  14156  14158     1   109.5600471 388.275200
  14155  14163  14166     1   107.2600461 396.643200
  14156  14157  14160     1   110.2200475 386.601600
  14156  14162  14168     1   107.2600461 396.643200
  14156  14155  14159     1   109.5600471 388.275200
  14157  14156  14158     1   109.5600471 388.275200
  14158  14156  14162     1   110.2600474 425.931200
  14159  14155  14163     1   110.2600474 425.931200
  14160  14157  14161     1   109.5800467 425.931200
  14160  14157  14173     1   109.5800467 425.931200
  14165  14171  14172     1   107.2600461 396.643200
  14169  14165  14171     1   110.2600474 425.931200
  14169  14165  14170     1   108.4600466 328.025600
  14170  14165  14171     1   110.2600474 425.931200
  14174  14175  14177     1   109.5600471 388.275200
  14174  14188  14192     1   109.5600471 388.275200
  14174  14188  14193     1   109.5600471 388.275200
  14175  14174  14176     1   109.5600471 388.275200
  14175  14178  14182     1   109.5600471 388.275200
  14175  14187  14190     1   107.2600461 396.643200
  14176  14174  14188     1   109.5600471 388.275200
  14176  14174  14196     1   109.7800468 425.094400
  14177  14175  14178     1   109.5600471 388.275200
  14177  14175  14187     1   110.2600474 425.931200
  14178  14179  14181     1   109.5600471 388.275200
  14178  14186  14189     1   107.2600461 396.643200
  14179  14178  14182     1   109.5600471 388.275200
  14179  14180  14183     1   110.2200475 386.601600
  14179  14185  14191     1   107.2600461 396.643200
  14180  14179  14181     1   109.5600471 388.275200
  14181  14179  14185     1   110.2600474 425.931200
  14182  14178  14186     1   110.2600474 425.931200
  14183  14180  14184     1   109.5800467 425.931200
  14183  14180  14196     1   109.5800467 425.931200
  14188  14194  14195     1   107.2600461 396.643200
  14192  14188  14194     1   110.2600474 425.931200
  14192  14188  14193     1   108.4600466 328.025600
  14193  14188  14194     1   110.2600474 425.931200
  14197  14198  14200     1   109.5600471 388.275200
  14197  14211  14215     1   109.5600471 388.275200
  14197  14211  14216     1   109.5600471 388.275200
  14198  14201  14205     1   109.5600471 388.275200
  14198  14210  14213     1   107.2600461 396.643200
  14198  14197  14199     1   109.5600471 388.275200
  14199  14197  14211     1   109.5600471 388.275200
  14199  14197  14219     1   109.7800468 425.094400
  14200  14198  14201     1   109.5600471 388.275200
  14200  14198  14210     1   110.2600474 425.931200
  14201  14202  14204     1   109.5600471 388.275200
  14201  14209  14212     1   107.2600461 396.643200
  14202  14203  14206     1   110.2200475 386.601600
  14202  14208  14214     1   107.2600461 396.643200
  14202  14201  14205     1   109.5600471 388.275200
  14203  14202  14204     1   109.5600471 388.275200
  14204  14202  14208     1   110.2600474 425.931200
  14205  14201  14209     1   110.2600474 425.931200
  14206  14203  14207     1   109.5800467 425.931200
  14206  14203  14219     1   109.5800467 425.931200
  14211  14217  14218     1   107.2600461 396.643200
  14215  14211  14217     1   110.2600474 425.931200
  14215  14211  14216     1   108.4600466 328.025600
  14216  14211  14217     1   110.2600474 425.931200
  14220  14221  14223     1   109.5600471 388.275200
  14220  14234  14238     1   109.5600471 388.275200
  14220  14234  14239     1   109.5600471 388.275200
  14221  14220  14222     1   109.5600471 388.275200
  14221  14224  14228     1   109.5600471 388.275200
  14221  14233  14236     1   107.2600461 396.643200
  14222  14220  14234     1   109.5600471 388.275200
  14222  14220  14242     1   109.7800468 425.094400
  14223  14221  14224     1   109.5600471 388.275200
  14223  14221  14233     1   110.2600474 425.931200
  14224  14225  14227     1   109.5600471 388.275200
  14224  14232  14235     1   107.2600461 396.643200
  14225  14224  14228     1   109.5600471 388.275200
  14225  14226  14229     1   110.2200475 386.601600
  14225  14231  14237     1   107.2600461 396.643200
  14226  14225  14227     1   109.5600471 388.275200
  14227  14225  14231     1   110.2600474 425.931200
  14228  14224  14232     1   110.2600474 425.931200
  14229  14226  14230     1   109.5800467 425.931200
  14229  14226  14242     1   109.5800467 425.931200
  14234  14240  14241     1   107.2600461 396.643200
  14238  14234  14240     1   110.2600474 425.931200
  14238  14234  14239     1   108.4600466 328.025600
  14239  14234  14240     1   110.2600474 425.931200
  14243  14244  14246     1   109.5600471 388.275200
  14243  14257  14261     1   109.5600471 388.275200
  14243  14257  14262     1   109.5600471 388.275200
  14244  14247  14251     1   109.5600471 388.275200
  14244  14256  14259     1   107.2600461 396.643200
  14244  14243  14245     1   109.5600471 388.275200
  14245  14243  14257     1   109.5600471 388.275200
  14245  14243  14265     1   109.7800468 425.094400
  14246  14244  14247     1   109.5600471 388.275200
  14246  14244  14256     1   110.2600474 425.931200
  14247  14248  14250     1   109.5600471 388.275200
  14247  14255  14258     1   107.2600461 396.643200
  14248  14249  14252     1   110.2200475 386.601600
  14248  14254  14260     1   107.2600461 396.643200
  14248  14247  14251     1   109.5600471 388.275200
  14249  14248  14250     1   109.5600471 388.275200
  14250  14248  14254     1   110.2600474 425.931200
  14251  14247  14255     1   110.2600474 425.931200
  14252  14249  14253     1   109.5800467 425.931200
  14252  14249  14265     1   109.5800467 425.931200
  14257  14263  14264     1   107.2600461 396.643200
  14261  14257  14263     1   110.2600474 425.931200
  14261  14257  14262     1   108.4600466 328.025600
  14262  14257  14263     1   110.2600474 425.931200
  14266  14267  14269     1   109.5600471 388.275200
  14266  14280  14284     1   109.5600471 388.275200
  14266  14280  14285     1   109.5600471 388.275200
  14267  14266  14268     1   109.5600471 388.275200
  14267  14270  14274     1   109.5600471 388.275200
  14267  14279  14282     1   107.2600461 396.643200
  14268  14266  14280     1   109.5600471 388.275200
  14268  14266  14288     1   109.7800468 425.094400
  14269  14267  14270     1   109.5600471 388.275200
  14269  14267  14279     1   110.2600474 425.931200
  14270  14271  14273     1   109.5600471 388.275200
  14270  14278  14281     1   107.2600461 396.643200
  14271  14270  14274     1   109.5600471 388.275200
  14271  14272  14275     1   110.2200475 386.601600
  14271  14277  14283     1   107.2600461 396.643200
  14272  14271  14273     1   109.5600471 388.275200
  14273  14271  14277     1   110.2600474 425.931200
  14274  14270  14278     1   110.2600474 425.931200
  14275  14272  14276     1   109.5800467 425.931200
  14275  14272  14288     1   109.5800467 425.931200
  14280  14286  14287     1   107.2600461 396.643200
  14284  14280  14286     1   110.2600474 425.931200
  14284  14280  14285     1   108.4600466 328.025600
  14285  14280  14286     1   110.2600474 425.931200
  14289  14290  14292     1   109.5600471 388.275200
  14289  14303  14307     1   109.5600471 388.275200
  14289  14303  14308     1   109.5600471 388.275200
  14290  14293  14297     1   109.5600471 388.275200
  14290  14302  14305     1   107.2600461 396.643200
  14290  14289  14291     1   109.5600471 388.275200
  14291  14289  14303     1   109.5600471 388.275200
  14291  14289  14311     1   109.7800468 425.094400
  14292  14290  14293     1   109.5600471 388.275200
  14292  14290  14302     1   110.2600474 425.931200
  14293  14294  14296     1   109.5600471 388.275200
  14293  14301  14304     1   107.2600461 396.643200
  14294  14295  14298     1   110.2200475 386.601600
  14294  14300  14306     1   107.2600461 396.643200
  14294  14293  14297     1   109.5600471 388.275200
  14295  14294  14296     1   109.5600471 388.275200
  14296  14294  14300     1   110.2600474 425.931200
  14297  14293  14301     1   110.2600474 425.931200
  14298  14295  14299     1   109.5800467 425.931200
  14298  14295  14311     1   109.5800467 425.931200
  14303  14309  14310     1   107.2600461 396.643200
  14307  14303  14309     1   110.2600474 425.931200
  14307  14303  14308     1   108.4600466 328.025600
  14308  14303  14309     1   110.2600474 425.931200
  14312  14313  14315     1   109.5600471 388.275200
  14312  14326  14330     1   109.5600471 388.275200
  14312  14326  14331     1   109.5600471 388.275200
  14313  14312  14314     1   109.5600471 388.275200
  14313  14316  14320     1   109.5600471 388.275200
  14313  14325  14328     1   107.2600461 396.643200
  14314  14312  14326     1   109.5600471 388.275200
  14314  14312  14334     1   109.7800468 425.094400
  14315  14313  14316     1   109.5600471 388.275200
  14315  14313  14325     1   110.2600474 425.931200
  14316  14317  14319     1   109.5600471 388.275200
  14316  14324  14327     1   107.2600461 396.643200
  14317  14316  14320     1   109.5600471 388.275200
  14317  14318  14321     1   110.2200475 386.601600
  14317  14323  14329     1   107.2600461 396.643200
  14318  14317  14319     1   109.5600471 388.275200
  14319  14317  14323     1   110.2600474 425.931200
  14320  14316  14324     1   110.2600474 425.931200
  14321  14318  14322     1   109.5800467 425.931200
  14321  14318  14334     1   109.5800467 425.931200
  14326  14332  14333     1   107.2600461 396.643200
  14330  14326  14332     1   110.2600474 425.931200
  14330  14326  14331     1   108.4600466 328.025600
  14331  14326  14332     1   110.2600474 425.931200
  14335  14336  14338     1   109.5600471 388.275200
  14335  14349  14353     1   109.5600471 388.275200
  14335  14349  14354     1   109.5600471 388.275200
  14336  14339  14343     1   109.5600471 388.275200
  14336  14348  14351     1   107.2600461 396.643200
  14336  14335  14337     1   109.5600471 388.275200
  14337  14335  14349     1   109.5600471 388.275200
  14337  14335  14357     1   109.7800468 425.094400
  14338  14336  14339     1   109.5600471 388.275200
  14338  14336  14348     1   110.2600474 425.931200
  14339  14340  14342     1   109.5600471 388.275200
  14339  14347  14350     1   107.2600461 396.643200
  14340  14341  14344     1   110.2200475 386.601600
  14340  14346  14352     1   107.2600461 396.643200
  14340  14339  14343     1   109.5600471 388.275200
  14341  14340  14342     1   109.5600471 388.275200
  14342  14340  14346     1   110.2600474 425.931200
  14343  14339  14347     1   110.2600474 425.931200
  14344  14341  14345     1   109.5800467 425.931200
  14344  14341  14357     1   109.5800467 425.931200
  14349  14355  14356     1   107.2600461 396.643200
  14353  14349  14355     1   110.2600474 425.931200
  14353  14349  14354     1   108.4600466 328.025600
  14354  14349  14355     1   110.2600474 425.931200
  14358  14359  14361     1   109.5600471 388.275200
  14358  14372  14376     1   109.5600471 388.275200
  14358  14372  14377     1   109.5600471 388.275200
  14359  14358  14360     1   109.5600471 388.275200
  14359  14362  14366     1   109.5600471 388.275200
  14359  14371  14374     1   107.2600461 396.643200
  14360  14358  14372     1   109.5600471 388.275200
  14360  14358  14380     1   109.7800468 425.094400
  14361  14359  14362     1   109.5600471 388.275200
  14361  14359  14371     1   110.2600474 425.931200
  14362  14363  14365     1   109.5600471 388.275200
  14362  14370  14373     1   107.2600461 396.643200
  14363  14362  14366     1   109.5600471 388.275200
  14363  14364  14367     1   110.2200475 386.601600
  14363  14369  14375     1   107.2600461 396.643200
  14364  14363  14365     1   109.5600471 388.275200
  14365  14363  14369     1   110.2600474 425.931200
  14366  14362  14370     1   110.2600474 425.931200
  14367  14364  14368     1   109.5800467 425.931200
  14367  14364  14380     1   109.5800467 425.931200
  14372  14378  14379     1   107.2600461 396.643200
  14376  14372  14378     1   110.2600474 425.931200
  14376  14372  14377     1   108.4600466 328.025600
  14377  14372  14378     1   110.2600474 425.931200
  14381  14382  14384     1   109.5600471 388.275200
  14381  14395  14399     1   109.5600471 388.275200
  14381  14395  14400     1   109.5600471 388.275200
  14382  14385  14389     1   109.5600471 388.275200
  14382  14394  14397     1   107.2600461 396.643200
  14382  14381  14383     1   109.5600471 388.275200
  14383  14381  14395     1   109.5600471 388.275200
  14383  14381  14403     1   109.7800468 425.094400
  14384  14382  14385     1   109.5600471 388.275200
  14384  14382  14394     1   110.2600474 425.931200
  14385  14386  14388     1   109.5600471 388.275200
  14385  14393  14396     1   107.2600461 396.643200
  14386  14387  14390     1   110.2200475 386.601600
  14386  14392  14398     1   107.2600461 396.643200
  14386  14385  14389     1   109.5600471 388.275200
  14387  14386  14388     1   109.5600471 388.275200
  14388  14386  14392     1   110.2600474 425.931200
  14389  14385  14393     1   110.2600474 425.931200
  14390  14387  14391     1   109.5800467 425.931200
  14390  14387  14403     1   109.5800467 425.931200
  14395  14401  14402     1   107.2600461 396.643200
  14399  14395  14401     1   110.2600474 425.931200
  14399  14395  14400     1   108.4600466 328.025600
  14400  14395  14401     1   110.2600474 425.931200
  14404  14405  14407     1   109.5600471 388.275200
  14404  14418  14422     1   109.5600471 388.275200
  14404  14418  14423     1   109.5600471 388.275200
  14405  14404  14406     1   109.5600471 388.275200
  14405  14408  14412     1   109.5600471 388.275200
  14405  14417  14420     1   107.2600461 396.643200
  14406  14404  14418     1   109.5600471 388.275200
  14406  14404  14426     1   109.7800468 425.094400
  14407  14405  14408     1   109.5600471 388.275200
  14407  14405  14417     1   110.2600474 425.931200
  14408  14409  14411     1   109.5600471 388.275200
  14408  14416  14419     1   107.2600461 396.643200
  14409  14408  14412     1   109.5600471 388.275200
  14409  14410  14413     1   110.2200475 386.601600
  14409  14415  14421     1   107.2600461 396.643200
  14410  14409  14411     1   109.5600471 388.275200
  14411  14409  14415     1   110.2600474 425.931200
  14412  14408  14416     1   110.2600474 425.931200
  14413  14410  14414     1   109.5800467 425.931200
  14413  14410  14426     1   109.5800467 425.931200
  14418  14424  14425     1   107.2600461 396.643200
  14422  14418  14424     1   110.2600474 425.931200
  14422  14418  14423     1   108.4600466 328.025600
  14423  14418  14424     1   110.2600474 425.931200
  14427  14428  14430     1   109.5600471 388.275200
  14427  14441  14445     1   109.5600471 388.275200
  14427  14441  14446     1   109.5600471 388.275200
  14428  14431  14435     1   109.5600471 388.275200
  14428  14440  14443     1   107.2600461 396.643200
  14428  14427  14429     1   109.5600471 388.275200
  14429  14427  14441     1   109.5600471 388.275200
  14429  14427  14449     1   109.7800468 425.094400
  14430  14428  14431     1   109.5600471 388.275200
  14430  14428  14440     1   110.2600474 425.931200
  14431  14432  14434     1   109.5600471 388.275200
  14431  14439  14442     1   107.2600461 396.643200
  14432  14433  14436     1   110.2200475 386.601600
  14432  14438  14444     1   107.2600461 396.643200
  14432  14431  14435     1   109.5600471 388.275200
  14433  14432  14434     1   109.5600471 388.275200
  14434  14432  14438     1   110.2600474 425.931200
  14435  14431  14439     1   110.2600474 425.931200
  14436  14433  14437     1   109.5800467 425.931200
  14436  14433  14449     1   109.5800467 425.931200
  14441  14447  14448     1   107.2600461 396.643200
  14445  14441  14447     1   110.2600474 425.931200
  14445  14441  14446     1   108.4600466 328.025600
  14446  14441  14447     1   110.2600474 425.931200
  14450  14451  14453     1   109.5600471 388.275200
  14450  14464  14468     1   109.5600471 388.275200
  14450  14464  14469     1   109.5600471 388.275200
  14451  14450  14452     1   109.5600471 388.275200
  14451  14454  14458     1   109.5600471 388.275200
  14451  14463  14466     1   107.2600461 396.643200
  14452  14450  14464     1   109.5600471 388.275200
  14452  14450  14472     1   109.7800468 425.094400
  14453  14451  14454     1   109.5600471 388.275200
  14453  14451  14463     1   110.2600474 425.931200
  14454  14455  14457     1   109.5600471 388.275200
  14454  14462  14465     1   107.2600461 396.643200
  14455  14454  14458     1   109.5600471 388.275200
  14455  14456  14459     1   110.2200475 386.601600
  14455  14461  14467     1   107.2600461 396.643200
  14456  14455  14457     1   109.5600471 388.275200
  14457  14455  14461     1   110.2600474 425.931200
  14458  14454  14462     1   110.2600474 425.931200
  14459  14456  14460     1   109.5800467 425.931200
  14459  14456  14472     1   109.5800467 425.931200
  14464  14470  14471     1   107.2600461 396.643200
  14468  14464  14470     1   110.2600474 425.931200
  14468  14464  14469     1   108.4600466 328.025600
  14469  14464  14470     1   110.2600474 425.931200
  14473  14474  14476     1   109.5600471 388.275200
  14473  14487  14491     1   109.5600471 388.275200
  14473  14487  14492     1   109.5600471 388.275200
  14474  14477  14481     1   109.5600471 388.275200
  14474  14486  14489     1   107.2600461 396.643200
  14474  14473  14475     1   109.5600471 388.275200
  14475  14473  14487     1   109.5600471 388.275200
  14475  14473  14495     1   109.7800468 425.094400
  14476  14474  14477     1   109.5600471 388.275200
  14476  14474  14486     1   110.2600474 425.931200
  14477  14478  14480     1   109.5600471 388.275200
  14477  14485  14488     1   107.2600461 396.643200
  14478  14479  14482     1   110.2200475 386.601600
  14478  14484  14490     1   107.2600461 396.643200
  14478  14477  14481     1   109.5600471 388.275200
  14479  14478  14480     1   109.5600471 388.275200
  14480  14478  14484     1   110.2600474 425.931200
  14481  14477  14485     1   110.2600474 425.931200
  14482  14479  14483     1   109.5800467 425.931200
  14482  14479  14495     1   109.5800467 425.931200
  14487  14493  14494     1   107.2600461 396.643200
  14491  14487  14493     1   110.2600474 425.931200
  14491  14487  14492     1   108.4600466 328.025600
  14492  14487  14493     1   110.2600474 425.931200
  14496  14497  14499     1   109.5600471 388.275200
  14496  14510  14514     1   109.5600471 388.275200
  14496  14510  14515     1   109.5600471 388.275200
  14497  14496  14498     1   109.5600471 388.275200
  14497  14500  14504     1   109.5600471 388.275200
  14497  14509  14512     1   107.2600461 396.643200
  14498  14496  14510     1   109.5600471 388.275200
  14498  14496  14518     1   109.7800468 425.094400
  14499  14497  14500     1   109.5600471 388.275200
  14499  14497  14509     1   110.2600474 425.931200
  14500  14501  14503     1   109.5600471 388.275200
  14500  14508  14511     1   107.2600461 396.643200
  14501  14500  14504     1   109.5600471 388.275200
  14501  14502  14505     1   110.2200475 386.601600
  14501  14507  14513     1   107.2600461 396.643200
  14502  14501  14503     1   109.5600471 388.275200
  14503  14501  14507     1   110.2600474 425.931200
  14504  14500  14508     1   110.2600474 425.931200
  14505  14502  14506     1   109.5800467 425.931200
  14505  14502  14518     1   109.5800467 425.931200
  14510  14516  14517     1   107.2600461 396.643200
  14514  14510  14516     1   110.2600474 425.931200
  14514  14510  14515     1   108.4600466 328.025600
  14515  14510  14516     1   110.2600474 425.931200
  14519  14520  14522     1   109.5600471 388.275200
  14519  14533  14537     1   109.5600471 388.275200
  14519  14533  14538     1   109.5600471 388.275200
  14520  14523  14527     1   109.5600471 388.275200
  14520  14532  14535     1   107.2600461 396.643200
  14520  14519  14521     1   109.5600471 388.275200
  14521  14519  14533     1   109.5600471 388.275200
  14521  14519  14541     1   109.7800468 425.094400
  14522  14520  14523     1   109.5600471 388.275200
  14522  14520  14532     1   110.2600474 425.931200
  14523  14524  14526     1   109.5600471 388.275200
  14523  14531  14534     1   107.2600461 396.643200
  14524  14525  14528     1   110.2200475 386.601600
  14524  14530  14536     1   107.2600461 396.643200
  14524  14523  14527     1   109.5600471 388.275200
  14525  14524  14526     1   109.5600471 388.275200
  14526  14524  14530     1   110.2600474 425.931200
  14527  14523  14531     1   110.2600474 425.931200
  14528  14525  14529     1   109.5800467 425.931200
  14528  14525  14541     1   109.5800467 425.931200
  14533  14539  14540     1   107.2600461 396.643200
  14537  14533  14539     1   110.2600474 425.931200
  14537  14533  14538     1   108.4600466 328.025600
  14538  14533  14539     1   110.2600474 425.931200
  14542  14543  14545     1   109.5600471 388.275200
  14542  14556  14560     1   109.5600471 388.275200
  14542  14556  14561     1   109.5600471 388.275200
  14543  14542  14544     1   109.5600471 388.275200
  14543  14546  14550     1   109.5600471 388.275200
  14543  14555  14558     1   107.2600461 396.643200
  14544  14542  14556     1   109.5600471 388.275200
  14544  14542  14564     1   109.7800468 425.094400
  14545  14543  14546     1   109.5600471 388.275200
  14545  14543  14555     1   110.2600474 425.931200
  14546  14547  14549     1   109.5600471 388.275200
  14546  14554  14557     1   107.2600461 396.643200
  14547  14546  14550     1   109.5600471 388.275200
  14547  14548  14551     1   110.2200475 386.601600
  14547  14553  14559     1   107.2600461 396.643200
  14548  14547  14549     1   109.5600471 388.275200
  14549  14547  14553     1   110.2600474 425.931200
  14550  14546  14554     1   110.2600474 425.931200
  14551  14548  14552     1   109.5800467 425.931200
  14551  14548  14564     1   109.5800467 425.931200
  14556  14562  14563     1   107.2600461 396.643200
  14560  14556  14562     1   110.2600474 425.931200
  14560  14556  14561     1   108.4600466 328.025600
  14561  14556  14562     1   110.2600474 425.931200
  14565  14566  14568     1   109.5600471 388.275200
  14565  14579  14583     1   109.5600471 388.275200
  14565  14579  14584     1   109.5600471 388.275200
  14566  14569  14573     1   109.5600471 388.275200
  14566  14578  14581     1   107.2600461 396.643200
  14566  14565  14567     1   109.5600471 388.275200
  14567  14565  14579     1   109.5600471 388.275200
  14567  14565  14587     1   109.7800468 425.094400
  14568  14566  14569     1   109.5600471 388.275200
  14568  14566  14578     1   110.2600474 425.931200
  14569  14570  14572     1   109.5600471 388.275200
  14569  14577  14580     1   107.2600461 396.643200
  14570  14571  14574     1   110.2200475 386.601600
  14570  14576  14582     1   107.2600461 396.643200
  14570  14569  14573     1   109.5600471 388.275200
  14571  14570  14572     1   109.5600471 388.275200
  14572  14570  14576     1   110.2600474 425.931200
  14573  14569  14577     1   110.2600474 425.931200
  14574  14571  14575     1   109.5800467 425.931200
  14574  14571  14587     1   109.5800467 425.931200
  14579  14585  14586     1   107.2600461 396.643200
  14583  14579  14585     1   110.2600474 425.931200
  14583  14579  14584     1   108.4600466 328.025600
  14584  14579  14585     1   110.2600474 425.931200
  14588  14589  14591     1   109.5600471 388.275200
  14588  14602  14606     1   109.5600471 388.275200
  14588  14602  14607     1   109.5600471 388.275200
  14589  14588  14590     1   109.5600471 388.275200
  14589  14592  14596     1   109.5600471 388.275200
  14589  14601  14604     1   107.2600461 396.643200
  14590  14588  14602     1   109.5600471 388.275200
  14590  14588  14610     1   109.7800468 425.094400
  14591  14589  14592     1   109.5600471 388.275200
  14591  14589  14601     1   110.2600474 425.931200
  14592  14593  14595     1   109.5600471 388.275200
  14592  14600  14603     1   107.2600461 396.643200
  14593  14592  14596     1   109.5600471 388.275200
  14593  14594  14597     1   110.2200475 386.601600
  14593  14599  14605     1   107.2600461 396.643200
  14594  14593  14595     1   109.5600471 388.275200
  14595  14593  14599     1   110.2600474 425.931200
  14596  14592  14600     1   110.2600474 425.931200
  14597  14594  14598     1   109.5800467 425.931200
  14597  14594  14610     1   109.5800467 425.931200
  14602  14608  14609     1   107.2600461 396.643200
  14606  14602  14608     1   110.2600474 425.931200
  14606  14602  14607     1   108.4600466 328.025600
  14607  14602  14608     1   110.2600474 425.931200
  14611  14612  14614     1   109.5600471 388.275200
  14611  14625  14629     1   109.5600471 388.275200
  14611  14625  14630     1   109.5600471 388.275200
  14612  14615  14619     1   109.5600471 388.275200
  14612  14624  14627     1   107.2600461 396.643200
  14612  14611  14613     1   109.5600471 388.275200
  14613  14611  14625     1   109.5600471 388.275200
  14613  14611  14633     1   109.7800468 425.094400
  14614  14612  14615     1   109.5600471 388.275200
  14614  14612  14624     1   110.2600474 425.931200
  14615  14616  14618     1   109.5600471 388.275200
  14615  14623  14626     1   107.2600461 396.643200
  14616  14617  14620     1   110.2200475 386.601600
  14616  14622  14628     1   107.2600461 396.643200
  14616  14615  14619     1   109.5600471 388.275200
  14617  14616  14618     1   109.5600471 388.275200
  14618  14616  14622     1   110.2600474 425.931200
  14619  14615  14623     1   110.2600474 425.931200
  14620  14617  14621     1   109.5800467 425.931200
  14620  14617  14633     1   109.5800467 425.931200
  14625  14631  14632     1   107.2600461 396.643200
  14629  14625  14631     1   110.2600474 425.931200
  14629  14625  14630     1   108.4600466 328.025600
  14630  14625  14631     1   110.2600474 425.931200
  14634  14635  14637     1   109.5600471 388.275200
  14634  14648  14652     1   109.5600471 388.275200
  14634  14648  14653     1   109.5600471 388.275200
  14635  14634  14636     1   109.5600471 388.275200
  14635  14638  14642     1   109.5600471 388.275200
  14635  14647  14650     1   107.2600461 396.643200
  14636  14634  14648     1   109.5600471 388.275200
  14636  14634  14656     1   109.7800468 425.094400
  14637  14635  14638     1   109.5600471 388.275200
  14637  14635  14647     1   110.2600474 425.931200
  14638  14639  14641     1   109.5600471 388.275200
  14638  14646  14649     1   107.2600461 396.643200
  14639  14638  14642     1   109.5600471 388.275200
  14639  14640  14643     1   110.2200475 386.601600
  14639  14645  14651     1   107.2600461 396.643200
  14640  14639  14641     1   109.5600471 388.275200
  14641  14639  14645     1   110.2600474 425.931200
  14642  14638  14646     1   110.2600474 425.931200
  14643  14640  14644     1   109.5800467 425.931200
  14643  14640  14656     1   109.5800467 425.931200
  14648  14654  14655     1   107.2600461 396.643200
  14652  14648  14654     1   110.2600474 425.931200
  14652  14648  14653     1   108.4600466 328.025600
  14653  14648  14654     1   110.2600474 425.931200
  14657  14658  14660     1   109.5600471 388.275200
  14657  14671  14675     1   109.5600471 388.275200
  14657  14671  14676     1   109.5600471 388.275200
  14658  14661  14665     1   109.5600471 388.275200
  14658  14670  14673     1   107.2600461 396.643200
  14658  14657  14659     1   109.5600471 388.275200
  14659  14657  14671     1   109.5600471 388.275200
  14659  14657  14679     1   109.7800468 425.094400
  14660  14658  14661     1   109.5600471 388.275200
  14660  14658  14670     1   110.2600474 425.931200
  14661  14662  14664     1   109.5600471 388.275200
  14661  14669  14672     1   107.2600461 396.643200
  14662  14663  14666     1   110.2200475 386.601600
  14662  14668  14674     1   107.2600461 396.643200
  14662  14661  14665     1   109.5600471 388.275200
  14663  14662  14664     1   109.5600471 388.275200
  14664  14662  14668     1   110.2600474 425.931200
  14665  14661  14669     1   110.2600474 425.931200
  14666  14663  14667     1   109.5800467 425.931200
  14666  14663  14679     1   109.5800467 425.931200
  14671  14677  14678     1   107.2600461 396.643200
  14675  14671  14677     1   110.2600474 425.931200
  14675  14671  14676     1   108.4600466 328.025600
  14676  14671  14677     1   110.2600474 425.931200
  14680  14681  14683     1   109.5600471 388.275200
  14680  14694  14698     1   109.5600471 388.275200
  14680  14694  14699     1   109.5600471 388.275200
  14681  14680  14682     1   109.5600471 388.275200
  14681  14684  14688     1   109.5600471 388.275200
  14681  14693  14696     1   107.2600461 396.643200
  14682  14680  14694     1   109.5600471 388.275200
  14682  14680  14702     1   109.7800468 425.094400
  14683  14681  14684     1   109.5600471 388.275200
  14683  14681  14693     1   110.2600474 425.931200
  14684  14685  14687     1   109.5600471 388.275200
  14684  14692  14695     1   107.2600461 396.643200
  14685  14684  14688     1   109.5600471 388.275200
  14685  14686  14689     1   110.2200475 386.601600
  14685  14691  14697     1   107.2600461 396.643200
  14686  14685  14687     1   109.5600471 388.275200
  14687  14685  14691     1   110.2600474 425.931200
  14688  14684  14692     1   110.2600474 425.931200
  14689  14686  14690     1   109.5800467 425.931200
  14689  14686  14702     1   109.5800467 425.931200
  14694  14700  14701     1   107.2600461 396.643200
  14698  14694  14700     1   110.2600474 425.931200
  14698  14694  14699     1   108.4600466 328.025600
  14699  14694  14700     1   110.2600474 425.931200
  14703  14704  14706     1   109.5600471 388.275200
  14703  14717  14721     1   109.5600471 388.275200
  14703  14717  14722     1   109.5600471 388.275200
  14704  14707  14711     1   109.5600471 388.275200
  14704  14716  14719     1   107.2600461 396.643200
  14704  14703  14705     1   109.5600471 388.275200
  14705  14703  14717     1   109.5600471 388.275200
  14705  14703  14725     1   109.7800468 425.094400
  14706  14704  14707     1   109.5600471 388.275200
  14706  14704  14716     1   110.2600474 425.931200
  14707  14708  14710     1   109.5600471 388.275200
  14707  14715  14718     1   107.2600461 396.643200
  14708  14709  14712     1   110.2200475 386.601600
  14708  14714  14720     1   107.2600461 396.643200
  14708  14707  14711     1   109.5600471 388.275200
  14709  14708  14710     1   109.5600471 388.275200
  14710  14708  14714     1   110.2600474 425.931200
  14711  14707  14715     1   110.2600474 425.931200
  14712  14709  14713     1   109.5800467 425.931200
  14712  14709  14725     1   109.5800467 425.931200
  14717  14723  14724     1   107.2600461 396.643200
  14721  14717  14723     1   110.2600474 425.931200
  14721  14717  14722     1   108.4600466 328.025600
  14722  14717  14723     1   110.2600474 425.931200
  14726  14727  14729     1   109.5600471 388.275200
  14726  14740  14744     1   109.5600471 388.275200
  14726  14740  14745     1   109.5600471 388.275200
  14727  14726  14728     1   109.5600471 388.275200
  14727  14730  14734     1   109.5600471 388.275200
  14727  14739  14742     1   107.2600461 396.643200
  14728  14726  14740     1   109.5600471 388.275200
  14728  14726  14748     1   109.7800468 425.094400
  14729  14727  14730     1   109.5600471 388.275200
  14729  14727  14739     1   110.2600474 425.931200
  14730  14731  14733     1   109.5600471 388.275200
  14730  14738  14741     1   107.2600461 396.643200
  14731  14730  14734     1   109.5600471 388.275200
  14731  14732  14735     1   110.2200475 386.601600
  14731  14737  14743     1   107.2600461 396.643200
  14732  14731  14733     1   109.5600471 388.275200
  14733  14731  14737     1   110.2600474 425.931200
  14734  14730  14738     1   110.2600474 425.931200
  14735  14732  14736     1   109.5800467 425.931200
  14735  14732  14748     1   109.5800467 425.931200
  14740  14746  14747     1   107.2600461 396.643200
  14744  14740  14746     1   110.2600474 425.931200
  14744  14740  14745     1   108.4600466 328.025600
  14745  14740  14746     1   110.2600474 425.931200
  14749  14750  14752     1   109.5600471 388.275200
  14749  14763  14767     1   109.5600471 388.275200
  14749  14763  14768     1   109.5600471 388.275200
  14750  14753  14757     1   109.5600471 388.275200
  14750  14762  14765     1   107.2600461 396.643200
  14750  14749  14751     1   109.5600471 388.275200
  14751  14749  14763     1   109.5600471 388.275200
  14751  14749  14771     1   109.7800468 425.094400
  14752  14750  14753     1   109.5600471 388.275200
  14752  14750  14762     1   110.2600474 425.931200
  14753  14754  14756     1   109.5600471 388.275200
  14753  14761  14764     1   107.2600461 396.643200
  14754  14755  14758     1   110.2200475 386.601600
  14754  14760  14766     1   107.2600461 396.643200
  14754  14753  14757     1   109.5600471 388.275200
  14755  14754  14756     1   109.5600471 388.275200
  14756  14754  14760     1   110.2600474 425.931200
  14757  14753  14761     1   110.2600474 425.931200
  14758  14755  14759     1   109.5800467 425.931200
  14758  14755  14771     1   109.5800467 425.931200
  14763  14769  14770     1   107.2600461 396.643200
  14767  14763  14769     1   110.2600474 425.931200
  14767  14763  14768     1   108.4600466 328.025600
  14768  14763  14769     1   110.2600474 425.931200
  14772  14773  14775     1   109.5600471 388.275200
  14772  14786  14790     1   109.5600471 388.275200
  14772  14786  14791     1   109.5600471 388.275200
  14773  14772  14774     1   109.5600471 388.275200
  14773  14776  14780     1   109.5600471 388.275200
  14773  14785  14788     1   107.2600461 396.643200
  14774  14772  14786     1   109.5600471 388.275200
  14774  14772  14794     1   109.7800468 425.094400
  14775  14773  14776     1   109.5600471 388.275200
  14775  14773  14785     1   110.2600474 425.931200
  14776  14777  14779     1   109.5600471 388.275200
  14776  14784  14787     1   107.2600461 396.643200
  14777  14776  14780     1   109.5600471 388.275200
  14777  14778  14781     1   110.2200475 386.601600
  14777  14783  14789     1   107.2600461 396.643200
  14778  14777  14779     1   109.5600471 388.275200
  14779  14777  14783     1   110.2600474 425.931200
  14780  14776  14784     1   110.2600474 425.931200
  14781  14778  14782     1   109.5800467 425.931200
  14781  14778  14794     1   109.5800467 425.931200
  14786  14792  14793     1   107.2600461 396.643200
  14790  14786  14792     1   110.2600474 425.931200
  14790  14786  14791     1   108.4600466 328.025600
  14791  14786  14792     1   110.2600474 425.931200
  14795  14796  14798     1   109.5600471 388.275200
  14795  14809  14813     1   109.5600471 388.275200
  14795  14809  14814     1   109.5600471 388.275200
  14796  14799  14803     1   109.5600471 388.275200
  14796  14808  14811     1   107.2600461 396.643200
  14796  14795  14797     1   109.5600471 388.275200
  14797  14795  14809     1   109.5600471 388.275200
  14797  14795  14817     1   109.7800468 425.094400
  14798  14796  14799     1   109.5600471 388.275200
  14798  14796  14808     1   110.2600474 425.931200
  14799  14800  14802     1   109.5600471 388.275200
  14799  14807  14810     1   107.2600461 396.643200
  14800  14801  14804     1   110.2200475 386.601600
  14800  14806  14812     1   107.2600461 396.643200
  14800  14799  14803     1   109.5600471 388.275200
  14801  14800  14802     1   109.5600471 388.275200
  14802  14800  14806     1   110.2600474 425.931200
  14803  14799  14807     1   110.2600474 425.931200
  14804  14801  14805     1   109.5800467 425.931200
  14804  14801  14817     1   109.5800467 425.931200
  14809  14815  14816     1   107.2600461 396.643200
  14813  14809  14815     1   110.2600474 425.931200
  14813  14809  14814     1   108.4600466 328.025600
  14814  14809  14815     1   110.2600474 425.931200
  14818  14819  14821     1   109.5600471 388.275200
  14818  14832  14836     1   109.5600471 388.275200
  14818  14832  14837     1   109.5600471 388.275200
  14819  14818  14820     1   109.5600471 388.275200
  14819  14822  14826     1   109.5600471 388.275200
  14819  14831  14834     1   107.2600461 396.643200
  14820  14818  14832     1   109.5600471 388.275200
  14820  14818  14840     1   109.7800468 425.094400
  14821  14819  14822     1   109.5600471 388.275200
  14821  14819  14831     1   110.2600474 425.931200
  14822  14823  14825     1   109.5600471 388.275200
  14822  14830  14833     1   107.2600461 396.643200
  14823  14822  14826     1   109.5600471 388.275200
  14823  14824  14827     1   110.2200475 386.601600
  14823  14829  14835     1   107.2600461 396.643200
  14824  14823  14825     1   109.5600471 388.275200
  14825  14823  14829     1   110.2600474 425.931200
  14826  14822  14830     1   110.2600474 425.931200
  14827  14824  14828     1   109.5800467 425.931200
  14827  14824  14840     1   109.5800467 425.931200
  14832  14838  14839     1   107.2600461 396.643200
  14836  14832  14838     1   110.2600474 425.931200
  14836  14832  14837     1   108.4600466 328.025600
  14837  14832  14838     1   110.2600474 425.931200
  14841  14842  14844     1   109.5600471 388.275200
  14841  14855  14859     1   109.5600471 388.275200
  14841  14855  14860     1   109.5600471 388.275200
  14842  14845  14849     1   109.5600471 388.275200
  14842  14854  14857     1   107.2600461 396.643200
  14842  14841  14843     1   109.5600471 388.275200
  14843  14841  14855     1   109.5600471 388.275200
  14843  14841  14863     1   109.7800468 425.094400
  14844  14842  14845     1   109.5600471 388.275200
  14844  14842  14854     1   110.2600474 425.931200
  14845  14846  14848     1   109.5600471 388.275200
  14845  14853  14856     1   107.2600461 396.643200
  14846  14847  14850     1   110.2200475 386.601600
  14846  14852  14858     1   107.2600461 396.643200
  14846  14845  14849     1   109.5600471 388.275200
  14847  14846  14848     1   109.5600471 388.275200
  14848  14846  14852     1   110.2600474 425.931200
  14849  14845  14853     1   110.2600474 425.931200
  14850  14847  14851     1   109.5800467 425.931200
  14850  14847  14863     1   109.5800467 425.931200
  14855  14861  14862     1   107.2600461 396.643200
  14859  14855  14861     1   110.2600474 425.931200
  14859  14855  14860     1   108.4600466 328.025600
  14860  14855  14861     1   110.2600474 425.931200
  14864  14865  14867     1   109.5600471 388.275200
  14864  14878  14882     1   109.5600471 388.275200
  14864  14878  14883     1   109.5600471 388.275200
  14865  14864  14866     1   109.5600471 388.275200
  14865  14868  14872     1   109.5600471 388.275200
  14865  14877  14880     1   107.2600461 396.643200
  14866  14864  14878     1   109.5600471 388.275200
  14866  14864  14886     1   109.7800468 425.094400
  14867  14865  14868     1   109.5600471 388.275200
  14867  14865  14877     1   110.2600474 425.931200
  14868  14869  14871     1   109.5600471 388.275200
  14868  14876  14879     1   107.2600461 396.643200
  14869  14868  14872     1   109.5600471 388.275200
  14869  14870  14873     1   110.2200475 386.601600
  14869  14875  14881     1   107.2600461 396.643200
  14870  14869  14871     1   109.5600471 388.275200
  14871  14869  14875     1   110.2600474 425.931200
  14872  14868  14876     1   110.2600474 425.931200
  14873  14870  14874     1   109.5800467 425.931200
  14873  14870  14886     1   109.5800467 425.931200
  14878  14884  14885     1   107.2600461 396.643200
  14882  14878  14884     1   110.2600474 425.931200
  14882  14878  14883     1   108.4600466 328.025600
  14883  14878  14884     1   110.2600474 425.931200
  14887  14888  14890     1   109.5600471 388.275200
  14887  14901  14905     1   109.5600471 388.275200
  14887  14901  14906     1   109.5600471 388.275200
  14888  14891  14895     1   109.5600471 388.275200
  14888  14900  14903     1   107.2600461 396.643200
  14888  14887  14889     1   109.5600471 388.275200
  14889  14887  14901     1   109.5600471 388.275200
  14889  14887  14909     1   109.7800468 425.094400
  14890  14888  14891     1   109.5600471 388.275200
  14890  14888  14900     1   110.2600474 425.931200
  14891  14892  14894     1   109.5600471 388.275200
  14891  14899  14902     1   107.2600461 396.643200
  14892  14893  14896     1   110.2200475 386.601600
  14892  14898  14904     1   107.2600461 396.643200
  14892  14891  14895     1   109.5600471 388.275200
  14893  14892  14894     1   109.5600471 388.275200
  14894  14892  14898     1   110.2600474 425.931200
  14895  14891  14899     1   110.2600474 425.931200
  14896  14893  14897     1   109.5800467 425.931200
  14896  14893  14909     1   109.5800467 425.931200
  14901  14907  14908     1   107.2600461 396.643200
  14905  14901  14907     1   110.2600474 425.931200
  14905  14901  14906     1   108.4600466 328.025600
  14906  14901  14907     1   110.2600474 425.931200
  14910  14911  14913     1   109.5600471 388.275200
  14910  14924  14928     1   109.5600471 388.275200
  14910  14924  14929     1   109.5600471 388.275200
  14911  14910  14912     1   109.5600471 388.275200
  14911  14914  14918     1   109.5600471 388.275200
  14911  14923  14926     1   107.2600461 396.643200
  14912  14910  14924     1   109.5600471 388.275200
  14912  14910  14932     1   109.7800468 425.094400
  14913  14911  14914     1   109.5600471 388.275200
  14913  14911  14923     1   110.2600474 425.931200
  14914  14915  14917     1   109.5600471 388.275200
  14914  14922  14925     1   107.2600461 396.643200
  14915  14914  14918     1   109.5600471 388.275200
  14915  14916  14919     1   110.2200475 386.601600
  14915  14921  14927     1   107.2600461 396.643200
  14916  14915  14917     1   109.5600471 388.275200
  14917  14915  14921     1   110.2600474 425.931200
  14918  14914  14922     1   110.2600474 425.931200
  14919  14916  14920     1   109.5800467 425.931200
  14919  14916  14932     1   109.5800467 425.931200
  14924  14930  14931     1   107.2600461 396.643200
  14928  14924  14930     1   110.2600474 425.931200
  14928  14924  14929     1   108.4600466 328.025600
  14929  14924  14930     1   110.2600474 425.931200
  14933  14934  14936     1   109.5600471 388.275200
  14933  14947  14951     1   109.5600471 388.275200
  14933  14947  14952     1   109.5600471 388.275200
  14934  14937  14941     1   109.5600471 388.275200
  14934  14946  14949     1   107.2600461 396.643200
  14934  14933  14935     1   109.5600471 388.275200
  14935  14933  14947     1   109.5600471 388.275200
  14935  14933  14955     1   109.7800468 425.094400
  14936  14934  14937     1   109.5600471 388.275200
  14936  14934  14946     1   110.2600474 425.931200
  14937  14938  14940     1   109.5600471 388.275200
  14937  14945  14948     1   107.2600461 396.643200
  14938  14939  14942     1   110.2200475 386.601600
  14938  14944  14950     1   107.2600461 396.643200
  14938  14937  14941     1   109.5600471 388.275200
  14939  14938  14940     1   109.5600471 388.275200
  14940  14938  14944     1   110.2600474 425.931200
  14941  14937  14945     1   110.2600474 425.931200
  14942  14939  14943     1   109.5800467 425.931200
  14942  14939  14955     1   109.5800467 425.931200
  14947  14953  14954     1   107.2600461 396.643200
  14951  14947  14953     1   110.2600474 425.931200
  14951  14947  14952     1   108.4600466 328.025600
  14952  14947  14953     1   110.2600474 425.931200
  14956  14957  14959     1   109.5600471 388.275200
  14956  14970  14974     1   109.5600471 388.275200
  14956  14970  14975     1   109.5600471 388.275200
  14957  14956  14958     1   109.5600471 388.275200
  14957  14960  14964     1   109.5600471 388.275200
  14957  14969  14972     1   107.2600461 396.643200
  14958  14956  14970     1   109.5600471 388.275200
  14958  14956  14978     1   109.7800468 425.094400
  14959  14957  14960     1   109.5600471 388.275200
  14959  14957  14969     1   110.2600474 425.931200
  14960  14961  14963     1   109.5600471 388.275200
  14960  14968  14971     1   107.2600461 396.643200
  14961  14960  14964     1   109.5600471 388.275200
  14961  14962  14965     1   110.2200475 386.601600
  14961  14967  14973     1   107.2600461 396.643200
  14962  14961  14963     1   109.5600471 388.275200
  14963  14961  14967     1   110.2600474 425.931200
  14964  14960  14968     1   110.2600474 425.931200
  14965  14962  14966     1   109.5800467 425.931200
  14965  14962  14978     1   109.5800467 425.931200
  14970  14976  14977     1   107.2600461 396.643200
  14974  14970  14976     1   110.2600474 425.931200
  14974  14970  14975     1   108.4600466 328.025600
  14975  14970  14976     1   110.2600474 425.931200
  14979  14980  14982     1   109.5600471 388.275200
  14979  14993  14997     1   109.5600471 388.275200
  14979  14993  14998     1   109.5600471 388.275200
  14980  14983  14987     1   109.5600471 388.275200
  14980  14992  14995     1   107.2600461 396.643200
  14980  14979  14981     1   109.5600471 388.275200
  14981  14979  14993     1   109.5600471 388.275200
  14981  14979  15001     1   109.7800468 425.094400
  14982  14980  14983     1   109.5600471 388.275200
  14982  14980  14992     1   110.2600474 425.931200
  14983  14984  14986     1   109.5600471 388.275200
  14983  14991  14994     1   107.2600461 396.643200
  14984  14985  14988     1   110.2200475 386.601600
  14984  14990  14996     1   107.2600461 396.643200
  14984  14983  14987     1   109.5600471 388.275200
  14985  14984  14986     1   109.5600471 388.275200
  14986  14984  14990     1   110.2600474 425.931200
  14987  14983  14991     1   110.2600474 425.931200
  14988  14985  14989     1   109.5800467 425.931200
  14988  14985  15001     1   109.5800467 425.931200
  14993  14999  15000     1   107.2600461 396.643200
  14997  14993  14999     1   110.2600474 425.931200
  14997  14993  14998     1   108.4600466 328.025600
  14998  14993  14999     1   110.2600474 425.931200
  15002  15003  15005     1   109.5600471 388.275200
  15002  15016  15020     1   109.5600471 388.275200
  15002  15016  15021     1   109.5600471 388.275200
  15003  15002  15004     1   109.5600471 388.275200
  15003  15006  15010     1   109.5600471 388.275200
  15003  15015  15018     1   107.2600461 396.643200
  15004  15002  15016     1   109.5600471 388.275200
  15004  15002  15024     1   109.7800468 425.094400
  15005  15003  15006     1   109.5600471 388.275200
  15005  15003  15015     1   110.2600474 425.931200
  15006  15007  15009     1   109.5600471 388.275200
  15006  15014  15017     1   107.2600461 396.643200
  15007  15006  15010     1   109.5600471 388.275200
  15007  15008  15011     1   110.2200475 386.601600
  15007  15013  15019     1   107.2600461 396.643200
  15008  15007  15009     1   109.5600471 388.275200
  15009  15007  15013     1   110.2600474 425.931200
  15010  15006  15014     1   110.2600474 425.931200
  15011  15008  15012     1   109.5800467 425.931200
  15011  15008  15024     1   109.5800467 425.931200
  15016  15022  15023     1   107.2600461 396.643200
  15020  15016  15022     1   110.2600474 425.931200
  15020  15016  15021     1   108.4600466 328.025600
  15021  15016  15022     1   110.2600474 425.931200
  15025  15026  15028     1   109.5600471 388.275200
  15025  15039  15043     1   109.5600471 388.275200
  15025  15039  15044     1   109.5600471 388.275200
  15026  15029  15033     1   109.5600471 388.275200
  15026  15038  15041     1   107.2600461 396.643200
  15026  15025  15027     1   109.5600471 388.275200
  15027  15025  15039     1   109.5600471 388.275200
  15027  15025  15047     1   109.7800468 425.094400
  15028  15026  15029     1   109.5600471 388.275200
  15028  15026  15038     1   110.2600474 425.931200
  15029  15030  15032     1   109.5600471 388.275200
  15029  15037  15040     1   107.2600461 396.643200
  15030  15031  15034     1   110.2200475 386.601600
  15030  15036  15042     1   107.2600461 396.643200
  15030  15029  15033     1   109.5600471 388.275200
  15031  15030  15032     1   109.5600471 388.275200
  15032  15030  15036     1   110.2600474 425.931200
  15033  15029  15037     1   110.2600474 425.931200
  15034  15031  15035     1   109.5800467 425.931200
  15034  15031  15047     1   109.5800467 425.931200
  15039  15045  15046     1   107.2600461 396.643200
  15043  15039  15045     1   110.2600474 425.931200
  15043  15039  15044     1   108.4600466 328.025600
  15044  15039  15045     1   110.2600474 425.931200
  15048  15049  15051     1   109.5600471 388.275200
  15048  15062  15066     1   109.5600471 388.275200
  15048  15062  15067     1   109.5600471 388.275200
  15049  15048  15050     1   109.5600471 388.275200
  15049  15052  15056     1   109.5600471 388.275200
  15049  15061  15064     1   107.2600461 396.643200
  15050  15048  15062     1   109.5600471 388.275200
  15050  15048  15070     1   109.7800468 425.094400
  15051  15049  15052     1   109.5600471 388.275200
  15051  15049  15061     1   110.2600474 425.931200
  15052  15053  15055     1   109.5600471 388.275200
  15052  15060  15063     1   107.2600461 396.643200
  15053  15052  15056     1   109.5600471 388.275200
  15053  15054  15057     1   110.2200475 386.601600
  15053  15059  15065     1   107.2600461 396.643200
  15054  15053  15055     1   109.5600471 388.275200
  15055  15053  15059     1   110.2600474 425.931200
  15056  15052  15060     1   110.2600474 425.931200
  15057  15054  15058     1   109.5800467 425.931200
  15057  15054  15070     1   109.5800467 425.931200
  15062  15068  15069     1   107.2600461 396.643200
  15066  15062  15068     1   110.2600474 425.931200
  15066  15062  15067     1   108.4600466 328.025600
  15067  15062  15068     1   110.2600474 425.931200
  15071  15072  15074     1   109.5600471 388.275200
  15071  15085  15089     1   109.5600471 388.275200
  15071  15085  15090     1   109.5600471 388.275200
  15072  15075  15079     1   109.5600471 388.275200
  15072  15084  15087     1   107.2600461 396.643200
  15072  15071  15073     1   109.5600471 388.275200
  15073  15071  15085     1   109.5600471 388.275200
  15073  15071  15093     1   109.7800468 425.094400
  15074  15072  15075     1   109.5600471 388.275200
  15074  15072  15084     1   110.2600474 425.931200
  15075  15076  15078     1   109.5600471 388.275200
  15075  15083  15086     1   107.2600461 396.643200
  15076  15077  15080     1   110.2200475 386.601600
  15076  15082  15088     1   107.2600461 396.643200
  15076  15075  15079     1   109.5600471 388.275200
  15077  15076  15078     1   109.5600471 388.275200
  15078  15076  15082     1   110.2600474 425.931200
  15079  15075  15083     1   110.2600474 425.931200
  15080  15077  15081     1   109.5800467 425.931200
  15080  15077  15093     1   109.5800467 425.931200
  15085  15091  15092     1   107.2600461 396.643200
  15089  15085  15091     1   110.2600474 425.931200
  15089  15085  15090     1   108.4600466 328.025600
  15090  15085  15091     1   110.2600474 425.931200
  15094  15095  15097     1   109.5600471 388.275200
  15094  15108  15112     1   109.5600471 388.275200
  15094  15108  15113     1   109.5600471 388.275200
  15095  15094  15096     1   109.5600471 388.275200
  15095  15098  15102     1   109.5600471 388.275200
  15095  15107  15110     1   107.2600461 396.643200
  15096  15094  15108     1   109.5600471 388.275200
  15096  15094  15116     1   109.7800468 425.094400
  15097  15095  15098     1   109.5600471 388.275200
  15097  15095  15107     1   110.2600474 425.931200
  15098  15099  15101     1   109.5600471 388.275200
  15098  15106  15109     1   107.2600461 396.643200
  15099  15098  15102     1   109.5600471 388.275200
  15099  15100  15103     1   110.2200475 386.601600
  15099  15105  15111     1   107.2600461 396.643200
  15100  15099  15101     1   109.5600471 388.275200
  15101  15099  15105     1   110.2600474 425.931200
  15102  15098  15106     1   110.2600474 425.931200
  15103  15100  15104     1   109.5800467 425.931200
  15103  15100  15116     1   109.5800467 425.931200
  15108  15114  15115     1   107.2600461 396.643200
  15112  15108  15114     1   110.2600474 425.931200
  15112  15108  15113     1   108.4600466 328.025600
  15113  15108  15114     1   110.2600474 425.931200
  15117  15118  15120     1   109.5600471 388.275200
  15117  15131  15135     1   109.5600471 388.275200
  15117  15131  15136     1   109.5600471 388.275200
  15118  15121  15125     1   109.5600471 388.275200
  15118  15130  15133     1   107.2600461 396.643200
  15118  15117  15119     1   109.5600471 388.275200
  15119  15117  15131     1   109.5600471 388.275200
  15119  15117  15139     1   109.7800468 425.094400
  15120  15118  15121     1   109.5600471 388.275200
  15120  15118  15130     1   110.2600474 425.931200
  15121  15122  15124     1   109.5600471 388.275200
  15121  15129  15132     1   107.2600461 396.643200
  15122  15123  15126     1   110.2200475 386.601600
  15122  15128  15134     1   107.2600461 396.643200
  15122  15121  15125     1   109.5600471 388.275200
  15123  15122  15124     1   109.5600471 388.275200
  15124  15122  15128     1   110.2600474 425.931200
  15125  15121  15129     1   110.2600474 425.931200
  15126  15123  15127     1   109.5800467 425.931200
  15126  15123  15139     1   109.5800467 425.931200
  15131  15137  15138     1   107.2600461 396.643200
  15135  15131  15137     1   110.2600474 425.931200
  15135  15131  15136     1   108.4600466 328.025600
  15136  15131  15137     1   110.2600474 425.931200
  15140  15141  15143     1   109.5600471 388.275200
  15140  15154  15158     1   109.5600471 388.275200
  15140  15154  15159     1   109.5600471 388.275200
  15141  15140  15142     1   109.5600471 388.275200
  15141  15144  15148     1   109.5600471 388.275200
  15141  15153  15156     1   107.2600461 396.643200
  15142  15140  15154     1   109.5600471 388.275200
  15142  15140  15162     1   109.7800468 425.094400
  15143  15141  15144     1   109.5600471 388.275200
  15143  15141  15153     1   110.2600474 425.931200
  15144  15145  15147     1   109.5600471 388.275200
  15144  15152  15155     1   107.2600461 396.643200
  15145  15144  15148     1   109.5600471 388.275200
  15145  15146  15149     1   110.2200475 386.601600
  15145  15151  15157     1   107.2600461 396.643200
  15146  15145  15147     1   109.5600471 388.275200
  15147  15145  15151     1   110.2600474 425.931200
  15148  15144  15152     1   110.2600474 425.931200
  15149  15146  15150     1   109.5800467 425.931200
  15149  15146  15162     1   109.5800467 425.931200
  15154  15160  15161     1   107.2600461 396.643200
  15158  15154  15160     1   110.2600474 425.931200
  15158  15154  15159     1   108.4600466 328.025600
  15159  15154  15160     1   110.2600474 425.931200
  15163  15164  15166     1   109.5600471 388.275200
  15163  15177  15181     1   109.5600471 388.275200
  15163  15177  15182     1   109.5600471 388.275200
  15164  15167  15171     1   109.5600471 388.275200
  15164  15176  15179     1   107.2600461 396.643200
  15164  15163  15165     1   109.5600471 388.275200
  15165  15163  15177     1   109.5600471 388.275200
  15165  15163  15185     1   109.7800468 425.094400
  15166  15164  15167     1   109.5600471 388.275200
  15166  15164  15176     1   110.2600474 425.931200
  15167  15168  15170     1   109.5600471 388.275200
  15167  15175  15178     1   107.2600461 396.643200
  15168  15169  15172     1   110.2200475 386.601600
  15168  15174  15180     1   107.2600461 396.643200
  15168  15167  15171     1   109.5600471 388.275200
  15169  15168  15170     1   109.5600471 388.275200
  15170  15168  15174     1   110.2600474 425.931200
  15171  15167  15175     1   110.2600474 425.931200
  15172  15169  15173     1   109.5800467 425.931200
  15172  15169  15185     1   109.5800467 425.931200
  15177  15183  15184     1   107.2600461 396.643200
  15181  15177  15183     1   110.2600474 425.931200
  15181  15177  15182     1   108.4600466 328.025600
  15182  15177  15183     1   110.2600474 425.931200
  15186  15187  15189     1   109.5600471 388.275200
  15186  15200  15204     1   109.5600471 388.275200
  15186  15200  15205     1   109.5600471 388.275200
  15187  15186  15188     1   109.5600471 388.275200
  15187  15190  15194     1   109.5600471 388.275200
  15187  15199  15202     1   107.2600461 396.643200
  15188  15186  15200     1   109.5600471 388.275200
  15188  15186  15208     1   109.7800468 425.094400
  15189  15187  15190     1   109.5600471 388.275200
  15189  15187  15199     1   110.2600474 425.931200
  15190  15191  15193     1   109.5600471 388.275200
  15190  15198  15201     1   107.2600461 396.643200
  15191  15190  15194     1   109.5600471 388.275200
  15191  15192  15195     1   110.2200475 386.601600
  15191  15197  15203     1   107.2600461 396.643200
  15192  15191  15193     1   109.5600471 388.275200
  15193  15191  15197     1   110.2600474 425.931200
  15194  15190  15198     1   110.2600474 425.931200
  15195  15192  15196     1   109.5800467 425.931200
  15195  15192  15208     1   109.5800467 425.931200
  15200  15206  15207     1   107.2600461 396.643200
  15204  15200  15206     1   110.2600474 425.931200
  15204  15200  15205     1   108.4600466 328.025600
  15205  15200  15206     1   110.2600474 425.931200
  15209  15210  15212     1   109.5600471 388.275200
  15209  15223  15227     1   109.5600471 388.275200
  15209  15223  15228     1   109.5600471 388.275200
  15210  15213  15217     1   109.5600471 388.275200
  15210  15222  15225     1   107.2600461 396.643200
  15210  15209  15211     1   109.5600471 388.275200
  15211  15209  15223     1   109.5600471 388.275200
  15211  15209  15231     1   109.7800468 425.094400
  15212  15210  15213     1   109.5600471 388.275200
  15212  15210  15222     1   110.2600474 425.931200
  15213  15214  15216     1   109.5600471 388.275200
  15213  15221  15224     1   107.2600461 396.643200
  15214  15215  15218     1   110.2200475 386.601600
  15214  15220  15226     1   107.2600461 396.643200
  15214  15213  15217     1   109.5600471 388.275200
  15215  15214  15216     1   109.5600471 388.275200
  15216  15214  15220     1   110.2600474 425.931200
  15217  15213  15221     1   110.2600474 425.931200
  15218  15215  15219     1   109.5800467 425.931200
  15218  15215  15231     1   109.5800467 425.931200
  15223  15229  15230     1   107.2600461 396.643200
  15227  15223  15229     1   110.2600474 425.931200
  15227  15223  15228     1   108.4600466 328.025600
  15228  15223  15229     1   110.2600474 425.931200
  15232  15233  15235     1   109.5600471 388.275200
  15232  15246  15250     1   109.5600471 388.275200
  15232  15246  15251     1   109.5600471 388.275200
  15233  15232  15234     1   109.5600471 388.275200
  15233  15236  15240     1   109.5600471 388.275200
  15233  15245  15248     1   107.2600461 396.643200
  15234  15232  15246     1   109.5600471 388.275200
  15234  15232  15254     1   109.7800468 425.094400
  15235  15233  15236     1   109.5600471 388.275200
  15235  15233  15245     1   110.2600474 425.931200
  15236  15237  15239     1   109.5600471 388.275200
  15236  15244  15247     1   107.2600461 396.643200
  15237  15236  15240     1   109.5600471 388.275200
  15237  15238  15241     1   110.2200475 386.601600
  15237  15243  15249     1   107.2600461 396.643200
  15238  15237  15239     1   109.5600471 388.275200
  15239  15237  15243     1   110.2600474 425.931200
  15240  15236  15244     1   110.2600474 425.931200
  15241  15238  15242     1   109.5800467 425.931200
  15241  15238  15254     1   109.5800467 425.931200
  15246  15252  15253     1   107.2600461 396.643200
  15250  15246  15252     1   110.2600474 425.931200
  15250  15246  15251     1   108.4600466 328.025600
  15251  15246  15252     1   110.2600474 425.931200
  15255  15256  15258     1   109.5600471 388.275200
  15255  15269  15273     1   109.5600471 388.275200
  15255  15269  15274     1   109.5600471 388.275200
  15256  15259  15263     1   109.5600471 388.275200
  15256  15268  15271     1   107.2600461 396.643200
  15256  15255  15257     1   109.5600471 388.275200
  15257  15255  15269     1   109.5600471 388.275200
  15257  15255  15277     1   109.7800468 425.094400
  15258  15256  15259     1   109.5600471 388.275200
  15258  15256  15268     1   110.2600474 425.931200
  15259  15260  15262     1   109.5600471 388.275200
  15259  15267  15270     1   107.2600461 396.643200
  15260  15261  15264     1   110.2200475 386.601600
  15260  15266  15272     1   107.2600461 396.643200
  15260  15259  15263     1   109.5600471 388.275200
  15261  15260  15262     1   109.5600471 388.275200
  15262  15260  15266     1   110.2600474 425.931200
  15263  15259  15267     1   110.2600474 425.931200
  15264  15261  15265     1   109.5800467 425.931200
  15264  15261  15277     1   109.5800467 425.931200
  15269  15275  15276     1   107.2600461 396.643200
  15273  15269  15275     1   110.2600474 425.931200
  15273  15269  15274     1   108.4600466 328.025600
  15274  15269  15275     1   110.2600474 425.931200
  15278  15279  15281     1   109.5600471 388.275200
  15278  15292  15296     1   109.5600471 388.275200
  15278  15292  15297     1   109.5600471 388.275200
  15279  15278  15280     1   109.5600471 388.275200
  15279  15282  15286     1   109.5600471 388.275200
  15279  15291  15294     1   107.2600461 396.643200
  15280  15278  15292     1   109.5600471 388.275200
  15280  15278  15300     1   109.7800468 425.094400
  15281  15279  15282     1   109.5600471 388.275200
  15281  15279  15291     1   110.2600474 425.931200
  15282  15283  15285     1   109.5600471 388.275200
  15282  15290  15293     1   107.2600461 396.643200
  15283  15282  15286     1   109.5600471 388.275200
  15283  15284  15287     1   110.2200475 386.601600
  15283  15289  15295     1   107.2600461 396.643200
  15284  15283  15285     1   109.5600471 388.275200
  15285  15283  15289     1   110.2600474 425.931200
  15286  15282  15290     1   110.2600474 425.931200
  15287  15284  15288     1   109.5800467 425.931200
  15287  15284  15300     1   109.5800467 425.931200
  15292  15298  15299     1   107.2600461 396.643200
  15296  15292  15298     1   110.2600474 425.931200
  15296  15292  15297     1   108.4600466 328.025600
  15297  15292  15298     1   110.2600474 425.931200
  15301  15302  15304     1   109.5600471 388.275200
  15301  15315  15319     1   109.5600471 388.275200
  15301  15315  15320     1   109.5600471 388.275200
  15302  15305  15309     1   109.5600471 388.275200
  15302  15314  15317     1   107.2600461 396.643200
  15302  15301  15303     1   109.5600471 388.275200
  15303  15301  15315     1   109.5600471 388.275200
  15303  15301  15323     1   109.7800468 425.094400
  15304  15302  15305     1   109.5600471 388.275200
  15304  15302  15314     1   110.2600474 425.931200
  15305  15306  15308     1   109.5600471 388.275200
  15305  15313  15316     1   107.2600461 396.643200
  15306  15307  15310     1   110.2200475 386.601600
  15306  15312  15318     1   107.2600461 396.643200
  15306  15305  15309     1   109.5600471 388.275200
  15307  15306  15308     1   109.5600471 388.275200
  15308  15306  15312     1   110.2600474 425.931200
  15309  15305  15313     1   110.2600474 425.931200
  15310  15307  15311     1   109.5800467 425.931200
  15310  15307  15323     1   109.5800467 425.931200
  15315  15321  15322     1   107.2600461 396.643200
  15319  15315  15321     1   110.2600474 425.931200
  15319  15315  15320     1   108.4600466 328.025600
  15320  15315  15321     1   110.2600474 425.931200
  15324  15325  15327     1   109.5600471 388.275200
  15324  15338  15342     1   109.5600471 388.275200
  15324  15338  15343     1   109.5600471 388.275200
  15325  15324  15326     1   109.5600471 388.275200
  15325  15328  15332     1   109.5600471 388.275200
  15325  15337  15340     1   107.2600461 396.643200
  15326  15324  15338     1   109.5600471 388.275200
  15326  15324  15346     1   109.7800468 425.094400
  15327  15325  15328     1   109.5600471 388.275200
  15327  15325  15337     1   110.2600474 425.931200
  15328  15329  15331     1   109.5600471 388.275200
  15328  15336  15339     1   107.2600461 396.643200
  15329  15328  15332     1   109.5600471 388.275200
  15329  15330  15333     1   110.2200475 386.601600
  15329  15335  15341     1   107.2600461 396.643200
  15330  15329  15331     1   109.5600471 388.275200
  15331  15329  15335     1   110.2600474 425.931200
  15332  15328  15336     1   110.2600474 425.931200
  15333  15330  15334     1   109.5800467 425.931200
  15333  15330  15346     1   109.5800467 425.931200
  15338  15344  15345     1   107.2600461 396.643200
  15342  15338  15344     1   110.2600474 425.931200
  15342  15338  15343     1   108.4600466 328.025600
  15343  15338  15344     1   110.2600474 425.931200
  15347  15348  15350     1   109.5600471 388.275200
  15347  15361  15365     1   109.5600471 388.275200
  15347  15361  15366     1   109.5600471 388.275200
  15348  15351  15355     1   109.5600471 388.275200
  15348  15360  15363     1   107.2600461 396.643200
  15348  15347  15349     1   109.5600471 388.275200
  15349  15347  15361     1   109.5600471 388.275200
  15349  15347  15369     1   109.7800468 425.094400
  15350  15348  15351     1   109.5600471 388.275200
  15350  15348  15360     1   110.2600474 425.931200
  15351  15352  15354     1   109.5600471 388.275200
  15351  15359  15362     1   107.2600461 396.643200
  15352  15353  15356     1   110.2200475 386.601600
  15352  15358  15364     1   107.2600461 396.643200
  15352  15351  15355     1   109.5600471 388.275200
  15353  15352  15354     1   109.5600471 388.275200
  15354  15352  15358     1   110.2600474 425.931200
  15355  15351  15359     1   110.2600474 425.931200
  15356  15353  15357     1   109.5800467 425.931200
  15356  15353  15369     1   109.5800467 425.931200
  15361  15367  15368     1   107.2600461 396.643200
  15365  15361  15367     1   110.2600474 425.931200
  15365  15361  15366     1   108.4600466 328.025600
  15366  15361  15367     1   110.2600474 425.931200
  15370  15371  15373     1   109.5600471 388.275200
  15370  15384  15388     1   109.5600471 388.275200
  15370  15384  15389     1   109.5600471 388.275200
  15371  15370  15372     1   109.5600471 388.275200
  15371  15374  15378     1   109.5600471 388.275200
  15371  15383  15386     1   107.2600461 396.643200
  15372  15370  15384     1   109.5600471 388.275200
  15372  15370  15392     1   109.7800468 425.094400
  15373  15371  15374     1   109.5600471 388.275200
  15373  15371  15383     1   110.2600474 425.931200
  15374  15375  15377     1   109.5600471 388.275200
  15374  15382  15385     1   107.2600461 396.643200
  15375  15374  15378     1   109.5600471 388.275200
  15375  15376  15379     1   110.2200475 386.601600
  15375  15381  15387     1   107.2600461 396.643200
  15376  15375  15377     1   109.5600471 388.275200
  15377  15375  15381     1   110.2600474 425.931200
  15378  15374  15382     1   110.2600474 425.931200
  15379  15376  15380     1   109.5800467 425.931200
  15379  15376  15392     1   109.5800467 425.931200
  15384  15390  15391     1   107.2600461 396.643200
  15388  15384  15390     1   110.2600474 425.931200
  15388  15384  15389     1   108.4600466 328.025600
  15389  15384  15390     1   110.2600474 425.931200
  15393  15394  15396     1   109.5600471 388.275200
  15393  15407  15411     1   109.5600471 388.275200
  15393  15407  15412     1   109.5600471 388.275200
  15394  15397  15401     1   109.5600471 388.275200
  15394  15406  15409     1   107.2600461 396.643200
  15394  15393  15395     1   109.5600471 388.275200
  15395  15393  15407     1   109.5600471 388.275200
  15395  15393  15415     1   109.7800468 425.094400
  15396  15394  15397     1   109.5600471 388.275200
  15396  15394  15406     1   110.2600474 425.931200
  15397  15398  15400     1   109.5600471 388.275200
  15397  15405  15408     1   107.2600461 396.643200
  15398  15399  15402     1   110.2200475 386.601600
  15398  15404  15410     1   107.2600461 396.643200
  15398  15397  15401     1   109.5600471 388.275200
  15399  15398  15400     1   109.5600471 388.275200
  15400  15398  15404     1   110.2600474 425.931200
  15401  15397  15405     1   110.2600474 425.931200
  15402  15399  15403     1   109.5800467 425.931200
  15402  15399  15415     1   109.5800467 425.931200
  15407  15413  15414     1   107.2600461 396.643200
  15411  15407  15413     1   110.2600474 425.931200
  15411  15407  15412     1   108.4600466 328.025600
  15412  15407  15413     1   110.2600474 425.931200
  15416  15417  15419     1   109.5600471 388.275200
  15416  15430  15434     1   109.5600471 388.275200
  15416  15430  15435     1   109.5600471 388.275200
  15417  15416  15418     1   109.5600471 388.275200
  15417  15420  15424     1   109.5600471 388.275200
  15417  15429  15432     1   107.2600461 396.643200
  15418  15416  15430     1   109.5600471 388.275200
  15418  15416  15438     1   109.7800468 425.094400
  15419  15417  15420     1   109.5600471 388.275200
  15419  15417  15429     1   110.2600474 425.931200
  15420  15421  15423     1   109.5600471 388.275200
  15420  15428  15431     1   107.2600461 396.643200
  15421  15420  15424     1   109.5600471 388.275200
  15421  15422  15425     1   110.2200475 386.601600
  15421  15427  15433     1   107.2600461 396.643200
  15422  15421  15423     1   109.5600471 388.275200
  15423  15421  15427     1   110.2600474 425.931200
  15424  15420  15428     1   110.2600474 425.931200
  15425  15422  15426     1   109.5800467 425.931200
  15425  15422  15438     1   109.5800467 425.931200
  15430  15436  15437     1   107.2600461 396.643200
  15434  15430  15436     1   110.2600474 425.931200
  15434  15430  15435     1   108.4600466 328.025600
  15435  15430  15436     1   110.2600474 425.931200
  15439  15440  15442     1   109.5600471 388.275200
  15439  15453  15457     1   109.5600471 388.275200
  15439  15453  15458     1   109.5600471 388.275200
  15440  15443  15447     1   109.5600471 388.275200
  15440  15452  15455     1   107.2600461 396.643200
  15440  15439  15441     1   109.5600471 388.275200
  15441  15439  15453     1   109.5600471 388.275200
  15441  15439  15461     1   109.7800468 425.094400
  15442  15440  15443     1   109.5600471 388.275200
  15442  15440  15452     1   110.2600474 425.931200
  15443  15444  15446     1   109.5600471 388.275200
  15443  15451  15454     1   107.2600461 396.643200
  15444  15445  15448     1   110.2200475 386.601600
  15444  15450  15456     1   107.2600461 396.643200
  15444  15443  15447     1   109.5600471 388.275200
  15445  15444  15446     1   109.5600471 388.275200
  15446  15444  15450     1   110.2600474 425.931200
  15447  15443  15451     1   110.2600474 425.931200
  15448  15445  15449     1   109.5800467 425.931200
  15448  15445  15461     1   109.5800467 425.931200
  15453  15459  15460     1   107.2600461 396.643200
  15457  15453  15459     1   110.2600474 425.931200
  15457  15453  15458     1   108.4600466 328.025600
  15458  15453  15459     1   110.2600474 425.931200
  15462  15463  15465     1   109.5600471 388.275200
  15462  15476  15480     1   109.5600471 388.275200
  15462  15476  15481     1   109.5600471 388.275200
  15463  15462  15464     1   109.5600471 388.275200
  15463  15466  15470     1   109.5600471 388.275200
  15463  15475  15478     1   107.2600461 396.643200
  15464  15462  15476     1   109.5600471 388.275200
  15464  15462  15484     1   109.7800468 425.094400
  15465  15463  15466     1   109.5600471 388.275200
  15465  15463  15475     1   110.2600474 425.931200
  15466  15467  15469     1   109.5600471 388.275200
  15466  15474  15477     1   107.2600461 396.643200
  15467  15466  15470     1   109.5600471 388.275200
  15467  15468  15471     1   110.2200475 386.601600
  15467  15473  15479     1   107.2600461 396.643200
  15468  15467  15469     1   109.5600471 388.275200
  15469  15467  15473     1   110.2600474 425.931200
  15470  15466  15474     1   110.2600474 425.931200
  15471  15468  15472     1   109.5800467 425.931200
  15471  15468  15484     1   109.5800467 425.931200
  15476  15482  15483     1   107.2600461 396.643200
  15480  15476  15482     1   110.2600474 425.931200
  15480  15476  15481     1   108.4600466 328.025600
  15481  15476  15482     1   110.2600474 425.931200
  15485  15486  15488     1   109.5600471 388.275200
  15485  15499  15503     1   109.5600471 388.275200
  15485  15499  15504     1   109.5600471 388.275200
  15486  15489  15493     1   109.5600471 388.275200
  15486  15498  15501     1   107.2600461 396.643200
  15486  15485  15487     1   109.5600471 388.275200
  15487  15485  15499     1   109.5600471 388.275200
  15487  15485  15507     1   109.7800468 425.094400
  15488  15486  15489     1   109.5600471 388.275200
  15488  15486  15498     1   110.2600474 425.931200
  15489  15490  15492     1   109.5600471 388.275200
  15489  15497  15500     1   107.2600461 396.643200
  15490  15491  15494     1   110.2200475 386.601600
  15490  15496  15502     1   107.2600461 396.643200
  15490  15489  15493     1   109.5600471 388.275200
  15491  15490  15492     1   109.5600471 388.275200
  15492  15490  15496     1   110.2600474 425.931200
  15493  15489  15497     1   110.2600474 425.931200
  15494  15491  15495     1   109.5800467 425.931200
  15494  15491  15507     1   109.5800467 425.931200
  15499  15505  15506     1   107.2600461 396.643200
  15503  15499  15505     1   110.2600474 425.931200
  15503  15499  15504     1   108.4600466 328.025600
  15504  15499  15505     1   110.2600474 425.931200
  15508  15509  15511     1   109.5600471 388.275200
  15508  15522  15526     1   109.5600471 388.275200
  15508  15522  15527     1   109.5600471 388.275200
  15509  15508  15510     1   109.5600471 388.275200
  15509  15512  15516     1   109.5600471 388.275200
  15509  15521  15524     1   107.2600461 396.643200
  15510  15508  15522     1   109.5600471 388.275200
  15510  15508  15530     1   109.7800468 425.094400
  15511  15509  15512     1   109.5600471 388.275200
  15511  15509  15521     1   110.2600474 425.931200
  15512  15513  15515     1   109.5600471 388.275200
  15512  15520  15523     1   107.2600461 396.643200
  15513  15512  15516     1   109.5600471 388.275200
  15513  15514  15517     1   110.2200475 386.601600
  15513  15519  15525     1   107.2600461 396.643200
  15514  15513  15515     1   109.5600471 388.275200
  15515  15513  15519     1   110.2600474 425.931200
  15516  15512  15520     1   110.2600474 425.931200
  15517  15514  15518     1   109.5800467 425.931200
  15517  15514  15530     1   109.5800467 425.931200
  15522  15528  15529     1   107.2600461 396.643200
  15526  15522  15528     1   110.2600474 425.931200
  15526  15522  15527     1   108.4600466 328.025600
  15527  15522  15528     1   110.2600474 425.931200
  15531  15532  15534     1   109.5600471 388.275200
  15531  15545  15549     1   109.5600471 388.275200
  15531  15545  15550     1   109.5600471 388.275200
  15532  15535  15539     1   109.5600471 388.275200
  15532  15544  15547     1   107.2600461 396.643200
  15532  15531  15533     1   109.5600471 388.275200
  15533  15531  15545     1   109.5600471 388.275200
  15533  15531  15553     1   109.7800468 425.094400
  15534  15532  15535     1   109.5600471 388.275200
  15534  15532  15544     1   110.2600474 425.931200
  15535  15536  15538     1   109.5600471 388.275200
  15535  15543  15546     1   107.2600461 396.643200
  15536  15537  15540     1   110.2200475 386.601600
  15536  15542  15548     1   107.2600461 396.643200
  15536  15535  15539     1   109.5600471 388.275200
  15537  15536  15538     1   109.5600471 388.275200
  15538  15536  15542     1   110.2600474 425.931200
  15539  15535  15543     1   110.2600474 425.931200
  15540  15537  15541     1   109.5800467 425.931200
  15540  15537  15553     1   109.5800467 425.931200
  15545  15551  15552     1   107.2600461 396.643200
  15549  15545  15551     1   110.2600474 425.931200
  15549  15545  15550     1   108.4600466 328.025600
  15550  15545  15551     1   110.2600474 425.931200
  15554  15555  15557     1   109.5600471 388.275200
  15554  15568  15572     1   109.5600471 388.275200
  15554  15568  15573     1   109.5600471 388.275200
  15555  15554  15556     1   109.5600471 388.275200
  15555  15558  15562     1   109.5600471 388.275200
  15555  15567  15570     1   107.2600461 396.643200
  15556  15554  15568     1   109.5600471 388.275200
  15556  15554  15576     1   109.7800468 425.094400
  15557  15555  15558     1   109.5600471 388.275200
  15557  15555  15567     1   110.2600474 425.931200
  15558  15559  15561     1   109.5600471 388.275200
  15558  15566  15569     1   107.2600461 396.643200
  15559  15558  15562     1   109.5600471 388.275200
  15559  15560  15563     1   110.2200475 386.601600
  15559  15565  15571     1   107.2600461 396.643200
  15560  15559  15561     1   109.5600471 388.275200
  15561  15559  15565     1   110.2600474 425.931200
  15562  15558  15566     1   110.2600474 425.931200
  15563  15560  15564     1   109.5800467 425.931200
  15563  15560  15576     1   109.5800467 425.931200
  15568  15574  15575     1   107.2600461 396.643200
  15572  15568  15574     1   110.2600474 425.931200
  15572  15568  15573     1   108.4600466 328.025600
  15573  15568  15574     1   110.2600474 425.931200
  15577  15578  15580     1   109.5600471 388.275200
  15577  15591  15595     1   109.5600471 388.275200
  15577  15591  15596     1   109.5600471 388.275200
  15578  15581  15585     1   109.5600471 388.275200
  15578  15590  15593     1   107.2600461 396.643200
  15578  15577  15579     1   109.5600471 388.275200
  15579  15577  15591     1   109.5600471 388.275200
  15579  15577  15599     1   109.7800468 425.094400
  15580  15578  15581     1   109.5600471 388.275200
  15580  15578  15590     1   110.2600474 425.931200
  15581  15582  15584     1   109.5600471 388.275200
  15581  15589  15592     1   107.2600461 396.643200
  15582  15583  15586     1   110.2200475 386.601600
  15582  15588  15594     1   107.2600461 396.643200
  15582  15581  15585     1   109.5600471 388.275200
  15583  15582  15584     1   109.5600471 388.275200
  15584  15582  15588     1   110.2600474 425.931200
  15585  15581  15589     1   110.2600474 425.931200
  15586  15583  15587     1   109.5800467 425.931200
  15586  15583  15599     1   109.5800467 425.931200
  15591  15597  15598     1   107.2600461 396.643200
  15595  15591  15597     1   110.2600474 425.931200
  15595  15591  15596     1   108.4600466 328.025600
  15596  15591  15597     1   110.2600474 425.931200
  15600  15601  15603     1   109.5600471 388.275200
  15600  15614  15618     1   109.5600471 388.275200
  15600  15614  15619     1   109.5600471 388.275200
  15601  15600  15602     1   109.5600471 388.275200
  15601  15604  15608     1   109.5600471 388.275200
  15601  15613  15616     1   107.2600461 396.643200
  15602  15600  15614     1   109.5600471 388.275200
  15602  15600  15622     1   109.7800468 425.094400
  15603  15601  15604     1   109.5600471 388.275200
  15603  15601  15613     1   110.2600474 425.931200
  15604  15605  15607     1   109.5600471 388.275200
  15604  15612  15615     1   107.2600461 396.643200
  15605  15604  15608     1   109.5600471 388.275200
  15605  15606  15609     1   110.2200475 386.601600
  15605  15611  15617     1   107.2600461 396.643200
  15606  15605  15607     1   109.5600471 388.275200
  15607  15605  15611     1   110.2600474 425.931200
  15608  15604  15612     1   110.2600474 425.931200
  15609  15606  15610     1   109.5800467 425.931200
  15609  15606  15622     1   109.5800467 425.931200
  15614  15620  15621     1   107.2600461 396.643200
  15618  15614  15620     1   110.2600474 425.931200
  15618  15614  15619     1   108.4600466 328.025600
  15619  15614  15620     1   110.2600474 425.931200
  15623  15624  15626     1   109.5600471 388.275200
  15623  15637  15641     1   109.5600471 388.275200
  15623  15637  15642     1   109.5600471 388.275200
  15624  15627  15631     1   109.5600471 388.275200
  15624  15636  15639     1   107.2600461 396.643200
  15624  15623  15625     1   109.5600471 388.275200
  15625  15623  15637     1   109.5600471 388.275200
  15625  15623  15645     1   109.7800468 425.094400
  15626  15624  15627     1   109.5600471 388.275200
  15626  15624  15636     1   110.2600474 425.931200
  15627  15628  15630     1   109.5600471 388.275200
  15627  15635  15638     1   107.2600461 396.643200
  15628  15629  15632     1   110.2200475 386.601600
  15628  15634  15640     1   107.2600461 396.643200
  15628  15627  15631     1   109.5600471 388.275200
  15629  15628  15630     1   109.5600471 388.275200
  15630  15628  15634     1   110.2600474 425.931200
  15631  15627  15635     1   110.2600474 425.931200
  15632  15629  15633     1   109.5800467 425.931200
  15632  15629  15645     1   109.5800467 425.931200
  15637  15643  15644     1   107.2600461 396.643200
  15641  15637  15643     1   110.2600474 425.931200
  15641  15637  15642     1   108.4600466 328.025600
  15642  15637  15643     1   110.2600474 425.931200
  15646  15647  15649     1   109.5600471 388.275200
  15646  15660  15664     1   109.5600471 388.275200
  15646  15660  15665     1   109.5600471 388.275200
  15647  15646  15648     1   109.5600471 388.275200
  15647  15650  15654     1   109.5600471 388.275200
  15647  15659  15662     1   107.2600461 396.643200
  15648  15646  15660     1   109.5600471 388.275200
  15648  15646  15668     1   109.7800468 425.094400
  15649  15647  15650     1   109.5600471 388.275200
  15649  15647  15659     1   110.2600474 425.931200
  15650  15651  15653     1   109.5600471 388.275200
  15650  15658  15661     1   107.2600461 396.643200
  15651  15650  15654     1   109.5600471 388.275200
  15651  15652  15655     1   110.2200475 386.601600
  15651  15657  15663     1   107.2600461 396.643200
  15652  15651  15653     1   109.5600471 388.275200
  15653  15651  15657     1   110.2600474 425.931200
  15654  15650  15658     1   110.2600474 425.931200
  15655  15652  15656     1   109.5800467 425.931200
  15655  15652  15668     1   109.5800467 425.931200
  15660  15666  15667     1   107.2600461 396.643200
  15664  15660  15666     1   110.2600474 425.931200
  15664  15660  15665     1   108.4600466 328.025600
  15665  15660  15666     1   110.2600474 425.931200
  15669  15670  15672     1   109.5600471 388.275200
  15669  15683  15687     1   109.5600471 388.275200
  15669  15683  15688     1   109.5600471 388.275200
  15670  15673  15677     1   109.5600471 388.275200
  15670  15682  15685     1   107.2600461 396.643200
  15670  15669  15671     1   109.5600471 388.275200
  15671  15669  15683     1   109.5600471 388.275200
  15671  15669  15691     1   109.7800468 425.094400
  15672  15670  15673     1   109.5600471 388.275200
  15672  15670  15682     1   110.2600474 425.931200
  15673  15674  15676     1   109.5600471 388.275200
  15673  15681  15684     1   107.2600461 396.643200
  15674  15675  15678     1   110.2200475 386.601600
  15674  15680  15686     1   107.2600461 396.643200
  15674  15673  15677     1   109.5600471 388.275200
  15675  15674  15676     1   109.5600471 388.275200
  15676  15674  15680     1   110.2600474 425.931200
  15677  15673  15681     1   110.2600474 425.931200
  15678  15675  15679     1   109.5800467 425.931200
  15678  15675  15691     1   109.5800467 425.931200
  15683  15689  15690     1   107.2600461 396.643200
  15687  15683  15689     1   110.2600474 425.931200
  15687  15683  15688     1   108.4600466 328.025600
  15688  15683  15689     1   110.2600474 425.931200
  15692  15693  15695     1   109.5600471 388.275200
  15692  15706  15710     1   109.5600471 388.275200
  15692  15706  15711     1   109.5600471 388.275200
  15693  15692  15694     1   109.5600471 388.275200
  15693  15696  15700     1   109.5600471 388.275200
  15693  15705  15708     1   107.2600461 396.643200
  15694  15692  15706     1   109.5600471 388.275200
  15694  15692  15714     1   109.7800468 425.094400
  15695  15693  15696     1   109.5600471 388.275200
  15695  15693  15705     1   110.2600474 425.931200
  15696  15697  15699     1   109.5600471 388.275200
  15696  15704  15707     1   107.2600461 396.643200
  15697  15696  15700     1   109.5600471 388.275200
  15697  15698  15701     1   110.2200475 386.601600
  15697  15703  15709     1   107.2600461 396.643200
  15698  15697  15699     1   109.5600471 388.275200
  15699  15697  15703     1   110.2600474 425.931200
  15700  15696  15704     1   110.2600474 425.931200
  15701  15698  15702     1   109.5800467 425.931200
  15701  15698  15714     1   109.5800467 425.931200
  15706  15712  15713     1   107.2600461 396.643200
  15710  15706  15712     1   110.2600474 425.931200
  15710  15706  15711     1   108.4600466 328.025600
  15711  15706  15712     1   110.2600474 425.931200
  15715  15716  15718     1   109.5600471 388.275200
  15715  15729  15733     1   109.5600471 388.275200
  15715  15729  15734     1   109.5600471 388.275200
  15716  15719  15723     1   109.5600471 388.275200
  15716  15728  15731     1   107.2600461 396.643200
  15716  15715  15717     1   109.5600471 388.275200
  15717  15715  15729     1   109.5600471 388.275200
  15717  15715  15737     1   109.7800468 425.094400
  15718  15716  15719     1   109.5600471 388.275200
  15718  15716  15728     1   110.2600474 425.931200
  15719  15720  15722     1   109.5600471 388.275200
  15719  15727  15730     1   107.2600461 396.643200
  15720  15721  15724     1   110.2200475 386.601600
  15720  15726  15732     1   107.2600461 396.643200
  15720  15719  15723     1   109.5600471 388.275200
  15721  15720  15722     1   109.5600471 388.275200
  15722  15720  15726     1   110.2600474 425.931200
  15723  15719  15727     1   110.2600474 425.931200
  15724  15721  15725     1   109.5800467 425.931200
  15724  15721  15737     1   109.5800467 425.931200
  15729  15735  15736     1   107.2600461 396.643200
  15733  15729  15735     1   110.2600474 425.931200
  15733  15729  15734     1   108.4600466 328.025600
  15734  15729  15735     1   110.2600474 425.931200
  15738  15739  15741     1   109.5600471 388.275200
  15738  15752  15756     1   109.5600471 388.275200
  15738  15752  15757     1   109.5600471 388.275200
  15739  15738  15740     1   109.5600471 388.275200
  15739  15742  15746     1   109.5600471 388.275200
  15739  15751  15754     1   107.2600461 396.643200
  15740  15738  15752     1   109.5600471 388.275200
  15740  15738  15760     1   109.7800468 425.094400
  15741  15739  15742     1   109.5600471 388.275200
  15741  15739  15751     1   110.2600474 425.931200
  15742  15743  15745     1   109.5600471 388.275200
  15742  15750  15753     1   107.2600461 396.643200
  15743  15742  15746     1   109.5600471 388.275200
  15743  15744  15747     1   110.2200475 386.601600
  15743  15749  15755     1   107.2600461 396.643200
  15744  15743  15745     1   109.5600471 388.275200
  15745  15743  15749     1   110.2600474 425.931200
  15746  15742  15750     1   110.2600474 425.931200
  15747  15744  15748     1   109.5800467 425.931200
  15747  15744  15760     1   109.5800467 425.931200
  15752  15758  15759     1   107.2600461 396.643200
  15756  15752  15758     1   110.2600474 425.931200
  15756  15752  15757     1   108.4600466 328.025600
  15757  15752  15758     1   110.2600474 425.931200
  15761  15762  15764     1   109.5600471 388.275200
  15761  15775  15779     1   109.5600471 388.275200
  15761  15775  15780     1   109.5600471 388.275200
  15762  15765  15769     1   109.5600471 388.275200
  15762  15774  15777     1   107.2600461 396.643200
  15762  15761  15763     1   109.5600471 388.275200
  15763  15761  15775     1   109.5600471 388.275200
  15763  15761  15783     1   109.7800468 425.094400
  15764  15762  15765     1   109.5600471 388.275200
  15764  15762  15774     1   110.2600474 425.931200
  15765  15766  15768     1   109.5600471 388.275200
  15765  15773  15776     1   107.2600461 396.643200
  15766  15767  15770     1   110.2200475 386.601600
  15766  15772  15778     1   107.2600461 396.643200
  15766  15765  15769     1   109.5600471 388.275200
  15767  15766  15768     1   109.5600471 388.275200
  15768  15766  15772     1   110.2600474 425.931200
  15769  15765  15773     1   110.2600474 425.931200
  15770  15767  15771     1   109.5800467 425.931200
  15770  15767  15783     1   109.5800467 425.931200
  15775  15781  15782     1   107.2600461 396.643200
  15779  15775  15781     1   110.2600474 425.931200
  15779  15775  15780     1   108.4600466 328.025600
  15780  15775  15781     1   110.2600474 425.931200
  15784  15785  15787     1   109.5600471 388.275200
  15784  15798  15802     1   109.5600471 388.275200
  15784  15798  15803     1   109.5600471 388.275200
  15785  15784  15786     1   109.5600471 388.275200
  15785  15788  15792     1   109.5600471 388.275200
  15785  15797  15800     1   107.2600461 396.643200
  15786  15784  15798     1   109.5600471 388.275200
  15786  15784  15806     1   109.7800468 425.094400
  15787  15785  15788     1   109.5600471 388.275200
  15787  15785  15797     1   110.2600474 425.931200
  15788  15789  15791     1   109.5600471 388.275200
  15788  15796  15799     1   107.2600461 396.643200
  15789  15788  15792     1   109.5600471 388.275200
  15789  15790  15793     1   110.2200475 386.601600
  15789  15795  15801     1   107.2600461 396.643200
  15790  15789  15791     1   109.5600471 388.275200
  15791  15789  15795     1   110.2600474 425.931200
  15792  15788  15796     1   110.2600474 425.931200
  15793  15790  15794     1   109.5800467 425.931200
  15793  15790  15806     1   109.5800467 425.931200
  15798  15804  15805     1   107.2600461 396.643200
  15802  15798  15804     1   110.2600474 425.931200
  15802  15798  15803     1   108.4600466 328.025600
  15803  15798  15804     1   110.2600474 425.931200
  15807  15808  15810     1   109.5600471 388.275200
  15807  15821  15825     1   109.5600471 388.275200
  15807  15821  15826     1   109.5600471 388.275200
  15808  15811  15815     1   109.5600471 388.275200
  15808  15820  15823     1   107.2600461 396.643200
  15808  15807  15809     1   109.5600471 388.275200
  15809  15807  15821     1   109.5600471 388.275200
  15809  15807  15829     1   109.7800468 425.094400
  15810  15808  15811     1   109.5600471 388.275200
  15810  15808  15820     1   110.2600474 425.931200
  15811  15812  15814     1   109.5600471 388.275200
  15811  15819  15822     1   107.2600461 396.643200
  15812  15813  15816     1   110.2200475 386.601600
  15812  15818  15824     1   107.2600461 396.643200
  15812  15811  15815     1   109.5600471 388.275200
  15813  15812  15814     1   109.5600471 388.275200
  15814  15812  15818     1   110.2600474 425.931200
  15815  15811  15819     1   110.2600474 425.931200
  15816  15813  15817     1   109.5800467 425.931200
  15816  15813  15829     1   109.5800467 425.931200
  15821  15827  15828     1   107.2600461 396.643200
  15825  15821  15827     1   110.2600474 425.931200
  15825  15821  15826     1   108.4600466 328.025600
  15826  15821  15827     1   110.2600474 425.931200
  15830  15831  15833     1   109.5600471 388.275200
  15830  15844  15848     1   109.5600471 388.275200
  15830  15844  15849     1   109.5600471 388.275200
  15831  15830  15832     1   109.5600471 388.275200
  15831  15834  15838     1   109.5600471 388.275200
  15831  15843  15846     1   107.2600461 396.643200
  15832  15830  15844     1   109.5600471 388.275200
  15832  15830  15852     1   109.7800468 425.094400
  15833  15831  15834     1   109.5600471 388.275200
  15833  15831  15843     1   110.2600474 425.931200
  15834  15835  15837     1   109.5600471 388.275200
  15834  15842  15845     1   107.2600461 396.643200
  15835  15834  15838     1   109.5600471 388.275200
  15835  15836  15839     1   110.2200475 386.601600
  15835  15841  15847     1   107.2600461 396.643200
  15836  15835  15837     1   109.5600471 388.275200
  15837  15835  15841     1   110.2600474 425.931200
  15838  15834  15842     1   110.2600474 425.931200
  15839  15836  15840     1   109.5800467 425.931200
  15839  15836  15852     1   109.5800467 425.931200
  15844  15850  15851     1   107.2600461 396.643200
  15848  15844  15850     1   110.2600474 425.931200
  15848  15844  15849     1   108.4600466 328.025600
  15849  15844  15850     1   110.2600474 425.931200
  15853  15854  15856     1   109.5600471 388.275200
  15853  15867  15871     1   109.5600471 388.275200
  15853  15867  15872     1   109.5600471 388.275200
  15854  15857  15861     1   109.5600471 388.275200
  15854  15866  15869     1   107.2600461 396.643200
  15854  15853  15855     1   109.5600471 388.275200
  15855  15853  15867     1   109.5600471 388.275200
  15855  15853  15875     1   109.7800468 425.094400
  15856  15854  15857     1   109.5600471 388.275200
  15856  15854  15866     1   110.2600474 425.931200
  15857  15858  15860     1   109.5600471 388.275200
  15857  15865  15868     1   107.2600461 396.643200
  15858  15859  15862     1   110.2200475 386.601600
  15858  15864  15870     1   107.2600461 396.643200
  15858  15857  15861     1   109.5600471 388.275200
  15859  15858  15860     1   109.5600471 388.275200
  15860  15858  15864     1   110.2600474 425.931200
  15861  15857  15865     1   110.2600474 425.931200
  15862  15859  15863     1   109.5800467 425.931200
  15862  15859  15875     1   109.5800467 425.931200
  15867  15873  15874     1   107.2600461 396.643200
  15871  15867  15873     1   110.2600474 425.931200
  15871  15867  15872     1   108.4600466 328.025600
  15872  15867  15873     1   110.2600474 425.931200
  15876  15877  15879     1   109.5600471 388.275200
  15876  15890  15894     1   109.5600471 388.275200
  15876  15890  15895     1   109.5600471 388.275200
  15877  15876  15878     1   109.5600471 388.275200
  15877  15880  15884     1   109.5600471 388.275200
  15877  15889  15892     1   107.2600461 396.643200
  15878  15876  15890     1   109.5600471 388.275200
  15878  15876  15898     1   109.7800468 425.094400
  15879  15877  15880     1   109.5600471 388.275200
  15879  15877  15889     1   110.2600474 425.931200
  15880  15881  15883     1   109.5600471 388.275200
  15880  15888  15891     1   107.2600461 396.643200
  15881  15880  15884     1   109.5600471 388.275200
  15881  15882  15885     1   110.2200475 386.601600
  15881  15887  15893     1   107.2600461 396.643200
  15882  15881  15883     1   109.5600471 388.275200
  15883  15881  15887     1   110.2600474 425.931200
  15884  15880  15888     1   110.2600474 425.931200
  15885  15882  15886     1   109.5800467 425.931200
  15885  15882  15898     1   109.5800467 425.931200
  15890  15896  15897     1   107.2600461 396.643200
  15894  15890  15896     1   110.2600474 425.931200
  15894  15890  15895     1   108.4600466 328.025600
  15895  15890  15896     1   110.2600474 425.931200
  15899  15900  15902     1   109.5600471 388.275200
  15899  15913  15917     1   109.5600471 388.275200
  15899  15913  15918     1   109.5600471 388.275200
  15900  15903  15907     1   109.5600471 388.275200
  15900  15912  15915     1   107.2600461 396.643200
  15900  15899  15901     1   109.5600471 388.275200
  15901  15899  15913     1   109.5600471 388.275200
  15901  15899  15921     1   109.7800468 425.094400
  15902  15900  15903     1   109.5600471 388.275200
  15902  15900  15912     1   110.2600474 425.931200
  15903  15904  15906     1   109.5600471 388.275200
  15903  15911  15914     1   107.2600461 396.643200
  15904  15905  15908     1   110.2200475 386.601600
  15904  15910  15916     1   107.2600461 396.643200
  15904  15903  15907     1   109.5600471 388.275200
  15905  15904  15906     1   109.5600471 388.275200
  15906  15904  15910     1   110.2600474 425.931200
  15907  15903  15911     1   110.2600474 425.931200
  15908  15905  15909     1   109.5800467 425.931200
  15908  15905  15921     1   109.5800467 425.931200
  15913  15919  15920     1   107.2600461 396.643200
  15917  15913  15919     1   110.2600474 425.931200
  15917  15913  15918     1   108.4600466 328.025600
  15918  15913  15919     1   110.2600474 425.931200
  15922  15923  15925     1   109.5600471 388.275200
  15922  15936  15940     1   109.5600471 388.275200
  15922  15936  15941     1   109.5600471 388.275200
  15923  15922  15924     1   109.5600471 388.275200
  15923  15926  15930     1   109.5600471 388.275200
  15923  15935  15938     1   107.2600461 396.643200
  15924  15922  15936     1   109.5600471 388.275200
  15924  15922  15944     1   109.7800468 425.094400
  15925  15923  15926     1   109.5600471 388.275200
  15925  15923  15935     1   110.2600474 425.931200
  15926  15927  15929     1   109.5600471 388.275200
  15926  15934  15937     1   107.2600461 396.643200
  15927  15926  15930     1   109.5600471 388.275200
  15927  15928  15931     1   110.2200475 386.601600
  15927  15933  15939     1   107.2600461 396.643200
  15928  15927  15929     1   109.5600471 388.275200
  15929  15927  15933     1   110.2600474 425.931200
  15930  15926  15934     1   110.2600474 425.931200
  15931  15928  15932     1   109.5800467 425.931200
  15931  15928  15944     1   109.5800467 425.931200
  15936  15942  15943     1   107.2600461 396.643200
  15940  15936  15942     1   110.2600474 425.931200
  15940  15936  15941     1   108.4600466 328.025600
  15941  15936  15942     1   110.2600474 425.931200
  15945  15946  15948     1   109.5600471 388.275200
  15945  15959  15963     1   109.5600471 388.275200
  15945  15959  15964     1   109.5600471 388.275200
  15946  15949  15953     1   109.5600471 388.275200
  15946  15958  15961     1   107.2600461 396.643200
  15946  15945  15947     1   109.5600471 388.275200
  15947  15945  15959     1   109.5600471 388.275200
  15947  15945  15967     1   109.7800468 425.094400
  15948  15946  15949     1   109.5600471 388.275200
  15948  15946  15958     1   110.2600474 425.931200
  15949  15950  15952     1   109.5600471 388.275200
  15949  15957  15960     1   107.2600461 396.643200
  15950  15951  15954     1   110.2200475 386.601600
  15950  15956  15962     1   107.2600461 396.643200
  15950  15949  15953     1   109.5600471 388.275200
  15951  15950  15952     1   109.5600471 388.275200
  15952  15950  15956     1   110.2600474 425.931200
  15953  15949  15957     1   110.2600474 425.931200
  15954  15951  15955     1   109.5800467 425.931200
  15954  15951  15967     1   109.5800467 425.931200
  15959  15965  15966     1   107.2600461 396.643200
  15963  15959  15965     1   110.2600474 425.931200
  15963  15959  15964     1   108.4600466 328.025600
  15964  15959  15965     1   110.2600474 425.931200
  15968  15969  15971     1   109.5600471 388.275200
  15968  15982  15986     1   109.5600471 388.275200
  15968  15982  15987     1   109.5600471 388.275200
  15969  15968  15970     1   109.5600471 388.275200
  15969  15972  15976     1   109.5600471 388.275200
  15969  15981  15984     1   107.2600461 396.643200
  15970  15968  15982     1   109.5600471 388.275200
  15970  15968  15990     1   109.7800468 425.094400
  15971  15969  15972     1   109.5600471 388.275200
  15971  15969  15981     1   110.2600474 425.931200
  15972  15973  15975     1   109.5600471 388.275200
  15972  15980  15983     1   107.2600461 396.643200
  15973  15972  15976     1   109.5600471 388.275200
  15973  15974  15977     1   110.2200475 386.601600
  15973  15979  15985     1   107.2600461 396.643200
  15974  15973  15975     1   109.5600471 388.275200
  15975  15973  15979     1   110.2600474 425.931200
  15976  15972  15980     1   110.2600474 425.931200
  15977  15974  15978     1   109.5800467 425.931200
  15977  15974  15990     1   109.5800467 425.931200
  15982  15988  15989     1   107.2600461 396.643200
  15986  15982  15988     1   110.2600474 425.931200
  15986  15982  15987     1   108.4600466 328.025600
  15987  15982  15988     1   110.2600474 425.931200
  15991  15992  15994     1   109.5600471 388.275200
  15991  16005  16009     1   109.5600471 388.275200
  15991  16005  16010     1   109.5600471 388.275200
  15992  15995  15999     1   109.5600471 388.275200
  15992  16004  16007     1   107.2600461 396.643200
  15992  15991  15993     1   109.5600471 388.275200
  15993  15991  16005     1   109.5600471 388.275200
  15993  15991  16013     1   109.7800468 425.094400
  15994  15992  15995     1   109.5600471 388.275200
  15994  15992  16004     1   110.2600474 425.931200
  15995  15996  15998     1   109.5600471 388.275200
  15995  16003  16006     1   107.2600461 396.643200
  15996  15997  16000     1   110.2200475 386.601600
  15996  16002  16008     1   107.2600461 396.643200
  15996  15995  15999     1   109.5600471 388.275200
  15997  15996  15998     1   109.5600471 388.275200
  15998  15996  16002     1   110.2600474 425.931200
  15999  15995  16003     1   110.2600474 425.931200
  16000  15997  16001     1   109.5800467 425.931200
  16000  15997  16013     1   109.5800467 425.931200
  16005  16011  16012     1   107.2600461 396.643200
  16009  16005  16011     1   110.2600474 425.931200
  16009  16005  16010     1   108.4600466 328.025600
  16010  16005  16011     1   110.2600474 425.931200
  16014  16015  16017     1   109.5600471 388.275200
  16014  16028  16032     1   109.5600471 388.275200
  16014  16028  16033     1   109.5600471 388.275200
  16015  16014  16016     1   109.5600471 388.275200
  16015  16018  16022     1   109.5600471 388.275200
  16015  16027  16030     1   107.2600461 396.643200
  16016  16014  16028     1   109.5600471 388.275200
  16016  16014  16036     1   109.7800468 425.094400
  16017  16015  16018     1   109.5600471 388.275200
  16017  16015  16027     1   110.2600474 425.931200
  16018  16019  16021     1   109.5600471 388.275200
  16018  16026  16029     1   107.2600461 396.643200
  16019  16018  16022     1   109.5600471 388.275200
  16019  16020  16023     1   110.2200475 386.601600
  16019  16025  16031     1   107.2600461 396.643200
  16020  16019  16021     1   109.5600471 388.275200
  16021  16019  16025     1   110.2600474 425.931200
  16022  16018  16026     1   110.2600474 425.931200
  16023  16020  16024     1   109.5800467 425.931200
  16023  16020  16036     1   109.5800467 425.931200
  16028  16034  16035     1   107.2600461 396.643200
  16032  16028  16034     1   110.2600474 425.931200
  16032  16028  16033     1   108.4600466 328.025600
  16033  16028  16034     1   110.2600474 425.931200
  16037  16038  16040     1   109.5600471 388.275200
  16037  16051  16055     1   109.5600471 388.275200
  16037  16051  16056     1   109.5600471 388.275200
  16038  16041  16045     1   109.5600471 388.275200
  16038  16050  16053     1   107.2600461 396.643200
  16038  16037  16039     1   109.5600471 388.275200
  16039  16037  16051     1   109.5600471 388.275200
  16039  16037  16059     1   109.7800468 425.094400
  16040  16038  16041     1   109.5600471 388.275200
  16040  16038  16050     1   110.2600474 425.931200
  16041  16042  16044     1   109.5600471 388.275200
  16041  16049  16052     1   107.2600461 396.643200
  16042  16043  16046     1   110.2200475 386.601600
  16042  16048  16054     1   107.2600461 396.643200
  16042  16041  16045     1   109.5600471 388.275200
  16043  16042  16044     1   109.5600471 388.275200
  16044  16042  16048     1   110.2600474 425.931200
  16045  16041  16049     1   110.2600474 425.931200
  16046  16043  16047     1   109.5800467 425.931200
  16046  16043  16059     1   109.5800467 425.931200
  16051  16057  16058     1   107.2600461 396.643200
  16055  16051  16057     1   110.2600474 425.931200
  16055  16051  16056     1   108.4600466 328.025600
  16056  16051  16057     1   110.2600474 425.931200
  16060  16061  16063     1   109.5600471 388.275200
  16060  16074  16078     1   109.5600471 388.275200
  16060  16074  16079     1   109.5600471 388.275200
  16061  16060  16062     1   109.5600471 388.275200
  16061  16064  16068     1   109.5600471 388.275200
  16061  16073  16076     1   107.2600461 396.643200
  16062  16060  16074     1   109.5600471 388.275200
  16062  16060  16082     1   109.7800468 425.094400
  16063  16061  16064     1   109.5600471 388.275200
  16063  16061  16073     1   110.2600474 425.931200
  16064  16065  16067     1   109.5600471 388.275200
  16064  16072  16075     1   107.2600461 396.643200
  16065  16064  16068     1   109.5600471 388.275200
  16065  16066  16069     1   110.2200475 386.601600
  16065  16071  16077     1   107.2600461 396.643200
  16066  16065  16067     1   109.5600471 388.275200
  16067  16065  16071     1   110.2600474 425.931200
  16068  16064  16072     1   110.2600474 425.931200
  16069  16066  16070     1   109.5800467 425.931200
  16069  16066  16082     1   109.5800467 425.931200
  16074  16080  16081     1   107.2600461 396.643200
  16078  16074  16080     1   110.2600474 425.931200
  16078  16074  16079     1   108.4600466 328.025600
  16079  16074  16080     1   110.2600474 425.931200
  16083  16084  16086     1   109.5600471 388.275200
  16083  16097  16101     1   109.5600471 388.275200
  16083  16097  16102     1   109.5600471 388.275200
  16084  16087  16091     1   109.5600471 388.275200
  16084  16096  16099     1   107.2600461 396.643200
  16084  16083  16085     1   109.5600471 388.275200
  16085  16083  16097     1   109.5600471 388.275200
  16085  16083  16105     1   109.7800468 425.094400
  16086  16084  16087     1   109.5600471 388.275200
  16086  16084  16096     1   110.2600474 425.931200
  16087  16088  16090     1   109.5600471 388.275200
  16087  16095  16098     1   107.2600461 396.643200
  16088  16089  16092     1   110.2200475 386.601600
  16088  16094  16100     1   107.2600461 396.643200
  16088  16087  16091     1   109.5600471 388.275200
  16089  16088  16090     1   109.5600471 388.275200
  16090  16088  16094     1   110.2600474 425.931200
  16091  16087  16095     1   110.2600474 425.931200
  16092  16089  16093     1   109.5800467 425.931200
  16092  16089  16105     1   109.5800467 425.931200
  16097  16103  16104     1   107.2600461 396.643200
  16101  16097  16103     1   110.2600474 425.931200
  16101  16097  16102     1   108.4600466 328.025600
  16102  16097  16103     1   110.2600474 425.931200
  16106  16107  16109     1   109.5600471 388.275200
  16106  16120  16124     1   109.5600471 388.275200
  16106  16120  16125     1   109.5600471 388.275200
  16107  16106  16108     1   109.5600471 388.275200
  16107  16110  16114     1   109.5600471 388.275200
  16107  16119  16122     1   107.2600461 396.643200
  16108  16106  16120     1   109.5600471 388.275200
  16108  16106  16128     1   109.7800468 425.094400
  16109  16107  16110     1   109.5600471 388.275200
  16109  16107  16119     1   110.2600474 425.931200
  16110  16111  16113     1   109.5600471 388.275200
  16110  16118  16121     1   107.2600461 396.643200
  16111  16110  16114     1   109.5600471 388.275200
  16111  16112  16115     1   110.2200475 386.601600
  16111  16117  16123     1   107.2600461 396.643200
  16112  16111  16113     1   109.5600471 388.275200
  16113  16111  16117     1   110.2600474 425.931200
  16114  16110  16118     1   110.2600474 425.931200
  16115  16112  16116     1   109.5800467 425.931200
  16115  16112  16128     1   109.5800467 425.931200
  16120  16126  16127     1   107.2600461 396.643200
  16124  16120  16126     1   110.2600474 425.931200
  16124  16120  16125     1   108.4600466 328.025600
  16125  16120  16126     1   110.2600474 425.931200
  16129  16130  16132     1   109.5600471 388.275200
  16129  16143  16147     1   109.5600471 388.275200
  16129  16143  16148     1   109.5600471 388.275200
  16130  16133  16137     1   109.5600471 388.275200
  16130  16142  16145     1   107.2600461 396.643200
  16130  16129  16131     1   109.5600471 388.275200
  16131  16129  16143     1   109.5600471 388.275200
  16131  16129  16151     1   109.7800468 425.094400
  16132  16130  16133     1   109.5600471 388.275200
  16132  16130  16142     1   110.2600474 425.931200
  16133  16134  16136     1   109.5600471 388.275200
  16133  16141  16144     1   107.2600461 396.643200
  16134  16135  16138     1   110.2200475 386.601600
  16134  16140  16146     1   107.2600461 396.643200
  16134  16133  16137     1   109.5600471 388.275200
  16135  16134  16136     1   109.5600471 388.275200
  16136  16134  16140     1   110.2600474 425.931200
  16137  16133  16141     1   110.2600474 425.931200
  16138  16135  16139     1   109.5800467 425.931200
  16138  16135  16151     1   109.5800467 425.931200
  16143  16149  16150     1   107.2600461 396.643200
  16147  16143  16149     1   110.2600474 425.931200
  16147  16143  16148     1   108.4600466 328.025600
  16148  16143  16149     1   110.2600474 425.931200
  16152  16153  16155     1   109.5600471 388.275200
  16152  16166  16170     1   109.5600471 388.275200
  16152  16166  16171     1   109.5600471 388.275200
  16153  16152  16154     1   109.5600471 388.275200
  16153  16156  16160     1   109.5600471 388.275200
  16153  16165  16168     1   107.2600461 396.643200
  16154  16152  16166     1   109.5600471 388.275200
  16154  16152  16174     1   109.7800468 425.094400
  16155  16153  16156     1   109.5600471 388.275200
  16155  16153  16165     1   110.2600474 425.931200
  16156  16157  16159     1   109.5600471 388.275200
  16156  16164  16167     1   107.2600461 396.643200
  16157  16156  16160     1   109.5600471 388.275200
  16157  16158  16161     1   110.2200475 386.601600
  16157  16163  16169     1   107.2600461 396.643200
  16158  16157  16159     1   109.5600471 388.275200
  16159  16157  16163     1   110.2600474 425.931200
  16160  16156  16164     1   110.2600474 425.931200
  16161  16158  16162     1   109.5800467 425.931200
  16161  16158  16174     1   109.5800467 425.931200
  16166  16172  16173     1   107.2600461 396.643200
  16170  16166  16172     1   110.2600474 425.931200
  16170  16166  16171     1   108.4600466 328.025600
  16171  16166  16172     1   110.2600474 425.931200
  16175  16176  16178     1   109.5600471 388.275200
  16175  16189  16193     1   109.5600471 388.275200
  16175  16189  16194     1   109.5600471 388.275200
  16176  16179  16183     1   109.5600471 388.275200
  16176  16188  16191     1   107.2600461 396.643200
  16176  16175  16177     1   109.5600471 388.275200
  16177  16175  16189     1   109.5600471 388.275200
  16177  16175  16197     1   109.7800468 425.094400
  16178  16176  16179     1   109.5600471 388.275200
  16178  16176  16188     1   110.2600474 425.931200
  16179  16180  16182     1   109.5600471 388.275200
  16179  16187  16190     1   107.2600461 396.643200
  16180  16181  16184     1   110.2200475 386.601600
  16180  16186  16192     1   107.2600461 396.643200
  16180  16179  16183     1   109.5600471 388.275200
  16181  16180  16182     1   109.5600471 388.275200
  16182  16180  16186     1   110.2600474 425.931200
  16183  16179  16187     1   110.2600474 425.931200
  16184  16181  16185     1   109.5800467 425.931200
  16184  16181  16197     1   109.5800467 425.931200
  16189  16195  16196     1   107.2600461 396.643200
  16193  16189  16195     1   110.2600474 425.931200
  16193  16189  16194     1   108.4600466 328.025600
  16194  16189  16195     1   110.2600474 425.931200
  16198  16199  16201     1   109.5600471 388.275200
  16198  16212  16216     1   109.5600471 388.275200
  16198  16212  16217     1   109.5600471 388.275200
  16199  16198  16200     1   109.5600471 388.275200
  16199  16202  16206     1   109.5600471 388.275200
  16199  16211  16214     1   107.2600461 396.643200
  16200  16198  16212     1   109.5600471 388.275200
  16200  16198  16220     1   109.7800468 425.094400
  16201  16199  16202     1   109.5600471 388.275200
  16201  16199  16211     1   110.2600474 425.931200
  16202  16203  16205     1   109.5600471 388.275200
  16202  16210  16213     1   107.2600461 396.643200
  16203  16202  16206     1   109.5600471 388.275200
  16203  16204  16207     1   110.2200475 386.601600
  16203  16209  16215     1   107.2600461 396.643200
  16204  16203  16205     1   109.5600471 388.275200
  16205  16203  16209     1   110.2600474 425.931200
  16206  16202  16210     1   110.2600474 425.931200
  16207  16204  16208     1   109.5800467 425.931200
  16207  16204  16220     1   109.5800467 425.931200
  16212  16218  16219     1   107.2600461 396.643200
  16216  16212  16218     1   110.2600474 425.931200
  16216  16212  16217     1   108.4600466 328.025600
  16217  16212  16218     1   110.2600474 425.931200
  16221  16222  16224     1   109.5600471 388.275200
  16221  16235  16239     1   109.5600471 388.275200
  16221  16235  16240     1   109.5600471 388.275200
  16222  16225  16229     1   109.5600471 388.275200
  16222  16234  16237     1   107.2600461 396.643200
  16222  16221  16223     1   109.5600471 388.275200
  16223  16221  16235     1   109.5600471 388.275200
  16223  16221  16243     1   109.7800468 425.094400
  16224  16222  16225     1   109.5600471 388.275200
  16224  16222  16234     1   110.2600474 425.931200
  16225  16226  16228     1   109.5600471 388.275200
  16225  16233  16236     1   107.2600461 396.643200
  16226  16227  16230     1   110.2200475 386.601600
  16226  16232  16238     1   107.2600461 396.643200
  16226  16225  16229     1   109.5600471 388.275200
  16227  16226  16228     1   109.5600471 388.275200
  16228  16226  16232     1   110.2600474 425.931200
  16229  16225  16233     1   110.2600474 425.931200
  16230  16227  16231     1   109.5800467 425.931200
  16230  16227  16243     1   109.5800467 425.931200
  16235  16241  16242     1   107.2600461 396.643200
  16239  16235  16241     1   110.2600474 425.931200
  16239  16235  16240     1   108.4600466 328.025600
  16240  16235  16241     1   110.2600474 425.931200
  16244  16245  16247     1   109.5600471 388.275200
  16244  16258  16262     1   109.5600471 388.275200
  16244  16258  16263     1   109.5600471 388.275200
  16245  16244  16246     1   109.5600471 388.275200
  16245  16248  16252     1   109.5600471 388.275200
  16245  16257  16260     1   107.2600461 396.643200
  16246  16244  16258     1   109.5600471 388.275200
  16246  16244  16266     1   109.7800468 425.094400
  16247  16245  16248     1   109.5600471 388.275200
  16247  16245  16257     1   110.2600474 425.931200
  16248  16249  16251     1   109.5600471 388.275200
  16248  16256  16259     1   107.2600461 396.643200
  16249  16248  16252     1   109.5600471 388.275200
  16249  16250  16253     1   110.2200475 386.601600
  16249  16255  16261     1   107.2600461 396.643200
  16250  16249  16251     1   109.5600471 388.275200
  16251  16249  16255     1   110.2600474 425.931200
  16252  16248  16256     1   110.2600474 425.931200
  16253  16250  16254     1   109.5800467 425.931200
  16253  16250  16266     1   109.5800467 425.931200
  16258  16264  16265     1   107.2600461 396.643200
  16262  16258  16264     1   110.2600474 425.931200
  16262  16258  16263     1   108.4600466 328.025600
  16263  16258  16264     1   110.2600474 425.931200
  16267  16268  16270     1   109.5600471 388.275200
  16267  16281  16285     1   109.5600471 388.275200
  16267  16281  16286     1   109.5600471 388.275200
  16268  16271  16275     1   109.5600471 388.275200
  16268  16280  16283     1   107.2600461 396.643200
  16268  16267  16269     1   109.5600471 388.275200
  16269  16267  16281     1   109.5600471 388.275200
  16269  16267  16289     1   109.7800468 425.094400
  16270  16268  16271     1   109.5600471 388.275200
  16270  16268  16280     1   110.2600474 425.931200
  16271  16272  16274     1   109.5600471 388.275200
  16271  16279  16282     1   107.2600461 396.643200
  16272  16273  16276     1   110.2200475 386.601600
  16272  16278  16284     1   107.2600461 396.643200
  16272  16271  16275     1   109.5600471 388.275200
  16273  16272  16274     1   109.5600471 388.275200
  16274  16272  16278     1   110.2600474 425.931200
  16275  16271  16279     1   110.2600474 425.931200
  16276  16273  16277     1   109.5800467 425.931200
  16276  16273  16289     1   109.5800467 425.931200
  16281  16287  16288     1   107.2600461 396.643200
  16285  16281  16287     1   110.2600474 425.931200
  16285  16281  16286     1   108.4600466 328.025600
  16286  16281  16287     1   110.2600474 425.931200
  16290  16291  16293     1   109.5600471 388.275200
  16290  16304  16308     1   109.5600471 388.275200
  16290  16304  16309     1   109.5600471 388.275200
  16291  16290  16292     1   109.5600471 388.275200
  16291  16294  16298     1   109.5600471 388.275200
  16291  16303  16306     1   107.2600461 396.643200
  16292  16290  16304     1   109.5600471 388.275200
  16292  16290  16312     1   109.7800468 425.094400
  16293  16291  16294     1   109.5600471 388.275200
  16293  16291  16303     1   110.2600474 425.931200
  16294  16295  16297     1   109.5600471 388.275200
  16294  16302  16305     1   107.2600461 396.643200
  16295  16294  16298     1   109.5600471 388.275200
  16295  16296  16299     1   110.2200475 386.601600
  16295  16301  16307     1   107.2600461 396.643200
  16296  16295  16297     1   109.5600471 388.275200
  16297  16295  16301     1   110.2600474 425.931200
  16298  16294  16302     1   110.2600474 425.931200
  16299  16296  16300     1   109.5800467 425.931200
  16299  16296  16312     1   109.5800467 425.931200
  16304  16310  16311     1   107.2600461 396.643200
  16308  16304  16310     1   110.2600474 425.931200
  16308  16304  16309     1   108.4600466 328.025600
  16309  16304  16310     1   110.2600474 425.931200
  16313  16314  16316     1   109.5600471 388.275200
  16313  16327  16331     1   109.5600471 388.275200
  16313  16327  16332     1   109.5600471 388.275200
  16314  16317  16321     1   109.5600471 388.275200
  16314  16326  16329     1   107.2600461 396.643200
  16314  16313  16315     1   109.5600471 388.275200
  16315  16313  16327     1   109.5600471 388.275200
  16315  16313  16335     1   109.7800468 425.094400
  16316  16314  16317     1   109.5600471 388.275200
  16316  16314  16326     1   110.2600474 425.931200
  16317  16318  16320     1   109.5600471 388.275200
  16317  16325  16328     1   107.2600461 396.643200
  16318  16319  16322     1   110.2200475 386.601600
  16318  16324  16330     1   107.2600461 396.643200
  16318  16317  16321     1   109.5600471 388.275200
  16319  16318  16320     1   109.5600471 388.275200
  16320  16318  16324     1   110.2600474 425.931200
  16321  16317  16325     1   110.2600474 425.931200
  16322  16319  16323     1   109.5800467 425.931200
  16322  16319  16335     1   109.5800467 425.931200
  16327  16333  16334     1   107.2600461 396.643200
  16331  16327  16333     1   110.2600474 425.931200
  16331  16327  16332     1   108.4600466 328.025600
  16332  16327  16333     1   110.2600474 425.931200
  16336  16337  16339     1   109.5600471 388.275200
  16336  16350  16354     1   109.5600471 388.275200
  16336  16350  16355     1   109.5600471 388.275200
  16337  16336  16338     1   109.5600471 388.275200
  16337  16340  16344     1   109.5600471 388.275200
  16337  16349  16352     1   107.2600461 396.643200
  16338  16336  16350     1   109.5600471 388.275200
  16338  16336  16358     1   109.7800468 425.094400
  16339  16337  16340     1   109.5600471 388.275200
  16339  16337  16349     1   110.2600474 425.931200
  16340  16341  16343     1   109.5600471 388.275200
  16340  16348  16351     1   107.2600461 396.643200
  16341  16340  16344     1   109.5600471 388.275200
  16341  16342  16345     1   110.2200475 386.601600
  16341  16347  16353     1   107.2600461 396.643200
  16342  16341  16343     1   109.5600471 388.275200
  16343  16341  16347     1   110.2600474 425.931200
  16344  16340  16348     1   110.2600474 425.931200
  16345  16342  16346     1   109.5800467 425.931200
  16345  16342  16358     1   109.5800467 425.931200
  16350  16356  16357     1   107.2600461 396.643200
  16354  16350  16356     1   110.2600474 425.931200
  16354  16350  16355     1   108.4600466 328.025600
  16355  16350  16356     1   110.2600474 425.931200
  16359  16360  16362     1   109.5600471 388.275200
  16359  16373  16377     1   109.5600471 388.275200
  16359  16373  16378     1   109.5600471 388.275200
  16360  16363  16367     1   109.5600471 388.275200
  16360  16372  16375     1   107.2600461 396.643200
  16360  16359  16361     1   109.5600471 388.275200
  16361  16359  16373     1   109.5600471 388.275200
  16361  16359  16381     1   109.7800468 425.094400
  16362  16360  16363     1   109.5600471 388.275200
  16362  16360  16372     1   110.2600474 425.931200
  16363  16364  16366     1   109.5600471 388.275200
  16363  16371  16374     1   107.2600461 396.643200
  16364  16365  16368     1   110.2200475 386.601600
  16364  16370  16376     1   107.2600461 396.643200
  16364  16363  16367     1   109.5600471 388.275200
  16365  16364  16366     1   109.5600471 388.275200
  16366  16364  16370     1   110.2600474 425.931200
  16367  16363  16371     1   110.2600474 425.931200
  16368  16365  16369     1   109.5800467 425.931200
  16368  16365  16381     1   109.5800467 425.931200
  16373  16379  16380     1   107.2600461 396.643200
  16377  16373  16379     1   110.2600474 425.931200
  16377  16373  16378     1   108.4600466 328.025600
  16378  16373  16379     1   110.2600474 425.931200
  16382  16383  16385     1   109.5600471 388.275200
  16382  16396  16400     1   109.5600471 388.275200
  16382  16396  16401     1   109.5600471 388.275200
  16383  16382  16384     1   109.5600471 388.275200
  16383  16386  16390     1   109.5600471 388.275200
  16383  16395  16398     1   107.2600461 396.643200
  16384  16382  16396     1   109.5600471 388.275200
  16384  16382  16404     1   109.7800468 425.094400
  16385  16383  16386     1   109.5600471 388.275200
  16385  16383  16395     1   110.2600474 425.931200
  16386  16387  16389     1   109.5600471 388.275200
  16386  16394  16397     1   107.2600461 396.643200
  16387  16386  16390     1   109.5600471 388.275200
  16387  16388  16391     1   110.2200475 386.601600
  16387  16393  16399     1   107.2600461 396.643200
  16388  16387  16389     1   109.5600471 388.275200
  16389  16387  16393     1   110.2600474 425.931200
  16390  16386  16394     1   110.2600474 425.931200
  16391  16388  16392     1   109.5800467 425.931200
  16391  16388  16404     1   109.5800467 425.931200
  16396  16402  16403     1   107.2600461 396.643200
  16400  16396  16402     1   110.2600474 425.931200
  16400  16396  16401     1   108.4600466 328.025600
  16401  16396  16402     1   110.2600474 425.931200
  16405  16406  16408     1   109.5600471 388.275200
  16405  16419  16423     1   109.5600471 388.275200
  16405  16419  16424     1   109.5600471 388.275200
  16406  16409  16413     1   109.5600471 388.275200
  16406  16418  16421     1   107.2600461 396.643200
  16406  16405  16407     1   109.5600471 388.275200
  16407  16405  16419     1   109.5600471 388.275200
  16407  16405  16427     1   109.7800468 425.094400
  16408  16406  16409     1   109.5600471 388.275200
  16408  16406  16418     1   110.2600474 425.931200
  16409  16410  16412     1   109.5600471 388.275200
  16409  16417  16420     1   107.2600461 396.643200
  16410  16411  16414     1   110.2200475 386.601600
  16410  16416  16422     1   107.2600461 396.643200
  16410  16409  16413     1   109.5600471 388.275200
  16411  16410  16412     1   109.5600471 388.275200
  16412  16410  16416     1   110.2600474 425.931200
  16413  16409  16417     1   110.2600474 425.931200
  16414  16411  16415     1   109.5800467 425.931200
  16414  16411  16427     1   109.5800467 425.931200
  16419  16425  16426     1   107.2600461 396.643200
  16423  16419  16425     1   110.2600474 425.931200
  16423  16419  16424     1   108.4600466 328.025600
  16424  16419  16425     1   110.2600474 425.931200
  16428  16429  16431     1   109.5600471 388.275200
  16428  16442  16446     1   109.5600471 388.275200
  16428  16442  16447     1   109.5600471 388.275200
  16429  16428  16430     1   109.5600471 388.275200
  16429  16432  16436     1   109.5600471 388.275200
  16429  16441  16444     1   107.2600461 396.643200
  16430  16428  16442     1   109.5600471 388.275200
  16430  16428  16450     1   109.7800468 425.094400
  16431  16429  16432     1   109.5600471 388.275200
  16431  16429  16441     1   110.2600474 425.931200
  16432  16433  16435     1   109.5600471 388.275200
  16432  16440  16443     1   107.2600461 396.643200
  16433  16432  16436     1   109.5600471 388.275200
  16433  16434  16437     1   110.2200475 386.601600
  16433  16439  16445     1   107.2600461 396.643200
  16434  16433  16435     1   109.5600471 388.275200
  16435  16433  16439     1   110.2600474 425.931200
  16436  16432  16440     1   110.2600474 425.931200
  16437  16434  16438     1   109.5800467 425.931200
  16437  16434  16450     1   109.5800467 425.931200
  16442  16448  16449     1   107.2600461 396.643200
  16446  16442  16448     1   110.2600474 425.931200
  16446  16442  16447     1   108.4600466 328.025600
  16447  16442  16448     1   110.2600474 425.931200
  16451  16452  16454     1   109.5600471 388.275200
  16451  16465  16469     1   109.5600471 388.275200
  16451  16465  16470     1   109.5600471 388.275200
  16452  16455  16459     1   109.5600471 388.275200
  16452  16464  16467     1   107.2600461 396.643200
  16452  16451  16453     1   109.5600471 388.275200
  16453  16451  16465     1   109.5600471 388.275200
  16453  16451  16473     1   109.7800468 425.094400
  16454  16452  16455     1   109.5600471 388.275200
  16454  16452  16464     1   110.2600474 425.931200
  16455  16456  16458     1   109.5600471 388.275200
  16455  16463  16466     1   107.2600461 396.643200
  16456  16457  16460     1   110.2200475 386.601600
  16456  16462  16468     1   107.2600461 396.643200
  16456  16455  16459     1   109.5600471 388.275200
  16457  16456  16458     1   109.5600471 388.275200
  16458  16456  16462     1   110.2600474 425.931200
  16459  16455  16463     1   110.2600474 425.931200
  16460  16457  16461     1   109.5800467 425.931200
  16460  16457  16473     1   109.5800467 425.931200
  16465  16471  16472     1   107.2600461 396.643200
  16469  16465  16471     1   110.2600474 425.931200
  16469  16465  16470     1   108.4600466 328.025600
  16470  16465  16471     1   110.2600474 425.931200
  16474  16475  16477     1   109.5600471 388.275200
  16474  16488  16492     1   109.5600471 388.275200
  16474  16488  16493     1   109.5600471 388.275200
  16475  16474  16476     1   109.5600471 388.275200
  16475  16478  16482     1   109.5600471 388.275200
  16475  16487  16490     1   107.2600461 396.643200
  16476  16474  16488     1   109.5600471 388.275200
  16476  16474  16496     1   109.7800468 425.094400
  16477  16475  16478     1   109.5600471 388.275200
  16477  16475  16487     1   110.2600474 425.931200
  16478  16479  16481     1   109.5600471 388.275200
  16478  16486  16489     1   107.2600461 396.643200
  16479  16478  16482     1   109.5600471 388.275200
  16479  16480  16483     1   110.2200475 386.601600
  16479  16485  16491     1   107.2600461 396.643200
  16480  16479  16481     1   109.5600471 388.275200
  16481  16479  16485     1   110.2600474 425.931200
  16482  16478  16486     1   110.2600474 425.931200
  16483  16480  16484     1   109.5800467 425.931200
  16483  16480  16496     1   109.5800467 425.931200
  16488  16494  16495     1   107.2600461 396.643200
  16492  16488  16494     1   110.2600474 425.931200
  16492  16488  16493     1   108.4600466 328.025600
  16493  16488  16494     1   110.2600474 425.931200
  16497  16498  16500     1   109.5600471 388.275200
  16497  16511  16515     1   109.5600471 388.275200
  16497  16511  16516     1   109.5600471 388.275200
  16498  16501  16505     1   109.5600471 388.275200
  16498  16510  16513     1   107.2600461 396.643200
  16498  16497  16499     1   109.5600471 388.275200
  16499  16497  16511     1   109.5600471 388.275200
  16499  16497  16519     1   109.7800468 425.094400
  16500  16498  16501     1   109.5600471 388.275200
  16500  16498  16510     1   110.2600474 425.931200
  16501  16502  16504     1   109.5600471 388.275200
  16501  16509  16512     1   107.2600461 396.643200
  16502  16503  16506     1   110.2200475 386.601600
  16502  16508  16514     1   107.2600461 396.643200
  16502  16501  16505     1   109.5600471 388.275200
  16503  16502  16504     1   109.5600471 388.275200
  16504  16502  16508     1   110.2600474 425.931200
  16505  16501  16509     1   110.2600474 425.931200
  16506  16503  16507     1   109.5800467 425.931200
  16506  16503  16519     1   109.5800467 425.931200
  16511  16517  16518     1   107.2600461 396.643200
  16515  16511  16517     1   110.2600474 425.931200
  16515  16511  16516     1   108.4600466 328.025600
  16516  16511  16517     1   110.2600474 425.931200
  16520  16521  16523     1   109.5600471 388.275200
  16520  16534  16538     1   109.5600471 388.275200
  16520  16534  16539     1   109.5600471 388.275200
  16521  16520  16522     1   109.5600471 388.275200
  16521  16524  16528     1   109.5600471 388.275200
  16521  16533  16536     1   107.2600461 396.643200
  16522  16520  16534     1   109.5600471 388.275200
  16522  16520  16542     1   109.7800468 425.094400
  16523  16521  16524     1   109.5600471 388.275200
  16523  16521  16533     1   110.2600474 425.931200
  16524  16525  16527     1   109.5600471 388.275200
  16524  16532  16535     1   107.2600461 396.643200
  16525  16524  16528     1   109.5600471 388.275200
  16525  16526  16529     1   110.2200475 386.601600
  16525  16531  16537     1   107.2600461 396.643200
  16526  16525  16527     1   109.5600471 388.275200
  16527  16525  16531     1   110.2600474 425.931200
  16528  16524  16532     1   110.2600474 425.931200
  16529  16526  16530     1   109.5800467 425.931200
  16529  16526  16542     1   109.5800467 425.931200
  16534  16540  16541     1   107.2600461 396.643200
  16538  16534  16540     1   110.2600474 425.931200
  16538  16534  16539     1   108.4600466 328.025600
  16539  16534  16540     1   110.2600474 425.931200
  16543  16544  16546     1   109.5600471 388.275200
  16543  16557  16561     1   109.5600471 388.275200
  16543  16557  16562     1   109.5600471 388.275200
  16544  16547  16551     1   109.5600471 388.275200
  16544  16556  16559     1   107.2600461 396.643200
  16544  16543  16545     1   109.5600471 388.275200
  16545  16543  16557     1   109.5600471 388.275200
  16545  16543  16565     1   109.7800468 425.094400
  16546  16544  16547     1   109.5600471 388.275200
  16546  16544  16556     1   110.2600474 425.931200
  16547  16548  16550     1   109.5600471 388.275200
  16547  16555  16558     1   107.2600461 396.643200
  16548  16549  16552     1   110.2200475 386.601600
  16548  16554  16560     1   107.2600461 396.643200
  16548  16547  16551     1   109.5600471 388.275200
  16549  16548  16550     1   109.5600471 388.275200
  16550  16548  16554     1   110.2600474 425.931200
  16551  16547  16555     1   110.2600474 425.931200
  16552  16549  16553     1   109.5800467 425.931200
  16552  16549  16565     1   109.5800467 425.931200
  16557  16563  16564     1   107.2600461 396.643200
  16561  16557  16563     1   110.2600474 425.931200
  16561  16557  16562     1   108.4600466 328.025600
  16562  16557  16563     1   110.2600474 425.931200
  16566  16567  16569     1   109.5600471 388.275200
  16566  16580  16584     1   109.5600471 388.275200
  16566  16580  16585     1   109.5600471 388.275200
  16567  16566  16568     1   109.5600471 388.275200
  16567  16570  16574     1   109.5600471 388.275200
  16567  16579  16582     1   107.2600461 396.643200
  16568  16566  16580     1   109.5600471 388.275200
  16568  16566  16588     1   109.7800468 425.094400
  16569  16567  16570     1   109.5600471 388.275200
  16569  16567  16579     1   110.2600474 425.931200
  16570  16571  16573     1   109.5600471 388.275200
  16570  16578  16581     1   107.2600461 396.643200
  16571  16570  16574     1   109.5600471 388.275200
  16571  16572  16575     1   110.2200475 386.601600
  16571  16577  16583     1   107.2600461 396.643200
  16572  16571  16573     1   109.5600471 388.275200
  16573  16571  16577     1   110.2600474 425.931200
  16574  16570  16578     1   110.2600474 425.931200
  16575  16572  16576     1   109.5800467 425.931200
  16575  16572  16588     1   109.5800467 425.931200
  16580  16586  16587     1   107.2600461 396.643200
  16584  16580  16586     1   110.2600474 425.931200
  16584  16580  16585     1   108.4600466 328.025600
  16585  16580  16586     1   110.2600474 425.931200
  16589  16590  16592     1   109.5600471 388.275200
  16589  16603  16607     1   109.5600471 388.275200
  16589  16603  16608     1   109.5600471 388.275200
  16590  16593  16597     1   109.5600471 388.275200
  16590  16602  16605     1   107.2600461 396.643200
  16590  16589  16591     1   109.5600471 388.275200
  16591  16589  16603     1   109.5600471 388.275200
  16591  16589  16611     1   109.7800468 425.094400
  16592  16590  16593     1   109.5600471 388.275200
  16592  16590  16602     1   110.2600474 425.931200
  16593  16594  16596     1   109.5600471 388.275200
  16593  16601  16604     1   107.2600461 396.643200
  16594  16595  16598     1   110.2200475 386.601600
  16594  16600  16606     1   107.2600461 396.643200
  16594  16593  16597     1   109.5600471 388.275200
  16595  16594  16596     1   109.5600471 388.275200
  16596  16594  16600     1   110.2600474 425.931200
  16597  16593  16601     1   110.2600474 425.931200
  16598  16595  16599     1   109.5800467 425.931200
  16598  16595  16611     1   109.5800467 425.931200
  16603  16609  16610     1   107.2600461 396.643200
  16607  16603  16609     1   110.2600474 425.931200
  16607  16603  16608     1   108.4600466 328.025600
  16608  16603  16609     1   110.2600474 425.931200
  16612  16613  16615     1   109.5600471 388.275200
  16612  16626  16630     1   109.5600471 388.275200
  16612  16626  16631     1   109.5600471 388.275200
  16613  16612  16614     1   109.5600471 388.275200
  16613  16616  16620     1   109.5600471 388.275200
  16613  16625  16628     1   107.2600461 396.643200
  16614  16612  16626     1   109.5600471 388.275200
  16614  16612  16634     1   109.7800468 425.094400
  16615  16613  16616     1   109.5600471 388.275200
  16615  16613  16625     1   110.2600474 425.931200
  16616  16617  16619     1   109.5600471 388.275200
  16616  16624  16627     1   107.2600461 396.643200
  16617  16616  16620     1   109.5600471 388.275200
  16617  16618  16621     1   110.2200475 386.601600
  16617  16623  16629     1   107.2600461 396.643200
  16618  16617  16619     1   109.5600471 388.275200
  16619  16617  16623     1   110.2600474 425.931200
  16620  16616  16624     1   110.2600474 425.931200
  16621  16618  16622     1   109.5800467 425.931200
  16621  16618  16634     1   109.5800467 425.931200
  16626  16632  16633     1   107.2600461 396.643200
  16630  16626  16632     1   110.2600474 425.931200
  16630  16626  16631     1   108.4600466 328.025600
  16631  16626  16632     1   110.2600474 425.931200
  16635  16636  16638     1   109.5600471 388.275200
  16635  16649  16653     1   109.5600471 388.275200
  16635  16649  16654     1   109.5600471 388.275200
  16636  16639  16643     1   109.5600471 388.275200
  16636  16648  16651     1   107.2600461 396.643200
  16636  16635  16637     1   109.5600471 388.275200
  16637  16635  16649     1   109.5600471 388.275200
  16637  16635  16657     1   109.7800468 425.094400
  16638  16636  16639     1   109.5600471 388.275200
  16638  16636  16648     1   110.2600474 425.931200
  16639  16640  16642     1   109.5600471 388.275200
  16639  16647  16650     1   107.2600461 396.643200
  16640  16641  16644     1   110.2200475 386.601600
  16640  16646  16652     1   107.2600461 396.643200
  16640  16639  16643     1   109.5600471 388.275200
  16641  16640  16642     1   109.5600471 388.275200
  16642  16640  16646     1   110.2600474 425.931200
  16643  16639  16647     1   110.2600474 425.931200
  16644  16641  16645     1   109.5800467 425.931200
  16644  16641  16657     1   109.5800467 425.931200
  16649  16655  16656     1   107.2600461 396.643200
  16653  16649  16655     1   110.2600474 425.931200
  16653  16649  16654     1   108.4600466 328.025600
  16654  16649  16655     1   110.2600474 425.931200
  16658  16659  16661     1   109.5600471 388.275200
  16658  16672  16676     1   109.5600471 388.275200
  16658  16672  16677     1   109.5600471 388.275200
  16659  16658  16660     1   109.5600471 388.275200
  16659  16662  16666     1   109.5600471 388.275200
  16659  16671  16674     1   107.2600461 396.643200
  16660  16658  16672     1   109.5600471 388.275200
  16660  16658  16680     1   109.7800468 425.094400
  16661  16659  16662     1   109.5600471 388.275200
  16661  16659  16671     1   110.2600474 425.931200
  16662  16663  16665     1   109.5600471 388.275200
  16662  16670  16673     1   107.2600461 396.643200
  16663  16662  16666     1   109.5600471 388.275200
  16663  16664  16667     1   110.2200475 386.601600
  16663  16669  16675     1   107.2600461 396.643200
  16664  16663  16665     1   109.5600471 388.275200
  16665  16663  16669     1   110.2600474 425.931200
  16666  16662  16670     1   110.2600474 425.931200
  16667  16664  16668     1   109.5800467 425.931200
  16667  16664  16680     1   109.5800467 425.931200
  16672  16678  16679     1   107.2600461 396.643200
  16676  16672  16678     1   110.2600474 425.931200
  16676  16672  16677     1   108.4600466 328.025600
  16677  16672  16678     1   110.2600474 425.931200
  16681  16682  16684     1   109.5600471 388.275200
  16681  16695  16699     1   109.5600471 388.275200
  16681  16695  16700     1   109.5600471 388.275200
  16682  16685  16689     1   109.5600471 388.275200
  16682  16694  16697     1   107.2600461 396.643200
  16682  16681  16683     1   109.5600471 388.275200
  16683  16681  16695     1   109.5600471 388.275200
  16683  16681  16703     1   109.7800468 425.094400
  16684  16682  16685     1   109.5600471 388.275200
  16684  16682  16694     1   110.2600474 425.931200
  16685  16686  16688     1   109.5600471 388.275200
  16685  16693  16696     1   107.2600461 396.643200
  16686  16687  16690     1   110.2200475 386.601600
  16686  16692  16698     1   107.2600461 396.643200
  16686  16685  16689     1   109.5600471 388.275200
  16687  16686  16688     1   109.5600471 388.275200
  16688  16686  16692     1   110.2600474 425.931200
  16689  16685  16693     1   110.2600474 425.931200
  16690  16687  16691     1   109.5800467 425.931200
  16690  16687  16703     1   109.5800467 425.931200
  16695  16701  16702     1   107.2600461 396.643200
  16699  16695  16701     1   110.2600474 425.931200
  16699  16695  16700     1   108.4600466 328.025600
  16700  16695  16701     1   110.2600474 425.931200
  16704  16705  16707     1   109.5600471 388.275200
  16704  16718  16722     1   109.5600471 388.275200
  16704  16718  16723     1   109.5600471 388.275200
  16705  16704  16706     1   109.5600471 388.275200
  16705  16708  16712     1   109.5600471 388.275200
  16705  16717  16720     1   107.2600461 396.643200
  16706  16704  16718     1   109.5600471 388.275200
  16706  16704  16726     1   109.7800468 425.094400
  16707  16705  16708     1   109.5600471 388.275200
  16707  16705  16717     1   110.2600474 425.931200
  16708  16709  16711     1   109.5600471 388.275200
  16708  16716  16719     1   107.2600461 396.643200
  16709  16708  16712     1   109.5600471 388.275200
  16709  16710  16713     1   110.2200475 386.601600
  16709  16715  16721     1   107.2600461 396.643200
  16710  16709  16711     1   109.5600471 388.275200
  16711  16709  16715     1   110.2600474 425.931200
  16712  16708  16716     1   110.2600474 425.931200
  16713  16710  16714     1   109.5800467 425.931200
  16713  16710  16726     1   109.5800467 425.931200
  16718  16724  16725     1   107.2600461 396.643200
  16722  16718  16724     1   110.2600474 425.931200
  16722  16718  16723     1   108.4600466 328.025600
  16723  16718  16724     1   110.2600474 425.931200
  16727  16728  16730     1   109.5600471 388.275200
  16727  16741  16745     1   109.5600471 388.275200
  16727  16741  16746     1   109.5600471 388.275200
  16728  16731  16735     1   109.5600471 388.275200
  16728  16740  16743     1   107.2600461 396.643200
  16728  16727  16729     1   109.5600471 388.275200
  16729  16727  16741     1   109.5600471 388.275200
  16729  16727  16749     1   109.7800468 425.094400
  16730  16728  16731     1   109.5600471 388.275200
  16730  16728  16740     1   110.2600474 425.931200
  16731  16732  16734     1   109.5600471 388.275200
  16731  16739  16742     1   107.2600461 396.643200
  16732  16733  16736     1   110.2200475 386.601600
  16732  16738  16744     1   107.2600461 396.643200
  16732  16731  16735     1   109.5600471 388.275200
  16733  16732  16734     1   109.5600471 388.275200
  16734  16732  16738     1   110.2600474 425.931200
  16735  16731  16739     1   110.2600474 425.931200
  16736  16733  16737     1   109.5800467 425.931200
  16736  16733  16749     1   109.5800467 425.931200
  16741  16747  16748     1   107.2600461 396.643200
  16745  16741  16747     1   110.2600474 425.931200
  16745  16741  16746     1   108.4600466 328.025600
  16746  16741  16747     1   110.2600474 425.931200
  16750  16751  16753     1   109.5600471 388.275200
  16750  16764  16768     1   109.5600471 388.275200
  16750  16764  16769     1   109.5600471 388.275200
  16751  16750  16752     1   109.5600471 388.275200
  16751  16754  16758     1   109.5600471 388.275200
  16751  16763  16766     1   107.2600461 396.643200
  16752  16750  16764     1   109.5600471 388.275200
  16752  16750  16772     1   109.7800468 425.094400
  16753  16751  16754     1   109.5600471 388.275200
  16753  16751  16763     1   110.2600474 425.931200
  16754  16755  16757     1   109.5600471 388.275200
  16754  16762  16765     1   107.2600461 396.643200
  16755  16754  16758     1   109.5600471 388.275200
  16755  16756  16759     1   110.2200475 386.601600
  16755  16761  16767     1   107.2600461 396.643200
  16756  16755  16757     1   109.5600471 388.275200
  16757  16755  16761     1   110.2600474 425.931200
  16758  16754  16762     1   110.2600474 425.931200
  16759  16756  16760     1   109.5800467 425.931200
  16759  16756  16772     1   109.5800467 425.931200
  16764  16770  16771     1   107.2600461 396.643200
  16768  16764  16770     1   110.2600474 425.931200
  16768  16764  16769     1   108.4600466 328.025600
  16769  16764  16770     1   110.2600474 425.931200
  16773  16774  16776     1   109.5600471 388.275200
  16773  16787  16791     1   109.5600471 388.275200
  16773  16787  16792     1   109.5600471 388.275200
  16774  16777  16781     1   109.5600471 388.275200
  16774  16786  16789     1   107.2600461 396.643200
  16774  16773  16775     1   109.5600471 388.275200
  16775  16773  16787     1   109.5600471 388.275200
  16775  16773  16795     1   109.7800468 425.094400
  16776  16774  16777     1   109.5600471 388.275200
  16776  16774  16786     1   110.2600474 425.931200
  16777  16778  16780     1   109.5600471 388.275200
  16777  16785  16788     1   107.2600461 396.643200
  16778  16779  16782     1   110.2200475 386.601600
  16778  16784  16790     1   107.2600461 396.643200
  16778  16777  16781     1   109.5600471 388.275200
  16779  16778  16780     1   109.5600471 388.275200
  16780  16778  16784     1   110.2600474 425.931200
  16781  16777  16785     1   110.2600474 425.931200
  16782  16779  16783     1   109.5800467 425.931200
  16782  16779  16795     1   109.5800467 425.931200
  16787  16793  16794     1   107.2600461 396.643200
  16791  16787  16793     1   110.2600474 425.931200
  16791  16787  16792     1   108.4600466 328.025600
  16792  16787  16793     1   110.2600474 425.931200
  16796  16797  16799     1   109.5600471 388.275200
  16796  16810  16814     1   109.5600471 388.275200
  16796  16810  16815     1   109.5600471 388.275200
  16797  16796  16798     1   109.5600471 388.275200
  16797  16800  16804     1   109.5600471 388.275200
  16797  16809  16812     1   107.2600461 396.643200
  16798  16796  16810     1   109.5600471 388.275200
  16798  16796  16818     1   109.7800468 425.094400
  16799  16797  16800     1   109.5600471 388.275200
  16799  16797  16809     1   110.2600474 425.931200
  16800  16801  16803     1   109.5600471 388.275200
  16800  16808  16811     1   107.2600461 396.643200
  16801  16800  16804     1   109.5600471 388.275200
  16801  16802  16805     1   110.2200475 386.601600
  16801  16807  16813     1   107.2600461 396.643200
  16802  16801  16803     1   109.5600471 388.275200
  16803  16801  16807     1   110.2600474 425.931200
  16804  16800  16808     1   110.2600474 425.931200
  16805  16802  16806     1   109.5800467 425.931200
  16805  16802  16818     1   109.5800467 425.931200
  16810  16816  16817     1   107.2600461 396.643200
  16814  16810  16816     1   110.2600474 425.931200
  16814  16810  16815     1   108.4600466 328.025600
  16815  16810  16816     1   110.2600474 425.931200
  16819  16820  16822     1   109.5600471 388.275200
  16819  16833  16837     1   109.5600471 388.275200
  16819  16833  16838     1   109.5600471 388.275200
  16820  16823  16827     1   109.5600471 388.275200
  16820  16832  16835     1   107.2600461 396.643200
  16820  16819  16821     1   109.5600471 388.275200
  16821  16819  16833     1   109.5600471 388.275200
  16821  16819  16841     1   109.7800468 425.094400
  16822  16820  16823     1   109.5600471 388.275200
  16822  16820  16832     1   110.2600474 425.931200
  16823  16824  16826     1   109.5600471 388.275200
  16823  16831  16834     1   107.2600461 396.643200
  16824  16825  16828     1   110.2200475 386.601600
  16824  16830  16836     1   107.2600461 396.643200
  16824  16823  16827     1   109.5600471 388.275200
  16825  16824  16826     1   109.5600471 388.275200
  16826  16824  16830     1   110.2600474 425.931200
  16827  16823  16831     1   110.2600474 425.931200
  16828  16825  16829     1   109.5800467 425.931200
  16828  16825  16841     1   109.5800467 425.931200
  16833  16839  16840     1   107.2600461 396.643200
  16837  16833  16839     1   110.2600474 425.931200
  16837  16833  16838     1   108.4600466 328.025600
  16838  16833  16839     1   110.2600474 425.931200
  16842  16843  16845     1   109.5600471 388.275200
  16842  16856  16860     1   109.5600471 388.275200
  16842  16856  16861     1   109.5600471 388.275200
  16843  16842  16844     1   109.5600471 388.275200
  16843  16846  16850     1   109.5600471 388.275200
  16843  16855  16858     1   107.2600461 396.643200
  16844  16842  16856     1   109.5600471 388.275200
  16844  16842  16864     1   109.7800468 425.094400
  16845  16843  16846     1   109.5600471 388.275200
  16845  16843  16855     1   110.2600474 425.931200
  16846  16847  16849     1   109.5600471 388.275200
  16846  16854  16857     1   107.2600461 396.643200
  16847  16846  16850     1   109.5600471 388.275200
  16847  16848  16851     1   110.2200475 386.601600
  16847  16853  16859     1   107.2600461 396.643200
  16848  16847  16849     1   109.5600471 388.275200
  16849  16847  16853     1   110.2600474 425.931200
  16850  16846  16854     1   110.2600474 425.931200
  16851  16848  16852     1   109.5800467 425.931200
  16851  16848  16864     1   109.5800467 425.931200
  16856  16862  16863     1   107.2600461 396.643200
  16860  16856  16862     1   110.2600474 425.931200
  16860  16856  16861     1   108.4600466 328.025600
  16861  16856  16862     1   110.2600474 425.931200
  16865  16866  16868     1   109.5600471 388.275200
  16865  16879  16883     1   109.5600471 388.275200
  16865  16879  16884     1   109.5600471 388.275200
  16866  16869  16873     1   109.5600471 388.275200
  16866  16878  16881     1   107.2600461 396.643200
  16866  16865  16867     1   109.5600471 388.275200
  16867  16865  16879     1   109.5600471 388.275200
  16867  16865  16887     1   109.7800468 425.094400
  16868  16866  16869     1   109.5600471 388.275200
  16868  16866  16878     1   110.2600474 425.931200
  16869  16870  16872     1   109.5600471 388.275200
  16869  16877  16880     1   107.2600461 396.643200
  16870  16871  16874     1   110.2200475 386.601600
  16870  16876  16882     1   107.2600461 396.643200
  16870  16869  16873     1   109.5600471 388.275200
  16871  16870  16872     1   109.5600471 388.275200
  16872  16870  16876     1   110.2600474 425.931200
  16873  16869  16877     1   110.2600474 425.931200
  16874  16871  16875     1   109.5800467 425.931200
  16874  16871  16887     1   109.5800467 425.931200
  16879  16885  16886     1   107.2600461 396.643200
  16883  16879  16885     1   110.2600474 425.931200
  16883  16879  16884     1   108.4600466 328.025600
  16884  16879  16885     1   110.2600474 425.931200
  16888  16889  16891     1   109.5600471 388.275200
  16888  16902  16906     1   109.5600471 388.275200
  16888  16902  16907     1   109.5600471 388.275200
  16889  16888  16890     1   109.5600471 388.275200
  16889  16892  16896     1   109.5600471 388.275200
  16889  16901  16904     1   107.2600461 396.643200
  16890  16888  16902     1   109.5600471 388.275200
  16890  16888  16910     1   109.7800468 425.094400
  16891  16889  16892     1   109.5600471 388.275200
  16891  16889  16901     1   110.2600474 425.931200
  16892  16893  16895     1   109.5600471 388.275200
  16892  16900  16903     1   107.2600461 396.643200
  16893  16892  16896     1   109.5600471 388.275200
  16893  16894  16897     1   110.2200475 386.601600
  16893  16899  16905     1   107.2600461 396.643200
  16894  16893  16895     1   109.5600471 388.275200
  16895  16893  16899     1   110.2600474 425.931200
  16896  16892  16900     1   110.2600474 425.931200
  16897  16894  16898     1   109.5800467 425.931200
  16897  16894  16910     1   109.5800467 425.931200
  16902  16908  16909     1   107.2600461 396.643200
  16906  16902  16908     1   110.2600474 425.931200
  16906  16902  16907     1   108.4600466 328.025600
  16907  16902  16908     1   110.2600474 425.931200
  16911  16912  16914     1   109.5600471 388.275200
  16911  16925  16929     1   109.5600471 388.275200
  16911  16925  16930     1   109.5600471 388.275200
  16912  16915  16919     1   109.5600471 388.275200
  16912  16924  16927     1   107.2600461 396.643200
  16912  16911  16913     1   109.5600471 388.275200
  16913  16911  16925     1   109.5600471 388.275200
  16913  16911  16933     1   109.7800468 425.094400
  16914  16912  16915     1   109.5600471 388.275200
  16914  16912  16924     1   110.2600474 425.931200
  16915  16916  16918     1   109.5600471 388.275200
  16915  16923  16926     1   107.2600461 396.643200
  16916  16917  16920     1   110.2200475 386.601600
  16916  16922  16928     1   107.2600461 396.643200
  16916  16915  16919     1   109.5600471 388.275200
  16917  16916  16918     1   109.5600471 388.275200
  16918  16916  16922     1   110.2600474 425.931200
  16919  16915  16923     1   110.2600474 425.931200
  16920  16917  16921     1   109.5800467 425.931200
  16920  16917  16933     1   109.5800467 425.931200
  16925  16931  16932     1   107.2600461 396.643200
  16929  16925  16931     1   110.2600474 425.931200
  16929  16925  16930     1   108.4600466 328.025600
  16930  16925  16931     1   110.2600474 425.931200
  16934  16935  16937     1   109.5600471 388.275200
  16934  16948  16952     1   109.5600471 388.275200
  16934  16948  16953     1   109.5600471 388.275200
  16935  16934  16936     1   109.5600471 388.275200
  16935  16938  16942     1   109.5600471 388.275200
  16935  16947  16950     1   107.2600461 396.643200
  16936  16934  16948     1   109.5600471 388.275200
  16936  16934  16956     1   109.7800468 425.094400
  16937  16935  16938     1   109.5600471 388.275200
  16937  16935  16947     1   110.2600474 425.931200
  16938  16939  16941     1   109.5600471 388.275200
  16938  16946  16949     1   107.2600461 396.643200
  16939  16938  16942     1   109.5600471 388.275200
  16939  16940  16943     1   110.2200475 386.601600
  16939  16945  16951     1   107.2600461 396.643200
  16940  16939  16941     1   109.5600471 388.275200
  16941  16939  16945     1   110.2600474 425.931200
  16942  16938  16946     1   110.2600474 425.931200
  16943  16940  16944     1   109.5800467 425.931200
  16943  16940  16956     1   109.5800467 425.931200
  16948  16954  16955     1   107.2600461 396.643200
  16952  16948  16954     1   110.2600474 425.931200
  16952  16948  16953     1   108.4600466 328.025600
  16953  16948  16954     1   110.2600474 425.931200
  16957  16958  16960     1   109.5600471 388.275200
  16957  16971  16975     1   109.5600471 388.275200
  16957  16971  16976     1   109.5600471 388.275200
  16958  16961  16965     1   109.5600471 388.275200
  16958  16970  16973     1   107.2600461 396.643200
  16958  16957  16959     1   109.5600471 388.275200
  16959  16957  16971     1   109.5600471 388.275200
  16959  16957  16979     1   109.7800468 425.094400
  16960  16958  16961     1   109.5600471 388.275200
  16960  16958  16970     1   110.2600474 425.931200
  16961  16962  16964     1   109.5600471 388.275200
  16961  16969  16972     1   107.2600461 396.643200
  16962  16963  16966     1   110.2200475 386.601600
  16962  16968  16974     1   107.2600461 396.643200
  16962  16961  16965     1   109.5600471 388.275200
  16963  16962  16964     1   109.5600471 388.275200
  16964  16962  16968     1   110.2600474 425.931200
  16965  16961  16969     1   110.2600474 425.931200
  16966  16963  16967     1   109.5800467 425.931200
  16966  16963  16979     1   109.5800467 425.931200
  16971  16977  16978     1   107.2600461 396.643200
  16975  16971  16977     1   110.2600474 425.931200
  16975  16971  16976     1   108.4600466 328.025600
  16976  16971  16977     1   110.2600474 425.931200
  16980  16981  16983     1   109.5600471 388.275200
  16980  16994  16998     1   109.5600471 388.275200
  16980  16994  16999     1   109.5600471 388.275200
  16981  16980  16982     1   109.5600471 388.275200
  16981  16984  16988     1   109.5600471 388.275200
  16981  16993  16996     1   107.2600461 396.643200
  16982  16980  16994     1   109.5600471 388.275200
  16982  16980  17002     1   109.7800468 425.094400
  16983  16981  16984     1   109.5600471 388.275200
  16983  16981  16993     1   110.2600474 425.931200
  16984  16985  16987     1   109.5600471 388.275200
  16984  16992  16995     1   107.2600461 396.643200
  16985  16984  16988     1   109.5600471 388.275200
  16985  16986  16989     1   110.2200475 386.601600
  16985  16991  16997     1   107.2600461 396.643200
  16986  16985  16987     1   109.5600471 388.275200
  16987  16985  16991     1   110.2600474 425.931200
  16988  16984  16992     1   110.2600474 425.931200
  16989  16986  16990     1   109.5800467 425.931200
  16989  16986  17002     1   109.5800467 425.931200
  16994  17000  17001     1   107.2600461 396.643200
  16998  16994  17000     1   110.2600474 425.931200
  16998  16994  16999     1   108.4600466 328.025600
  16999  16994  17000     1   110.2600474 425.931200
  17003  17004  17006     1   109.5600471 388.275200
  17003  17017  17021     1   109.5600471 388.275200
  17003  17017  17022     1   109.5600471 388.275200
  17004  17007  17011     1   109.5600471 388.275200
  17004  17016  17019     1   107.2600461 396.643200
  17004  17003  17005     1   109.5600471 388.275200
  17005  17003  17017     1   109.5600471 388.275200
  17005  17003  17025     1   109.7800468 425.094400
  17006  17004  17007     1   109.5600471 388.275200
  17006  17004  17016     1   110.2600474 425.931200
  17007  17008  17010     1   109.5600471 388.275200
  17007  17015  17018     1   107.2600461 396.643200
  17008  17009  17012     1   110.2200475 386.601600
  17008  17014  17020     1   107.2600461 396.643200
  17008  17007  17011     1   109.5600471 388.275200
  17009  17008  17010     1   109.5600471 388.275200
  17010  17008  17014     1   110.2600474 425.931200
  17011  17007  17015     1   110.2600474 425.931200
  17012  17009  17013     1   109.5800467 425.931200
  17012  17009  17025     1   109.5800467 425.931200
  17017  17023  17024     1   107.2600461 396.643200
  17021  17017  17023     1   110.2600474 425.931200
  17021  17017  17022     1   108.4600466 328.025600
  17022  17017  17023     1   110.2600474 425.931200
  17026  17027  17029     1   109.5600471 388.275200
  17026  17040  17044     1   109.5600471 388.275200
  17026  17040  17045     1   109.5600471 388.275200
  17027  17026  17028     1   109.5600471 388.275200
  17027  17030  17034     1   109.5600471 388.275200
  17027  17039  17042     1   107.2600461 396.643200
  17028  17026  17040     1   109.5600471 388.275200
  17028  17026  17048     1   109.7800468 425.094400
  17029  17027  17030     1   109.5600471 388.275200
  17029  17027  17039     1   110.2600474 425.931200
  17030  17031  17033     1   109.5600471 388.275200
  17030  17038  17041     1   107.2600461 396.643200
  17031  17030  17034     1   109.5600471 388.275200
  17031  17032  17035     1   110.2200475 386.601600
  17031  17037  17043     1   107.2600461 396.643200
  17032  17031  17033     1   109.5600471 388.275200
  17033  17031  17037     1   110.2600474 425.931200
  17034  17030  17038     1   110.2600474 425.931200
  17035  17032  17036     1   109.5800467 425.931200
  17035  17032  17048     1   109.5800467 425.931200
  17040  17046  17047     1   107.2600461 396.643200
  17044  17040  17046     1   110.2600474 425.931200
  17044  17040  17045     1   108.4600466 328.025600
  17045  17040  17046     1   110.2600474 425.931200
  17049  17050  17052     1   109.5600471 388.275200
  17049  17063  17067     1   109.5600471 388.275200
  17049  17063  17068     1   109.5600471 388.275200
  17050  17053  17057     1   109.5600471 388.275200
  17050  17062  17065     1   107.2600461 396.643200
  17050  17049  17051     1   109.5600471 388.275200
  17051  17049  17063     1   109.5600471 388.275200
  17051  17049  17071     1   109.7800468 425.094400
  17052  17050  17053     1   109.5600471 388.275200
  17052  17050  17062     1   110.2600474 425.931200
  17053  17054  17056     1   109.5600471 388.275200
  17053  17061  17064     1   107.2600461 396.643200
  17054  17055  17058     1   110.2200475 386.601600
  17054  17060  17066     1   107.2600461 396.643200
  17054  17053  17057     1   109.5600471 388.275200
  17055  17054  17056     1   109.5600471 388.275200
  17056  17054  17060     1   110.2600474 425.931200
  17057  17053  17061     1   110.2600474 425.931200
  17058  17055  17059     1   109.5800467 425.931200
  17058  17055  17071     1   109.5800467 425.931200
  17063  17069  17070     1   107.2600461 396.643200
  17067  17063  17069     1   110.2600474 425.931200
  17067  17063  17068     1   108.4600466 328.025600
  17068  17063  17069     1   110.2600474 425.931200
  17072  17073  17075     1   109.5600471 388.275200
  17072  17086  17090     1   109.5600471 388.275200
  17072  17086  17091     1   109.5600471 388.275200
  17073  17072  17074     1   109.5600471 388.275200
  17073  17076  17080     1   109.5600471 388.275200
  17073  17085  17088     1   107.2600461 396.643200
  17074  17072  17086     1   109.5600471 388.275200
  17074  17072  17094     1   109.7800468 425.094400
  17075  17073  17076     1   109.5600471 388.275200
  17075  17073  17085     1   110.2600474 425.931200
  17076  17077  17079     1   109.5600471 388.275200
  17076  17084  17087     1   107.2600461 396.643200
  17077  17076  17080     1   109.5600471 388.275200
  17077  17078  17081     1   110.2200475 386.601600
  17077  17083  17089     1   107.2600461 396.643200
  17078  17077  17079     1   109.5600471 388.275200
  17079  17077  17083     1   110.2600474 425.931200
  17080  17076  17084     1   110.2600474 425.931200
  17081  17078  17082     1   109.5800467 425.931200
  17081  17078  17094     1   109.5800467 425.931200
  17086  17092  17093     1   107.2600461 396.643200
  17090  17086  17092     1   110.2600474 425.931200
  17090  17086  17091     1   108.4600466 328.025600
  17091  17086  17092     1   110.2600474 425.931200
  17095  17096  17098     1   109.5600471 388.275200
  17095  17109  17113     1   109.5600471 388.275200
  17095  17109  17114     1   109.5600471 388.275200
  17096  17099  17103     1   109.5600471 388.275200
  17096  17108  17111     1   107.2600461 396.643200
  17096  17095  17097     1   109.5600471 388.275200
  17097  17095  17109     1   109.5600471 388.275200
  17097  17095  17117     1   109.7800468 425.094400
  17098  17096  17099     1   109.5600471 388.275200
  17098  17096  17108     1   110.2600474 425.931200
  17099  17100  17102     1   109.5600471 388.275200
  17099  17107  17110     1   107.2600461 396.643200
  17100  17101  17104     1   110.2200475 386.601600
  17100  17106  17112     1   107.2600461 396.643200
  17100  17099  17103     1   109.5600471 388.275200
  17101  17100  17102     1   109.5600471 388.275200
  17102  17100  17106     1   110.2600474 425.931200
  17103  17099  17107     1   110.2600474 425.931200
  17104  17101  17105     1   109.5800467 425.931200
  17104  17101  17117     1   109.5800467 425.931200
  17109  17115  17116     1   107.2600461 396.643200
  17113  17109  17115     1   110.2600474 425.931200
  17113  17109  17114     1   108.4600466 328.025600
  17114  17109  17115     1   110.2600474 425.931200
  17118  17119  17121     1   109.5600471 388.275200
  17118  17132  17136     1   109.5600471 388.275200
  17118  17132  17137     1   109.5600471 388.275200
  17119  17118  17120     1   109.5600471 388.275200
  17119  17122  17126     1   109.5600471 388.275200
  17119  17131  17134     1   107.2600461 396.643200
  17120  17118  17132     1   109.5600471 388.275200
  17120  17118  17140     1   109.7800468 425.094400
  17121  17119  17122     1   109.5600471 388.275200
  17121  17119  17131     1   110.2600474 425.931200
  17122  17123  17125     1   109.5600471 388.275200
  17122  17130  17133     1   107.2600461 396.643200
  17123  17122  17126     1   109.5600471 388.275200
  17123  17124  17127     1   110.2200475 386.601600
  17123  17129  17135     1   107.2600461 396.643200
  17124  17123  17125     1   109.5600471 388.275200
  17125  17123  17129     1   110.2600474 425.931200
  17126  17122  17130     1   110.2600474 425.931200
  17127  17124  17128     1   109.5800467 425.931200
  17127  17124  17140     1   109.5800467 425.931200
  17132  17138  17139     1   107.2600461 396.643200
  17136  17132  17138     1   110.2600474 425.931200
  17136  17132  17137     1   108.4600466 328.025600
  17137  17132  17138     1   110.2600474 425.931200
  17141  17142  17144     1   109.5600471 388.275200
  17141  17155  17159     1   109.5600471 388.275200
  17141  17155  17160     1   109.5600471 388.275200
  17142  17145  17149     1   109.5600471 388.275200
  17142  17154  17157     1   107.2600461 396.643200
  17142  17141  17143     1   109.5600471 388.275200
  17143  17141  17155     1   109.5600471 388.275200
  17143  17141  17163     1   109.7800468 425.094400
  17144  17142  17145     1   109.5600471 388.275200
  17144  17142  17154     1   110.2600474 425.931200
  17145  17146  17148     1   109.5600471 388.275200
  17145  17153  17156     1   107.2600461 396.643200
  17146  17147  17150     1   110.2200475 386.601600
  17146  17152  17158     1   107.2600461 396.643200
  17146  17145  17149     1   109.5600471 388.275200
  17147  17146  17148     1   109.5600471 388.275200
  17148  17146  17152     1   110.2600474 425.931200
  17149  17145  17153     1   110.2600474 425.931200
  17150  17147  17151     1   109.5800467 425.931200
  17150  17147  17163     1   109.5800467 425.931200
  17155  17161  17162     1   107.2600461 396.643200
  17159  17155  17161     1   110.2600474 425.931200
  17159  17155  17160     1   108.4600466 328.025600
  17160  17155  17161     1   110.2600474 425.931200
  17164  17165  17167     1   109.5600471 388.275200
  17164  17178  17182     1   109.5600471 388.275200
  17164  17178  17183     1   109.5600471 388.275200
  17165  17164  17166     1   109.5600471 388.275200
  17165  17168  17172     1   109.5600471 388.275200
  17165  17177  17180     1   107.2600461 396.643200
  17166  17164  17178     1   109.5600471 388.275200
  17166  17164  17186     1   109.7800468 425.094400
  17167  17165  17168     1   109.5600471 388.275200
  17167  17165  17177     1   110.2600474 425.931200
  17168  17169  17171     1   109.5600471 388.275200
  17168  17176  17179     1   107.2600461 396.643200
  17169  17168  17172     1   109.5600471 388.275200
  17169  17170  17173     1   110.2200475 386.601600
  17169  17175  17181     1   107.2600461 396.643200
  17170  17169  17171     1   109.5600471 388.275200
  17171  17169  17175     1   110.2600474 425.931200
  17172  17168  17176     1   110.2600474 425.931200
  17173  17170  17174     1   109.5800467 425.931200
  17173  17170  17186     1   109.5800467 425.931200
  17178  17184  17185     1   107.2600461 396.643200
  17182  17178  17184     1   110.2600474 425.931200
  17182  17178  17183     1   108.4600466 328.025600
  17183  17178  17184     1   110.2600474 425.931200
  17187  17188  17190     1   109.5600471 388.275200
  17187  17201  17205     1   109.5600471 388.275200
  17187  17201  17206     1   109.5600471 388.275200
  17188  17191  17195     1   109.5600471 388.275200
  17188  17200  17203     1   107.2600461 396.643200
  17188  17187  17189     1   109.5600471 388.275200
  17189  17187  17201     1   109.5600471 388.275200
  17189  17187  17209     1   109.7800468 425.094400
  17190  17188  17191     1   109.5600471 388.275200
  17190  17188  17200     1   110.2600474 425.931200
  17191  17192  17194     1   109.5600471 388.275200
  17191  17199  17202     1   107.2600461 396.643200
  17192  17193  17196     1   110.2200475 386.601600
  17192  17198  17204     1   107.2600461 396.643200
  17192  17191  17195     1   109.5600471 388.275200
  17193  17192  17194     1   109.5600471 388.275200
  17194  17192  17198     1   110.2600474 425.931200
  17195  17191  17199     1   110.2600474 425.931200
  17196  17193  17197     1   109.5800467 425.931200
  17196  17193  17209     1   109.5800467 425.931200
  17201  17207  17208     1   107.2600461 396.643200
  17205  17201  17207     1   110.2600474 425.931200
  17205  17201  17206     1   108.4600466 328.025600
  17206  17201  17207     1   110.2600474 425.931200
  17210  17211  17213     1   109.5600471 388.275200
  17210  17224  17228     1   109.5600471 388.275200
  17210  17224  17229     1   109.5600471 388.275200
  17211  17210  17212     1   109.5600471 388.275200
  17211  17214  17218     1   109.5600471 388.275200
  17211  17223  17226     1   107.2600461 396.643200
  17212  17210  17224     1   109.5600471 388.275200
  17212  17210  17232     1   109.7800468 425.094400
  17213  17211  17214     1   109.5600471 388.275200
  17213  17211  17223     1   110.2600474 425.931200
  17214  17215  17217     1   109.5600471 388.275200
  17214  17222  17225     1   107.2600461 396.643200
  17215  17214  17218     1   109.5600471 388.275200
  17215  17216  17219     1   110.2200475 386.601600
  17215  17221  17227     1   107.2600461 396.643200
  17216  17215  17217     1   109.5600471 388.275200
  17217  17215  17221     1   110.2600474 425.931200
  17218  17214  17222     1   110.2600474 425.931200
  17219  17216  17220     1   109.5800467 425.931200
  17219  17216  17232     1   109.5800467 425.931200
  17224  17230  17231     1   107.2600461 396.643200
  17228  17224  17230     1   110.2600474 425.931200
  17228  17224  17229     1   108.4600466 328.025600
  17229  17224  17230     1   110.2600474 425.931200
  17233  17234  17236     1   109.5600471 388.275200
  17233  17247  17251     1   109.5600471 388.275200
  17233  17247  17252     1   109.5600471 388.275200
  17234  17237  17241     1   109.5600471 388.275200
  17234  17246  17249     1   107.2600461 396.643200
  17234  17233  17235     1   109.5600471 388.275200
  17235  17233  17247     1   109.5600471 388.275200
  17235  17233  17255     1   109.7800468 425.094400
  17236  17234  17237     1   109.5600471 388.275200
  17236  17234  17246     1   110.2600474 425.931200
  17237  17238  17240     1   109.5600471 388.275200
  17237  17245  17248     1   107.2600461 396.643200
  17238  17239  17242     1   110.2200475 386.601600
  17238  17244  17250     1   107.2600461 396.643200
  17238  17237  17241     1   109.5600471 388.275200
  17239  17238  17240     1   109.5600471 388.275200
  17240  17238  17244     1   110.2600474 425.931200
  17241  17237  17245     1   110.2600474 425.931200
  17242  17239  17243     1   109.5800467 425.931200
  17242  17239  17255     1   109.5800467 425.931200
  17247  17253  17254     1   107.2600461 396.643200
  17251  17247  17253     1   110.2600474 425.931200
  17251  17247  17252     1   108.4600466 328.025600
  17252  17247  17253     1   110.2600474 425.931200
  17256  17257  17259     1   109.5600471 388.275200
  17256  17270  17274     1   109.5600471 388.275200
  17256  17270  17275     1   109.5600471 388.275200
  17257  17256  17258     1   109.5600471 388.275200
  17257  17260  17264     1   109.5600471 388.275200
  17257  17269  17272     1   107.2600461 396.643200
  17258  17256  17270     1   109.5600471 388.275200
  17258  17256  17278     1   109.7800468 425.094400
  17259  17257  17260     1   109.5600471 388.275200
  17259  17257  17269     1   110.2600474 425.931200
  17260  17261  17263     1   109.5600471 388.275200
  17260  17268  17271     1   107.2600461 396.643200
  17261  17260  17264     1   109.5600471 388.275200
  17261  17262  17265     1   110.2200475 386.601600
  17261  17267  17273     1   107.2600461 396.643200
  17262  17261  17263     1   109.5600471 388.275200
  17263  17261  17267     1   110.2600474 425.931200
  17264  17260  17268     1   110.2600474 425.931200
  17265  17262  17266     1   109.5800467 425.931200
  17265  17262  17278     1   109.5800467 425.931200
  17270  17276  17277     1   107.2600461 396.643200
  17274  17270  17276     1   110.2600474 425.931200
  17274  17270  17275     1   108.4600466 328.025600
  17275  17270  17276     1   110.2600474 425.931200
  17279  17280  17282     1   109.5600471 388.275200
  17279  17293  17297     1   109.5600471 388.275200
  17279  17293  17298     1   109.5600471 388.275200
  17280  17283  17287     1   109.5600471 388.275200
  17280  17292  17295     1   107.2600461 396.643200
  17280  17279  17281     1   109.5600471 388.275200
  17281  17279  17293     1   109.5600471 388.275200
  17281  17279  17301     1   109.7800468 425.094400
  17282  17280  17283     1   109.5600471 388.275200
  17282  17280  17292     1   110.2600474 425.931200
  17283  17284  17286     1   109.5600471 388.275200
  17283  17291  17294     1   107.2600461 396.643200
  17284  17285  17288     1   110.2200475 386.601600
  17284  17290  17296     1   107.2600461 396.643200
  17284  17283  17287     1   109.5600471 388.275200
  17285  17284  17286     1   109.5600471 388.275200
  17286  17284  17290     1   110.2600474 425.931200
  17287  17283  17291     1   110.2600474 425.931200
  17288  17285  17289     1   109.5800467 425.931200
  17288  17285  17301     1   109.5800467 425.931200
  17293  17299  17300     1   107.2600461 396.643200
  17297  17293  17299     1   110.2600474 425.931200
  17297  17293  17298     1   108.4600466 328.025600
  17298  17293  17299     1   110.2600474 425.931200
  17302  17303  17305     1   109.5600471 388.275200
  17302  17316  17320     1   109.5600471 388.275200
  17302  17316  17321     1   109.5600471 388.275200
  17303  17302  17304     1   109.5600471 388.275200
  17303  17306  17310     1   109.5600471 388.275200
  17303  17315  17318     1   107.2600461 396.643200
  17304  17302  17316     1   109.5600471 388.275200
  17304  17302  17324     1   109.7800468 425.094400
  17305  17303  17306     1   109.5600471 388.275200
  17305  17303  17315     1   110.2600474 425.931200
  17306  17307  17309     1   109.5600471 388.275200
  17306  17314  17317     1   107.2600461 396.643200
  17307  17306  17310     1   109.5600471 388.275200
  17307  17308  17311     1   110.2200475 386.601600
  17307  17313  17319     1   107.2600461 396.643200
  17308  17307  17309     1   109.5600471 388.275200
  17309  17307  17313     1   110.2600474 425.931200
  17310  17306  17314     1   110.2600474 425.931200
  17311  17308  17312     1   109.5800467 425.931200
  17311  17308  17324     1   109.5800467 425.931200
  17316  17322  17323     1   107.2600461 396.643200
  17320  17316  17322     1   110.2600474 425.931200
  17320  17316  17321     1   108.4600466 328.025600
  17321  17316  17322     1   110.2600474 425.931200
  17325  17326  17328     1   109.5600471 388.275200
  17325  17339  17343     1   109.5600471 388.275200
  17325  17339  17344     1   109.5600471 388.275200
  17326  17329  17333     1   109.5600471 388.275200
  17326  17338  17341     1   107.2600461 396.643200
  17326  17325  17327     1   109.5600471 388.275200
  17327  17325  17339     1   109.5600471 388.275200
  17327  17325  17347     1   109.7800468 425.094400
  17328  17326  17329     1   109.5600471 388.275200
  17328  17326  17338     1   110.2600474 425.931200
  17329  17330  17332     1   109.5600471 388.275200
  17329  17337  17340     1   107.2600461 396.643200
  17330  17331  17334     1   110.2200475 386.601600
  17330  17336  17342     1   107.2600461 396.643200
  17330  17329  17333     1   109.5600471 388.275200
  17331  17330  17332     1   109.5600471 388.275200
  17332  17330  17336     1   110.2600474 425.931200
  17333  17329  17337     1   110.2600474 425.931200
  17334  17331  17335     1   109.5800467 425.931200
  17334  17331  17347     1   109.5800467 425.931200
  17339  17345  17346     1   107.2600461 396.643200
  17343  17339  17345     1   110.2600474 425.931200
  17343  17339  17344     1   108.4600466 328.025600
  17344  17339  17345     1   110.2600474 425.931200
  17348  17349  17351     1   109.5600471 388.275200
  17348  17362  17366     1   109.5600471 388.275200
  17348  17362  17367     1   109.5600471 388.275200
  17349  17348  17350     1   109.5600471 388.275200
  17349  17352  17356     1   109.5600471 388.275200
  17349  17361  17364     1   107.2600461 396.643200
  17350  17348  17362     1   109.5600471 388.275200
  17350  17348  17370     1   109.7800468 425.094400
  17351  17349  17352     1   109.5600471 388.275200
  17351  17349  17361     1   110.2600474 425.931200
  17352  17353  17355     1   109.5600471 388.275200
  17352  17360  17363     1   107.2600461 396.643200
  17353  17352  17356     1   109.5600471 388.275200
  17353  17354  17357     1   110.2200475 386.601600
  17353  17359  17365     1   107.2600461 396.643200
  17354  17353  17355     1   109.5600471 388.275200
  17355  17353  17359     1   110.2600474 425.931200
  17356  17352  17360     1   110.2600474 425.931200
  17357  17354  17358     1   109.5800467 425.931200
  17357  17354  17370     1   109.5800467 425.931200
  17362  17368  17369     1   107.2600461 396.643200
  17366  17362  17368     1   110.2600474 425.931200
  17366  17362  17367     1   108.4600466 328.025600
  17367  17362  17368     1   110.2600474 425.931200
  17371  17372  17374     1   109.5600471 388.275200
  17371  17385  17389     1   109.5600471 388.275200
  17371  17385  17390     1   109.5600471 388.275200
  17372  17375  17379     1   109.5600471 388.275200
  17372  17384  17387     1   107.2600461 396.643200
  17372  17371  17373     1   109.5600471 388.275200
  17373  17371  17385     1   109.5600471 388.275200
  17373  17371  17393     1   109.7800468 425.094400
  17374  17372  17375     1   109.5600471 388.275200
  17374  17372  17384     1   110.2600474 425.931200
  17375  17376  17378     1   109.5600471 388.275200
  17375  17383  17386     1   107.2600461 396.643200
  17376  17377  17380     1   110.2200475 386.601600
  17376  17382  17388     1   107.2600461 396.643200
  17376  17375  17379     1   109.5600471 388.275200
  17377  17376  17378     1   109.5600471 388.275200
  17378  17376  17382     1   110.2600474 425.931200
  17379  17375  17383     1   110.2600474 425.931200
  17380  17377  17381     1   109.5800467 425.931200
  17380  17377  17393     1   109.5800467 425.931200
  17385  17391  17392     1   107.2600461 396.643200
  17389  17385  17391     1   110.2600474 425.931200
  17389  17385  17390     1   108.4600466 328.025600
  17390  17385  17391     1   110.2600474 425.931200
  17394  17395  17397     1   109.5600471 388.275200
  17394  17408  17412     1   109.5600471 388.275200
  17394  17408  17413     1   109.5600471 388.275200
  17395  17394  17396     1   109.5600471 388.275200
  17395  17398  17402     1   109.5600471 388.275200
  17395  17407  17410     1   107.2600461 396.643200
  17396  17394  17408     1   109.5600471 388.275200
  17396  17394  17416     1   109.7800468 425.094400
  17397  17395  17398     1   109.5600471 388.275200
  17397  17395  17407     1   110.2600474 425.931200
  17398  17399  17401     1   109.5600471 388.275200
  17398  17406  17409     1   107.2600461 396.643200
  17399  17398  17402     1   109.5600471 388.275200
  17399  17400  17403     1   110.2200475 386.601600
  17399  17405  17411     1   107.2600461 396.643200
  17400  17399  17401     1   109.5600471 388.275200
  17401  17399  17405     1   110.2600474 425.931200
  17402  17398  17406     1   110.2600474 425.931200
  17403  17400  17404     1   109.5800467 425.931200
  17403  17400  17416     1   109.5800467 425.931200
  17408  17414  17415     1   107.2600461 396.643200
  17412  17408  17414     1   110.2600474 425.931200
  17412  17408  17413     1   108.4600466 328.025600
  17413  17408  17414     1   110.2600474 425.931200
  17417  17418  17420     1   109.5600471 388.275200
  17417  17431  17435     1   109.5600471 388.275200
  17417  17431  17436     1   109.5600471 388.275200
  17418  17421  17425     1   109.5600471 388.275200
  17418  17430  17433     1   107.2600461 396.643200
  17418  17417  17419     1   109.5600471 388.275200
  17419  17417  17431     1   109.5600471 388.275200
  17419  17417  17439     1   109.7800468 425.094400
  17420  17418  17421     1   109.5600471 388.275200
  17420  17418  17430     1   110.2600474 425.931200
  17421  17422  17424     1   109.5600471 388.275200
  17421  17429  17432     1   107.2600461 396.643200
  17422  17423  17426     1   110.2200475 386.601600
  17422  17428  17434     1   107.2600461 396.643200
  17422  17421  17425     1   109.5600471 388.275200
  17423  17422  17424     1   109.5600471 388.275200
  17424  17422  17428     1   110.2600474 425.931200
  17425  17421  17429     1   110.2600474 425.931200
  17426  17423  17427     1   109.5800467 425.931200
  17426  17423  17439     1   109.5800467 425.931200
  17431  17437  17438     1   107.2600461 396.643200
  17435  17431  17437     1   110.2600474 425.931200
  17435  17431  17436     1   108.4600466 328.025600
  17436  17431  17437     1   110.2600474 425.931200
  17440  17441  17443     1   109.5600471 388.275200
  17440  17454  17458     1   109.5600471 388.275200
  17440  17454  17459     1   109.5600471 388.275200
  17441  17440  17442     1   109.5600471 388.275200
  17441  17444  17448     1   109.5600471 388.275200
  17441  17453  17456     1   107.2600461 396.643200
  17442  17440  17454     1   109.5600471 388.275200
  17442  17440  17462     1   109.7800468 425.094400
  17443  17441  17444     1   109.5600471 388.275200
  17443  17441  17453     1   110.2600474 425.931200
  17444  17445  17447     1   109.5600471 388.275200
  17444  17452  17455     1   107.2600461 396.643200
  17445  17444  17448     1   109.5600471 388.275200
  17445  17446  17449     1   110.2200475 386.601600
  17445  17451  17457     1   107.2600461 396.643200
  17446  17445  17447     1   109.5600471 388.275200
  17447  17445  17451     1   110.2600474 425.931200
  17448  17444  17452     1   110.2600474 425.931200
  17449  17446  17450     1   109.5800467 425.931200
  17449  17446  17462     1   109.5800467 425.931200
  17454  17460  17461     1   107.2600461 396.643200
  17458  17454  17460     1   110.2600474 425.931200
  17458  17454  17459     1   108.4600466 328.025600
  17459  17454  17460     1   110.2600474 425.931200
  17463  17464  17466     1   109.5600471 388.275200
  17463  17477  17481     1   109.5600471 388.275200
  17463  17477  17482     1   109.5600471 388.275200
  17464  17467  17471     1   109.5600471 388.275200
  17464  17476  17479     1   107.2600461 396.643200
  17464  17463  17465     1   109.5600471 388.275200
  17465  17463  17477     1   109.5600471 388.275200
  17465  17463  17485     1   109.7800468 425.094400
  17466  17464  17467     1   109.5600471 388.275200
  17466  17464  17476     1   110.2600474 425.931200
  17467  17468  17470     1   109.5600471 388.275200
  17467  17475  17478     1   107.2600461 396.643200
  17468  17469  17472     1   110.2200475 386.601600
  17468  17474  17480     1   107.2600461 396.643200
  17468  17467  17471     1   109.5600471 388.275200
  17469  17468  17470     1   109.5600471 388.275200
  17470  17468  17474     1   110.2600474 425.931200
  17471  17467  17475     1   110.2600474 425.931200
  17472  17469  17473     1   109.5800467 425.931200
  17472  17469  17485     1   109.5800467 425.931200
  17477  17483  17484     1   107.2600461 396.643200
  17481  17477  17483     1   110.2600474 425.931200
  17481  17477  17482     1   108.4600466 328.025600
  17482  17477  17483     1   110.2600474 425.931200
  17486  17487  17489     1   109.5600471 388.275200
  17486  17500  17504     1   109.5600471 388.275200
  17486  17500  17505     1   109.5600471 388.275200
  17487  17486  17488     1   109.5600471 388.275200
  17487  17490  17494     1   109.5600471 388.275200
  17487  17499  17502     1   107.2600461 396.643200
  17488  17486  17500     1   109.5600471 388.275200
  17488  17486  17508     1   109.7800468 425.094400
  17489  17487  17490     1   109.5600471 388.275200
  17489  17487  17499     1   110.2600474 425.931200
  17490  17491  17493     1   109.5600471 388.275200
  17490  17498  17501     1   107.2600461 396.643200
  17491  17490  17494     1   109.5600471 388.275200
  17491  17492  17495     1   110.2200475 386.601600
  17491  17497  17503     1   107.2600461 396.643200
  17492  17491  17493     1   109.5600471 388.275200
  17493  17491  17497     1   110.2600474 425.931200
  17494  17490  17498     1   110.2600474 425.931200
  17495  17492  17496     1   109.5800467 425.931200
  17495  17492  17508     1   109.5800467 425.931200
  17500  17506  17507     1   107.2600461 396.643200
  17504  17500  17506     1   110.2600474 425.931200
  17504  17500  17505     1   108.4600466 328.025600
  17505  17500  17506     1   110.2600474 425.931200
  17509  17510  17512     1   109.5600471 388.275200
  17509  17523  17527     1   109.5600471 388.275200
  17509  17523  17528     1   109.5600471 388.275200
  17510  17513  17517     1   109.5600471 388.275200
  17510  17522  17525     1   107.2600461 396.643200
  17510  17509  17511     1   109.5600471 388.275200
  17511  17509  17523     1   109.5600471 388.275200
  17511  17509  17531     1   109.7800468 425.094400
  17512  17510  17513     1   109.5600471 388.275200
  17512  17510  17522     1   110.2600474 425.931200
  17513  17514  17516     1   109.5600471 388.275200
  17513  17521  17524     1   107.2600461 396.643200
  17514  17515  17518     1   110.2200475 386.601600
  17514  17520  17526     1   107.2600461 396.643200
  17514  17513  17517     1   109.5600471 388.275200
  17515  17514  17516     1   109.5600471 388.275200
  17516  17514  17520     1   110.2600474 425.931200
  17517  17513  17521     1   110.2600474 425.931200
  17518  17515  17519     1   109.5800467 425.931200
  17518  17515  17531     1   109.5800467 425.931200
  17523  17529  17530     1   107.2600461 396.643200
  17527  17523  17529     1   110.2600474 425.931200
  17527  17523  17528     1   108.4600466 328.025600
  17528  17523  17529     1   110.2600474 425.931200
  17532  17533  17535     1   109.5600471 388.275200
  17532  17546  17550     1   109.5600471 388.275200
  17532  17546  17551     1   109.5600471 388.275200
  17533  17532  17534     1   109.5600471 388.275200
  17533  17536  17540     1   109.5600471 388.275200
  17533  17545  17548     1   107.2600461 396.643200
  17534  17532  17546     1   109.5600471 388.275200
  17534  17532  17554     1   109.7800468 425.094400
  17535  17533  17536     1   109.5600471 388.275200
  17535  17533  17545     1   110.2600474 425.931200
  17536  17537  17539     1   109.5600471 388.275200
  17536  17544  17547     1   107.2600461 396.643200
  17537  17536  17540     1   109.5600471 388.275200
  17537  17538  17541     1   110.2200475 386.601600
  17537  17543  17549     1   107.2600461 396.643200
  17538  17537  17539     1   109.5600471 388.275200
  17539  17537  17543     1   110.2600474 425.931200
  17540  17536  17544     1   110.2600474 425.931200
  17541  17538  17542     1   109.5800467 425.931200
  17541  17538  17554     1   109.5800467 425.931200
  17546  17552  17553     1   107.2600461 396.643200
  17550  17546  17552     1   110.2600474 425.931200
  17550  17546  17551     1   108.4600466 328.025600
  17551  17546  17552     1   110.2600474 425.931200
  17555  17556  17558     1   109.5600471 388.275200
  17555  17569  17573     1   109.5600471 388.275200
  17555  17569  17574     1   109.5600471 388.275200
  17556  17559  17563     1   109.5600471 388.275200
  17556  17568  17571     1   107.2600461 396.643200
  17556  17555  17557     1   109.5600471 388.275200
  17557  17555  17569     1   109.5600471 388.275200
  17557  17555  17577     1   109.7800468 425.094400
  17558  17556  17559     1   109.5600471 388.275200
  17558  17556  17568     1   110.2600474 425.931200
  17559  17560  17562     1   109.5600471 388.275200
  17559  17567  17570     1   107.2600461 396.643200
  17560  17561  17564     1   110.2200475 386.601600
  17560  17566  17572     1   107.2600461 396.643200
  17560  17559  17563     1   109.5600471 388.275200
  17561  17560  17562     1   109.5600471 388.275200
  17562  17560  17566     1   110.2600474 425.931200
  17563  17559  17567     1   110.2600474 425.931200
  17564  17561  17565     1   109.5800467 425.931200
  17564  17561  17577     1   109.5800467 425.931200
  17569  17575  17576     1   107.2600461 396.643200
  17573  17569  17575     1   110.2600474 425.931200
  17573  17569  17574     1   108.4600466 328.025600
  17574  17569  17575     1   110.2600474 425.931200
  17578  17579  17581     1   109.5600471 388.275200
  17578  17592  17596     1   109.5600471 388.275200
  17578  17592  17597     1   109.5600471 388.275200
  17579  17578  17580     1   109.5600471 388.275200
  17579  17582  17586     1   109.5600471 388.275200
  17579  17591  17594     1   107.2600461 396.643200
  17580  17578  17592     1   109.5600471 388.275200
  17580  17578  17600     1   109.7800468 425.094400
  17581  17579  17582     1   109.5600471 388.275200
  17581  17579  17591     1   110.2600474 425.931200
  17582  17583  17585     1   109.5600471 388.275200
  17582  17590  17593     1   107.2600461 396.643200
  17583  17582  17586     1   109.5600471 388.275200
  17583  17584  17587     1   110.2200475 386.601600
  17583  17589  17595     1   107.2600461 396.643200
  17584  17583  17585     1   109.5600471 388.275200
  17585  17583  17589     1   110.2600474 425.931200
  17586  17582  17590     1   110.2600474 425.931200
  17587  17584  17588     1   109.5800467 425.931200
  17587  17584  17600     1   109.5800467 425.931200
  17592  17598  17599     1   107.2600461 396.643200
  17596  17592  17598     1   110.2600474 425.931200
  17596  17592  17597     1   108.4600466 328.025600
  17597  17592  17598     1   110.2600474 425.931200
  17601  17602  17604     1   109.5600471 388.275200
  17601  17615  17619     1   109.5600471 388.275200
  17601  17615  17620     1   109.5600471 388.275200
  17602  17605  17609     1   109.5600471 388.275200
  17602  17614  17617     1   107.2600461 396.643200
  17602  17601  17603     1   109.5600471 388.275200
  17603  17601  17615     1   109.5600471 388.275200
  17603  17601  17623     1   109.7800468 425.094400
  17604  17602  17605     1   109.5600471 388.275200
  17604  17602  17614     1   110.2600474 425.931200
  17605  17606  17608     1   109.5600471 388.275200
  17605  17613  17616     1   107.2600461 396.643200
  17606  17607  17610     1   110.2200475 386.601600
  17606  17612  17618     1   107.2600461 396.643200
  17606  17605  17609     1   109.5600471 388.275200
  17607  17606  17608     1   109.5600471 388.275200
  17608  17606  17612     1   110.2600474 425.931200
  17609  17605  17613     1   110.2600474 425.931200
  17610  17607  17611     1   109.5800467 425.931200
  17610  17607  17623     1   109.5800467 425.931200
  17615  17621  17622     1   107.2600461 396.643200
  17619  17615  17621     1   110.2600474 425.931200
  17619  17615  17620     1   108.4600466 328.025600
  17620  17615  17621     1   110.2600474 425.931200
  17624  17625  17627     1   109.5600471 388.275200
  17624  17638  17642     1   109.5600471 388.275200
  17624  17638  17643     1   109.5600471 388.275200
  17625  17624  17626     1   109.5600471 388.275200
  17625  17628  17632     1   109.5600471 388.275200
  17625  17637  17640     1   107.2600461 396.643200
  17626  17624  17638     1   109.5600471 388.275200
  17626  17624  17646     1   109.7800468 425.094400
  17627  17625  17628     1   109.5600471 388.275200
  17627  17625  17637     1   110.2600474 425.931200
  17628  17629  17631     1   109.5600471 388.275200
  17628  17636  17639     1   107.2600461 396.643200
  17629  17628  17632     1   109.5600471 388.275200
  17629  17630  17633     1   110.2200475 386.601600
  17629  17635  17641     1   107.2600461 396.643200
  17630  17629  17631     1   109.5600471 388.275200
  17631  17629  17635     1   110.2600474 425.931200
  17632  17628  17636     1   110.2600474 425.931200
  17633  17630  17634     1   109.5800467 425.931200
  17633  17630  17646     1   109.5800467 425.931200
  17638  17644  17645     1   107.2600461 396.643200
  17642  17638  17644     1   110.2600474 425.931200
  17642  17638  17643     1   108.4600466 328.025600
  17643  17638  17644     1   110.2600474 425.931200
  17647  17648  17650     1   109.5600471 388.275200
  17647  17661  17665     1   109.5600471 388.275200
  17647  17661  17666     1   109.5600471 388.275200
  17648  17651  17655     1   109.5600471 388.275200
  17648  17660  17663     1   107.2600461 396.643200
  17648  17647  17649     1   109.5600471 388.275200
  17649  17647  17661     1   109.5600471 388.275200
  17649  17647  17669     1   109.7800468 425.094400
  17650  17648  17651     1   109.5600471 388.275200
  17650  17648  17660     1   110.2600474 425.931200
  17651  17652  17654     1   109.5600471 388.275200
  17651  17659  17662     1   107.2600461 396.643200
  17652  17653  17656     1   110.2200475 386.601600
  17652  17658  17664     1   107.2600461 396.643200
  17652  17651  17655     1   109.5600471 388.275200
  17653  17652  17654     1   109.5600471 388.275200
  17654  17652  17658     1   110.2600474 425.931200
  17655  17651  17659     1   110.2600474 425.931200
  17656  17653  17657     1   109.5800467 425.931200
  17656  17653  17669     1   109.5800467 425.931200
  17661  17667  17668     1   107.2600461 396.643200
  17665  17661  17667     1   110.2600474 425.931200
  17665  17661  17666     1   108.4600466 328.025600
  17666  17661  17667     1   110.2600474 425.931200
  17670  17671  17673     1   109.5600471 388.275200
  17670  17684  17688     1   109.5600471 388.275200
  17670  17684  17689     1   109.5600471 388.275200
  17671  17670  17672     1   109.5600471 388.275200
  17671  17674  17678     1   109.5600471 388.275200
  17671  17683  17686     1   107.2600461 396.643200
  17672  17670  17684     1   109.5600471 388.275200
  17672  17670  17692     1   109.7800468 425.094400
  17673  17671  17674     1   109.5600471 388.275200
  17673  17671  17683     1   110.2600474 425.931200
  17674  17675  17677     1   109.5600471 388.275200
  17674  17682  17685     1   107.2600461 396.643200
  17675  17674  17678     1   109.5600471 388.275200
  17675  17676  17679     1   110.2200475 386.601600
  17675  17681  17687     1   107.2600461 396.643200
  17676  17675  17677     1   109.5600471 388.275200
  17677  17675  17681     1   110.2600474 425.931200
  17678  17674  17682     1   110.2600474 425.931200
  17679  17676  17680     1   109.5800467 425.931200
  17679  17676  17692     1   109.5800467 425.931200
  17684  17690  17691     1   107.2600461 396.643200
  17688  17684  17690     1   110.2600474 425.931200
  17688  17684  17689     1   108.4600466 328.025600
  17689  17684  17690     1   110.2600474 425.931200
  17693  17694  17696     1   109.5600471 388.275200
  17693  17707  17711     1   109.5600471 388.275200
  17693  17707  17712     1   109.5600471 388.275200
  17694  17697  17701     1   109.5600471 388.275200
  17694  17706  17709     1   107.2600461 396.643200
  17694  17693  17695     1   109.5600471 388.275200
  17695  17693  17707     1   109.5600471 388.275200
  17695  17693  17715     1   109.7800468 425.094400
  17696  17694  17697     1   109.5600471 388.275200
  17696  17694  17706     1   110.2600474 425.931200
  17697  17698  17700     1   109.5600471 388.275200
  17697  17705  17708     1   107.2600461 396.643200
  17698  17699  17702     1   110.2200475 386.601600
  17698  17704  17710     1   107.2600461 396.643200
  17698  17697  17701     1   109.5600471 388.275200
  17699  17698  17700     1   109.5600471 388.275200
  17700  17698  17704     1   110.2600474 425.931200
  17701  17697  17705     1   110.2600474 425.931200
  17702  17699  17703     1   109.5800467 425.931200
  17702  17699  17715     1   109.5800467 425.931200
  17707  17713  17714     1   107.2600461 396.643200
  17711  17707  17713     1   110.2600474 425.931200
  17711  17707  17712     1   108.4600466 328.025600
  17712  17707  17713     1   110.2600474 425.931200
  17716  17717  17719     1   109.5600471 388.275200
  17716  17730  17734     1   109.5600471 388.275200
  17716  17730  17735     1   109.5600471 388.275200
  17717  17716  17718     1   109.5600471 388.275200
  17717  17720  17724     1   109.5600471 388.275200
  17717  17729  17732     1   107.2600461 396.643200
  17718  17716  17730     1   109.5600471 388.275200
  17718  17716  17738     1   109.7800468 425.094400
  17719  17717  17720     1   109.5600471 388.275200
  17719  17717  17729     1   110.2600474 425.931200
  17720  17721  17723     1   109.5600471 388.275200
  17720  17728  17731     1   107.2600461 396.643200
  17721  17720  17724     1   109.5600471 388.275200
  17721  17722  17725     1   110.2200475 386.601600
  17721  17727  17733     1   107.2600461 396.643200
  17722  17721  17723     1   109.5600471 388.275200
  17723  17721  17727     1   110.2600474 425.931200
  17724  17720  17728     1   110.2600474 425.931200
  17725  17722  17726     1   109.5800467 425.931200
  17725  17722  17738     1   109.5800467 425.931200
  17730  17736  17737     1   107.2600461 396.643200
  17734  17730  17736     1   110.2600474 425.931200
  17734  17730  17735     1   108.4600466 328.025600
  17735  17730  17736     1   110.2600474 425.931200
  17739  17740  17742     1   109.5600471 388.275200
  17739  17753  17757     1   109.5600471 388.275200
  17739  17753  17758     1   109.5600471 388.275200
  17740  17743  17747     1   109.5600471 388.275200
  17740  17752  17755     1   107.2600461 396.643200
  17740  17739  17741     1   109.5600471 388.275200
  17741  17739  17753     1   109.5600471 388.275200
  17741  17739  17761     1   109.7800468 425.094400
  17742  17740  17743     1   109.5600471 388.275200
  17742  17740  17752     1   110.2600474 425.931200
  17743  17744  17746     1   109.5600471 388.275200
  17743  17751  17754     1   107.2600461 396.643200
  17744  17745  17748     1   110.2200475 386.601600
  17744  17750  17756     1   107.2600461 396.643200
  17744  17743  17747     1   109.5600471 388.275200
  17745  17744  17746     1   109.5600471 388.275200
  17746  17744  17750     1   110.2600474 425.931200
  17747  17743  17751     1   110.2600474 425.931200
  17748  17745  17749     1   109.5800467 425.931200
  17748  17745  17761     1   109.5800467 425.931200
  17753  17759  17760     1   107.2600461 396.643200
  17757  17753  17759     1   110.2600474 425.931200
  17757  17753  17758     1   108.4600466 328.025600
  17758  17753  17759     1   110.2600474 425.931200
  17762  17763  17765     1   109.5600471 388.275200
  17762  17776  17780     1   109.5600471 388.275200
  17762  17776  17781     1   109.5600471 388.275200
  17763  17762  17764     1   109.5600471 388.275200
  17763  17766  17770     1   109.5600471 388.275200
  17763  17775  17778     1   107.2600461 396.643200
  17764  17762  17776     1   109.5600471 388.275200
  17764  17762  17784     1   109.7800468 425.094400
  17765  17763  17766     1   109.5600471 388.275200
  17765  17763  17775     1   110.2600474 425.931200
  17766  17767  17769     1   109.5600471 388.275200
  17766  17774  17777     1   107.2600461 396.643200
  17767  17766  17770     1   109.5600471 388.275200
  17767  17768  17771     1   110.2200475 386.601600
  17767  17773  17779     1   107.2600461 396.643200
  17768  17767  17769     1   109.5600471 388.275200
  17769  17767  17773     1   110.2600474 425.931200
  17770  17766  17774     1   110.2600474 425.931200
  17771  17768  17772     1   109.5800467 425.931200
  17771  17768  17784     1   109.5800467 425.931200
  17776  17782  17783     1   107.2600461 396.643200
  17780  17776  17782     1   110.2600474 425.931200
  17780  17776  17781     1   108.4600466 328.025600
  17781  17776  17782     1   110.2600474 425.931200
  17785  17786  17788     1   109.5600471 388.275200
  17785  17799  17803     1   109.5600471 388.275200
  17785  17799  17804     1   109.5600471 388.275200
  17786  17789  17793     1   109.5600471 388.275200
  17786  17798  17801     1   107.2600461 396.643200
  17786  17785  17787     1   109.5600471 388.275200
  17787  17785  17799     1   109.5600471 388.275200
  17787  17785  17807     1   109.7800468 425.094400
  17788  17786  17789     1   109.5600471 388.275200
  17788  17786  17798     1   110.2600474 425.931200
  17789  17790  17792     1   109.5600471 388.275200
  17789  17797  17800     1   107.2600461 396.643200
  17790  17791  17794     1   110.2200475 386.601600
  17790  17796  17802     1   107.2600461 396.643200
  17790  17789  17793     1   109.5600471 388.275200
  17791  17790  17792     1   109.5600471 388.275200
  17792  17790  17796     1   110.2600474 425.931200
  17793  17789  17797     1   110.2600474 425.931200
  17794  17791  17795     1   109.5800467 425.931200
  17794  17791  17807     1   109.5800467 425.931200
  17799  17805  17806     1   107.2600461 396.643200
  17803  17799  17805     1   110.2600474 425.931200
  17803  17799  17804     1   108.4600466 328.025600
  17804  17799  17805     1   110.2600474 425.931200
  17808  17809  17811     1   109.5600471 388.275200
  17808  17822  17826     1   109.5600471 388.275200
  17808  17822  17827     1   109.5600471 388.275200
  17809  17808  17810     1   109.5600471 388.275200
  17809  17812  17816     1   109.5600471 388.275200
  17809  17821  17824     1   107.2600461 396.643200
  17810  17808  17822     1   109.5600471 388.275200
  17810  17808  17830     1   109.7800468 425.094400
  17811  17809  17812     1   109.5600471 388.275200
  17811  17809  17821     1   110.2600474 425.931200
  17812  17813  17815     1   109.5600471 388.275200
  17812  17820  17823     1   107.2600461 396.643200
  17813  17812  17816     1   109.5600471 388.275200
  17813  17814  17817     1   110.2200475 386.601600
  17813  17819  17825     1   107.2600461 396.643200
  17814  17813  17815     1   109.5600471 388.275200
  17815  17813  17819     1   110.2600474 425.931200
  17816  17812  17820     1   110.2600474 425.931200
  17817  17814  17818     1   109.5800467 425.931200
  17817  17814  17830     1   109.5800467 425.931200
  17822  17828  17829     1   107.2600461 396.643200
  17826  17822  17828     1   110.2600474 425.931200
  17826  17822  17827     1   108.4600466 328.025600
  17827  17822  17828     1   110.2600474 425.931200
  17831  17832  17834     1   109.5600471 388.275200
  17831  17845  17849     1   109.5600471 388.275200
  17831  17845  17850     1   109.5600471 388.275200
  17832  17835  17839     1   109.5600471 388.275200
  17832  17844  17847     1   107.2600461 396.643200
  17832  17831  17833     1   109.5600471 388.275200
  17833  17831  17845     1   109.5600471 388.275200
  17833  17831  17853     1   109.7800468 425.094400
  17834  17832  17835     1   109.5600471 388.275200
  17834  17832  17844     1   110.2600474 425.931200
  17835  17836  17838     1   109.5600471 388.275200
  17835  17843  17846     1   107.2600461 396.643200
  17836  17837  17840     1   110.2200475 386.601600
  17836  17842  17848     1   107.2600461 396.643200
  17836  17835  17839     1   109.5600471 388.275200
  17837  17836  17838     1   109.5600471 388.275200
  17838  17836  17842     1   110.2600474 425.931200
  17839  17835  17843     1   110.2600474 425.931200
  17840  17837  17841     1   109.5800467 425.931200
  17840  17837  17853     1   109.5800467 425.931200
  17845  17851  17852     1   107.2600461 396.643200
  17849  17845  17851     1   110.2600474 425.931200
  17849  17845  17850     1   108.4600466 328.025600
  17850  17845  17851     1   110.2600474 425.931200
  17854  17855  17857     1   109.5600471 388.275200
  17854  17868  17872     1   109.5600471 388.275200
  17854  17868  17873     1   109.5600471 388.275200
  17855  17854  17856     1   109.5600471 388.275200
  17855  17858  17862     1   109.5600471 388.275200
  17855  17867  17870     1   107.2600461 396.643200
  17856  17854  17868     1   109.5600471 388.275200
  17856  17854  17876     1   109.7800468 425.094400
  17857  17855  17858     1   109.5600471 388.275200
  17857  17855  17867     1   110.2600474 425.931200
  17858  17859  17861     1   109.5600471 388.275200
  17858  17866  17869     1   107.2600461 396.643200
  17859  17858  17862     1   109.5600471 388.275200
  17859  17860  17863     1   110.2200475 386.601600
  17859  17865  17871     1   107.2600461 396.643200
  17860  17859  17861     1   109.5600471 388.275200
  17861  17859  17865     1   110.2600474 425.931200
  17862  17858  17866     1   110.2600474 425.931200
  17863  17860  17864     1   109.5800467 425.931200
  17863  17860  17876     1   109.5800467 425.931200
  17868  17874  17875     1   107.2600461 396.643200
  17872  17868  17874     1   110.2600474 425.931200
  17872  17868  17873     1   108.4600466 328.025600
  17873  17868  17874     1   110.2600474 425.931200
  17877  17878  17880     1   109.5600471 388.275200
  17877  17891  17895     1   109.5600471 388.275200
  17877  17891  17896     1   109.5600471 388.275200
  17878  17881  17885     1   109.5600471 388.275200
  17878  17890  17893     1   107.2600461 396.643200
  17878  17877  17879     1   109.5600471 388.275200
  17879  17877  17891     1   109.5600471 388.275200
  17879  17877  17899     1   109.7800468 425.094400
  17880  17878  17881     1   109.5600471 388.275200
  17880  17878  17890     1   110.2600474 425.931200
  17881  17882  17884     1   109.5600471 388.275200
  17881  17889  17892     1   107.2600461 396.643200
  17882  17883  17886     1   110.2200475 386.601600
  17882  17888  17894     1   107.2600461 396.643200
  17882  17881  17885     1   109.5600471 388.275200
  17883  17882  17884     1   109.5600471 388.275200
  17884  17882  17888     1   110.2600474 425.931200
  17885  17881  17889     1   110.2600474 425.931200
  17886  17883  17887     1   109.5800467 425.931200
  17886  17883  17899     1   109.5800467 425.931200
  17891  17897  17898     1   107.2600461 396.643200
  17895  17891  17897     1   110.2600474 425.931200
  17895  17891  17896     1   108.4600466 328.025600
  17896  17891  17897     1   110.2600474 425.931200
  17900  17901  17903     1   109.5600471 388.275200
  17900  17914  17918     1   109.5600471 388.275200
  17900  17914  17919     1   109.5600471 388.275200
  17901  17900  17902     1   109.5600471 388.275200
  17901  17904  17908     1   109.5600471 388.275200
  17901  17913  17916     1   107.2600461 396.643200
  17902  17900  17914     1   109.5600471 388.275200
  17902  17900  17922     1   109.7800468 425.094400
  17903  17901  17904     1   109.5600471 388.275200
  17903  17901  17913     1   110.2600474 425.931200
  17904  17905  17907     1   109.5600471 388.275200
  17904  17912  17915     1   107.2600461 396.643200
  17905  17904  17908     1   109.5600471 388.275200
  17905  17906  17909     1   110.2200475 386.601600
  17905  17911  17917     1   107.2600461 396.643200
  17906  17905  17907     1   109.5600471 388.275200
  17907  17905  17911     1   110.2600474 425.931200
  17908  17904  17912     1   110.2600474 425.931200
  17909  17906  17910     1   109.5800467 425.931200
  17909  17906  17922     1   109.5800467 425.931200
  17914  17920  17921     1   107.2600461 396.643200
  17918  17914  17920     1   110.2600474 425.931200
  17918  17914  17919     1   108.4600466 328.025600
  17919  17914  17920     1   110.2600474 425.931200
  17923  17924  17926     1   109.5600471 388.275200
  17923  17937  17941     1   109.5600471 388.275200
  17923  17937  17942     1   109.5600471 388.275200
  17924  17927  17931     1   109.5600471 388.275200
  17924  17936  17939     1   107.2600461 396.643200
  17924  17923  17925     1   109.5600471 388.275200
  17925  17923  17937     1   109.5600471 388.275200
  17925  17923  17945     1   109.7800468 425.094400
  17926  17924  17927     1   109.5600471 388.275200
  17926  17924  17936     1   110.2600474 425.931200
  17927  17928  17930     1   109.5600471 388.275200
  17927  17935  17938     1   107.2600461 396.643200
  17928  17929  17932     1   110.2200475 386.601600
  17928  17934  17940     1   107.2600461 396.643200
  17928  17927  17931     1   109.5600471 388.275200
  17929  17928  17930     1   109.5600471 388.275200
  17930  17928  17934     1   110.2600474 425.931200
  17931  17927  17935     1   110.2600474 425.931200
  17932  17929  17933     1   109.5800467 425.931200
  17932  17929  17945     1   109.5800467 425.931200
  17937  17943  17944     1   107.2600461 396.643200
  17941  17937  17943     1   110.2600474 425.931200
  17941  17937  17942     1   108.4600466 328.025600
  17942  17937  17943     1   110.2600474 425.931200
  17946  17947  17949     1   109.5600471 388.275200
  17946  17960  17964     1   109.5600471 388.275200
  17946  17960  17965     1   109.5600471 388.275200
  17947  17946  17948     1   109.5600471 388.275200
  17947  17950  17954     1   109.5600471 388.275200
  17947  17959  17962     1   107.2600461 396.643200
  17948  17946  17960     1   109.5600471 388.275200
  17948  17946  17968     1   109.7800468 425.094400
  17949  17947  17950     1   109.5600471 388.275200
  17949  17947  17959     1   110.2600474 425.931200
  17950  17951  17953     1   109.5600471 388.275200
  17950  17958  17961     1   107.2600461 396.643200
  17951  17950  17954     1   109.5600471 388.275200
  17951  17952  17955     1   110.2200475 386.601600
  17951  17957  17963     1   107.2600461 396.643200
  17952  17951  17953     1   109.5600471 388.275200
  17953  17951  17957     1   110.2600474 425.931200
  17954  17950  17958     1   110.2600474 425.931200
  17955  17952  17956     1   109.5800467 425.931200
  17955  17952  17968     1   109.5800467 425.931200
  17960  17966  17967     1   107.2600461 396.643200
  17964  17960  17966     1   110.2600474 425.931200
  17964  17960  17965     1   108.4600466 328.025600
  17965  17960  17966     1   110.2600474 425.931200
  17969  17970  17972     1   109.5600471 388.275200
  17969  17983  17987     1   109.5600471 388.275200
  17969  17983  17988     1   109.5600471 388.275200
  17970  17973  17977     1   109.5600471 388.275200
  17970  17982  17985     1   107.2600461 396.643200
  17970  17969  17971     1   109.5600471 388.275200
  17971  17969  17983     1   109.5600471 388.275200
  17971  17969  17991     1   109.7800468 425.094400
  17972  17970  17973     1   109.5600471 388.275200
  17972  17970  17982     1   110.2600474 425.931200
  17973  17974  17976     1   109.5600471 388.275200
  17973  17981  17984     1   107.2600461 396.643200
  17974  17975  17978     1   110.2200475 386.601600
  17974  17980  17986     1   107.2600461 396.643200
  17974  17973  17977     1   109.5600471 388.275200
  17975  17974  17976     1   109.5600471 388.275200
  17976  17974  17980     1   110.2600474 425.931200
  17977  17973  17981     1   110.2600474 425.931200
  17978  17975  17979     1   109.5800467 425.931200
  17978  17975  17991     1   109.5800467 425.931200
  17983  17989  17990     1   107.2600461 396.643200
  17987  17983  17989     1   110.2600474 425.931200
  17987  17983  17988     1   108.4600466 328.025600
  17988  17983  17989     1   110.2600474 425.931200
  17992  17993  17995     1   109.5600471 388.275200
  17992  18006  18010     1   109.5600471 388.275200
  17992  18006  18011     1   109.5600471 388.275200
  17993  17992  17994     1   109.5600471 388.275200
  17993  17996  18000     1   109.5600471 388.275200
  17993  18005  18008     1   107.2600461 396.643200
  17994  17992  18006     1   109.5600471 388.275200
  17994  17992  18014     1   109.7800468 425.094400
  17995  17993  17996     1   109.5600471 388.275200
  17995  17993  18005     1   110.2600474 425.931200
  17996  17997  17999     1   109.5600471 388.275200
  17996  18004  18007     1   107.2600461 396.643200
  17997  17996  18000     1   109.5600471 388.275200
  17997  17998  18001     1   110.2200475 386.601600
  17997  18003  18009     1   107.2600461 396.643200
  17998  17997  17999     1   109.5600471 388.275200
  17999  17997  18003     1   110.2600474 425.931200
  18000  17996  18004     1   110.2600474 425.931200
  18001  17998  18002     1   109.5800467 425.931200
  18001  17998  18014     1   109.5800467 425.931200
  18006  18012  18013     1   107.2600461 396.643200
  18010  18006  18012     1   110.2600474 425.931200
  18010  18006  18011     1   108.4600466 328.025600
  18011  18006  18012     1   110.2600474 425.931200
  18015  18016  18018     1   109.5600471 388.275200
  18015  18029  18033     1   109.5600471 388.275200
  18015  18029  18034     1   109.5600471 388.275200
  18016  18019  18023     1   109.5600471 388.275200
  18016  18028  18031     1   107.2600461 396.643200
  18016  18015  18017     1   109.5600471 388.275200
  18017  18015  18029     1   109.5600471 388.275200
  18017  18015  18037     1   109.7800468 425.094400
  18018  18016  18019     1   109.5600471 388.275200
  18018  18016  18028     1   110.2600474 425.931200
  18019  18020  18022     1   109.5600471 388.275200
  18019  18027  18030     1   107.2600461 396.643200
  18020  18021  18024     1   110.2200475 386.601600
  18020  18026  18032     1   107.2600461 396.643200
  18020  18019  18023     1   109.5600471 388.275200
  18021  18020  18022     1   109.5600471 388.275200
  18022  18020  18026     1   110.2600474 425.931200
  18023  18019  18027     1   110.2600474 425.931200
  18024  18021  18025     1   109.5800467 425.931200
  18024  18021  18037     1   109.5800467 425.931200
  18029  18035  18036     1   107.2600461 396.643200
  18033  18029  18035     1   110.2600474 425.931200
  18033  18029  18034     1   108.4600466 328.025600
  18034  18029  18035     1   110.2600474 425.931200
  18038  18039  18041     1   109.5600471 388.275200
  18038  18052  18056     1   109.5600471 388.275200
  18038  18052  18057     1   109.5600471 388.275200
  18039  18038  18040     1   109.5600471 388.275200
  18039  18042  18046     1   109.5600471 388.275200
  18039  18051  18054     1   107.2600461 396.643200
  18040  18038  18052     1   109.5600471 388.275200
  18040  18038  18060     1   109.7800468 425.094400
  18041  18039  18042     1   109.5600471 388.275200
  18041  18039  18051     1   110.2600474 425.931200
  18042  18043  18045     1   109.5600471 388.275200
  18042  18050  18053     1   107.2600461 396.643200
  18043  18042  18046     1   109.5600471 388.275200
  18043  18044  18047     1   110.2200475 386.601600
  18043  18049  18055     1   107.2600461 396.643200
  18044  18043  18045     1   109.5600471 388.275200
  18045  18043  18049     1   110.2600474 425.931200
  18046  18042  18050     1   110.2600474 425.931200
  18047  18044  18048     1   109.5800467 425.931200
  18047  18044  18060     1   109.5800467 425.931200
  18052  18058  18059     1   107.2600461 396.643200
  18056  18052  18058     1   110.2600474 425.931200
  18056  18052  18057     1   108.4600466 328.025600
  18057  18052  18058     1   110.2600474 425.931200
  18061  18062  18064     1   109.5600471 388.275200
  18061  18075  18079     1   109.5600471 388.275200
  18061  18075  18080     1   109.5600471 388.275200
  18062  18065  18069     1   109.5600471 388.275200
  18062  18074  18077     1   107.2600461 396.643200
  18062  18061  18063     1   109.5600471 388.275200
  18063  18061  18075     1   109.5600471 388.275200
  18063  18061  18083     1   109.7800468 425.094400
  18064  18062  18065     1   109.5600471 388.275200
  18064  18062  18074     1   110.2600474 425.931200
  18065  18066  18068     1   109.5600471 388.275200
  18065  18073  18076     1   107.2600461 396.643200
  18066  18067  18070     1   110.2200475 386.601600
  18066  18072  18078     1   107.2600461 396.643200
  18066  18065  18069     1   109.5600471 388.275200
  18067  18066  18068     1   109.5600471 388.275200
  18068  18066  18072     1   110.2600474 425.931200
  18069  18065  18073     1   110.2600474 425.931200
  18070  18067  18071     1   109.5800467 425.931200
  18070  18067  18083     1   109.5800467 425.931200
  18075  18081  18082     1   107.2600461 396.643200
  18079  18075  18081     1   110.2600474 425.931200
  18079  18075  18080     1   108.4600466 328.025600
  18080  18075  18081     1   110.2600474 425.931200
  18084  18085  18087     1   109.5600471 388.275200
  18084  18098  18102     1   109.5600471 388.275200
  18084  18098  18103     1   109.5600471 388.275200
  18085  18084  18086     1   109.5600471 388.275200
  18085  18088  18092     1   109.5600471 388.275200
  18085  18097  18100     1   107.2600461 396.643200
  18086  18084  18098     1   109.5600471 388.275200
  18086  18084  18106     1   109.7800468 425.094400
  18087  18085  18088     1   109.5600471 388.275200
  18087  18085  18097     1   110.2600474 425.931200
  18088  18089  18091     1   109.5600471 388.275200
  18088  18096  18099     1   107.2600461 396.643200
  18089  18088  18092     1   109.5600471 388.275200
  18089  18090  18093     1   110.2200475 386.601600
  18089  18095  18101     1   107.2600461 396.643200
  18090  18089  18091     1   109.5600471 388.275200
  18091  18089  18095     1   110.2600474 425.931200
  18092  18088  18096     1   110.2600474 425.931200
  18093  18090  18094     1   109.5800467 425.931200
  18093  18090  18106     1   109.5800467 425.931200
  18098  18104  18105     1   107.2600461 396.643200
  18102  18098  18104     1   110.2600474 425.931200
  18102  18098  18103     1   108.4600466 328.025600
  18103  18098  18104     1   110.2600474 425.931200
  18107  18108  18110     1   109.5600471 388.275200
  18107  18121  18125     1   109.5600471 388.275200
  18107  18121  18126     1   109.5600471 388.275200
  18108  18111  18115     1   109.5600471 388.275200
  18108  18120  18123     1   107.2600461 396.643200
  18108  18107  18109     1   109.5600471 388.275200
  18109  18107  18121     1   109.5600471 388.275200
  18109  18107  18129     1   109.7800468 425.094400
  18110  18108  18111     1   109.5600471 388.275200
  18110  18108  18120     1   110.2600474 425.931200
  18111  18112  18114     1   109.5600471 388.275200
  18111  18119  18122     1   107.2600461 396.643200
  18112  18113  18116     1   110.2200475 386.601600
  18112  18118  18124     1   107.2600461 396.643200
  18112  18111  18115     1   109.5600471 388.275200
  18113  18112  18114     1   109.5600471 388.275200
  18114  18112  18118     1   110.2600474 425.931200
  18115  18111  18119     1   110.2600474 425.931200
  18116  18113  18117     1   109.5800467 425.931200
  18116  18113  18129     1   109.5800467 425.931200
  18121  18127  18128     1   107.2600461 396.643200
  18125  18121  18127     1   110.2600474 425.931200
  18125  18121  18126     1   108.4600466 328.025600
  18126  18121  18127     1   110.2600474 425.931200
  18130  18131  18133     1   109.5600471 388.275200
  18130  18144  18148     1   109.5600471 388.275200
  18130  18144  18149     1   109.5600471 388.275200
  18131  18130  18132     1   109.5600471 388.275200
  18131  18134  18138     1   109.5600471 388.275200
  18131  18143  18146     1   107.2600461 396.643200
  18132  18130  18144     1   109.5600471 388.275200
  18132  18130  18152     1   109.7800468 425.094400
  18133  18131  18134     1   109.5600471 388.275200
  18133  18131  18143     1   110.2600474 425.931200
  18134  18135  18137     1   109.5600471 388.275200
  18134  18142  18145     1   107.2600461 396.643200
  18135  18134  18138     1   109.5600471 388.275200
  18135  18136  18139     1   110.2200475 386.601600
  18135  18141  18147     1   107.2600461 396.643200
  18136  18135  18137     1   109.5600471 388.275200
  18137  18135  18141     1   110.2600474 425.931200
  18138  18134  18142     1   110.2600474 425.931200
  18139  18136  18140     1   109.5800467 425.931200
  18139  18136  18152     1   109.5800467 425.931200
  18144  18150  18151     1   107.2600461 396.643200
  18148  18144  18150     1   110.2600474 425.931200
  18148  18144  18149     1   108.4600466 328.025600
  18149  18144  18150     1   110.2600474 425.931200
  18153  18154  18156     1   109.5600471 388.275200
  18153  18167  18171     1   109.5600471 388.275200
  18153  18167  18172     1   109.5600471 388.275200
  18154  18157  18161     1   109.5600471 388.275200
  18154  18166  18169     1   107.2600461 396.643200
  18154  18153  18155     1   109.5600471 388.275200
  18155  18153  18167     1   109.5600471 388.275200
  18155  18153  18175     1   109.7800468 425.094400
  18156  18154  18157     1   109.5600471 388.275200
  18156  18154  18166     1   110.2600474 425.931200
  18157  18158  18160     1   109.5600471 388.275200
  18157  18165  18168     1   107.2600461 396.643200
  18158  18159  18162     1   110.2200475 386.601600
  18158  18164  18170     1   107.2600461 396.643200
  18158  18157  18161     1   109.5600471 388.275200
  18159  18158  18160     1   109.5600471 388.275200
  18160  18158  18164     1   110.2600474 425.931200
  18161  18157  18165     1   110.2600474 425.931200
  18162  18159  18163     1   109.5800467 425.931200
  18162  18159  18175     1   109.5800467 425.931200
  18167  18173  18174     1   107.2600461 396.643200
  18171  18167  18173     1   110.2600474 425.931200
  18171  18167  18172     1   108.4600466 328.025600
  18172  18167  18173     1   110.2600474 425.931200
  18176  18177  18179     1   109.5600471 388.275200
  18176  18190  18194     1   109.5600471 388.275200
  18176  18190  18195     1   109.5600471 388.275200
  18177  18176  18178     1   109.5600471 388.275200
  18177  18180  18184     1   109.5600471 388.275200
  18177  18189  18192     1   107.2600461 396.643200
  18178  18176  18190     1   109.5600471 388.275200
  18178  18176  18198     1   109.7800468 425.094400
  18179  18177  18180     1   109.5600471 388.275200
  18179  18177  18189     1   110.2600474 425.931200
  18180  18181  18183     1   109.5600471 388.275200
  18180  18188  18191     1   107.2600461 396.643200
  18181  18180  18184     1   109.5600471 388.275200
  18181  18182  18185     1   110.2200475 386.601600
  18181  18187  18193     1   107.2600461 396.643200
  18182  18181  18183     1   109.5600471 388.275200
  18183  18181  18187     1   110.2600474 425.931200
  18184  18180  18188     1   110.2600474 425.931200
  18185  18182  18186     1   109.5800467 425.931200
  18185  18182  18198     1   109.5800467 425.931200
  18190  18196  18197     1   107.2600461 396.643200
  18194  18190  18196     1   110.2600474 425.931200
  18194  18190  18195     1   108.4600466 328.025600
  18195  18190  18196     1   110.2600474 425.931200
  18199  18200  18202     1   109.5600471 388.275200
  18199  18213  18217     1   109.5600471 388.275200
  18199  18213  18218     1   109.5600471 388.275200
  18200  18203  18207     1   109.5600471 388.275200
  18200  18212  18215     1   107.2600461 396.643200
  18200  18199  18201     1   109.5600471 388.275200
  18201  18199  18213     1   109.5600471 388.275200
  18201  18199  18221     1   109.7800468 425.094400
  18202  18200  18203     1   109.5600471 388.275200
  18202  18200  18212     1   110.2600474 425.931200
  18203  18204  18206     1   109.5600471 388.275200
  18203  18211  18214     1   107.2600461 396.643200
  18204  18205  18208     1   110.2200475 386.601600
  18204  18210  18216     1   107.2600461 396.643200
  18204  18203  18207     1   109.5600471 388.275200
  18205  18204  18206     1   109.5600471 388.275200
  18206  18204  18210     1   110.2600474 425.931200
  18207  18203  18211     1   110.2600474 425.931200
  18208  18205  18209     1   109.5800467 425.931200
  18208  18205  18221     1   109.5800467 425.931200
  18213  18219  18220     1   107.2600461 396.643200
  18217  18213  18219     1   110.2600474 425.931200
  18217  18213  18218     1   108.4600466 328.025600
  18218  18213  18219     1   110.2600474 425.931200
  18222  18223  18225     1   109.5600471 388.275200
  18222  18236  18240     1   109.5600471 388.275200
  18222  18236  18241     1   109.5600471 388.275200
  18223  18222  18224     1   109.5600471 388.275200
  18223  18226  18230     1   109.5600471 388.275200
  18223  18235  18238     1   107.2600461 396.643200
  18224  18222  18236     1   109.5600471 388.275200
  18224  18222  18244     1   109.7800468 425.094400
  18225  18223  18226     1   109.5600471 388.275200
  18225  18223  18235     1   110.2600474 425.931200
  18226  18227  18229     1   109.5600471 388.275200
  18226  18234  18237     1   107.2600461 396.643200
  18227  18226  18230     1   109.5600471 388.275200
  18227  18228  18231     1   110.2200475 386.601600
  18227  18233  18239     1   107.2600461 396.643200
  18228  18227  18229     1   109.5600471 388.275200
  18229  18227  18233     1   110.2600474 425.931200
  18230  18226  18234     1   110.2600474 425.931200
  18231  18228  18232     1   109.5800467 425.931200
  18231  18228  18244     1   109.5800467 425.931200
  18236  18242  18243     1   107.2600461 396.643200
  18240  18236  18242     1   110.2600474 425.931200
  18240  18236  18241     1   108.4600466 328.025600
  18241  18236  18242     1   110.2600474 425.931200
  18245  18246  18248     1   109.5600471 388.275200
  18245  18259  18263     1   109.5600471 388.275200
  18245  18259  18264     1   109.5600471 388.275200
  18246  18249  18253     1   109.5600471 388.275200
  18246  18258  18261     1   107.2600461 396.643200
  18246  18245  18247     1   109.5600471 388.275200
  18247  18245  18259     1   109.5600471 388.275200
  18247  18245  18267     1   109.7800468 425.094400
  18248  18246  18249     1   109.5600471 388.275200
  18248  18246  18258     1   110.2600474 425.931200
  18249  18250  18252     1   109.5600471 388.275200
  18249  18257  18260     1   107.2600461 396.643200
  18250  18251  18254     1   110.2200475 386.601600
  18250  18256  18262     1   107.2600461 396.643200
  18250  18249  18253     1   109.5600471 388.275200
  18251  18250  18252     1   109.5600471 388.275200
  18252  18250  18256     1   110.2600474 425.931200
  18253  18249  18257     1   110.2600474 425.931200
  18254  18251  18255     1   109.5800467 425.931200
  18254  18251  18267     1   109.5800467 425.931200
  18259  18265  18266     1   107.2600461 396.643200
  18263  18259  18265     1   110.2600474 425.931200
  18263  18259  18264     1   108.4600466 328.025600
  18264  18259  18265     1   110.2600474 425.931200
  18268  18269  18271     1   109.5600471 388.275200
  18268  18282  18286     1   109.5600471 388.275200
  18268  18282  18287     1   109.5600471 388.275200
  18269  18268  18270     1   109.5600471 388.275200
  18269  18272  18276     1   109.5600471 388.275200
  18269  18281  18284     1   107.2600461 396.643200
  18270  18268  18282     1   109.5600471 388.275200
  18270  18268  18290     1   109.7800468 425.094400
  18271  18269  18272     1   109.5600471 388.275200
  18271  18269  18281     1   110.2600474 425.931200
  18272  18273  18275     1   109.5600471 388.275200
  18272  18280  18283     1   107.2600461 396.643200
  18273  18272  18276     1   109.5600471 388.275200
  18273  18274  18277     1   110.2200475 386.601600
  18273  18279  18285     1   107.2600461 396.643200
  18274  18273  18275     1   109.5600471 388.275200
  18275  18273  18279     1   110.2600474 425.931200
  18276  18272  18280     1   110.2600474 425.931200
  18277  18274  18278     1   109.5800467 425.931200
  18277  18274  18290     1   109.5800467 425.931200
  18282  18288  18289     1   107.2600461 396.643200
  18286  18282  18288     1   110.2600474 425.931200
  18286  18282  18287     1   108.4600466 328.025600
  18287  18282  18288     1   110.2600474 425.931200
  18291  18292  18294     1   109.5600471 388.275200
  18291  18305  18309     1   109.5600471 388.275200
  18291  18305  18310     1   109.5600471 388.275200
  18292  18295  18299     1   109.5600471 388.275200
  18292  18304  18307     1   107.2600461 396.643200
  18292  18291  18293     1   109.5600471 388.275200
  18293  18291  18305     1   109.5600471 388.275200
  18293  18291  18313     1   109.7800468 425.094400
  18294  18292  18295     1   109.5600471 388.275200
  18294  18292  18304     1   110.2600474 425.931200
  18295  18296  18298     1   109.5600471 388.275200
  18295  18303  18306     1   107.2600461 396.643200
  18296  18297  18300     1   110.2200475 386.601600
  18296  18302  18308     1   107.2600461 396.643200
  18296  18295  18299     1   109.5600471 388.275200
  18297  18296  18298     1   109.5600471 388.275200
  18298  18296  18302     1   110.2600474 425.931200
  18299  18295  18303     1   110.2600474 425.931200
  18300  18297  18301     1   109.5800467 425.931200
  18300  18297  18313     1   109.5800467 425.931200
  18305  18311  18312     1   107.2600461 396.643200
  18309  18305  18311     1   110.2600474 425.931200
  18309  18305  18310     1   108.4600466 328.025600
  18310  18305  18311     1   110.2600474 425.931200
  18314  18315  18317     1   109.5600471 388.275200
  18314  18328  18332     1   109.5600471 388.275200
  18314  18328  18333     1   109.5600471 388.275200
  18315  18314  18316     1   109.5600471 388.275200
  18315  18318  18322     1   109.5600471 388.275200
  18315  18327  18330     1   107.2600461 396.643200
  18316  18314  18328     1   109.5600471 388.275200
  18316  18314  18336     1   109.7800468 425.094400
  18317  18315  18318     1   109.5600471 388.275200
  18317  18315  18327     1   110.2600474 425.931200
  18318  18319  18321     1   109.5600471 388.275200
  18318  18326  18329     1   107.2600461 396.643200
  18319  18318  18322     1   109.5600471 388.275200
  18319  18320  18323     1   110.2200475 386.601600
  18319  18325  18331     1   107.2600461 396.643200
  18320  18319  18321     1   109.5600471 388.275200
  18321  18319  18325     1   110.2600474 425.931200
  18322  18318  18326     1   110.2600474 425.931200
  18323  18320  18324     1   109.5800467 425.931200
  18323  18320  18336     1   109.5800467 425.931200
  18328  18334  18335     1   107.2600461 396.643200
  18332  18328  18334     1   110.2600474 425.931200
  18332  18328  18333     1   108.4600466 328.025600
  18333  18328  18334     1   110.2600474 425.931200
  18337  18338  18340     1   109.5600471 388.275200
  18337  18351  18355     1   109.5600471 388.275200
  18337  18351  18356     1   109.5600471 388.275200
  18338  18341  18345     1   109.5600471 388.275200
  18338  18350  18353     1   107.2600461 396.643200
  18338  18337  18339     1   109.5600471 388.275200
  18339  18337  18351     1   109.5600471 388.275200
  18339  18337  18359     1   109.7800468 425.094400
  18340  18338  18341     1   109.5600471 388.275200
  18340  18338  18350     1   110.2600474 425.931200
  18341  18342  18344     1   109.5600471 388.275200
  18341  18349  18352     1   107.2600461 396.643200
  18342  18343  18346     1   110.2200475 386.601600
  18342  18348  18354     1   107.2600461 396.643200
  18342  18341  18345     1   109.5600471 388.275200
  18343  18342  18344     1   109.5600471 388.275200
  18344  18342  18348     1   110.2600474 425.931200
  18345  18341  18349     1   110.2600474 425.931200
  18346  18343  18347     1   109.5800467 425.931200
  18346  18343  18359     1   109.5800467 425.931200
  18351  18357  18358     1   107.2600461 396.643200
  18355  18351  18357     1   110.2600474 425.931200
  18355  18351  18356     1   108.4600466 328.025600
  18356  18351  18357     1   110.2600474 425.931200
  18360  18361  18363     1   109.5600471 388.275200
  18360  18374  18378     1   109.5600471 388.275200
  18360  18374  18379     1   109.5600471 388.275200
  18361  18360  18362     1   109.5600471 388.275200
  18361  18364  18368     1   109.5600471 388.275200
  18361  18373  18376     1   107.2600461 396.643200
  18362  18360  18374     1   109.5600471 388.275200
  18362  18360  18382     1   109.7800468 425.094400
  18363  18361  18364     1   109.5600471 388.275200
  18363  18361  18373     1   110.2600474 425.931200
  18364  18365  18367     1   109.5600471 388.275200
  18364  18372  18375     1   107.2600461 396.643200
  18365  18364  18368     1   109.5600471 388.275200
  18365  18366  18369     1   110.2200475 386.601600
  18365  18371  18377     1   107.2600461 396.643200
  18366  18365  18367     1   109.5600471 388.275200
  18367  18365  18371     1   110.2600474 425.931200
  18368  18364  18372     1   110.2600474 425.931200
  18369  18366  18370     1   109.5800467 425.931200
  18369  18366  18382     1   109.5800467 425.931200
  18374  18380  18381     1   107.2600461 396.643200
  18378  18374  18380     1   110.2600474 425.931200
  18378  18374  18379     1   108.4600466 328.025600
  18379  18374  18380     1   110.2600474 425.931200
  18383  18384  18386     1   109.5600471 388.275200
  18383  18397  18401     1   109.5600471 388.275200
  18383  18397  18402     1   109.5600471 388.275200
  18384  18387  18391     1   109.5600471 388.275200
  18384  18396  18399     1   107.2600461 396.643200
  18384  18383  18385     1   109.5600471 388.275200
  18385  18383  18397     1   109.5600471 388.275200
  18385  18383  18405     1   109.7800468 425.094400
  18386  18384  18387     1   109.5600471 388.275200
  18386  18384  18396     1   110.2600474 425.931200
  18387  18388  18390     1   109.5600471 388.275200
  18387  18395  18398     1   107.2600461 396.643200
  18388  18389  18392     1   110.2200475 386.601600
  18388  18394  18400     1   107.2600461 396.643200
  18388  18387  18391     1   109.5600471 388.275200
  18389  18388  18390     1   109.5600471 388.275200
  18390  18388  18394     1   110.2600474 425.931200
  18391  18387  18395     1   110.2600474 425.931200
  18392  18389  18393     1   109.5800467 425.931200
  18392  18389  18405     1   109.5800467 425.931200
  18397  18403  18404     1   107.2600461 396.643200
  18401  18397  18403     1   110.2600474 425.931200
  18401  18397  18402     1   108.4600466 328.025600
  18402  18397  18403     1   110.2600474 425.931200
  18406  18407  18409     1   109.5600471 388.275200
  18406  18420  18424     1   109.5600471 388.275200
  18406  18420  18425     1   109.5600471 388.275200
  18407  18406  18408     1   109.5600471 388.275200
  18407  18410  18414     1   109.5600471 388.275200
  18407  18419  18422     1   107.2600461 396.643200
  18408  18406  18420     1   109.5600471 388.275200
  18408  18406  18428     1   109.7800468 425.094400
  18409  18407  18410     1   109.5600471 388.275200
  18409  18407  18419     1   110.2600474 425.931200
  18410  18411  18413     1   109.5600471 388.275200
  18410  18418  18421     1   107.2600461 396.643200
  18411  18410  18414     1   109.5600471 388.275200
  18411  18412  18415     1   110.2200475 386.601600
  18411  18417  18423     1   107.2600461 396.643200
  18412  18411  18413     1   109.5600471 388.275200
  18413  18411  18417     1   110.2600474 425.931200
  18414  18410  18418     1   110.2600474 425.931200
  18415  18412  18416     1   109.5800467 425.931200
  18415  18412  18428     1   109.5800467 425.931200
  18420  18426  18427     1   107.2600461 396.643200
  18424  18420  18426     1   110.2600474 425.931200
  18424  18420  18425     1   108.4600466 328.025600
  18425  18420  18426     1   110.2600474 425.931200
  18429  18430  18432     1   109.5600471 388.275200
  18429  18443  18447     1   109.5600471 388.275200
  18429  18443  18448     1   109.5600471 388.275200
  18430  18433  18437     1   109.5600471 388.275200
  18430  18442  18445     1   107.2600461 396.643200
  18430  18429  18431     1   109.5600471 388.275200
  18431  18429  18443     1   109.5600471 388.275200
  18431  18429  18451     1   109.7800468 425.094400
  18432  18430  18433     1   109.5600471 388.275200
  18432  18430  18442     1   110.2600474 425.931200
  18433  18434  18436     1   109.5600471 388.275200
  18433  18441  18444     1   107.2600461 396.643200
  18434  18435  18438     1   110.2200475 386.601600
  18434  18440  18446     1   107.2600461 396.643200
  18434  18433  18437     1   109.5600471 388.275200
  18435  18434  18436     1   109.5600471 388.275200
  18436  18434  18440     1   110.2600474 425.931200
  18437  18433  18441     1   110.2600474 425.931200
  18438  18435  18439     1   109.5800467 425.931200
  18438  18435  18451     1   109.5800467 425.931200
  18443  18449  18450     1   107.2600461 396.643200
  18447  18443  18449     1   110.2600474 425.931200
  18447  18443  18448     1   108.4600466 328.025600
  18448  18443  18449     1   110.2600474 425.931200
  18452  18453  18455     1   109.5600471 388.275200
  18452  18466  18470     1   109.5600471 388.275200
  18452  18466  18471     1   109.5600471 388.275200
  18453  18452  18454     1   109.5600471 388.275200
  18453  18456  18460     1   109.5600471 388.275200
  18453  18465  18468     1   107.2600461 396.643200
  18454  18452  18466     1   109.5600471 388.275200
  18454  18452  18474     1   109.7800468 425.094400
  18455  18453  18456     1   109.5600471 388.275200
  18455  18453  18465     1   110.2600474 425.931200
  18456  18457  18459     1   109.5600471 388.275200
  18456  18464  18467     1   107.2600461 396.643200
  18457  18456  18460     1   109.5600471 388.275200
  18457  18458  18461     1   110.2200475 386.601600
  18457  18463  18469     1   107.2600461 396.643200
  18458  18457  18459     1   109.5600471 388.275200
  18459  18457  18463     1   110.2600474 425.931200
  18460  18456  18464     1   110.2600474 425.931200
  18461  18458  18462     1   109.5800467 425.931200
  18461  18458  18474     1   109.5800467 425.931200
  18466  18472  18473     1   107.2600461 396.643200
  18470  18466  18472     1   110.2600474 425.931200
  18470  18466  18471     1   108.4600466 328.025600
  18471  18466  18472     1   110.2600474 425.931200
  18475  18476  18478     1   109.5600471 388.275200
  18475  18489  18493     1   109.5600471 388.275200
  18475  18489  18494     1   109.5600471 388.275200
  18476  18479  18483     1   109.5600471 388.275200
  18476  18488  18491     1   107.2600461 396.643200
  18476  18475  18477     1   109.5600471 388.275200
  18477  18475  18489     1   109.5600471 388.275200
  18477  18475  18497     1   109.7800468 425.094400
  18478  18476  18479     1   109.5600471 388.275200
  18478  18476  18488     1   110.2600474 425.931200
  18479  18480  18482     1   109.5600471 388.275200
  18479  18487  18490     1   107.2600461 396.643200
  18480  18481  18484     1   110.2200475 386.601600
  18480  18486  18492     1   107.2600461 396.643200
  18480  18479  18483     1   109.5600471 388.275200
  18481  18480  18482     1   109.5600471 388.275200
  18482  18480  18486     1   110.2600474 425.931200
  18483  18479  18487     1   110.2600474 425.931200
  18484  18481  18485     1   109.5800467 425.931200
  18484  18481  18497     1   109.5800467 425.931200
  18489  18495  18496     1   107.2600461 396.643200
  18493  18489  18495     1   110.2600474 425.931200
  18493  18489  18494     1   108.4600466 328.025600
  18494  18489  18495     1   110.2600474 425.931200
  18498  18499  18501     1   109.5600471 388.275200
  18498  18512  18516     1   109.5600471 388.275200
  18498  18512  18517     1   109.5600471 388.275200
  18499  18498  18500     1   109.5600471 388.275200
  18499  18502  18506     1   109.5600471 388.275200
  18499  18511  18514     1   107.2600461 396.643200
  18500  18498  18512     1   109.5600471 388.275200
  18500  18498  18520     1   109.7800468 425.094400
  18501  18499  18502     1   109.5600471 388.275200
  18501  18499  18511     1   110.2600474 425.931200
  18502  18503  18505     1   109.5600471 388.275200
  18502  18510  18513     1   107.2600461 396.643200
  18503  18502  18506     1   109.5600471 388.275200
  18503  18504  18507     1   110.2200475 386.601600
  18503  18509  18515     1   107.2600461 396.643200
  18504  18503  18505     1   109.5600471 388.275200
  18505  18503  18509     1   110.2600474 425.931200
  18506  18502  18510     1   110.2600474 425.931200
  18507  18504  18508     1   109.5800467 425.931200
  18507  18504  18520     1   109.5800467 425.931200
  18512  18518  18519     1   107.2600461 396.643200
  18516  18512  18518     1   110.2600474 425.931200
  18516  18512  18517     1   108.4600466 328.025600
  18517  18512  18518     1   110.2600474 425.931200
  18521  18522  18524     1   109.5600471 388.275200
  18521  18535  18539     1   109.5600471 388.275200
  18521  18535  18540     1   109.5600471 388.275200
  18522  18525  18529     1   109.5600471 388.275200
  18522  18534  18537     1   107.2600461 396.643200
  18522  18521  18523     1   109.5600471 388.275200
  18523  18521  18535     1   109.5600471 388.275200
  18523  18521  18543     1   109.7800468 425.094400
  18524  18522  18525     1   109.5600471 388.275200
  18524  18522  18534     1   110.2600474 425.931200
  18525  18526  18528     1   109.5600471 388.275200
  18525  18533  18536     1   107.2600461 396.643200
  18526  18527  18530     1   110.2200475 386.601600
  18526  18532  18538     1   107.2600461 396.643200
  18526  18525  18529     1   109.5600471 388.275200
  18527  18526  18528     1   109.5600471 388.275200
  18528  18526  18532     1   110.2600474 425.931200
  18529  18525  18533     1   110.2600474 425.931200
  18530  18527  18531     1   109.5800467 425.931200
  18530  18527  18543     1   109.5800467 425.931200
  18535  18541  18542     1   107.2600461 396.643200
  18539  18535  18541     1   110.2600474 425.931200
  18539  18535  18540     1   108.4600466 328.025600
  18540  18535  18541     1   110.2600474 425.931200
  18544  18545  18547     1   109.5600471 388.275200
  18544  18558  18562     1   109.5600471 388.275200
  18544  18558  18563     1   109.5600471 388.275200
  18545  18544  18546     1   109.5600471 388.275200
  18545  18548  18552     1   109.5600471 388.275200
  18545  18557  18560     1   107.2600461 396.643200
  18546  18544  18558     1   109.5600471 388.275200
  18546  18544  18566     1   109.7800468 425.094400
  18547  18545  18548     1   109.5600471 388.275200
  18547  18545  18557     1   110.2600474 425.931200
  18548  18549  18551     1   109.5600471 388.275200
  18548  18556  18559     1   107.2600461 396.643200
  18549  18548  18552     1   109.5600471 388.275200
  18549  18550  18553     1   110.2200475 386.601600
  18549  18555  18561     1   107.2600461 396.643200
  18550  18549  18551     1   109.5600471 388.275200
  18551  18549  18555     1   110.2600474 425.931200
  18552  18548  18556     1   110.2600474 425.931200
  18553  18550  18554     1   109.5800467 425.931200
  18553  18550  18566     1   109.5800467 425.931200
  18558  18564  18565     1   107.2600461 396.643200
  18562  18558  18564     1   110.2600474 425.931200
  18562  18558  18563     1   108.4600466 328.025600
  18563  18558  18564     1   110.2600474 425.931200
  18567  18568  18570     1   109.5600471 388.275200
  18567  18581  18585     1   109.5600471 388.275200
  18567  18581  18586     1   109.5600471 388.275200
  18568  18571  18575     1   109.5600471 388.275200
  18568  18580  18583     1   107.2600461 396.643200
  18568  18567  18569     1   109.5600471 388.275200
  18569  18567  18581     1   109.5600471 388.275200
  18569  18567  18589     1   109.7800468 425.094400
  18570  18568  18571     1   109.5600471 388.275200
  18570  18568  18580     1   110.2600474 425.931200
  18571  18572  18574     1   109.5600471 388.275200
  18571  18579  18582     1   107.2600461 396.643200
  18572  18573  18576     1   110.2200475 386.601600
  18572  18578  18584     1   107.2600461 396.643200
  18572  18571  18575     1   109.5600471 388.275200
  18573  18572  18574     1   109.5600471 388.275200
  18574  18572  18578     1   110.2600474 425.931200
  18575  18571  18579     1   110.2600474 425.931200
  18576  18573  18577     1   109.5800467 425.931200
  18576  18573  18589     1   109.5800467 425.931200
  18581  18587  18588     1   107.2600461 396.643200
  18585  18581  18587     1   110.2600474 425.931200
  18585  18581  18586     1   108.4600466 328.025600
  18586  18581  18587     1   110.2600474 425.931200
  18590  18591  18593     1   109.5600471 388.275200
  18590  18604  18608     1   109.5600471 388.275200
  18590  18604  18609     1   109.5600471 388.275200
  18591  18590  18592     1   109.5600471 388.275200
  18591  18594  18598     1   109.5600471 388.275200
  18591  18603  18606     1   107.2600461 396.643200
  18592  18590  18604     1   109.5600471 388.275200
  18592  18590  18612     1   109.7800468 425.094400
  18593  18591  18594     1   109.5600471 388.275200
  18593  18591  18603     1   110.2600474 425.931200
  18594  18595  18597     1   109.5600471 388.275200
  18594  18602  18605     1   107.2600461 396.643200
  18595  18594  18598     1   109.5600471 388.275200
  18595  18596  18599     1   110.2200475 386.601600
  18595  18601  18607     1   107.2600461 396.643200
  18596  18595  18597     1   109.5600471 388.275200
  18597  18595  18601     1   110.2600474 425.931200
  18598  18594  18602     1   110.2600474 425.931200
  18599  18596  18600     1   109.5800467 425.931200
  18599  18596  18612     1   109.5800467 425.931200
  18604  18610  18611     1   107.2600461 396.643200
  18608  18604  18610     1   110.2600474 425.931200
  18608  18604  18609     1   108.4600466 328.025600
  18609  18604  18610     1   110.2600474 425.931200
  18613  18614  18616     1   109.5600471 388.275200
  18613  18627  18631     1   109.5600471 388.275200
  18613  18627  18632     1   109.5600471 388.275200
  18614  18617  18621     1   109.5600471 388.275200
  18614  18626  18629     1   107.2600461 396.643200
  18614  18613  18615     1   109.5600471 388.275200
  18615  18613  18627     1   109.5600471 388.275200
  18615  18613  18635     1   109.7800468 425.094400
  18616  18614  18617     1   109.5600471 388.275200
  18616  18614  18626     1   110.2600474 425.931200
  18617  18618  18620     1   109.5600471 388.275200
  18617  18625  18628     1   107.2600461 396.643200
  18618  18619  18622     1   110.2200475 386.601600
  18618  18624  18630     1   107.2600461 396.643200
  18618  18617  18621     1   109.5600471 388.275200
  18619  18618  18620     1   109.5600471 388.275200
  18620  18618  18624     1   110.2600474 425.931200
  18621  18617  18625     1   110.2600474 425.931200
  18622  18619  18623     1   109.5800467 425.931200
  18622  18619  18635     1   109.5800467 425.931200
  18627  18633  18634     1   107.2600461 396.643200
  18631  18627  18633     1   110.2600474 425.931200
  18631  18627  18632     1   108.4600466 328.025600
  18632  18627  18633     1   110.2600474 425.931200
  18636  18637  18639     1   109.5600471 388.275200
  18636  18650  18654     1   109.5600471 388.275200
  18636  18650  18655     1   109.5600471 388.275200
  18637  18636  18638     1   109.5600471 388.275200
  18637  18640  18644     1   109.5600471 388.275200
  18637  18649  18652     1   107.2600461 396.643200
  18638  18636  18650     1   109.5600471 388.275200
  18638  18636  18658     1   109.7800468 425.094400
  18639  18637  18640     1   109.5600471 388.275200
  18639  18637  18649     1   110.2600474 425.931200
  18640  18641  18643     1   109.5600471 388.275200
  18640  18648  18651     1   107.2600461 396.643200
  18641  18640  18644     1   109.5600471 388.275200
  18641  18642  18645     1   110.2200475 386.601600
  18641  18647  18653     1   107.2600461 396.643200
  18642  18641  18643     1   109.5600471 388.275200
  18643  18641  18647     1   110.2600474 425.931200
  18644  18640  18648     1   110.2600474 425.931200
  18645  18642  18646     1   109.5800467 425.931200
  18645  18642  18658     1   109.5800467 425.931200
  18650  18656  18657     1   107.2600461 396.643200
  18654  18650  18656     1   110.2600474 425.931200
  18654  18650  18655     1   108.4600466 328.025600
  18655  18650  18656     1   110.2600474 425.931200
  18659  18660  18662     1   109.5600471 388.275200
  18659  18673  18677     1   109.5600471 388.275200
  18659  18673  18678     1   109.5600471 388.275200
  18660  18663  18667     1   109.5600471 388.275200
  18660  18672  18675     1   107.2600461 396.643200
  18660  18659  18661     1   109.5600471 388.275200
  18661  18659  18673     1   109.5600471 388.275200
  18661  18659  18681     1   109.7800468 425.094400
  18662  18660  18663     1   109.5600471 388.275200
  18662  18660  18672     1   110.2600474 425.931200
  18663  18664  18666     1   109.5600471 388.275200
  18663  18671  18674     1   107.2600461 396.643200
  18664  18665  18668     1   110.2200475 386.601600
  18664  18670  18676     1   107.2600461 396.643200
  18664  18663  18667     1   109.5600471 388.275200
  18665  18664  18666     1   109.5600471 388.275200
  18666  18664  18670     1   110.2600474 425.931200
  18667  18663  18671     1   110.2600474 425.931200
  18668  18665  18669     1   109.5800467 425.931200
  18668  18665  18681     1   109.5800467 425.931200
  18673  18679  18680     1   107.2600461 396.643200
  18677  18673  18679     1   110.2600474 425.931200
  18677  18673  18678     1   108.4600466 328.025600
  18678  18673  18679     1   110.2600474 425.931200
  18682  18683  18685     1   109.5600471 388.275200
  18682  18696  18700     1   109.5600471 388.275200
  18682  18696  18701     1   109.5600471 388.275200
  18683  18682  18684     1   109.5600471 388.275200
  18683  18686  18690     1   109.5600471 388.275200
  18683  18695  18698     1   107.2600461 396.643200
  18684  18682  18696     1   109.5600471 388.275200
  18684  18682  18704     1   109.7800468 425.094400
  18685  18683  18686     1   109.5600471 388.275200
  18685  18683  18695     1   110.2600474 425.931200
  18686  18687  18689     1   109.5600471 388.275200
  18686  18694  18697     1   107.2600461 396.643200
  18687  18686  18690     1   109.5600471 388.275200
  18687  18688  18691     1   110.2200475 386.601600
  18687  18693  18699     1   107.2600461 396.643200
  18688  18687  18689     1   109.5600471 388.275200
  18689  18687  18693     1   110.2600474 425.931200
  18690  18686  18694     1   110.2600474 425.931200
  18691  18688  18692     1   109.5800467 425.931200
  18691  18688  18704     1   109.5800467 425.931200
  18696  18702  18703     1   107.2600461 396.643200
  18700  18696  18702     1   110.2600474 425.931200
  18700  18696  18701     1   108.4600466 328.025600
  18701  18696  18702     1   110.2600474 425.931200
  18705  18706  18708     1   109.5600471 388.275200
  18705  18719  18723     1   109.5600471 388.275200
  18705  18719  18724     1   109.5600471 388.275200
  18706  18709  18713     1   109.5600471 388.275200
  18706  18718  18721     1   107.2600461 396.643200
  18706  18705  18707     1   109.5600471 388.275200
  18707  18705  18719     1   109.5600471 388.275200
  18707  18705  18727     1   109.7800468 425.094400
  18708  18706  18709     1   109.5600471 388.275200
  18708  18706  18718     1   110.2600474 425.931200
  18709  18710  18712     1   109.5600471 388.275200
  18709  18717  18720     1   107.2600461 396.643200
  18710  18711  18714     1   110.2200475 386.601600
  18710  18716  18722     1   107.2600461 396.643200
  18710  18709  18713     1   109.5600471 388.275200
  18711  18710  18712     1   109.5600471 388.275200
  18712  18710  18716     1   110.2600474 425.931200
  18713  18709  18717     1   110.2600474 425.931200
  18714  18711  18715     1   109.5800467 425.931200
  18714  18711  18727     1   109.5800467 425.931200
  18719  18725  18726     1   107.2600461 396.643200
  18723  18719  18725     1   110.2600474 425.931200
  18723  18719  18724     1   108.4600466 328.025600
  18724  18719  18725     1   110.2600474 425.931200
  18728  18729  18731     1   109.5600471 388.275200
  18728  18742  18746     1   109.5600471 388.275200
  18728  18742  18747     1   109.5600471 388.275200
  18729  18728  18730     1   109.5600471 388.275200
  18729  18732  18736     1   109.5600471 388.275200
  18729  18741  18744     1   107.2600461 396.643200
  18730  18728  18742     1   109.5600471 388.275200
  18730  18728  18750     1   109.7800468 425.094400
  18731  18729  18732     1   109.5600471 388.275200
  18731  18729  18741     1   110.2600474 425.931200
  18732  18733  18735     1   109.5600471 388.275200
  18732  18740  18743     1   107.2600461 396.643200
  18733  18732  18736     1   109.5600471 388.275200
  18733  18734  18737     1   110.2200475 386.601600
  18733  18739  18745     1   107.2600461 396.643200
  18734  18733  18735     1   109.5600471 388.275200
  18735  18733  18739     1   110.2600474 425.931200
  18736  18732  18740     1   110.2600474 425.931200
  18737  18734  18738     1   109.5800467 425.931200
  18737  18734  18750     1   109.5800467 425.931200
  18742  18748  18749     1   107.2600461 396.643200
  18746  18742  18748     1   110.2600474 425.931200
  18746  18742  18747     1   108.4600466 328.025600
  18747  18742  18748     1   110.2600474 425.931200
  18751  18752  18754     1   109.5600471 388.275200
  18751  18765  18769     1   109.5600471 388.275200
  18751  18765  18770     1   109.5600471 388.275200
  18752  18755  18759     1   109.5600471 388.275200
  18752  18764  18767     1   107.2600461 396.643200
  18752  18751  18753     1   109.5600471 388.275200
  18753  18751  18765     1   109.5600471 388.275200
  18753  18751  18773     1   109.7800468 425.094400
  18754  18752  18755     1   109.5600471 388.275200
  18754  18752  18764     1   110.2600474 425.931200
  18755  18756  18758     1   109.5600471 388.275200
  18755  18763  18766     1   107.2600461 396.643200
  18756  18757  18760     1   110.2200475 386.601600
  18756  18762  18768     1   107.2600461 396.643200
  18756  18755  18759     1   109.5600471 388.275200
  18757  18756  18758     1   109.5600471 388.275200
  18758  18756  18762     1   110.2600474 425.931200
  18759  18755  18763     1   110.2600474 425.931200
  18760  18757  18761     1   109.5800467 425.931200
  18760  18757  18773     1   109.5800467 425.931200
  18765  18771  18772     1   107.2600461 396.643200
  18769  18765  18771     1   110.2600474 425.931200
  18769  18765  18770     1   108.4600466 328.025600
  18770  18765  18771     1   110.2600474 425.931200
  18774  18775  18777     1   109.5600471 388.275200
  18774  18788  18792     1   109.5600471 388.275200
  18774  18788  18793     1   109.5600471 388.275200
  18775  18774  18776     1   109.5600471 388.275200
  18775  18778  18782     1   109.5600471 388.275200
  18775  18787  18790     1   107.2600461 396.643200
  18776  18774  18788     1   109.5600471 388.275200
  18776  18774  18796     1   109.7800468 425.094400
  18777  18775  18778     1   109.5600471 388.275200
  18777  18775  18787     1   110.2600474 425.931200
  18778  18779  18781     1   109.5600471 388.275200
  18778  18786  18789     1   107.2600461 396.643200
  18779  18778  18782     1   109.5600471 388.275200
  18779  18780  18783     1   110.2200475 386.601600
  18779  18785  18791     1   107.2600461 396.643200
  18780  18779  18781     1   109.5600471 388.275200
  18781  18779  18785     1   110.2600474 425.931200
  18782  18778  18786     1   110.2600474 425.931200
  18783  18780  18784     1   109.5800467 425.931200
  18783  18780  18796     1   109.5800467 425.931200
  18788  18794  18795     1   107.2600461 396.643200
  18792  18788  18794     1   110.2600474 425.931200
  18792  18788  18793     1   108.4600466 328.025600
  18793  18788  18794     1   110.2600474 425.931200
  18797  18798  18800     1   109.5600471 388.275200
  18797  18811  18815     1   109.5600471 388.275200
  18797  18811  18816     1   109.5600471 388.275200
  18798  18801  18805     1   109.5600471 388.275200
  18798  18810  18813     1   107.2600461 396.643200
  18798  18797  18799     1   109.5600471 388.275200
  18799  18797  18811     1   109.5600471 388.275200
  18799  18797  18819     1   109.7800468 425.094400
  18800  18798  18801     1   109.5600471 388.275200
  18800  18798  18810     1   110.2600474 425.931200
  18801  18802  18804     1   109.5600471 388.275200
  18801  18809  18812     1   107.2600461 396.643200
  18802  18803  18806     1   110.2200475 386.601600
  18802  18808  18814     1   107.2600461 396.643200
  18802  18801  18805     1   109.5600471 388.275200
  18803  18802  18804     1   109.5600471 388.275200
  18804  18802  18808     1   110.2600474 425.931200
  18805  18801  18809     1   110.2600474 425.931200
  18806  18803  18807     1   109.5800467 425.931200
  18806  18803  18819     1   109.5800467 425.931200
  18811  18817  18818     1   107.2600461 396.643200
  18815  18811  18817     1   110.2600474 425.931200
  18815  18811  18816     1   108.4600466 328.025600
  18816  18811  18817     1   110.2600474 425.931200
  18820  18821  18823     1   109.5600471 388.275200
  18820  18834  18838     1   109.5600471 388.275200
  18820  18834  18839     1   109.5600471 388.275200
  18821  18820  18822     1   109.5600471 388.275200
  18821  18824  18828     1   109.5600471 388.275200
  18821  18833  18836     1   107.2600461 396.643200
  18822  18820  18834     1   109.5600471 388.275200
  18822  18820  18842     1   109.7800468 425.094400
  18823  18821  18824     1   109.5600471 388.275200
  18823  18821  18833     1   110.2600474 425.931200
  18824  18825  18827     1   109.5600471 388.275200
  18824  18832  18835     1   107.2600461 396.643200
  18825  18824  18828     1   109.5600471 388.275200
  18825  18826  18829     1   110.2200475 386.601600
  18825  18831  18837     1   107.2600461 396.643200
  18826  18825  18827     1   109.5600471 388.275200
  18827  18825  18831     1   110.2600474 425.931200
  18828  18824  18832     1   110.2600474 425.931200
  18829  18826  18830     1   109.5800467 425.931200
  18829  18826  18842     1   109.5800467 425.931200
  18834  18840  18841     1   107.2600461 396.643200
  18838  18834  18840     1   110.2600474 425.931200
  18838  18834  18839     1   108.4600466 328.025600
  18839  18834  18840     1   110.2600474 425.931200
  18843  18844  18846     1   109.5600471 388.275200
  18843  18857  18861     1   109.5600471 388.275200
  18843  18857  18862     1   109.5600471 388.275200
  18844  18847  18851     1   109.5600471 388.275200
  18844  18856  18859     1   107.2600461 396.643200
  18844  18843  18845     1   109.5600471 388.275200
  18845  18843  18857     1   109.5600471 388.275200
  18845  18843  18865     1   109.7800468 425.094400
  18846  18844  18847     1   109.5600471 388.275200
  18846  18844  18856     1   110.2600474 425.931200
  18847  18848  18850     1   109.5600471 388.275200
  18847  18855  18858     1   107.2600461 396.643200
  18848  18849  18852     1   110.2200475 386.601600
  18848  18854  18860     1   107.2600461 396.643200
  18848  18847  18851     1   109.5600471 388.275200
  18849  18848  18850     1   109.5600471 388.275200
  18850  18848  18854     1   110.2600474 425.931200
  18851  18847  18855     1   110.2600474 425.931200
  18852  18849  18853     1   109.5800467 425.931200
  18852  18849  18865     1   109.5800467 425.931200
  18857  18863  18864     1   107.2600461 396.643200
  18861  18857  18863     1   110.2600474 425.931200
  18861  18857  18862     1   108.4600466 328.025600
  18862  18857  18863     1   110.2600474 425.931200
  18866  18867  18869     1   109.5600471 388.275200
  18866  18880  18884     1   109.5600471 388.275200
  18866  18880  18885     1   109.5600471 388.275200
  18867  18866  18868     1   109.5600471 388.275200
  18867  18870  18874     1   109.5600471 388.275200
  18867  18879  18882     1   107.2600461 396.643200
  18868  18866  18880     1   109.5600471 388.275200
  18868  18866  18888     1   109.7800468 425.094400
  18869  18867  18870     1   109.5600471 388.275200
  18869  18867  18879     1   110.2600474 425.931200
  18870  18871  18873     1   109.5600471 388.275200
  18870  18878  18881     1   107.2600461 396.643200
  18871  18870  18874     1   109.5600471 388.275200
  18871  18872  18875     1   110.2200475 386.601600
  18871  18877  18883     1   107.2600461 396.643200
  18872  18871  18873     1   109.5600471 388.275200
  18873  18871  18877     1   110.2600474 425.931200
  18874  18870  18878     1   110.2600474 425.931200
  18875  18872  18876     1   109.5800467 425.931200
  18875  18872  18888     1   109.5800467 425.931200
  18880  18886  18887     1   107.2600461 396.643200
  18884  18880  18886     1   110.2600474 425.931200
  18884  18880  18885     1   108.4600466 328.025600
  18885  18880  18886     1   110.2600474 425.931200
  18889  18890  18892     1   109.5600471 388.275200
  18889  18903  18907     1   109.5600471 388.275200
  18889  18903  18908     1   109.5600471 388.275200
  18890  18893  18897     1   109.5600471 388.275200
  18890  18902  18905     1   107.2600461 396.643200
  18890  18889  18891     1   109.5600471 388.275200
  18891  18889  18903     1   109.5600471 388.275200
  18891  18889  18911     1   109.7800468 425.094400
  18892  18890  18893     1   109.5600471 388.275200
  18892  18890  18902     1   110.2600474 425.931200
  18893  18894  18896     1   109.5600471 388.275200
  18893  18901  18904     1   107.2600461 396.643200
  18894  18895  18898     1   110.2200475 386.601600
  18894  18900  18906     1   107.2600461 396.643200
  18894  18893  18897     1   109.5600471 388.275200
  18895  18894  18896     1   109.5600471 388.275200
  18896  18894  18900     1   110.2600474 425.931200
  18897  18893  18901     1   110.2600474 425.931200
  18898  18895  18899     1   109.5800467 425.931200
  18898  18895  18911     1   109.5800467 425.931200
  18903  18909  18910     1   107.2600461 396.643200
  18907  18903  18909     1   110.2600474 425.931200
  18907  18903  18908     1   108.4600466 328.025600
  18908  18903  18909     1   110.2600474 425.931200
  18912  18913  18915     1   109.5600471 388.275200
  18912  18926  18930     1   109.5600471 388.275200
  18912  18926  18931     1   109.5600471 388.275200
  18913  18912  18914     1   109.5600471 388.275200
  18913  18916  18920     1   109.5600471 388.275200
  18913  18925  18928     1   107.2600461 396.643200
  18914  18912  18926     1   109.5600471 388.275200
  18914  18912  18934     1   109.7800468 425.094400
  18915  18913  18916     1   109.5600471 388.275200
  18915  18913  18925     1   110.2600474 425.931200
  18916  18917  18919     1   109.5600471 388.275200
  18916  18924  18927     1   107.2600461 396.643200
  18917  18916  18920     1   109.5600471 388.275200
  18917  18918  18921     1   110.2200475 386.601600
  18917  18923  18929     1   107.2600461 396.643200
  18918  18917  18919     1   109.5600471 388.275200
  18919  18917  18923     1   110.2600474 425.931200
  18920  18916  18924     1   110.2600474 425.931200
  18921  18918  18922     1   109.5800467 425.931200
  18921  18918  18934     1   109.5800467 425.931200
  18926  18932  18933     1   107.2600461 396.643200
  18930  18926  18932     1   110.2600474 425.931200
  18930  18926  18931     1   108.4600466 328.025600
  18931  18926  18932     1   110.2600474 425.931200
  18935  18936  18938     1   109.5600471 388.275200
  18935  18949  18953     1   109.5600471 388.275200
  18935  18949  18954     1   109.5600471 388.275200
  18936  18939  18943     1   109.5600471 388.275200
  18936  18948  18951     1   107.2600461 396.643200
  18936  18935  18937     1   109.5600471 388.275200
  18937  18935  18949     1   109.5600471 388.275200
  18937  18935  18957     1   109.7800468 425.094400
  18938  18936  18939     1   109.5600471 388.275200
  18938  18936  18948     1   110.2600474 425.931200
  18939  18940  18942     1   109.5600471 388.275200
  18939  18947  18950     1   107.2600461 396.643200
  18940  18941  18944     1   110.2200475 386.601600
  18940  18946  18952     1   107.2600461 396.643200
  18940  18939  18943     1   109.5600471 388.275200
  18941  18940  18942     1   109.5600471 388.275200
  18942  18940  18946     1   110.2600474 425.931200
  18943  18939  18947     1   110.2600474 425.931200
  18944  18941  18945     1   109.5800467 425.931200
  18944  18941  18957     1   109.5800467 425.931200
  18949  18955  18956     1   107.2600461 396.643200
  18953  18949  18955     1   110.2600474 425.931200
  18953  18949  18954     1   108.4600466 328.025600
  18954  18949  18955     1   110.2600474 425.931200
  18958  18959  18961     1   109.5600471 388.275200
  18958  18972  18976     1   109.5600471 388.275200
  18958  18972  18977     1   109.5600471 388.275200
  18959  18958  18960     1   109.5600471 388.275200
  18959  18962  18966     1   109.5600471 388.275200
  18959  18971  18974     1   107.2600461 396.643200
  18960  18958  18972     1   109.5600471 388.275200
  18960  18958  18980     1   109.7800468 425.094400
  18961  18959  18962     1   109.5600471 388.275200
  18961  18959  18971     1   110.2600474 425.931200
  18962  18963  18965     1   109.5600471 388.275200
  18962  18970  18973     1   107.2600461 396.643200
  18963  18962  18966     1   109.5600471 388.275200
  18963  18964  18967     1   110.2200475 386.601600
  18963  18969  18975     1   107.2600461 396.643200
  18964  18963  18965     1   109.5600471 388.275200
  18965  18963  18969     1   110.2600474 425.931200
  18966  18962  18970     1   110.2600474 425.931200
  18967  18964  18968     1   109.5800467 425.931200
  18967  18964  18980     1   109.5800467 425.931200
  18972  18978  18979     1   107.2600461 396.643200
  18976  18972  18978     1   110.2600474 425.931200
  18976  18972  18977     1   108.4600466 328.025600
  18977  18972  18978     1   110.2600474 425.931200
  18981  18982  18984     1   109.5600471 388.275200
  18981  18995  18999     1   109.5600471 388.275200
  18981  18995  19000     1   109.5600471 388.275200
  18982  18985  18989     1   109.5600471 388.275200
  18982  18994  18997     1   107.2600461 396.643200
  18982  18981  18983     1   109.5600471 388.275200
  18983  18981  18995     1   109.5600471 388.275200
  18983  18981  19003     1   109.7800468 425.094400
  18984  18982  18985     1   109.5600471 388.275200
  18984  18982  18994     1   110.2600474 425.931200
  18985  18986  18988     1   109.5600471 388.275200
  18985  18993  18996     1   107.2600461 396.643200
  18986  18987  18990     1   110.2200475 386.601600
  18986  18992  18998     1   107.2600461 396.643200
  18986  18985  18989     1   109.5600471 388.275200
  18987  18986  18988     1   109.5600471 388.275200
  18988  18986  18992     1   110.2600474 425.931200
  18989  18985  18993     1   110.2600474 425.931200
  18990  18987  18991     1   109.5800467 425.931200
  18990  18987  19003     1   109.5800467 425.931200
  18995  19001  19002     1   107.2600461 396.643200
  18999  18995  19001     1   110.2600474 425.931200
  18999  18995  19000     1   108.4600466 328.025600
  19000  18995  19001     1   110.2600474 425.931200
  19004  19005  19007     1   109.5600471 388.275200
  19004  19018  19022     1   109.5600471 388.275200
  19004  19018  19023     1   109.5600471 388.275200
  19005  19004  19006     1   109.5600471 388.275200
  19005  19008  19012     1   109.5600471 388.275200
  19005  19017  19020     1   107.2600461 396.643200
  19006  19004  19018     1   109.5600471 388.275200
  19006  19004  19026     1   109.7800468 425.094400
  19007  19005  19008     1   109.5600471 388.275200
  19007  19005  19017     1   110.2600474 425.931200
  19008  19009  19011     1   109.5600471 388.275200
  19008  19016  19019     1   107.2600461 396.643200
  19009  19008  19012     1   109.5600471 388.275200
  19009  19010  19013     1   110.2200475 386.601600
  19009  19015  19021     1   107.2600461 396.643200
  19010  19009  19011     1   109.5600471 388.275200
  19011  19009  19015     1   110.2600474 425.931200
  19012  19008  19016     1   110.2600474 425.931200
  19013  19010  19014     1   109.5800467 425.931200
  19013  19010  19026     1   109.5800467 425.931200
  19018  19024  19025     1   107.2600461 396.643200
  19022  19018  19024     1   110.2600474 425.931200
  19022  19018  19023     1   108.4600466 328.025600
  19023  19018  19024     1   110.2600474 425.931200
  19027  19028  19030     1   109.5600471 388.275200
  19027  19041  19045     1   109.5600471 388.275200
  19027  19041  19046     1   109.5600471 388.275200
  19028  19031  19035     1   109.5600471 388.275200
  19028  19040  19043     1   107.2600461 396.643200
  19028  19027  19029     1   109.5600471 388.275200
  19029  19027  19041     1   109.5600471 388.275200
  19029  19027  19049     1   109.7800468 425.094400
  19030  19028  19031     1   109.5600471 388.275200
  19030  19028  19040     1   110.2600474 425.931200
  19031  19032  19034     1   109.5600471 388.275200
  19031  19039  19042     1   107.2600461 396.643200
  19032  19033  19036     1   110.2200475 386.601600
  19032  19038  19044     1   107.2600461 396.643200
  19032  19031  19035     1   109.5600471 388.275200
  19033  19032  19034     1   109.5600471 388.275200
  19034  19032  19038     1   110.2600474 425.931200
  19035  19031  19039     1   110.2600474 425.931200
  19036  19033  19037     1   109.5800467 425.931200
  19036  19033  19049     1   109.5800467 425.931200
  19041  19047  19048     1   107.2600461 396.643200
  19045  19041  19047     1   110.2600474 425.931200
  19045  19041  19046     1   108.4600466 328.025600
  19046  19041  19047     1   110.2600474 425.931200
  19050  19051  19053     1   109.5600471 388.275200
  19050  19064  19068     1   109.5600471 388.275200
  19050  19064  19069     1   109.5600471 388.275200
  19051  19050  19052     1   109.5600471 388.275200
  19051  19054  19058     1   109.5600471 388.275200
  19051  19063  19066     1   107.2600461 396.643200
  19052  19050  19064     1   109.5600471 388.275200
  19052  19050  19072     1   109.7800468 425.094400
  19053  19051  19054     1   109.5600471 388.275200
  19053  19051  19063     1   110.2600474 425.931200
  19054  19055  19057     1   109.5600471 388.275200
  19054  19062  19065     1   107.2600461 396.643200
  19055  19054  19058     1   109.5600471 388.275200
  19055  19056  19059     1   110.2200475 386.601600
  19055  19061  19067     1   107.2600461 396.643200
  19056  19055  19057     1   109.5600471 388.275200
  19057  19055  19061     1   110.2600474 425.931200
  19058  19054  19062     1   110.2600474 425.931200
  19059  19056  19060     1   109.5800467 425.931200
  19059  19056  19072     1   109.5800467 425.931200
  19064  19070  19071     1   107.2600461 396.643200
  19068  19064  19070     1   110.2600474 425.931200
  19068  19064  19069     1   108.4600466 328.025600
  19069  19064  19070     1   110.2600474 425.931200
  19073  19074  19076     1   109.5600471 388.275200
  19073  19087  19091     1   109.5600471 388.275200
  19073  19087  19092     1   109.5600471 388.275200
  19074  19077  19081     1   109.5600471 388.275200
  19074  19086  19089     1   107.2600461 396.643200
  19074  19073  19075     1   109.5600471 388.275200
  19075  19073  19087     1   109.5600471 388.275200
  19075  19073  19095     1   109.7800468 425.094400
  19076  19074  19077     1   109.5600471 388.275200
  19076  19074  19086     1   110.2600474 425.931200
  19077  19078  19080     1   109.5600471 388.275200
  19077  19085  19088     1   107.2600461 396.643200
  19078  19079  19082     1   110.2200475 386.601600
  19078  19084  19090     1   107.2600461 396.643200
  19078  19077  19081     1   109.5600471 388.275200
  19079  19078  19080     1   109.5600471 388.275200
  19080  19078  19084     1   110.2600474 425.931200
  19081  19077  19085     1   110.2600474 425.931200
  19082  19079  19083     1   109.5800467 425.931200
  19082  19079  19095     1   109.5800467 425.931200
  19087  19093  19094     1   107.2600461 396.643200
  19091  19087  19093     1   110.2600474 425.931200
  19091  19087  19092     1   108.4600466 328.025600
  19092  19087  19093     1   110.2600474 425.931200
  19096  19097  19099     1   109.5600471 388.275200
  19096  19110  19114     1   109.5600471 388.275200
  19096  19110  19115     1   109.5600471 388.275200
  19097  19096  19098     1   109.5600471 388.275200
  19097  19100  19104     1   109.5600471 388.275200
  19097  19109  19112     1   107.2600461 396.643200
  19098  19096  19110     1   109.5600471 388.275200
  19098  19096  19118     1   109.7800468 425.094400
  19099  19097  19100     1   109.5600471 388.275200
  19099  19097  19109     1   110.2600474 425.931200
  19100  19101  19103     1   109.5600471 388.275200
  19100  19108  19111     1   107.2600461 396.643200
  19101  19100  19104     1   109.5600471 388.275200
  19101  19102  19105     1   110.2200475 386.601600
  19101  19107  19113     1   107.2600461 396.643200
  19102  19101  19103     1   109.5600471 388.275200
  19103  19101  19107     1   110.2600474 425.931200
  19104  19100  19108     1   110.2600474 425.931200
  19105  19102  19106     1   109.5800467 425.931200
  19105  19102  19118     1   109.5800467 425.931200
  19110  19116  19117     1   107.2600461 396.643200
  19114  19110  19116     1   110.2600474 425.931200
  19114  19110  19115     1   108.4600466 328.025600
  19115  19110  19116     1   110.2600474 425.931200
  19119  19120  19122     1   109.5600471 388.275200
  19119  19133  19137     1   109.5600471 388.275200
  19119  19133  19138     1   109.5600471 388.275200
  19120  19123  19127     1   109.5600471 388.275200
  19120  19132  19135     1   107.2600461 396.643200
  19120  19119  19121     1   109.5600471 388.275200
  19121  19119  19133     1   109.5600471 388.275200
  19121  19119  19141     1   109.7800468 425.094400
  19122  19120  19123     1   109.5600471 388.275200
  19122  19120  19132     1   110.2600474 425.931200
  19123  19124  19126     1   109.5600471 388.275200
  19123  19131  19134     1   107.2600461 396.643200
  19124  19125  19128     1   110.2200475 386.601600
  19124  19130  19136     1   107.2600461 396.643200
  19124  19123  19127     1   109.5600471 388.275200
  19125  19124  19126     1   109.5600471 388.275200
  19126  19124  19130     1   110.2600474 425.931200
  19127  19123  19131     1   110.2600474 425.931200
  19128  19125  19129     1   109.5800467 425.931200
  19128  19125  19141     1   109.5800467 425.931200
  19133  19139  19140     1   107.2600461 396.643200
  19137  19133  19139     1   110.2600474 425.931200
  19137  19133  19138     1   108.4600466 328.025600
  19138  19133  19139     1   110.2600474 425.931200
  19142  19143  19145     1   109.5600471 388.275200
  19142  19156  19160     1   109.5600471 388.275200
  19142  19156  19161     1   109.5600471 388.275200
  19143  19142  19144     1   109.5600471 388.275200
  19143  19146  19150     1   109.5600471 388.275200
  19143  19155  19158     1   107.2600461 396.643200
  19144  19142  19156     1   109.5600471 388.275200
  19144  19142  19164     1   109.7800468 425.094400
  19145  19143  19146     1   109.5600471 388.275200
  19145  19143  19155     1   110.2600474 425.931200
  19146  19147  19149     1   109.5600471 388.275200
  19146  19154  19157     1   107.2600461 396.643200
  19147  19146  19150     1   109.5600471 388.275200
  19147  19148  19151     1   110.2200475 386.601600
  19147  19153  19159     1   107.2600461 396.643200
  19148  19147  19149     1   109.5600471 388.275200
  19149  19147  19153     1   110.2600474 425.931200
  19150  19146  19154     1   110.2600474 425.931200
  19151  19148  19152     1   109.5800467 425.931200
  19151  19148  19164     1   109.5800467 425.931200
  19156  19162  19163     1   107.2600461 396.643200
  19160  19156  19162     1   110.2600474 425.931200
  19160  19156  19161     1   108.4600466 328.025600
  19161  19156  19162     1   110.2600474 425.931200
  19165  19166  19168     1   109.5600471 388.275200
  19165  19179  19183     1   109.5600471 388.275200
  19165  19179  19184     1   109.5600471 388.275200
  19166  19169  19173     1   109.5600471 388.275200
  19166  19178  19181     1   107.2600461 396.643200
  19166  19165  19167     1   109.5600471 388.275200
  19167  19165  19179     1   109.5600471 388.275200
  19167  19165  19187     1   109.7800468 425.094400
  19168  19166  19169     1   109.5600471 388.275200
  19168  19166  19178     1   110.2600474 425.931200
  19169  19170  19172     1   109.5600471 388.275200
  19169  19177  19180     1   107.2600461 396.643200
  19170  19171  19174     1   110.2200475 386.601600
  19170  19176  19182     1   107.2600461 396.643200
  19170  19169  19173     1   109.5600471 388.275200
  19171  19170  19172     1   109.5600471 388.275200
  19172  19170  19176     1   110.2600474 425.931200
  19173  19169  19177     1   110.2600474 425.931200
  19174  19171  19175     1   109.5800467 425.931200
  19174  19171  19187     1   109.5800467 425.931200
  19179  19185  19186     1   107.2600461 396.643200
  19183  19179  19185     1   110.2600474 425.931200
  19183  19179  19184     1   108.4600466 328.025600
  19184  19179  19185     1   110.2600474 425.931200
  19188  19189  19191     1   109.5600471 388.275200
  19188  19202  19206     1   109.5600471 388.275200
  19188  19202  19207     1   109.5600471 388.275200
  19189  19188  19190     1   109.5600471 388.275200
  19189  19192  19196     1   109.5600471 388.275200
  19189  19201  19204     1   107.2600461 396.643200
  19190  19188  19202     1   109.5600471 388.275200
  19190  19188  19210     1   109.7800468 425.094400
  19191  19189  19192     1   109.5600471 388.275200
  19191  19189  19201     1   110.2600474 425.931200
  19192  19193  19195     1   109.5600471 388.275200
  19192  19200  19203     1   107.2600461 396.643200
  19193  19192  19196     1   109.5600471 388.275200
  19193  19194  19197     1   110.2200475 386.601600
  19193  19199  19205     1   107.2600461 396.643200
  19194  19193  19195     1   109.5600471 388.275200
  19195  19193  19199     1   110.2600474 425.931200
  19196  19192  19200     1   110.2600474 425.931200
  19197  19194  19198     1   109.5800467 425.931200
  19197  19194  19210     1   109.5800467 425.931200
  19202  19208  19209     1   107.2600461 396.643200
  19206  19202  19208     1   110.2600474 425.931200
  19206  19202  19207     1   108.4600466 328.025600
  19207  19202  19208     1   110.2600474 425.931200
  19211  19212  19214     1   109.5600471 388.275200
  19211  19225  19229     1   109.5600471 388.275200
  19211  19225  19230     1   109.5600471 388.275200
  19212  19215  19219     1   109.5600471 388.275200
  19212  19224  19227     1   107.2600461 396.643200
  19212  19211  19213     1   109.5600471 388.275200
  19213  19211  19225     1   109.5600471 388.275200
  19213  19211  19233     1   109.7800468 425.094400
  19214  19212  19215     1   109.5600471 388.275200
  19214  19212  19224     1   110.2600474 425.931200
  19215  19216  19218     1   109.5600471 388.275200
  19215  19223  19226     1   107.2600461 396.643200
  19216  19217  19220     1   110.2200475 386.601600
  19216  19222  19228     1   107.2600461 396.643200
  19216  19215  19219     1   109.5600471 388.275200
  19217  19216  19218     1   109.5600471 388.275200
  19218  19216  19222     1   110.2600474 425.931200
  19219  19215  19223     1   110.2600474 425.931200
  19220  19217  19221     1   109.5800467 425.931200
  19220  19217  19233     1   109.5800467 425.931200
  19225  19231  19232     1   107.2600461 396.643200
  19229  19225  19231     1   110.2600474 425.931200
  19229  19225  19230     1   108.4600466 328.025600
  19230  19225  19231     1   110.2600474 425.931200
  19234  19235  19237     1   109.5600471 388.275200
  19234  19248  19252     1   109.5600471 388.275200
  19234  19248  19253     1   109.5600471 388.275200
  19235  19234  19236     1   109.5600471 388.275200
  19235  19238  19242     1   109.5600471 388.275200
  19235  19247  19250     1   107.2600461 396.643200
  19236  19234  19248     1   109.5600471 388.275200
  19236  19234  19256     1   109.7800468 425.094400
  19237  19235  19238     1   109.5600471 388.275200
  19237  19235  19247     1   110.2600474 425.931200
  19238  19239  19241     1   109.5600471 388.275200
  19238  19246  19249     1   107.2600461 396.643200
  19239  19238  19242     1   109.5600471 388.275200
  19239  19240  19243     1   110.2200475 386.601600
  19239  19245  19251     1   107.2600461 396.643200
  19240  19239  19241     1   109.5600471 388.275200
  19241  19239  19245     1   110.2600474 425.931200
  19242  19238  19246     1   110.2600474 425.931200
  19243  19240  19244     1   109.5800467 425.931200
  19243  19240  19256     1   109.5800467 425.931200
  19248  19254  19255     1   107.2600461 396.643200
  19252  19248  19254     1   110.2600474 425.931200
  19252  19248  19253     1   108.4600466 328.025600
  19253  19248  19254     1   110.2600474 425.931200
  19257  19258  19260     1   109.5600471 388.275200
  19257  19271  19275     1   109.5600471 388.275200
  19257  19271  19276     1   109.5600471 388.275200
  19258  19261  19265     1   109.5600471 388.275200
  19258  19270  19273     1   107.2600461 396.643200
  19258  19257  19259     1   109.5600471 388.275200
  19259  19257  19271     1   109.5600471 388.275200
  19259  19257  19279     1   109.7800468 425.094400
  19260  19258  19261     1   109.5600471 388.275200
  19260  19258  19270     1   110.2600474 425.931200
  19261  19262  19264     1   109.5600471 388.275200
  19261  19269  19272     1   107.2600461 396.643200
  19262  19263  19266     1   110.2200475 386.601600
  19262  19268  19274     1   107.2600461 396.643200
  19262  19261  19265     1   109.5600471 388.275200
  19263  19262  19264     1   109.5600471 388.275200
  19264  19262  19268     1   110.2600474 425.931200
  19265  19261  19269     1   110.2600474 425.931200
  19266  19263  19267     1   109.5800467 425.931200
  19266  19263  19279     1   109.5800467 425.931200
  19271  19277  19278     1   107.2600461 396.643200
  19275  19271  19277     1   110.2600474 425.931200
  19275  19271  19276     1   108.4600466 328.025600
  19276  19271  19277     1   110.2600474 425.931200
  19280  19281  19283     1   109.5600471 388.275200
  19280  19294  19298     1   109.5600471 388.275200
  19280  19294  19299     1   109.5600471 388.275200
  19281  19280  19282     1   109.5600471 388.275200
  19281  19284  19288     1   109.5600471 388.275200
  19281  19293  19296     1   107.2600461 396.643200
  19282  19280  19294     1   109.5600471 388.275200
  19282  19280  19302     1   109.7800468 425.094400
  19283  19281  19284     1   109.5600471 388.275200
  19283  19281  19293     1   110.2600474 425.931200
  19284  19285  19287     1   109.5600471 388.275200
  19284  19292  19295     1   107.2600461 396.643200
  19285  19284  19288     1   109.5600471 388.275200
  19285  19286  19289     1   110.2200475 386.601600
  19285  19291  19297     1   107.2600461 396.643200
  19286  19285  19287     1   109.5600471 388.275200
  19287  19285  19291     1   110.2600474 425.931200
  19288  19284  19292     1   110.2600474 425.931200
  19289  19286  19290     1   109.5800467 425.931200
  19289  19286  19302     1   109.5800467 425.931200
  19294  19300  19301     1   107.2600461 396.643200
  19298  19294  19300     1   110.2600474 425.931200
  19298  19294  19299     1   108.4600466 328.025600
  19299  19294  19300     1   110.2600474 425.931200
  19303  19304  19306     1   109.5600471 388.275200
  19303  19317  19321     1   109.5600471 388.275200
  19303  19317  19322     1   109.5600471 388.275200
  19304  19307  19311     1   109.5600471 388.275200
  19304  19316  19319     1   107.2600461 396.643200
  19304  19303  19305     1   109.5600471 388.275200
  19305  19303  19317     1   109.5600471 388.275200
  19305  19303  19325     1   109.7800468 425.094400
  19306  19304  19307     1   109.5600471 388.275200
  19306  19304  19316     1   110.2600474 425.931200
  19307  19308  19310     1   109.5600471 388.275200
  19307  19315  19318     1   107.2600461 396.643200
  19308  19309  19312     1   110.2200475 386.601600
  19308  19314  19320     1   107.2600461 396.643200
  19308  19307  19311     1   109.5600471 388.275200
  19309  19308  19310     1   109.5600471 388.275200
  19310  19308  19314     1   110.2600474 425.931200
  19311  19307  19315     1   110.2600474 425.931200
  19312  19309  19313     1   109.5800467 425.931200
  19312  19309  19325     1   109.5800467 425.931200
  19317  19323  19324     1   107.2600461 396.643200
  19321  19317  19323     1   110.2600474 425.931200
  19321  19317  19322     1   108.4600466 328.025600
  19322  19317  19323     1   110.2600474 425.931200
  19326  19327  19329     1   109.5600471 388.275200
  19326  19340  19344     1   109.5600471 388.275200
  19326  19340  19345     1   109.5600471 388.275200
  19327  19326  19328     1   109.5600471 388.275200
  19327  19330  19334     1   109.5600471 388.275200
  19327  19339  19342     1   107.2600461 396.643200
  19328  19326  19340     1   109.5600471 388.275200
  19328  19326  19348     1   109.7800468 425.094400
  19329  19327  19330     1   109.5600471 388.275200
  19329  19327  19339     1   110.2600474 425.931200
  19330  19331  19333     1   109.5600471 388.275200
  19330  19338  19341     1   107.2600461 396.643200
  19331  19330  19334     1   109.5600471 388.275200
  19331  19332  19335     1   110.2200475 386.601600
  19331  19337  19343     1   107.2600461 396.643200
  19332  19331  19333     1   109.5600471 388.275200
  19333  19331  19337     1   110.2600474 425.931200
  19334  19330  19338     1   110.2600474 425.931200
  19335  19332  19336     1   109.5800467 425.931200
  19335  19332  19348     1   109.5800467 425.931200
  19340  19346  19347     1   107.2600461 396.643200
  19344  19340  19346     1   110.2600474 425.931200
  19344  19340  19345     1   108.4600466 328.025600
  19345  19340  19346     1   110.2600474 425.931200
  19349  19350  19352     1   109.5600471 388.275200
  19349  19363  19367     1   109.5600471 388.275200
  19349  19363  19368     1   109.5600471 388.275200
  19350  19353  19357     1   109.5600471 388.275200
  19350  19362  19365     1   107.2600461 396.643200
  19350  19349  19351     1   109.5600471 388.275200
  19351  19349  19363     1   109.5600471 388.275200
  19351  19349  19371     1   109.7800468 425.094400
  19352  19350  19353     1   109.5600471 388.275200
  19352  19350  19362     1   110.2600474 425.931200
  19353  19354  19356     1   109.5600471 388.275200
  19353  19361  19364     1   107.2600461 396.643200
  19354  19355  19358     1   110.2200475 386.601600
  19354  19360  19366     1   107.2600461 396.643200
  19354  19353  19357     1   109.5600471 388.275200
  19355  19354  19356     1   109.5600471 388.275200
  19356  19354  19360     1   110.2600474 425.931200
  19357  19353  19361     1   110.2600474 425.931200
  19358  19355  19359     1   109.5800467 425.931200
  19358  19355  19371     1   109.5800467 425.931200
  19363  19369  19370     1   107.2600461 396.643200
  19367  19363  19369     1   110.2600474 425.931200
  19367  19363  19368     1   108.4600466 328.025600
  19368  19363  19369     1   110.2600474 425.931200
  19372  19373  19375     1   109.5600471 388.275200
  19372  19386  19390     1   109.5600471 388.275200
  19372  19386  19391     1   109.5600471 388.275200
  19373  19372  19374     1   109.5600471 388.275200
  19373  19376  19380     1   109.5600471 388.275200
  19373  19385  19388     1   107.2600461 396.643200
  19374  19372  19386     1   109.5600471 388.275200
  19374  19372  19394     1   109.7800468 425.094400
  19375  19373  19376     1   109.5600471 388.275200
  19375  19373  19385     1   110.2600474 425.931200
  19376  19377  19379     1   109.5600471 388.275200
  19376  19384  19387     1   107.2600461 396.643200
  19377  19376  19380     1   109.5600471 388.275200
  19377  19378  19381     1   110.2200475 386.601600
  19377  19383  19389     1   107.2600461 396.643200
  19378  19377  19379     1   109.5600471 388.275200
  19379  19377  19383     1   110.2600474 425.931200
  19380  19376  19384     1   110.2600474 425.931200
  19381  19378  19382     1   109.5800467 425.931200
  19381  19378  19394     1   109.5800467 425.931200
  19386  19392  19393     1   107.2600461 396.643200
  19390  19386  19392     1   110.2600474 425.931200
  19390  19386  19391     1   108.4600466 328.025600
  19391  19386  19392     1   110.2600474 425.931200
  19395  19396  19398     1   109.5600471 388.275200
  19395  19409  19413     1   109.5600471 388.275200
  19395  19409  19414     1   109.5600471 388.275200
  19396  19399  19403     1   109.5600471 388.275200
  19396  19408  19411     1   107.2600461 396.643200
  19396  19395  19397     1   109.5600471 388.275200
  19397  19395  19409     1   109.5600471 388.275200
  19397  19395  19417     1   109.7800468 425.094400
  19398  19396  19399     1   109.5600471 388.275200
  19398  19396  19408     1   110.2600474 425.931200
  19399  19400  19402     1   109.5600471 388.275200
  19399  19407  19410     1   107.2600461 396.643200
  19400  19401  19404     1   110.2200475 386.601600
  19400  19406  19412     1   107.2600461 396.643200
  19400  19399  19403     1   109.5600471 388.275200
  19401  19400  19402     1   109.5600471 388.275200
  19402  19400  19406     1   110.2600474 425.931200
  19403  19399  19407     1   110.2600474 425.931200
  19404  19401  19405     1   109.5800467 425.931200
  19404  19401  19417     1   109.5800467 425.931200
  19409  19415  19416     1   107.2600461 396.643200
  19413  19409  19415     1   110.2600474 425.931200
  19413  19409  19414     1   108.4600466 328.025600
  19414  19409  19415     1   110.2600474 425.931200
  19418  19419  19421     1   109.5600471 388.275200
  19418  19432  19436     1   109.5600471 388.275200
  19418  19432  19437     1   109.5600471 388.275200
  19419  19418  19420     1   109.5600471 388.275200
  19419  19422  19426     1   109.5600471 388.275200
  19419  19431  19434     1   107.2600461 396.643200
  19420  19418  19432     1   109.5600471 388.275200
  19420  19418  19440     1   109.7800468 425.094400
  19421  19419  19422     1   109.5600471 388.275200
  19421  19419  19431     1   110.2600474 425.931200
  19422  19423  19425     1   109.5600471 388.275200
  19422  19430  19433     1   107.2600461 396.643200
  19423  19422  19426     1   109.5600471 388.275200
  19423  19424  19427     1   110.2200475 386.601600
  19423  19429  19435     1   107.2600461 396.643200
  19424  19423  19425     1   109.5600471 388.275200
  19425  19423  19429     1   110.2600474 425.931200
  19426  19422  19430     1   110.2600474 425.931200
  19427  19424  19428     1   109.5800467 425.931200
  19427  19424  19440     1   109.5800467 425.931200
  19432  19438  19439     1   107.2600461 396.643200
  19436  19432  19438     1   110.2600474 425.931200
  19436  19432  19437     1   108.4600466 328.025600
  19437  19432  19438     1   110.2600474 425.931200
  19441  19442  19444     1   109.5600471 388.275200
  19441  19455  19459     1   109.5600471 388.275200
  19441  19455  19460     1   109.5600471 388.275200
  19442  19445  19449     1   109.5600471 388.275200
  19442  19454  19457     1   107.2600461 396.643200
  19442  19441  19443     1   109.5600471 388.275200
  19443  19441  19455     1   109.5600471 388.275200
  19443  19441  19463     1   109.7800468 425.094400
  19444  19442  19445     1   109.5600471 388.275200
  19444  19442  19454     1   110.2600474 425.931200
  19445  19446  19448     1   109.5600471 388.275200
  19445  19453  19456     1   107.2600461 396.643200
  19446  19447  19450     1   110.2200475 386.601600
  19446  19452  19458     1   107.2600461 396.643200
  19446  19445  19449     1   109.5600471 388.275200
  19447  19446  19448     1   109.5600471 388.275200
  19448  19446  19452     1   110.2600474 425.931200
  19449  19445  19453     1   110.2600474 425.931200
  19450  19447  19451     1   109.5800467 425.931200
  19450  19447  19463     1   109.5800467 425.931200
  19455  19461  19462     1   107.2600461 396.643200
  19459  19455  19461     1   110.2600474 425.931200
  19459  19455  19460     1   108.4600466 328.025600
  19460  19455  19461     1   110.2600474 425.931200
  19464  19465  19467     1   109.5600471 388.275200
  19464  19478  19482     1   109.5600471 388.275200
  19464  19478  19483     1   109.5600471 388.275200
  19465  19464  19466     1   109.5600471 388.275200
  19465  19468  19472     1   109.5600471 388.275200
  19465  19477  19480     1   107.2600461 396.643200
  19466  19464  19478     1   109.5600471 388.275200
  19466  19464  19486     1   109.7800468 425.094400
  19467  19465  19468     1   109.5600471 388.275200
  19467  19465  19477     1   110.2600474 425.931200
  19468  19469  19471     1   109.5600471 388.275200
  19468  19476  19479     1   107.2600461 396.643200
  19469  19468  19472     1   109.5600471 388.275200
  19469  19470  19473     1   110.2200475 386.601600
  19469  19475  19481     1   107.2600461 396.643200
  19470  19469  19471     1   109.5600471 388.275200
  19471  19469  19475     1   110.2600474 425.931200
  19472  19468  19476     1   110.2600474 425.931200
  19473  19470  19474     1   109.5800467 425.931200
  19473  19470  19486     1   109.5800467 425.931200
  19478  19484  19485     1   107.2600461 396.643200
  19482  19478  19484     1   110.2600474 425.931200
  19482  19478  19483     1   108.4600466 328.025600
  19483  19478  19484     1   110.2600474 425.931200
  19487  19488  19490     1   109.5600471 388.275200
  19487  19501  19505     1   109.5600471 388.275200
  19487  19501  19506     1   109.5600471 388.275200
  19488  19491  19495     1   109.5600471 388.275200
  19488  19500  19503     1   107.2600461 396.643200
  19488  19487  19489     1   109.5600471 388.275200
  19489  19487  19501     1   109.5600471 388.275200
  19489  19487  19509     1   109.7800468 425.094400
  19490  19488  19491     1   109.5600471 388.275200
  19490  19488  19500     1   110.2600474 425.931200
  19491  19492  19494     1   109.5600471 388.275200
  19491  19499  19502     1   107.2600461 396.643200
  19492  19493  19496     1   110.2200475 386.601600
  19492  19498  19504     1   107.2600461 396.643200
  19492  19491  19495     1   109.5600471 388.275200
  19493  19492  19494     1   109.5600471 388.275200
  19494  19492  19498     1   110.2600474 425.931200
  19495  19491  19499     1   110.2600474 425.931200
  19496  19493  19497     1   109.5800467 425.931200
  19496  19493  19509     1   109.5800467 425.931200
  19501  19507  19508     1   107.2600461 396.643200
  19505  19501  19507     1   110.2600474 425.931200
  19505  19501  19506     1   108.4600466 328.025600
  19506  19501  19507     1   110.2600474 425.931200
  19510  19511  19513     1   109.5600471 388.275200
  19510  19524  19528     1   109.5600471 388.275200
  19510  19524  19529     1   109.5600471 388.275200
  19511  19510  19512     1   109.5600471 388.275200
  19511  19514  19518     1   109.5600471 388.275200
  19511  19523  19526     1   107.2600461 396.643200
  19512  19510  19524     1   109.5600471 388.275200
  19512  19510  19532     1   109.7800468 425.094400
  19513  19511  19514     1   109.5600471 388.275200
  19513  19511  19523     1   110.2600474 425.931200
  19514  19515  19517     1   109.5600471 388.275200
  19514  19522  19525     1   107.2600461 396.643200
  19515  19514  19518     1   109.5600471 388.275200
  19515  19516  19519     1   110.2200475 386.601600
  19515  19521  19527     1   107.2600461 396.643200
  19516  19515  19517     1   109.5600471 388.275200
  19517  19515  19521     1   110.2600474 425.931200
  19518  19514  19522     1   110.2600474 425.931200
  19519  19516  19520     1   109.5800467 425.931200
  19519  19516  19532     1   109.5800467 425.931200
  19524  19530  19531     1   107.2600461 396.643200
  19528  19524  19530     1   110.2600474 425.931200
  19528  19524  19529     1   108.4600466 328.025600
  19529  19524  19530     1   110.2600474 425.931200
  19533  19534  19536     1   109.5600471 388.275200
  19533  19547  19551     1   109.5600471 388.275200
  19533  19547  19552     1   109.5600471 388.275200
  19534  19537  19541     1   109.5600471 388.275200
  19534  19546  19549     1   107.2600461 396.643200
  19534  19533  19535     1   109.5600471 388.275200
  19535  19533  19547     1   109.5600471 388.275200
  19535  19533  19555     1   109.7800468 425.094400
  19536  19534  19537     1   109.5600471 388.275200
  19536  19534  19546     1   110.2600474 425.931200
  19537  19538  19540     1   109.5600471 388.275200
  19537  19545  19548     1   107.2600461 396.643200
  19538  19539  19542     1   110.2200475 386.601600
  19538  19544  19550     1   107.2600461 396.643200
  19538  19537  19541     1   109.5600471 388.275200
  19539  19538  19540     1   109.5600471 388.275200
  19540  19538  19544     1   110.2600474 425.931200
  19541  19537  19545     1   110.2600474 425.931200
  19542  19539  19543     1   109.5800467 425.931200
  19542  19539  19555     1   109.5800467 425.931200
  19547  19553  19554     1   107.2600461 396.643200
  19551  19547  19553     1   110.2600474 425.931200
  19551  19547  19552     1   108.4600466 328.025600
  19552  19547  19553     1   110.2600474 425.931200
  19556  19557  19559     1   109.5600471 388.275200
  19556  19570  19574     1   109.5600471 388.275200
  19556  19570  19575     1   109.5600471 388.275200
  19557  19556  19558     1   109.5600471 388.275200
  19557  19560  19564     1   109.5600471 388.275200
  19557  19569  19572     1   107.2600461 396.643200
  19558  19556  19570     1   109.5600471 388.275200
  19558  19556  19578     1   109.7800468 425.094400
  19559  19557  19560     1   109.5600471 388.275200
  19559  19557  19569     1   110.2600474 425.931200
  19560  19561  19563     1   109.5600471 388.275200
  19560  19568  19571     1   107.2600461 396.643200
  19561  19560  19564     1   109.5600471 388.275200
  19561  19562  19565     1   110.2200475 386.601600
  19561  19567  19573     1   107.2600461 396.643200
  19562  19561  19563     1   109.5600471 388.275200
  19563  19561  19567     1   110.2600474 425.931200
  19564  19560  19568     1   110.2600474 425.931200
  19565  19562  19566     1   109.5800467 425.931200
  19565  19562  19578     1   109.5800467 425.931200
  19570  19576  19577     1   107.2600461 396.643200
  19574  19570  19576     1   110.2600474 425.931200
  19574  19570  19575     1   108.4600466 328.025600
  19575  19570  19576     1   110.2600474 425.931200
  19579  19580  19582     1   109.5600471 388.275200
  19579  19593  19597     1   109.5600471 388.275200
  19579  19593  19598     1   109.5600471 388.275200
  19580  19583  19587     1   109.5600471 388.275200
  19580  19592  19595     1   107.2600461 396.643200
  19580  19579  19581     1   109.5600471 388.275200
  19581  19579  19593     1   109.5600471 388.275200
  19581  19579  19601     1   109.7800468 425.094400
  19582  19580  19583     1   109.5600471 388.275200
  19582  19580  19592     1   110.2600474 425.931200
  19583  19584  19586     1   109.5600471 388.275200
  19583  19591  19594     1   107.2600461 396.643200
  19584  19585  19588     1   110.2200475 386.601600
  19584  19590  19596     1   107.2600461 396.643200
  19584  19583  19587     1   109.5600471 388.275200
  19585  19584  19586     1   109.5600471 388.275200
  19586  19584  19590     1   110.2600474 425.931200
  19587  19583  19591     1   110.2600474 425.931200
  19588  19585  19589     1   109.5800467 425.931200
  19588  19585  19601     1   109.5800467 425.931200
  19593  19599  19600     1   107.2600461 396.643200
  19597  19593  19599     1   110.2600474 425.931200
  19597  19593  19598     1   108.4600466 328.025600
  19598  19593  19599     1   110.2600474 425.931200
  19602  19603  19605     1   109.5600471 388.275200
  19602  19616  19620     1   109.5600471 388.275200
  19602  19616  19621     1   109.5600471 388.275200
  19603  19602  19604     1   109.5600471 388.275200
  19603  19606  19610     1   109.5600471 388.275200
  19603  19615  19618     1   107.2600461 396.643200
  19604  19602  19616     1   109.5600471 388.275200
  19604  19602  19624     1   109.7800468 425.094400
  19605  19603  19606     1   109.5600471 388.275200
  19605  19603  19615     1   110.2600474 425.931200
  19606  19607  19609     1   109.5600471 388.275200
  19606  19614  19617     1   107.2600461 396.643200
  19607  19606  19610     1   109.5600471 388.275200
  19607  19608  19611     1   110.2200475 386.601600
  19607  19613  19619     1   107.2600461 396.643200
  19608  19607  19609     1   109.5600471 388.275200
  19609  19607  19613     1   110.2600474 425.931200
  19610  19606  19614     1   110.2600474 425.931200
  19611  19608  19612     1   109.5800467 425.931200
  19611  19608  19624     1   109.5800467 425.931200
  19616  19622  19623     1   107.2600461 396.643200
  19620  19616  19622     1   110.2600474 425.931200
  19620  19616  19621     1   108.4600466 328.025600
  19621  19616  19622     1   110.2600474 425.931200
  19625  19626  19628     1   109.5600471 388.275200
  19625  19639  19643     1   109.5600471 388.275200
  19625  19639  19644     1   109.5600471 388.275200
  19626  19629  19633     1   109.5600471 388.275200
  19626  19638  19641     1   107.2600461 396.643200
  19626  19625  19627     1   109.5600471 388.275200
  19627  19625  19639     1   109.5600471 388.275200
  19627  19625  19647     1   109.7800468 425.094400
  19628  19626  19629     1   109.5600471 388.275200
  19628  19626  19638     1   110.2600474 425.931200
  19629  19630  19632     1   109.5600471 388.275200
  19629  19637  19640     1   107.2600461 396.643200
  19630  19631  19634     1   110.2200475 386.601600
  19630  19636  19642     1   107.2600461 396.643200
  19630  19629  19633     1   109.5600471 388.275200
  19631  19630  19632     1   109.5600471 388.275200
  19632  19630  19636     1   110.2600474 425.931200
  19633  19629  19637     1   110.2600474 425.931200
  19634  19631  19635     1   109.5800467 425.931200
  19634  19631  19647     1   109.5800467 425.931200
  19639  19645  19646     1   107.2600461 396.643200
  19643  19639  19645     1   110.2600474 425.931200
  19643  19639  19644     1   108.4600466 328.025600
  19644  19639  19645     1   110.2600474 425.931200
  19648  19649  19651     1   109.5600471 388.275200
  19648  19662  19666     1   109.5600471 388.275200
  19648  19662  19667     1   109.5600471 388.275200
  19649  19648  19650     1   109.5600471 388.275200
  19649  19652  19656     1   109.5600471 388.275200
  19649  19661  19664     1   107.2600461 396.643200
  19650  19648  19662     1   109.5600471 388.275200
  19650  19648  19670     1   109.7800468 425.094400
  19651  19649  19652     1   109.5600471 388.275200
  19651  19649  19661     1   110.2600474 425.931200
  19652  19653  19655     1   109.5600471 388.275200
  19652  19660  19663     1   107.2600461 396.643200
  19653  19652  19656     1   109.5600471 388.275200
  19653  19654  19657     1   110.2200475 386.601600
  19653  19659  19665     1   107.2600461 396.643200
  19654  19653  19655     1   109.5600471 388.275200
  19655  19653  19659     1   110.2600474 425.931200
  19656  19652  19660     1   110.2600474 425.931200
  19657  19654  19658     1   109.5800467 425.931200
  19657  19654  19670     1   109.5800467 425.931200
  19662  19668  19669     1   107.2600461 396.643200
  19666  19662  19668     1   110.2600474 425.931200
  19666  19662  19667     1   108.4600466 328.025600
  19667  19662  19668     1   110.2600474 425.931200
  19671  19672  19674     1   109.5600471 388.275200
  19671  19685  19689     1   109.5600471 388.275200
  19671  19685  19690     1   109.5600471 388.275200
  19672  19675  19679     1   109.5600471 388.275200
  19672  19684  19687     1   107.2600461 396.643200
  19672  19671  19673     1   109.5600471 388.275200
  19673  19671  19685     1   109.5600471 388.275200
  19673  19671  19693     1   109.7800468 425.094400
  19674  19672  19675     1   109.5600471 388.275200
  19674  19672  19684     1   110.2600474 425.931200
  19675  19676  19678     1   109.5600471 388.275200
  19675  19683  19686     1   107.2600461 396.643200
  19676  19677  19680     1   110.2200475 386.601600
  19676  19682  19688     1   107.2600461 396.643200
  19676  19675  19679     1   109.5600471 388.275200
  19677  19676  19678     1   109.5600471 388.275200
  19678  19676  19682     1   110.2600474 425.931200
  19679  19675  19683     1   110.2600474 425.931200
  19680  19677  19681     1   109.5800467 425.931200
  19680  19677  19693     1   109.5800467 425.931200
  19685  19691  19692     1   107.2600461 396.643200
  19689  19685  19691     1   110.2600474 425.931200
  19689  19685  19690     1   108.4600466 328.025600
  19690  19685  19691     1   110.2600474 425.931200
  19694  19695  19697     1   109.5600471 388.275200
  19694  19708  19712     1   109.5600471 388.275200
  19694  19708  19713     1   109.5600471 388.275200
  19695  19694  19696     1   109.5600471 388.275200
  19695  19698  19702     1   109.5600471 388.275200
  19695  19707  19710     1   107.2600461 396.643200
  19696  19694  19708     1   109.5600471 388.275200
  19696  19694  19716     1   109.7800468 425.094400
  19697  19695  19698     1   109.5600471 388.275200
  19697  19695  19707     1   110.2600474 425.931200
  19698  19699  19701     1   109.5600471 388.275200
  19698  19706  19709     1   107.2600461 396.643200
  19699  19698  19702     1   109.5600471 388.275200
  19699  19700  19703     1   110.2200475 386.601600
  19699  19705  19711     1   107.2600461 396.643200
  19700  19699  19701     1   109.5600471 388.275200
  19701  19699  19705     1   110.2600474 425.931200
  19702  19698  19706     1   110.2600474 425.931200
  19703  19700  19704     1   109.5800467 425.931200
  19703  19700  19716     1   109.5800467 425.931200
  19708  19714  19715     1   107.2600461 396.643200
  19712  19708  19714     1   110.2600474 425.931200
  19712  19708  19713     1   108.4600466 328.025600
  19713  19708  19714     1   110.2600474 425.931200
  19717  19718  19720     1   109.5600471 388.275200
  19717  19731  19735     1   109.5600471 388.275200
  19717  19731  19736     1   109.5600471 388.275200
  19718  19721  19725     1   109.5600471 388.275200
  19718  19730  19733     1   107.2600461 396.643200
  19718  19717  19719     1   109.5600471 388.275200
  19719  19717  19731     1   109.5600471 388.275200
  19719  19717  19739     1   109.7800468 425.094400
  19720  19718  19721     1   109.5600471 388.275200
  19720  19718  19730     1   110.2600474 425.931200
  19721  19722  19724     1   109.5600471 388.275200
  19721  19729  19732     1   107.2600461 396.643200
  19722  19723  19726     1   110.2200475 386.601600
  19722  19728  19734     1   107.2600461 396.643200
  19722  19721  19725     1   109.5600471 388.275200
  19723  19722  19724     1   109.5600471 388.275200
  19724  19722  19728     1   110.2600474 425.931200
  19725  19721  19729     1   110.2600474 425.931200
  19726  19723  19727     1   109.5800467 425.931200
  19726  19723  19739     1   109.5800467 425.931200
  19731  19737  19738     1   107.2600461 396.643200
  19735  19731  19737     1   110.2600474 425.931200
  19735  19731  19736     1   108.4600466 328.025600
  19736  19731  19737     1   110.2600474 425.931200
  19740  19741  19743     1   109.5600471 388.275200
  19740  19754  19758     1   109.5600471 388.275200
  19740  19754  19759     1   109.5600471 388.275200
  19741  19740  19742     1   109.5600471 388.275200
  19741  19744  19748     1   109.5600471 388.275200
  19741  19753  19756     1   107.2600461 396.643200
  19742  19740  19754     1   109.5600471 388.275200
  19742  19740  19762     1   109.7800468 425.094400
  19743  19741  19744     1   109.5600471 388.275200
  19743  19741  19753     1   110.2600474 425.931200
  19744  19745  19747     1   109.5600471 388.275200
  19744  19752  19755     1   107.2600461 396.643200
  19745  19744  19748     1   109.5600471 388.275200
  19745  19746  19749     1   110.2200475 386.601600
  19745  19751  19757     1   107.2600461 396.643200
  19746  19745  19747     1   109.5600471 388.275200
  19747  19745  19751     1   110.2600474 425.931200
  19748  19744  19752     1   110.2600474 425.931200
  19749  19746  19750     1   109.5800467 425.931200
  19749  19746  19762     1   109.5800467 425.931200
  19754  19760  19761     1   107.2600461 396.643200
  19758  19754  19760     1   110.2600474 425.931200
  19758  19754  19759     1   108.4600466 328.025600
  19759  19754  19760     1   110.2600474 425.931200
  19763  19764  19766     1   109.5600471 388.275200
  19763  19777  19781     1   109.5600471 388.275200
  19763  19777  19782     1   109.5600471 388.275200
  19764  19767  19771     1   109.5600471 388.275200
  19764  19776  19779     1   107.2600461 396.643200
  19764  19763  19765     1   109.5600471 388.275200
  19765  19763  19777     1   109.5600471 388.275200
  19765  19763  19785     1   109.7800468 425.094400
  19766  19764  19767     1   109.5600471 388.275200
  19766  19764  19776     1   110.2600474 425.931200
  19767  19768  19770     1   109.5600471 388.275200
  19767  19775  19778     1   107.2600461 396.643200
  19768  19769  19772     1   110.2200475 386.601600
  19768  19774  19780     1   107.2600461 396.643200
  19768  19767  19771     1   109.5600471 388.275200
  19769  19768  19770     1   109.5600471 388.275200
  19770  19768  19774     1   110.2600474 425.931200
  19771  19767  19775     1   110.2600474 425.931200
  19772  19769  19773     1   109.5800467 425.931200
  19772  19769  19785     1   109.5800467 425.931200
  19777  19783  19784     1   107.2600461 396.643200
  19781  19777  19783     1   110.2600474 425.931200
  19781  19777  19782     1   108.4600466 328.025600
  19782  19777  19783     1   110.2600474 425.931200
  19786  19787  19789     1   109.5600471 388.275200
  19786  19800  19804     1   109.5600471 388.275200
  19786  19800  19805     1   109.5600471 388.275200
  19787  19786  19788     1   109.5600471 388.275200
  19787  19790  19794     1   109.5600471 388.275200
  19787  19799  19802     1   107.2600461 396.643200
  19788  19786  19800     1   109.5600471 388.275200
  19788  19786  19808     1   109.7800468 425.094400
  19789  19787  19790     1   109.5600471 388.275200
  19789  19787  19799     1   110.2600474 425.931200
  19790  19791  19793     1   109.5600471 388.275200
  19790  19798  19801     1   107.2600461 396.643200
  19791  19790  19794     1   109.5600471 388.275200
  19791  19792  19795     1   110.2200475 386.601600
  19791  19797  19803     1   107.2600461 396.643200
  19792  19791  19793     1   109.5600471 388.275200
  19793  19791  19797     1   110.2600474 425.931200
  19794  19790  19798     1   110.2600474 425.931200
  19795  19792  19796     1   109.5800467 425.931200
  19795  19792  19808     1   109.5800467 425.931200
  19800  19806  19807     1   107.2600461 396.643200
  19804  19800  19806     1   110.2600474 425.931200
  19804  19800  19805     1   108.4600466 328.025600
  19805  19800  19806     1   110.2600474 425.931200
  19809  19810  19812     1   109.5600471 388.275200
  19809  19823  19827     1   109.5600471 388.275200
  19809  19823  19828     1   109.5600471 388.275200
  19810  19813  19817     1   109.5600471 388.275200
  19810  19822  19825     1   107.2600461 396.643200
  19810  19809  19811     1   109.5600471 388.275200
  19811  19809  19823     1   109.5600471 388.275200
  19811  19809  19831     1   109.7800468 425.094400
  19812  19810  19813     1   109.5600471 388.275200
  19812  19810  19822     1   110.2600474 425.931200
  19813  19814  19816     1   109.5600471 388.275200
  19813  19821  19824     1   107.2600461 396.643200
  19814  19815  19818     1   110.2200475 386.601600
  19814  19820  19826     1   107.2600461 396.643200
  19814  19813  19817     1   109.5600471 388.275200
  19815  19814  19816     1   109.5600471 388.275200
  19816  19814  19820     1   110.2600474 425.931200
  19817  19813  19821     1   110.2600474 425.931200
  19818  19815  19819     1   109.5800467 425.931200
  19818  19815  19831     1   109.5800467 425.931200
  19823  19829  19830     1   107.2600461 396.643200
  19827  19823  19829     1   110.2600474 425.931200
  19827  19823  19828     1   108.4600466 328.025600
  19828  19823  19829     1   110.2600474 425.931200
  19832  19833  19835     1   109.5600471 388.275200
  19832  19846  19850     1   109.5600471 388.275200
  19832  19846  19851     1   109.5600471 388.275200
  19833  19832  19834     1   109.5600471 388.275200
  19833  19836  19840     1   109.5600471 388.275200
  19833  19845  19848     1   107.2600461 396.643200
  19834  19832  19846     1   109.5600471 388.275200
  19834  19832  19854     1   109.7800468 425.094400
  19835  19833  19836     1   109.5600471 388.275200
  19835  19833  19845     1   110.2600474 425.931200
  19836  19837  19839     1   109.5600471 388.275200
  19836  19844  19847     1   107.2600461 396.643200
  19837  19836  19840     1   109.5600471 388.275200
  19837  19838  19841     1   110.2200475 386.601600
  19837  19843  19849     1   107.2600461 396.643200
  19838  19837  19839     1   109.5600471 388.275200
  19839  19837  19843     1   110.2600474 425.931200
  19840  19836  19844     1   110.2600474 425.931200
  19841  19838  19842     1   109.5800467 425.931200
  19841  19838  19854     1   109.5800467 425.931200
  19846  19852  19853     1   107.2600461 396.643200
  19850  19846  19852     1   110.2600474 425.931200
  19850  19846  19851     1   108.4600466 328.025600
  19851  19846  19852     1   110.2600474 425.931200
  19855  19856  19858     1   109.5600471 388.275200
  19855  19869  19873     1   109.5600471 388.275200
  19855  19869  19874     1   109.5600471 388.275200
  19856  19859  19863     1   109.5600471 388.275200
  19856  19868  19871     1   107.2600461 396.643200
  19856  19855  19857     1   109.5600471 388.275200
  19857  19855  19869     1   109.5600471 388.275200
  19857  19855  19877     1   109.7800468 425.094400
  19858  19856  19859     1   109.5600471 388.275200
  19858  19856  19868     1   110.2600474 425.931200
  19859  19860  19862     1   109.5600471 388.275200
  19859  19867  19870     1   107.2600461 396.643200
  19860  19861  19864     1   110.2200475 386.601600
  19860  19866  19872     1   107.2600461 396.643200
  19860  19859  19863     1   109.5600471 388.275200
  19861  19860  19862     1   109.5600471 388.275200
  19862  19860  19866     1   110.2600474 425.931200
  19863  19859  19867     1   110.2600474 425.931200
  19864  19861  19865     1   109.5800467 425.931200
  19864  19861  19877     1   109.5800467 425.931200
  19869  19875  19876     1   107.2600461 396.643200
  19873  19869  19875     1   110.2600474 425.931200
  19873  19869  19874     1   108.4600466 328.025600
  19874  19869  19875     1   110.2600474 425.931200
  19878  19879  19881     1   109.5600471 388.275200
  19878  19892  19896     1   109.5600471 388.275200
  19878  19892  19897     1   109.5600471 388.275200
  19879  19878  19880     1   109.5600471 388.275200
  19879  19882  19886     1   109.5600471 388.275200
  19879  19891  19894     1   107.2600461 396.643200
  19880  19878  19892     1   109.5600471 388.275200
  19880  19878  19900     1   109.7800468 425.094400
  19881  19879  19882     1   109.5600471 388.275200
  19881  19879  19891     1   110.2600474 425.931200
  19882  19883  19885     1   109.5600471 388.275200
  19882  19890  19893     1   107.2600461 396.643200
  19883  19882  19886     1   109.5600471 388.275200
  19883  19884  19887     1   110.2200475 386.601600
  19883  19889  19895     1   107.2600461 396.643200
  19884  19883  19885     1   109.5600471 388.275200
  19885  19883  19889     1   110.2600474 425.931200
  19886  19882  19890     1   110.2600474 425.931200
  19887  19884  19888     1   109.5800467 425.931200
  19887  19884  19900     1   109.5800467 425.931200
  19892  19898  19899     1   107.2600461 396.643200
  19896  19892  19898     1   110.2600474 425.931200
  19896  19892  19897     1   108.4600466 328.025600
  19897  19892  19898     1   110.2600474 425.931200
  19901  19902  19904     1   109.5600471 388.275200
  19901  19915  19919     1   109.5600471 388.275200
  19901  19915  19920     1   109.5600471 388.275200
  19902  19905  19909     1   109.5600471 388.275200
  19902  19914  19917     1   107.2600461 396.643200
  19902  19901  19903     1   109.5600471 388.275200
  19903  19901  19915     1   109.5600471 388.275200
  19903  19901  19923     1   109.7800468 425.094400
  19904  19902  19905     1   109.5600471 388.275200
  19904  19902  19914     1   110.2600474 425.931200
  19905  19906  19908     1   109.5600471 388.275200
  19905  19913  19916     1   107.2600461 396.643200
  19906  19907  19910     1   110.2200475 386.601600
  19906  19912  19918     1   107.2600461 396.643200
  19906  19905  19909     1   109.5600471 388.275200
  19907  19906  19908     1   109.5600471 388.275200
  19908  19906  19912     1   110.2600474 425.931200
  19909  19905  19913     1   110.2600474 425.931200
  19910  19907  19911     1   109.5800467 425.931200
  19910  19907  19923     1   109.5800467 425.931200
  19915  19921  19922     1   107.2600461 396.643200
  19919  19915  19921     1   110.2600474 425.931200
  19919  19915  19920     1   108.4600466 328.025600
  19920  19915  19921     1   110.2600474 425.931200
  19924  19925  19927     1   109.5600471 388.275200
  19924  19938  19942     1   109.5600471 388.275200
  19924  19938  19943     1   109.5600471 388.275200
  19925  19924  19926     1   109.5600471 388.275200
  19925  19928  19932     1   109.5600471 388.275200
  19925  19937  19940     1   107.2600461 396.643200
  19926  19924  19938     1   109.5600471 388.275200
  19926  19924  19946     1   109.7800468 425.094400
  19927  19925  19928     1   109.5600471 388.275200
  19927  19925  19937     1   110.2600474 425.931200
  19928  19929  19931     1   109.5600471 388.275200
  19928  19936  19939     1   107.2600461 396.643200
  19929  19928  19932     1   109.5600471 388.275200
  19929  19930  19933     1   110.2200475 386.601600
  19929  19935  19941     1   107.2600461 396.643200
  19930  19929  19931     1   109.5600471 388.275200
  19931  19929  19935     1   110.2600474 425.931200
  19932  19928  19936     1   110.2600474 425.931200
  19933  19930  19934     1   109.5800467 425.931200
  19933  19930  19946     1   109.5800467 425.931200
  19938  19944  19945     1   107.2600461 396.643200
  19942  19938  19944     1   110.2600474 425.931200
  19942  19938  19943     1   108.4600466 328.025600
  19943  19938  19944     1   110.2600474 425.931200
  19947  19948  19950     1   109.5600471 388.275200
  19947  19961  19965     1   109.5600471 388.275200
  19947  19961  19966     1   109.5600471 388.275200
  19948  19951  19955     1   109.5600471 388.275200
  19948  19960  19963     1   107.2600461 396.643200
  19948  19947  19949     1   109.5600471 388.275200
  19949  19947  19961     1   109.5600471 388.275200
  19949  19947  19969     1   109.7800468 425.094400
  19950  19948  19951     1   109.5600471 388.275200
  19950  19948  19960     1   110.2600474 425.931200
  19951  19952  19954     1   109.5600471 388.275200
  19951  19959  19962     1   107.2600461 396.643200
  19952  19953  19956     1   110.2200475 386.601600
  19952  19958  19964     1   107.2600461 396.643200
  19952  19951  19955     1   109.5600471 388.275200
  19953  19952  19954     1   109.5600471 388.275200
  19954  19952  19958     1   110.2600474 425.931200
  19955  19951  19959     1   110.2600474 425.931200
  19956  19953  19957     1   109.5800467 425.931200
  19956  19953  19969     1   109.5800467 425.931200
  19961  19967  19968     1   107.2600461 396.643200
  19965  19961  19967     1   110.2600474 425.931200
  19965  19961  19966     1   108.4600466 328.025600
  19966  19961  19967     1   110.2600474 425.931200
  19970  19971  19973     1   109.5600471 388.275200
  19970  19984  19988     1   109.5600471 388.275200
  19970  19984  19989     1   109.5600471 388.275200
  19971  19970  19972     1   109.5600471 388.275200
  19971  19974  19978     1   109.5600471 388.275200
  19971  19983  19986     1   107.2600461 396.643200
  19972  19970  19984     1   109.5600471 388.275200
  19972  19970  19992     1   109.7800468 425.094400
  19973  19971  19974     1   109.5600471 388.275200
  19973  19971  19983     1   110.2600474 425.931200
  19974  19975  19977     1   109.5600471 388.275200
  19974  19982  19985     1   107.2600461 396.643200
  19975  19974  19978     1   109.5600471 388.275200
  19975  19976  19979     1   110.2200475 386.601600
  19975  19981  19987     1   107.2600461 396.643200
  19976  19975  19977     1   109.5600471 388.275200
  19977  19975  19981     1   110.2600474 425.931200
  19978  19974  19982     1   110.2600474 425.931200
  19979  19976  19980     1   109.5800467 425.931200
  19979  19976  19992     1   109.5800467 425.931200
  19984  19990  19991     1   107.2600461 396.643200
  19988  19984  19990     1   110.2600474 425.931200
  19988  19984  19989     1   108.4600466 328.025600
  19989  19984  19990     1   110.2600474 425.931200
  19993  19994  19996     1   109.5600471 388.275200
  19993  20007  20011     1   109.5600471 388.275200
  19993  20007  20012     1   109.5600471 388.275200
  19994  19997  20001     1   109.5600471 388.275200
  19994  20006  20009     1   107.2600461 396.643200
  19994  19993  19995     1   109.5600471 388.275200
  19995  19993  20007     1   109.5600471 388.275200
  19995  19993  20015     1   109.7800468 425.094400
  19996  19994  19997     1   109.5600471 388.275200
  19996  19994  20006     1   110.2600474 425.931200
  19997  19998  20000     1   109.5600471 388.275200
  19997  20005  20008     1   107.2600461 396.643200
  19998  19999  20002     1   110.2200475 386.601600
  19998  20004  20010     1   107.2600461 396.643200
  19998  19997  20001     1   109.5600471 388.275200
  19999  19998  20000     1   109.5600471 388.275200
  20000  19998  20004     1   110.2600474 425.931200
  20001  19997  20005     1   110.2600474 425.931200
  20002  19999  20003     1   109.5800467 425.931200
  20002  19999  20015     1   109.5800467 425.931200
  20007  20013  20014     1   107.2600461 396.643200
  20011  20007  20013     1   110.2600474 425.931200
  20011  20007  20012     1   108.4600466 328.025600
  20012  20007  20013     1   110.2600474 425.931200
  20016  20017  20019     1   109.5600471 388.275200
  20016  20030  20034     1   109.5600471 388.275200
  20016  20030  20035     1   109.5600471 388.275200
  20017  20016  20018     1   109.5600471 388.275200
  20017  20020  20024     1   109.5600471 388.275200
  20017  20029  20032     1   107.2600461 396.643200
  20018  20016  20030     1   109.5600471 388.275200
  20018  20016  20038     1   109.7800468 425.094400
  20019  20017  20020     1   109.5600471 388.275200
  20019  20017  20029     1   110.2600474 425.931200
  20020  20021  20023     1   109.5600471 388.275200
  20020  20028  20031     1   107.2600461 396.643200
  20021  20020  20024     1   109.5600471 388.275200
  20021  20022  20025     1   110.2200475 386.601600
  20021  20027  20033     1   107.2600461 396.643200
  20022  20021  20023     1   109.5600471 388.275200
  20023  20021  20027     1   110.2600474 425.931200
  20024  20020  20028     1   110.2600474 425.931200
  20025  20022  20026     1   109.5800467 425.931200
  20025  20022  20038     1   109.5800467 425.931200
  20030  20036  20037     1   107.2600461 396.643200
  20034  20030  20036     1   110.2600474 425.931200
  20034  20030  20035     1   108.4600466 328.025600
  20035  20030  20036     1   110.2600474 425.931200
  20039  20040  20042     1   109.5600471 388.275200
  20039  20053  20057     1   109.5600471 388.275200
  20039  20053  20058     1   109.5600471 388.275200
  20040  20043  20047     1   109.5600471 388.275200
  20040  20052  20055     1   107.2600461 396.643200
  20040  20039  20041     1   109.5600471 388.275200
  20041  20039  20053     1   109.5600471 388.275200
  20041  20039  20061     1   109.7800468 425.094400
  20042  20040  20043     1   109.5600471 388.275200
  20042  20040  20052     1   110.2600474 425.931200
  20043  20044  20046     1   109.5600471 388.275200
  20043  20051  20054     1   107.2600461 396.643200
  20044  20045  20048     1   110.2200475 386.601600
  20044  20050  20056     1   107.2600461 396.643200
  20044  20043  20047     1   109.5600471 388.275200
  20045  20044  20046     1   109.5600471 388.275200
  20046  20044  20050     1   110.2600474 425.931200
  20047  20043  20051     1   110.2600474 425.931200
  20048  20045  20049     1   109.5800467 425.931200
  20048  20045  20061     1   109.5800467 425.931200
  20053  20059  20060     1   107.2600461 396.643200
  20057  20053  20059     1   110.2600474 425.931200
  20057  20053  20058     1   108.4600466 328.025600
  20058  20053  20059     1   110.2600474 425.931200
  20062  20063  20065     1   109.5600471 388.275200
  20062  20076  20080     1   109.5600471 388.275200
  20062  20076  20081     1   109.5600471 388.275200
  20063  20062  20064     1   109.5600471 388.275200
  20063  20066  20070     1   109.5600471 388.275200
  20063  20075  20078     1   107.2600461 396.643200
  20064  20062  20076     1   109.5600471 388.275200
  20064  20062  20084     1   109.7800468 425.094400
  20065  20063  20066     1   109.5600471 388.275200
  20065  20063  20075     1   110.2600474 425.931200
  20066  20067  20069     1   109.5600471 388.275200
  20066  20074  20077     1   107.2600461 396.643200
  20067  20066  20070     1   109.5600471 388.275200
  20067  20068  20071     1   110.2200475 386.601600
  20067  20073  20079     1   107.2600461 396.643200
  20068  20067  20069     1   109.5600471 388.275200
  20069  20067  20073     1   110.2600474 425.931200
  20070  20066  20074     1   110.2600474 425.931200
  20071  20068  20072     1   109.5800467 425.931200
  20071  20068  20084     1   109.5800467 425.931200
  20076  20082  20083     1   107.2600461 396.643200
  20080  20076  20082     1   110.2600474 425.931200
  20080  20076  20081     1   108.4600466 328.025600
  20081  20076  20082     1   110.2600474 425.931200
  20085  20086  20088     1   109.5600471 388.275200
  20085  20099  20103     1   109.5600471 388.275200
  20085  20099  20104     1   109.5600471 388.275200
  20086  20089  20093     1   109.5600471 388.275200
  20086  20098  20101     1   107.2600461 396.643200
  20086  20085  20087     1   109.5600471 388.275200
  20087  20085  20099     1   109.5600471 388.275200
  20087  20085  20107     1   109.7800468 425.094400
  20088  20086  20089     1   109.5600471 388.275200
  20088  20086  20098     1   110.2600474 425.931200
  20089  20090  20092     1   109.5600471 388.275200
  20089  20097  20100     1   107.2600461 396.643200
  20090  20091  20094     1   110.2200475 386.601600
  20090  20096  20102     1   107.2600461 396.643200
  20090  20089  20093     1   109.5600471 388.275200
  20091  20090  20092     1   109.5600471 388.275200
  20092  20090  20096     1   110.2600474 425.931200
  20093  20089  20097     1   110.2600474 425.931200
  20094  20091  20095     1   109.5800467 425.931200
  20094  20091  20107     1   109.5800467 425.931200
  20099  20105  20106     1   107.2600461 396.643200
  20103  20099  20105     1   110.2600474 425.931200
  20103  20099  20104     1   108.4600466 328.025600
  20104  20099  20105     1   110.2600474 425.931200
  20108  20109  20111     1   109.5600471 388.275200
  20108  20122  20126     1   109.5600471 388.275200
  20108  20122  20127     1   109.5600471 388.275200
  20109  20108  20110     1   109.5600471 388.275200
  20109  20112  20116     1   109.5600471 388.275200
  20109  20121  20124     1   107.2600461 396.643200
  20110  20108  20122     1   109.5600471 388.275200
  20110  20108  20130     1   109.7800468 425.094400
  20111  20109  20112     1   109.5600471 388.275200
  20111  20109  20121     1   110.2600474 425.931200
  20112  20113  20115     1   109.5600471 388.275200
  20112  20120  20123     1   107.2600461 396.643200
  20113  20112  20116     1   109.5600471 388.275200
  20113  20114  20117     1   110.2200475 386.601600
  20113  20119  20125     1   107.2600461 396.643200
  20114  20113  20115     1   109.5600471 388.275200
  20115  20113  20119     1   110.2600474 425.931200
  20116  20112  20120     1   110.2600474 425.931200
  20117  20114  20118     1   109.5800467 425.931200
  20117  20114  20130     1   109.5800467 425.931200
  20122  20128  20129     1   107.2600461 396.643200
  20126  20122  20128     1   110.2600474 425.931200
  20126  20122  20127     1   108.4600466 328.025600
  20127  20122  20128     1   110.2600474 425.931200
  20131  20132  20134     1   109.5600471 388.275200
  20131  20145  20149     1   109.5600471 388.275200
  20131  20145  20150     1   109.5600471 388.275200
  20132  20135  20139     1   109.5600471 388.275200
  20132  20144  20147     1   107.2600461 396.643200
  20132  20131  20133     1   109.5600471 388.275200
  20133  20131  20145     1   109.5600471 388.275200
  20133  20131  20153     1   109.7800468 425.094400
  20134  20132  20135     1   109.5600471 388.275200
  20134  20132  20144     1   110.2600474 425.931200
  20135  20136  20138     1   109.5600471 388.275200
  20135  20143  20146     1   107.2600461 396.643200
  20136  20137  20140     1   110.2200475 386.601600
  20136  20142  20148     1   107.2600461 396.643200
  20136  20135  20139     1   109.5600471 388.275200
  20137  20136  20138     1   109.5600471 388.275200
  20138  20136  20142     1   110.2600474 425.931200
  20139  20135  20143     1   110.2600474 425.931200
  20140  20137  20141     1   109.5800467 425.931200
  20140  20137  20153     1   109.5800467 425.931200
  20145  20151  20152     1   107.2600461 396.643200
  20149  20145  20151     1   110.2600474 425.931200
  20149  20145  20150     1   108.4600466 328.025600
  20150  20145  20151     1   110.2600474 425.931200
  20154  20155  20157     1   109.5600471 388.275200
  20154  20168  20172     1   109.5600471 388.275200
  20154  20168  20173     1   109.5600471 388.275200
  20155  20154  20156     1   109.5600471 388.275200
  20155  20158  20162     1   109.5600471 388.275200
  20155  20167  20170     1   107.2600461 396.643200
  20156  20154  20168     1   109.5600471 388.275200
  20156  20154  20176     1   109.7800468 425.094400
  20157  20155  20158     1   109.5600471 388.275200
  20157  20155  20167     1   110.2600474 425.931200
  20158  20159  20161     1   109.5600471 388.275200
  20158  20166  20169     1   107.2600461 396.643200
  20159  20158  20162     1   109.5600471 388.275200
  20159  20160  20163     1   110.2200475 386.601600
  20159  20165  20171     1   107.2600461 396.643200
  20160  20159  20161     1   109.5600471 388.275200
  20161  20159  20165     1   110.2600474 425.931200
  20162  20158  20166     1   110.2600474 425.931200
  20163  20160  20164     1   109.5800467 425.931200
  20163  20160  20176     1   109.5800467 425.931200
  20168  20174  20175     1   107.2600461 396.643200
  20172  20168  20174     1   110.2600474 425.931200
  20172  20168  20173     1   108.4600466 328.025600
  20173  20168  20174     1   110.2600474 425.931200
  20177  20178  20180     1   109.5600471 388.275200
  20177  20191  20195     1   109.5600471 388.275200
  20177  20191  20196     1   109.5600471 388.275200
  20178  20181  20185     1   109.5600471 388.275200
  20178  20190  20193     1   107.2600461 396.643200
  20178  20177  20179     1   109.5600471 388.275200
  20179  20177  20191     1   109.5600471 388.275200
  20179  20177  20199     1   109.7800468 425.094400
  20180  20178  20181     1   109.5600471 388.275200
  20180  20178  20190     1   110.2600474 425.931200
  20181  20182  20184     1   109.5600471 388.275200
  20181  20189  20192     1   107.2600461 396.643200
  20182  20183  20186     1   110.2200475 386.601600
  20182  20188  20194     1   107.2600461 396.643200
  20182  20181  20185     1   109.5600471 388.275200
  20183  20182  20184     1   109.5600471 388.275200
  20184  20182  20188     1   110.2600474 425.931200
  20185  20181  20189     1   110.2600474 425.931200
  20186  20183  20187     1   109.5800467 425.931200
  20186  20183  20199     1   109.5800467 425.931200
  20191  20197  20198     1   107.2600461 396.643200
  20195  20191  20197     1   110.2600474 425.931200
  20195  20191  20196     1   108.4600466 328.025600
  20196  20191  20197     1   110.2600474 425.931200
  20200  20201  20203     1   109.5600471 388.275200
  20200  20214  20218     1   109.5600471 388.275200
  20200  20214  20219     1   109.5600471 388.275200
  20201  20200  20202     1   109.5600471 388.275200
  20201  20204  20208     1   109.5600471 388.275200
  20201  20213  20216     1   107.2600461 396.643200
  20202  20200  20214     1   109.5600471 388.275200
  20202  20200  20222     1   109.7800468 425.094400
  20203  20201  20204     1   109.5600471 388.275200
  20203  20201  20213     1   110.2600474 425.931200
  20204  20205  20207     1   109.5600471 388.275200
  20204  20212  20215     1   107.2600461 396.643200
  20205  20204  20208     1   109.5600471 388.275200
  20205  20206  20209     1   110.2200475 386.601600
  20205  20211  20217     1   107.2600461 396.643200
  20206  20205  20207     1   109.5600471 388.275200
  20207  20205  20211     1   110.2600474 425.931200
  20208  20204  20212     1   110.2600474 425.931200
  20209  20206  20210     1   109.5800467 425.931200
  20209  20206  20222     1   109.5800467 425.931200
  20214  20220  20221     1   107.2600461 396.643200
  20218  20214  20220     1   110.2600474 425.931200
  20218  20214  20219     1   108.4600466 328.025600
  20219  20214  20220     1   110.2600474 425.931200
  20223  20224  20226     1   109.5600471 388.275200
  20223  20237  20241     1   109.5600471 388.275200
  20223  20237  20242     1   109.5600471 388.275200
  20224  20227  20231     1   109.5600471 388.275200
  20224  20236  20239     1   107.2600461 396.643200
  20224  20223  20225     1   109.5600471 388.275200
  20225  20223  20237     1   109.5600471 388.275200
  20225  20223  20245     1   109.7800468 425.094400
  20226  20224  20227     1   109.5600471 388.275200
  20226  20224  20236     1   110.2600474 425.931200
  20227  20228  20230     1   109.5600471 388.275200
  20227  20235  20238     1   107.2600461 396.643200
  20228  20229  20232     1   110.2200475 386.601600
  20228  20234  20240     1   107.2600461 396.643200
  20228  20227  20231     1   109.5600471 388.275200
  20229  20228  20230     1   109.5600471 388.275200
  20230  20228  20234     1   110.2600474 425.931200
  20231  20227  20235     1   110.2600474 425.931200
  20232  20229  20233     1   109.5800467 425.931200
  20232  20229  20245     1   109.5800467 425.931200
  20237  20243  20244     1   107.2600461 396.643200
  20241  20237  20243     1   110.2600474 425.931200
  20241  20237  20242     1   108.4600466 328.025600
  20242  20237  20243     1   110.2600474 425.931200
  20246  20247  20249     1   109.5600471 388.275200
  20246  20260  20264     1   109.5600471 388.275200
  20246  20260  20265     1   109.5600471 388.275200
  20247  20246  20248     1   109.5600471 388.275200
  20247  20250  20254     1   109.5600471 388.275200
  20247  20259  20262     1   107.2600461 396.643200
  20248  20246  20260     1   109.5600471 388.275200
  20248  20246  20268     1   109.7800468 425.094400
  20249  20247  20250     1   109.5600471 388.275200
  20249  20247  20259     1   110.2600474 425.931200
  20250  20251  20253     1   109.5600471 388.275200
  20250  20258  20261     1   107.2600461 396.643200
  20251  20250  20254     1   109.5600471 388.275200
  20251  20252  20255     1   110.2200475 386.601600
  20251  20257  20263     1   107.2600461 396.643200
  20252  20251  20253     1   109.5600471 388.275200
  20253  20251  20257     1   110.2600474 425.931200
  20254  20250  20258     1   110.2600474 425.931200
  20255  20252  20256     1   109.5800467 425.931200
  20255  20252  20268     1   109.5800467 425.931200
  20260  20266  20267     1   107.2600461 396.643200
  20264  20260  20266     1   110.2600474 425.931200
  20264  20260  20265     1   108.4600466 328.025600
  20265  20260  20266     1   110.2600474 425.931200
  20269  20270  20272     1   109.5600471 388.275200
  20269  20283  20287     1   109.5600471 388.275200
  20269  20283  20288     1   109.5600471 388.275200
  20270  20273  20277     1   109.5600471 388.275200
  20270  20282  20285     1   107.2600461 396.643200
  20270  20269  20271     1   109.5600471 388.275200
  20271  20269  20283     1   109.5600471 388.275200
  20271  20269  20291     1   109.7800468 425.094400
  20272  20270  20273     1   109.5600471 388.275200
  20272  20270  20282     1   110.2600474 425.931200
  20273  20274  20276     1   109.5600471 388.275200
  20273  20281  20284     1   107.2600461 396.643200
  20274  20275  20278     1   110.2200475 386.601600
  20274  20280  20286     1   107.2600461 396.643200
  20274  20273  20277     1   109.5600471 388.275200
  20275  20274  20276     1   109.5600471 388.275200
  20276  20274  20280     1   110.2600474 425.931200
  20277  20273  20281     1   110.2600474 425.931200
  20278  20275  20279     1   109.5800467 425.931200
  20278  20275  20291     1   109.5800467 425.931200
  20283  20289  20290     1   107.2600461 396.643200
  20287  20283  20289     1   110.2600474 425.931200
  20287  20283  20288     1   108.4600466 328.025600
  20288  20283  20289     1   110.2600474 425.931200

[ dihedrals ]
;    ai     aj     ak     al funct         c0         c1         c2         c3         c4         c5
      1      2     14     26     1  0.0000000  0.6508444  3
      1      5     17     20     1  0.0000000  0.6508444  3
      1      8     11     23     1  0.0000000  0.6508444  3
      2      1      5     17     1  0.0000000  0.6508444  3
      2      1      8     11     1  0.0000000  0.6508444  3
      2     14     26    118     1  0.0000000  0.6508444  3
      5      1      2     14     1  0.0000000  0.6508444  3
      5      1      8     11     1  0.0000000  0.6508444  3
      5     17     20     58     1  0.0000000  0.6508444  3
      8      1      2     14     1  0.0000000  0.6508444  3
      8      1      5     17     1  0.0000000  0.6508444  3
      8     11     23     88     1  0.0000000  0.6508444  3
     11     23     88     79     1  180.0000771  0.4184000  2
     11     23     88     79     1  0.0000000  1.6024720  3
     14     26    118    109     1  180.0000771  0.4184000  2
     14     26    118    109     1  0.0000000  1.6024720  3
     17     20     58     49     1  180.0000771  0.4184000  2
     17     20     58     49     1  0.0000000  1.6024720  3
     20     58     49     40     1  180.0000771  0.4184000  2
     20     58     49     40     1  0.0000000  1.6024720  3
     23     88     79     70     1  180.0000771  0.4184000  2
     23     88     79     70     1  0.0000000  1.6024720  3
     26    118    109    100     1  180.0000771  0.4184000  2
     26    118    109    100     1  0.0000000  1.6024720  3
     30     31     43     55     1  0.0000000  0.6508444  3
     30     34     46     52     1  0.0000000  0.6508444  3
     30     37     40     49     1  0.0000000  0.6508444  3
     31     30     34     46     1  0.0000000  0.6508444  3
     31     30     37     40     1  0.0000000  0.6508444  3
     31     43     55    178     1  0.0000000  0.6508444  3
     34     30     31     43     1  0.0000000  0.6508444  3
     34     30     37     40     1  0.0000000  0.6508444  3
     34     46     52    148     1  0.0000000  0.6508444  3
     37     30     31     43     1  0.0000000  0.6508444  3
     37     30     34     46     1  0.0000000  0.6508444  3
     37     40     49     58     1  0.0000000  0.6508444  3
     43     55    178    169     1  180.0000771  0.4184000  2
     43     55    178    169     1  0.0000000  1.6024720  3
     46     52    148    139     1  180.0000771  0.4184000  2
     46     52    148    139     1  0.0000000  1.6024720  3
     52    148    139    130     1  180.0000771  0.4184000  2
     52    148    139    130     1  0.0000000  1.6024720  3
     55    178    169    160     1  180.0000771  0.4184000  2
     55    178    169    160     1  0.0000000  1.6024720  3
     60     61     73     85     1  0.0000000  0.6508444  3
     60     64     76     82     1  0.0000000  0.6508444  3
     60     67     70     79     1  0.0000000  0.6508444  3
     61     60     64     76     1  0.0000000  0.6508444  3
     61     60     67     70     1  0.0000000  0.6508444  3
     61     73     85    238     1  0.0000000  0.6508444  3
     64     60     61     73     1  0.0000000  0.6508444  3
     64     60     67     70     1  0.0000000  0.6508444  3
     64     76     82    208     1  0.0000000  0.6508444  3
     67     60     61     73     1  0.0000000  0.6508444  3
     67     60     64     76     1  0.0000000  0.6508444  3
     67     70     79     88     1  0.0000000  0.6508444  3
     73     85    238    229     1  180.0000771  0.4184000  2
     73     85    238    229     1  0.0000000  1.6024720  3
     76     82    208    199     1  180.0000771  0.4184000  2
     76     82    208    199     1  0.0000000  1.6024720  3
     82    208    199    190     1  180.0000771  0.4184000  2
     82    208    199    190     1  0.0000000  1.6024720  3
     85    238    229    220     1  180.0000771  0.4184000  2
     85    238    229    220     1  0.0000000  1.6024720  3
     90     91    103    115     1  0.0000000  0.6508444  3
     90     94    106    112     1  0.0000000  0.6508444  3
     90     97    100    109     1  0.0000000  0.6508444  3
     91     90     94    106     1  0.0000000  0.6508444  3
     91     90     97    100     1  0.0000000  0.6508444  3
     91    103    115    298     1  0.0000000  0.6508444  3
     94     90     91    103     1  0.0000000  0.6508444  3
     94     90     97    100     1  0.0000000  0.6508444  3
     94    106    112    268     1  0.0000000  0.6508444  3
     97     90     91    103     1  0.0000000  0.6508444  3
     97     90     94    106     1  0.0000000  0.6508444  3
     97    100    109    118     1  0.0000000  0.6508444  3
    103    115    298    289     1  180.0000771  0.4184000  2
    103    115    298    289     1  0.0000000  1.6024720  3
    106    112    268    259     1  180.0000771  0.4184000  2
    106    112    268    259     1  0.0000000  1.6024720  3
    112    268    259    250     1  180.0000771  0.4184000  2
    112    268    259    250     1  0.0000000  1.6024720  3
    115    298    289    280     1  180.0000771  0.4184000  2
    115    298    289    280     1  0.0000000  1.6024720  3
    120    121    133    145     1  0.0000000  0.6508444  3
    120    124    136    142     1  0.0000000  0.6508444  3
    120    127    130    139     1  0.0000000  0.6508444  3
    121    120    124    136     1  0.0000000  0.6508444  3
    121    120    127    130     1  0.0000000  0.6508444  3
    121    133    145    358     1  0.0000000  0.6508444  3
    124    120    121    133     1  0.0000000  0.6508444  3
    124    120    127    130     1  0.0000000  0.6508444  3
    124    136    142    328     1  0.0000000  0.6508444  3
    127    120    121    133     1  0.0000000  0.6508444  3
    127    120    124    136     1  0.0000000  0.6508444  3
    127    130    139    148     1  0.0000000  0.6508444  3
    133    145    358    349     1  180.0000771  0.4184000  2
    133    145    358    349     1  0.0000000  1.6024720  3
    136    142    328    319     1  180.0000771  0.4184000  2
    136    142    328    319     1  0.0000000  1.6024720  3
    142    328    319    310     1  180.0000771  0.4184000  2
    142    328    319    310     1  0.0000000  1.6024720  3
    145    358    349    340     1  180.0000771  0.4184000  2
    145    358    349    340     1  0.0000000  1.6024720  3
    150    151    163    175     1  0.0000000  0.6508444  3
    150    154    166    172     1  0.0000000  0.6508444  3
    150    157    160    169     1  0.0000000  0.6508444  3
    151    150    154    166     1  0.0000000  0.6508444  3
    151    150    157    160     1  0.0000000  0.6508444  3
    151    163    175    418     1  0.0000000  0.6508444  3
    154    150    151    163     1  0.0000000  0.6508444  3
    154    150    157    160     1  0.0000000  0.6508444  3
    154    166    172    388     1  0.0000000  0.6508444  3
    157    150    151    163     1  0.0000000  0.6508444  3
    157    150    154    166     1  0.0000000  0.6508444  3
    157    160    169    178     1  0.0000000  0.6508444  3
    163    175    418    409     1  180.0000771  0.4184000  2
    163    175    418    409     1  0.0000000  1.6024720  3
    166    172    388    379     1  180.0000771  0.4184000  2
    166    172    388    379     1  0.0000000  1.6024720  3
    172    388    379    370     1  180.0000771  0.4184000  2
    172    388    379    370     1  0.0000000  1.6024720  3
    175    418    409    400     1  180.0000771  0.4184000  2
    175    418    409    400     1  0.0000000  1.6024720  3
    180    181    193    205     1  0.0000000  0.6508444  3
    180    184    196    202     1  0.0000000  0.6508444  3
    180    187    190    199     1  0.0000000  0.6508444  3
    181    180    184    196     1  0.0000000  0.6508444  3
    181    180    187    190     1  0.0000000  0.6508444  3
    181    193    205    478     1  0.0000000  0.6508444  3
    184    180    181    193     1  0.0000000  0.6508444  3
    184    180    187    190     1  0.0000000  0.6508444  3
    184    196    202    448     1  0.0000000  0.6508444  3
    187    180    181    193     1  0.0000000  0.6508444  3
    187    180    184    196     1  0.0000000  0.6508444  3
    187    190    199    208     1  0.0000000  0.6508444  3
    193    205    478    469     1  180.0000771  0.4184000  2
    193    205    478    469     1  0.0000000  1.6024720  3
    196    202    448    439     1  180.0000771  0.4184000  2
    196    202    448    439     1  0.0000000  1.6024720  3
    202    448    439    430     1  180.0000771  0.4184000  2
    202    448    439    430     1  0.0000000  1.6024720  3
    205    478    469    460     1  180.0000771  0.4184000  2
    205    478    469    460     1  0.0000000  1.6024720  3
    210    211    223    235     1  0.0000000  0.6508444  3
    210    214    226    232     1  0.0000000  0.6508444  3
    210    217    220    229     1  0.0000000  0.6508444  3
    211    210    214    226     1  0.0000000  0.6508444  3
    211    210    217    220     1  0.0000000  0.6508444  3
    211    223    235    538     1  0.0000000  0.6508444  3
    214    210    211    223     1  0.0000000  0.6508444  3
    214    210    217    220     1  0.0000000  0.6508444  3
    214    226    232    508     1  0.0000000  0.6508444  3
    217    210    211    223     1  0.0000000  0.6508444  3
    217    210    214    226     1  0.0000000  0.6508444  3
    217    220    229    238     1  0.0000000  0.6508444  3
    223    235    538    529     1  180.0000771  0.4184000  2
    223    235    538    529     1  0.0000000  1.6024720  3
    226    232    508    499     1  180.0000771  0.4184000  2
    226    232    508    499     1  0.0000000  1.6024720  3
    232    508    499    490     1  180.0000771  0.4184000  2
    232    508    499    490     1  0.0000000  1.6024720  3
    235    538    529    520     1  180.0000771  0.4184000  2
    235    538    529    520     1  0.0000000  1.6024720  3
    240    241    253    265     1  0.0000000  0.6508444  3
    240    244    256    262     1  0.0000000  0.6508444  3
    240    247    250    259     1  0.0000000  0.6508444  3
    241    240    244    256     1  0.0000000  0.6508444  3
    241    240    247    250     1  0.0000000  0.6508444  3
    241    253    265    598     1  0.0000000  0.6508444  3
    244    240    241    253     1  0.0000000  0.6508444  3
    244    240    247    250     1  0.0000000  0.6508444  3
    244    256    262    568     1  0.0000000  0.6508444  3
    247    240    241    253     1  0.0000000  0.6508444  3
    247    240    244    256     1  0.0000000  0.6508444  3
    247    250    259    268     1  0.0000000  0.6508444  3
    253    265    598    589     1  180.0000771  0.4184000  2
    253    265    598    589     1  0.0000000  1.6024720  3
    256    262    568    559     1  180.0000771  0.4184000  2
    256    262    568    559     1  0.0000000  1.6024720  3
    262    568    559    550     1  180.0000771  0.4184000  2
    262    568    559    550     1  0.0000000  1.6024720  3
    265    598    589    580     1  180.0000771  0.4184000  2
    265    598    589    580     1  0.0000000  1.6024720  3
    270    271    283    295     1  0.0000000  0.6508444  3
    270    274    286    292     1  0.0000000  0.6508444  3
    270    277    280    289     1  0.0000000  0.6508444  3
    271    270    274    286     1  0.0000000  0.6508444  3
    271    270    277    280     1  0.0000000  0.6508444  3
    271    283    295    658     1  0.0000000  0.6508444  3
    274    270    271    283     1  0.0000000  0.6508444  3
    274    270    277    280     1  0.0000000  0.6508444  3
    274    286    292    628     1  0.0000000  0.6508444  3
    277    270    271    283     1  0.0000000  0.6508444  3
    277    270    274    286     1  0.0000000  0.6508444  3
    277    280    289    298     1  0.0000000  0.6508444  3
    283    295    658    649     1  180.0000771  0.4184000  2
    283    295    658    649     1  0.0000000  1.6024720  3
    286    292    628    619     1  180.0000771  0.4184000  2
    286    292    628    619     1  0.0000000  1.6024720  3
    292    628    619    610     1  180.0000771  0.4184000  2
    292    628    619    610     1  0.0000000  1.6024720  3
    295    658    649    640     1  180.0000771  0.4184000  2
    295    658    649    640     1  0.0000000  1.6024720  3
    300    301    313    325     1  0.0000000  0.6508444  3
    300    304    316    322     1  0.0000000  0.6508444  3
    300    307    310    319     1  0.0000000  0.6508444  3
    301    300    304    316     1  0.0000000  0.6508444  3
    301    300    307    310     1  0.0000000  0.6508444  3
    301    313    325    718     1  0.0000000  0.6508444  3
    304    300    301    313     1  0.0000000  0.6508444  3
    304    300    307    310     1  0.0000000  0.6508444  3
    304    316    322    688     1  0.0000000  0.6508444  3
    307    300    301    313     1  0.0000000  0.6508444  3
    307    300    304    316     1  0.0000000  0.6508444  3
    307    310    319    328     1  0.0000000  0.6508444  3
    313    325    718    709     1  180.0000771  0.4184000  2
    313    325    718    709     1  0.0000000  1.6024720  3
    316    322    688    679     1  180.0000771  0.4184000  2
    316    322    688    679     1  0.0000000  1.6024720  3
    322    688    679    670     1  180.0000771  0.4184000  2
    322    688    679    670     1  0.0000000  1.6024720  3
    325    718    709    700     1  180.0000771  0.4184000  2
    325    718    709    700     1  0.0000000  1.6024720  3
    330    331    343    355     1  0.0000000  0.6508444  3
    330    334    346    352     1  0.0000000  0.6508444  3
    330    337    340    349     1  0.0000000  0.6508444  3
    331    330    334    346     1  0.0000000  0.6508444  3
    331    330    337    340     1  0.0000000  0.6508444  3
    331    343    355    778     1  0.0000000  0.6508444  3
    334    330    331    343     1  0.0000000  0.6508444  3
    334    330    337    340     1  0.0000000  0.6508444  3
    334    346    352    748     1  0.0000000  0.6508444  3
    337    330    331    343     1  0.0000000  0.6508444  3
    337    330    334    346     1  0.0000000  0.6508444  3
    337    340    349    358     1  0.0000000  0.6508444  3
    343    355    778    769     1  180.0000771  0.4184000  2
    343    355    778    769     1  0.0000000  1.6024720  3
    346    352    748    739     1  180.0000771  0.4184000  2
    346    352    748    739     1  0.0000000  1.6024720  3
    352    748    739    730     1  180.0000771  0.4184000  2
    352    748    739    730     1  0.0000000  1.6024720  3
    355    778    769    760     1  180.0000771  0.4184000  2
    355    778    769    760     1  0.0000000  1.6024720  3
    360    361    373    385     1  0.0000000  0.6508444  3
    360    364    376    382     1  0.0000000  0.6508444  3
    360    367    370    379     1  0.0000000  0.6508444  3
    361    360    364    376     1  0.0000000  0.6508444  3
    361    360    367    370     1  0.0000000  0.6508444  3
    361    373    385    838     1  0.0000000  0.6508444  3
    364    360    361    373     1  0.0000000  0.6508444  3
    364    360    367    370     1  0.0000000  0.6508444  3
    364    376    382    808     1  0.0000000  0.6508444  3
    367    360    361    373     1  0.0000000  0.6508444  3
    367    360    364    376     1  0.0000000  0.6508444  3
    367    370    379    388     1  0.0000000  0.6508444  3
    373    385    838    829     1  180.0000771  0.4184000  2
    373    385    838    829     1  0.0000000  1.6024720  3
    376    382    808    799     1  180.0000771  0.4184000  2
    376    382    808    799     1  0.0000000  1.6024720  3
    382    808    799    790     1  180.0000771  0.4184000  2
    382    808    799    790     1  0.0000000  1.6024720  3
    385    838    829    820     1  180.0000771  0.4184000  2
    385    838    829    820     1  0.0000000  1.6024720  3
    390    391    403    415     1  0.0000000  0.6508444  3
    390    394    406    412     1  0.0000000  0.6508444  3
    390    397    400    409     1  0.0000000  0.6508444  3
    391    390    394    406     1  0.0000000  0.6508444  3
    391    390    397    400     1  0.0000000  0.6508444  3
    391    403    415    898     1  0.0000000  0.6508444  3
    394    390    391    403     1  0.0000000  0.6508444  3
    394    390    397    400     1  0.0000000  0.6508444  3
    394    406    412    868     1  0.0000000  0.6508444  3
    397    390    391    403     1  0.0000000  0.6508444  3
    397    390    394    406     1  0.0000000  0.6508444  3
    397    400    409    418     1  0.0000000  0.6508444  3
    403    415    898    889     1  180.0000771  0.4184000  2
    403    415    898    889     1  0.0000000  1.6024720  3
    406    412    868    859     1  180.0000771  0.4184000  2
    406    412    868    859     1  0.0000000  1.6024720  3
    412    868    859    850     1  180.0000771  0.4184000  2
    412    868    859    850     1  0.0000000  1.6024720  3
    415    898    889    880     1  180.0000771  0.4184000  2
    415    898    889    880     1  0.0000000  1.6024720  3
    420    421    433    445     1  0.0000000  0.6508444  3
    420    424    436    442     1  0.0000000  0.6508444  3
    420    427    430    439     1  0.0000000  0.6508444  3
    421    420    424    436     1  0.0000000  0.6508444  3
    421    420    427    430     1  0.0000000  0.6508444  3
    421    433    445    958     1  0.0000000  0.6508444  3
    424    420    421    433     1  0.0000000  0.6508444  3
    424    420    427    430     1  0.0000000  0.6508444  3
    424    436    442    928     1  0.0000000  0.6508444  3
    427    420    421    433     1  0.0000000  0.6508444  3
    427    420    424    436     1  0.0000000  0.6508444  3
    427    430    439    448     1  0.0000000  0.6508444  3
    433    445    958    949     1  180.0000771  0.4184000  2
    433    445    958    949     1  0.0000000  1.6024720  3
    436    442    928    919     1  180.0000771  0.4184000  2
    436    442    928    919     1  0.0000000  1.6024720  3
    442    928    919    910     1  180.0000771  0.4184000  2
    442    928    919    910     1  0.0000000  1.6024720  3
    445    958    949    940     1  180.0000771  0.4184000  2
    445    958    949    940     1  0.0000000  1.6024720  3
    450    451    463    475     1  0.0000000  0.6508444  3
    450    454    466    472     1  0.0000000  0.6508444  3
    450    457    460    469     1  0.0000000  0.6508444  3
    451    450    454    466     1  0.0000000  0.6508444  3
    451    450    457    460     1  0.0000000  0.6508444  3
    451    463    475   1018     1  0.0000000  0.6508444  3
    454    450    451    463     1  0.0000000  0.6508444  3
    454    450    457    460     1  0.0000000  0.6508444  3
    454    466    472    988     1  0.0000000  0.6508444  3
    457    450    451    463     1  0.0000000  0.6508444  3
    457    450    454    466     1  0.0000000  0.6508444  3
    457    460    469    478     1  0.0000000  0.6508444  3
    463    475   1018   1009     1  180.0000771  0.4184000  2
    463    475   1018   1009     1  0.0000000  1.6024720  3
    466    472    988    979     1  180.0000771  0.4184000  2
    466    472    988    979     1  0.0000000  1.6024720  3
    472    988    979    970     1  180.0000771  0.4184000  2
    472    988    979    970     1  0.0000000  1.6024720  3
    475   1018   1009   1000     1  180.0000771  0.4184000  2
    475   1018   1009   1000     1  0.0000000  1.6024720  3
    480    481    493    505     1  0.0000000  0.6508444  3
    480    484    496    502     1  0.0000000  0.6508444  3
    480    487    490    499     1  0.0000000  0.6508444  3
    481    480    484    496     1  0.0000000  0.6508444  3
    481    480    487    490     1  0.0000000  0.6508444  3
    481    493    505   1078     1  0.0000000  0.6508444  3
    484    480    481    493     1  0.0000000  0.6508444  3
    484    480    487    490     1  0.0000000  0.6508444  3
    484    496    502   1048     1  0.0000000  0.6508444  3
    487    480    481    493     1  0.0000000  0.6508444  3
    487    480    484    496     1  0.0000000  0.6508444  3
    487    490    499    508     1  0.0000000  0.6508444  3
    493    505   1078   1069     1  180.0000771  0.4184000  2
    493    505   1078   1069     1  0.0000000  1.6024720  3
    496    502   1048   1039     1  180.0000771  0.4184000  2
    496    502   1048   1039     1  0.0000000  1.6024720  3
    502   1048   1039   1030     1  180.0000771  0.4184000  2
    502   1048   1039   1030     1  0.0000000  1.6024720  3
    505   1078   1069   1060     1  180.0000771  0.4184000  2
    505   1078   1069   1060     1  0.0000000  1.6024720  3
    510    511    523    535     1  0.0000000  0.6508444  3
    510    514    526    532     1  0.0000000  0.6508444  3
    510    517    520    529     1  0.0000000  0.6508444  3
    511    510    514    526     1  0.0000000  0.6508444  3
    511    510    517    520     1  0.0000000  0.6508444  3
    511    523    535   1138     1  0.0000000  0.6508444  3
    514    510    511    523     1  0.0000000  0.6508444  3
    514    510    517    520     1  0.0000000  0.6508444  3
    514    526    532   1108     1  0.0000000  0.6508444  3
    517    510    511    523     1  0.0000000  0.6508444  3
    517    510    514    526     1  0.0000000  0.6508444  3
    517    520    529    538     1  0.0000000  0.6508444  3
    523    535   1138   1129     1  180.0000771  0.4184000  2
    523    535   1138   1129     1  0.0000000  1.6024720  3
    526    532   1108   1099     1  180.0000771  0.4184000  2
    526    532   1108   1099     1  0.0000000  1.6024720  3
    532   1108   1099   1090     1  180.0000771  0.4184000  2
    532   1108   1099   1090     1  0.0000000  1.6024720  3
    535   1138   1129   1120     1  180.0000771  0.4184000  2
    535   1138   1129   1120     1  0.0000000  1.6024720  3
    540    541    553    565     1  0.0000000  0.6508444  3
    540    544    556    562     1  0.0000000  0.6508444  3
    540    547    550    559     1  0.0000000  0.6508444  3
    541    540    544    556     1  0.0000000  0.6508444  3
    541    540    547    550     1  0.0000000  0.6508444  3
    541    553    565   1198     1  0.0000000  0.6508444  3
    544    540    541    553     1  0.0000000  0.6508444  3
    544    540    547    550     1  0.0000000  0.6508444  3
    544    556    562   1168     1  0.0000000  0.6508444  3
    547    540    541    553     1  0.0000000  0.6508444  3
    547    540    544    556     1  0.0000000  0.6508444  3
    547    550    559    568     1  0.0000000  0.6508444  3
    553    565   1198   1189     1  180.0000771  0.4184000  2
    553    565   1198   1189     1  0.0000000  1.6024720  3
    556    562   1168   1159     1  180.0000771  0.4184000  2
    556    562   1168   1159     1  0.0000000  1.6024720  3
    562   1168   1159   1150     1  180.0000771  0.4184000  2
    562   1168   1159   1150     1  0.0000000  1.6024720  3
    565   1198   1189   1180     1  180.0000771  0.4184000  2
    565   1198   1189   1180     1  0.0000000  1.6024720  3
    570    571    583    595     1  0.0000000  0.6508444  3
    570    574    586    592     1  0.0000000  0.6508444  3
    570    577    580    589     1  0.0000000  0.6508444  3
    571    570    574    586     1  0.0000000  0.6508444  3
    571    570    577    580     1  0.0000000  0.6508444  3
    571    583    595   1258     1  0.0000000  0.6508444  3
    574    570    571    583     1  0.0000000  0.6508444  3
    574    570    577    580     1  0.0000000  0.6508444  3
    574    586    592   1228     1  0.0000000  0.6508444  3
    577    570    571    583     1  0.0000000  0.6508444  3
    577    570    574    586     1  0.0000000  0.6508444  3
    577    580    589    598     1  0.0000000  0.6508444  3
    583    595   1258   1249     1  180.0000771  0.4184000  2
    583    595   1258   1249     1  0.0000000  1.6024720  3
    586    592   1228   1219     1  180.0000771  0.4184000  2
    586    592   1228   1219     1  0.0000000  1.6024720  3
    592   1228   1219   1210     1  180.0000771  0.4184000  2
    592   1228   1219   1210     1  0.0000000  1.6024720  3
    595   1258   1249   1240     1  180.0000771  0.4184000  2
    595   1258   1249   1240     1  0.0000000  1.6024720  3
    600    601    613    625     1  0.0000000  0.6508444  3
    600    604    616    622     1  0.0000000  0.6508444  3
    600    607    610    619     1  0.0000000  0.6508444  3
    601    600    604    616     1  0.0000000  0.6508444  3
    601    600    607    610     1  0.0000000  0.6508444  3
    601    613    625   1318     1  0.0000000  0.6508444  3
    604    600    601    613     1  0.0000000  0.6508444  3
    604    600    607    610     1  0.0000000  0.6508444  3
    604    616    622   1288     1  0.0000000  0.6508444  3
    607    600    601    613     1  0.0000000  0.6508444  3
    607    600    604    616     1  0.0000000  0.6508444  3
    607    610    619    628     1  0.0000000  0.6508444  3
    613    625   1318   1309     1  180.0000771  0.4184000  2
    613    625   1318   1309     1  0.0000000  1.6024720  3
    616    622   1288   1279     1  180.0000771  0.4184000  2
    616    622   1288   1279     1  0.0000000  1.6024720  3
    622   1288   1279   1270     1  180.0000771  0.4184000  2
    622   1288   1279   1270     1  0.0000000  1.6024720  3
    625   1318   1309   1300     1  180.0000771  0.4184000  2
    625   1318   1309   1300     1  0.0000000  1.6024720  3
    630    631    643    655     1  0.0000000  0.6508444  3
    630    634    646    652     1  0.0000000  0.6508444  3
    630    637    640    649     1  0.0000000  0.6508444  3
    631    630    634    646     1  0.0000000  0.6508444  3
    631    630    637    640     1  0.0000000  0.6508444  3
    631    643    655   1378     1  0.0000000  0.6508444  3
    634    630    631    643     1  0.0000000  0.6508444  3
    634    630    637    640     1  0.0000000  0.6508444  3
    634    646    652   1348     1  0.0000000  0.6508444  3
    637    630    631    643     1  0.0000000  0.6508444  3
    637    630    634    646     1  0.0000000  0.6508444  3
    637    640    649    658     1  0.0000000  0.6508444  3
    643    655   1378   1369     1  180.0000771  0.4184000  2
    643    655   1378   1369     1  0.0000000  1.6024720  3
    646    652   1348   1339     1  180.0000771  0.4184000  2
    646    652   1348   1339     1  0.0000000  1.6024720  3
    652   1348   1339   1330     1  180.0000771  0.4184000  2
    652   1348   1339   1330     1  0.0000000  1.6024720  3
    655   1378   1369   1360     1  180.0000771  0.4184000  2
    655   1378   1369   1360     1  0.0000000  1.6024720  3
    660    661    673    685     1  0.0000000  0.6508444  3
    660    664    676    682     1  0.0000000  0.6508444  3
    660    667    670    679     1  0.0000000  0.6508444  3
    661    660    664    676     1  0.0000000  0.6508444  3
    661    660    667    670     1  0.0000000  0.6508444  3
    661    673    685   1438     1  0.0000000  0.6508444  3
    664    660    661    673     1  0.0000000  0.6508444  3
    664    660    667    670     1  0.0000000  0.6508444  3
    664    676    682   1408     1  0.0000000  0.6508444  3
    667    660    661    673     1  0.0000000  0.6508444  3
    667    660    664    676     1  0.0000000  0.6508444  3
    667    670    679    688     1  0.0000000  0.6508444  3
    673    685   1438   1429     1  180.0000771  0.4184000  2
    673    685   1438   1429     1  0.0000000  1.6024720  3
    676    682   1408   1399     1  180.0000771  0.4184000  2
    676    682   1408   1399     1  0.0000000  1.6024720  3
    682   1408   1399   1390     1  180.0000771  0.4184000  2
    682   1408   1399   1390     1  0.0000000  1.6024720  3
    685   1438   1429   1420     1  180.0000771  0.4184000  2
    685   1438   1429   1420     1  0.0000000  1.6024720  3
    690    691    703    715     1  0.0000000  0.6508444  3
    690    694    706    712     1  0.0000000  0.6508444  3
    690    697    700    709     1  0.0000000  0.6508444  3
    691    690    694    706     1  0.0000000  0.6508444  3
    691    690    697    700     1  0.0000000  0.6508444  3
    691    703    715   1498     1  0.0000000  0.6508444  3
    694    690    691    703     1  0.0000000  0.6508444  3
    694    690    697    700     1  0.0000000  0.6508444  3
    694    706    712   1468     1  0.0000000  0.6508444  3
    697    690    691    703     1  0.0000000  0.6508444  3
    697    690    694    706     1  0.0000000  0.6508444  3
    697    700    709    718     1  0.0000000  0.6508444  3
    703    715   1498   1489     1  180.0000771  0.4184000  2
    703    715   1498   1489     1  0.0000000  1.6024720  3
    706    712   1468   1459     1  180.0000771  0.4184000  2
    706    712   1468   1459     1  0.0000000  1.6024720  3
    712   1468   1459   1450     1  180.0000771  0.4184000  2
    712   1468   1459   1450     1  0.0000000  1.6024720  3
    715   1498   1489   1480     1  180.0000771  0.4184000  2
    715   1498   1489   1480     1  0.0000000  1.6024720  3
    720    721    733    745     1  0.0000000  0.6508444  3
    720    724    736    742     1  0.0000000  0.6508444  3
    720    727    730    739     1  0.0000000  0.6508444  3
    721    720    724    736     1  0.0000000  0.6508444  3
    721    720    727    730     1  0.0000000  0.6508444  3
    721    733    745   1558     1  0.0000000  0.6508444  3
    724    720    721    733     1  0.0000000  0.6508444  3
    724    720    727    730     1  0.0000000  0.6508444  3
    724    736    742   1528     1  0.0000000  0.6508444  3
    727    720    721    733     1  0.0000000  0.6508444  3
    727    720    724    736     1  0.0000000  0.6508444  3
    727    730    739    748     1  0.0000000  0.6508444  3
    733    745   1558   1549     1  180.0000771  0.4184000  2
    733    745   1558   1549     1  0.0000000  1.6024720  3
    736    742   1528   1519     1  180.0000771  0.4184000  2
    736    742   1528   1519     1  0.0000000  1.6024720  3
    742   1528   1519   1510     1  180.0000771  0.4184000  2
    742   1528   1519   1510     1  0.0000000  1.6024720  3
    745   1558   1549   1540     1  180.0000771  0.4184000  2
    745   1558   1549   1540     1  0.0000000  1.6024720  3
    750    751    763    775     1  0.0000000  0.6508444  3
    750    754    766    772     1  0.0000000  0.6508444  3
    750    757    760    769     1  0.0000000  0.6508444  3
    751    750    754    766     1  0.0000000  0.6508444  3
    751    750    757    760     1  0.0000000  0.6508444  3
    751    763    775   1618     1  0.0000000  0.6508444  3
    754    750    751    763     1  0.0000000  0.6508444  3
    754    750    757    760     1  0.0000000  0.6508444  3
    754    766    772   1588     1  0.0000000  0.6508444  3
    757    750    751    763     1  0.0000000  0.6508444  3
    757    750    754    766     1  0.0000000  0.6508444  3
    757    760    769    778     1  0.0000000  0.6508444  3
    763    775   1618   1609     1  180.0000771  0.4184000  2
    763    775   1618   1609     1  0.0000000  1.6024720  3
    766    772   1588   1579     1  180.0000771  0.4184000  2
    766    772   1588   1579     1  0.0000000  1.6024720  3
    772   1588   1579   1570     1  180.0000771  0.4184000  2
    772   1588   1579   1570     1  0.0000000  1.6024720  3
    775   1618   1609   1600     1  180.0000771  0.4184000  2
    775   1618   1609   1600     1  0.0000000  1.6024720  3
    780    781    793    805     1  0.0000000  0.6508444  3
    780    784    796    802     1  0.0000000  0.6508444  3
    780    787    790    799     1  0.0000000  0.6508444  3
    781    780    784    796     1  0.0000000  0.6508444  3
    781    780    787    790     1  0.0000000  0.6508444  3
    781    793    805   1678     1  0.0000000  0.6508444  3
    784    780    781    793     1  0.0000000  0.6508444  3
    784    780    787    790     1  0.0000000  0.6508444  3
    784    796    802   1648     1  0.0000000  0.6508444  3
    787    780    781    793     1  0.0000000  0.6508444  3
    787    780    784    796     1  0.0000000  0.6508444  3
    787    790    799    808     1  0.0000000  0.6508444  3
    793    805   1678   1669     1  180.0000771  0.4184000  2
    793    805   1678   1669     1  0.0000000  1.6024720  3
    796    802   1648   1639     1  180.0000771  0.4184000  2
    796    802   1648   1639     1  0.0000000  1.6024720  3
    802   1648   1639   1630     1  180.0000771  0.4184000  2
    802   1648   1639   1630     1  0.0000000  1.6024720  3
    805   1678   1669   1660     1  180.0000771  0.4184000  2
    805   1678   1669   1660     1  0.0000000  1.6024720  3
    810    811    823    835     1  0.0000000  0.6508444  3
    810    814    826    832     1  0.0000000  0.6508444  3
    810    817    820    829     1  0.0000000  0.6508444  3
    811    810    814    826     1  0.0000000  0.6508444  3
    811    810    817    820     1  0.0000000  0.6508444  3
    811    823    835   1738     1  0.0000000  0.6508444  3
    814    810    811    823     1  0.0000000  0.6508444  3
    814    810    817    820     1  0.0000000  0.6508444  3
    814    826    832   1708     1  0.0000000  0.6508444  3
    817    810    811    823     1  0.0000000  0.6508444  3
    817    810    814    826     1  0.0000000  0.6508444  3
    817    820    829    838     1  0.0000000  0.6508444  3
    823    835   1738   1729     1  180.0000771  0.4184000  2
    823    835   1738   1729     1  0.0000000  1.6024720  3
    826    832   1708   1699     1  180.0000771  0.4184000  2
    826    832   1708   1699     1  0.0000000  1.6024720  3
    832   1708   1699   1690     1  180.0000771  0.4184000  2
    832   1708   1699   1690     1  0.0000000  1.6024720  3
    835   1738   1729   1720     1  180.0000771  0.4184000  2
    835   1738   1729   1720     1  0.0000000  1.6024720  3
    840    841    853    865     1  0.0000000  0.6508444  3
    840    844    856    862     1  0.0000000  0.6508444  3
    840    847    850    859     1  0.0000000  0.6508444  3
    841    840    844    856     1  0.0000000  0.6508444  3
    841    840    847    850     1  0.0000000  0.6508444  3
    841    853    865   1798     1  0.0000000  0.6508444  3
    844    840    841    853     1  0.0000000  0.6508444  3
    844    840    847    850     1  0.0000000  0.6508444  3
    844    856    862   1768     1  0.0000000  0.6508444  3
    847    840    841    853     1  0.0000000  0.6508444  3
    847    840    844    856     1  0.0000000  0.6508444  3
    847    850    859    868     1  0.0000000  0.6508444  3
    853    865   1798   1789     1  180.0000771  0.4184000  2
    853    865   1798   1789     1  0.0000000  1.6024720  3
    856    862   1768   1759     1  180.0000771  0.4184000  2
    856    862   1768   1759     1  0.0000000  1.6024720  3
    862   1768   1759   1750     1  180.0000771  0.4184000  2
    862   1768   1759   1750     1  0.0000000  1.6024720  3
    865   1798   1789   1780     1  180.0000771  0.4184000  2
    865   1798   1789   1780     1  0.0000000  1.6024720  3
    870    871    883    895     1  0.0000000  0.6508444  3
    870    874    886    892     1  0.0000000  0.6508444  3
    870    877    880    889     1  0.0000000  0.6508444  3
    871    870    874    886     1  0.0000000  0.6508444  3
    871    870    877    880     1  0.0000000  0.6508444  3
    871    883    895   1858     1  0.0000000  0.6508444  3
    874    870    871    883     1  0.0000000  0.6508444  3
    874    870    877    880     1  0.0000000  0.6508444  3
    874    886    892   1828     1  0.0000000  0.6508444  3
    877    870    871    883     1  0.0000000  0.6508444  3
    877    870    874    886     1  0.0000000  0.6508444  3
    877    880    889    898     1  0.0000000  0.6508444  3
    883    895   1858   1849     1  180.0000771  0.4184000  2
    883    895   1858   1849     1  0.0000000  1.6024720  3
    886    892   1828   1819     1  180.0000771  0.4184000  2
    886    892   1828   1819     1  0.0000000  1.6024720  3
    892   1828   1819   1810     1  180.0000771  0.4184000  2
    892   1828   1819   1810     1  0.0000000  1.6024720  3
    895   1858   1849   1840     1  180.0000771  0.4184000  2
    895   1858   1849   1840     1  0.0000000  1.6024720  3
    900    901    913    925     1  0.0000000  0.6508444  3
    900    904    916    922     1  0.0000000  0.6508444  3
    900    907    910    919     1  0.0000000  0.6508444  3
    901    900    904    916     1  0.0000000  0.6508444  3
    901    900    907    910     1  0.0000000  0.6508444  3
    901    913    925   1918     1  0.0000000  0.6508444  3
    904    900    901    913     1  0.0000000  0.6508444  3
    904    900    907    910     1  0.0000000  0.6508444  3
    904    916    922   1888     1  0.0000000  0.6508444  3
    907    900    901    913     1  0.0000000  0.6508444  3
    907    900    904    916     1  0.0000000  0.6508444  3
    907    910    919    928     1  0.0000000  0.6508444  3
    913    925   1918   1909     1  180.0000771  0.4184000  2
    913    925   1918   1909     1  0.0000000  1.6024720  3
    916    922   1888   1879     1  180.0000771  0.4184000  2
    916    922   1888   1879     1  0.0000000  1.6024720  3
    922   1888   1879   1870     1  180.0000771  0.4184000  2
    922   1888   1879   1870     1  0.0000000  1.6024720  3
    925   1918   1909   1900     1  180.0000771  0.4184000  2
    925   1918   1909   1900     1  0.0000000  1.6024720  3
    930    931    943    955     1  0.0000000  0.6508444  3
    930    934    946    952     1  0.0000000  0.6508444  3
    930    937    940    949     1  0.0000000  0.6508444  3
    931    930    934    946     1  0.0000000  0.6508444  3
    931    930    937    940     1  0.0000000  0.6508444  3
    931    943    955   1978     1  0.0000000  0.6508444  3
    934    930    931    943     1  0.0000000  0.6508444  3
    934    930    937    940     1  0.0000000  0.6508444  3
    934    946    952   1948     1  0.0000000  0.6508444  3
    937    930    931    943     1  0.0000000  0.6508444  3
    937    930    934    946     1  0.0000000  0.6508444  3
    937    940    949    958     1  0.0000000  0.6508444  3
    943    955   1978   1969     1  180.0000771  0.4184000  2
    943    955   1978   1969     1  0.0000000  1.6024720  3
    946    952   1948   1939     1  180.0000771  0.4184000  2
    946    952   1948   1939     1  0.0000000  1.6024720  3
    952   1948   1939   1930     1  180.0000771  0.4184000  2
    952   1948   1939   1930     1  0.0000000  1.6024720  3
    955   1978   1969   1960     1  180.0000771  0.4184000  2
    955   1978   1969   1960     1  0.0000000  1.6024720  3
    960    961    973    985     1  0.0000000  0.6508444  3
    960    964    976    982     1  0.0000000  0.6508444  3
    960    967    970    979     1  0.0000000  0.6508444  3
    961    960    964    976     1  0.0000000  0.6508444  3
    961    960    967    970     1  0.0000000  0.6508444  3
    961    973    985   2038     1  0.0000000  0.6508444  3
    964    960    961    973     1  0.0000000  0.6508444  3
    964    960    967    970     1  0.0000000  0.6508444  3
    964    976    982   2008     1  0.0000000  0.6508444  3
    967    960    961    973     1  0.0000000  0.6508444  3
    967    960    964    976     1  0.0000000  0.6508444  3
    967    970    979    988     1  0.0000000  0.6508444  3
    973    985   2038   2029     1  180.0000771  0.4184000  2
    973    985   2038   2029     1  0.0000000  1.6024720  3
    976    982   2008   1999     1  180.0000771  0.4184000  2
    976    982   2008   1999     1  0.0000000  1.6024720  3
    982   2008   1999   1990     1  180.0000771  0.4184000  2
    982   2008   1999   1990     1  0.0000000  1.6024720  3
    985   2038   2029   2020     1  180.0000771  0.4184000  2
    985   2038   2029   2020     1  0.0000000  1.6024720  3
    990    991   1003   1015     1  0.0000000  0.6508444  3
    990    994   1006   1012     1  0.0000000  0.6508444  3
    990    997   1000   1009     1  0.0000000  0.6508444  3
    991    990    994   1006     1  0.0000000  0.6508444  3
    991    990    997   1000     1  0.0000000  0.6508444  3
    991   1003   1015   2098     1  0.0000000  0.6508444  3
    994    990    991   1003     1  0.0000000  0.6508444  3
    994    990    997   1000     1  0.0000000  0.6508444  3
    994   1006   1012   2068     1  0.0000000  0.6508444  3
    997    990    991   1003     1  0.0000000  0.6508444  3
    997    990    994   1006     1  0.0000000  0.6508444  3
    997   1000   1009   1018     1  0.0000000  0.6508444  3
   1003   1015   2098   2089     1  180.0000771  0.4184000  2
   1003   1015   2098   2089     1  0.0000000  1.6024720  3
   1006   1012   2068   2059     1  180.0000771  0.4184000  2
   1006   1012   2068   2059     1  0.0000000  1.6024720  3
   1012   2068   2059   2050     1  180.0000771  0.4184000  2
   1012   2068   2059   2050     1  0.0000000  1.6024720  3
   1015   2098   2089   2080     1  180.0000771  0.4184000  2
   1015   2098   2089   2080     1  0.0000000  1.6024720  3
   1020   1021   1033   1045     1  0.0000000  0.6508444  3
   1020   1024   1036   1042     1  0.0000000  0.6508444  3
   1020   1027   1030   1039     1  0.0000000  0.6508444  3
   1021   1020   1024   1036     1  0.0000000  0.6508444  3
   1021   1020   1027   1030     1  0.0000000  0.6508444  3
   1021   1033   1045   2158     1  0.0000000  0.6508444  3
   1024   1020   1021   1033     1  0.0000000  0.6508444  3
   1024   1020   1027   1030     1  0.0000000  0.6508444  3
   1024   1036   1042   2128     1  0.0000000  0.6508444  3
   1027   1020   1021   1033     1  0.0000000  0.6508444  3
   1027   1020   1024   1036     1  0.0000000  0.6508444  3
   1027   1030   1039   1048     1  0.0000000  0.6508444  3
   1033   1045   2158   2149     1  180.0000771  0.4184000  2
   1033   1045   2158   2149     1  0.0000000  1.6024720  3
   1036   1042   2128   2119     1  180.0000771  0.4184000  2
   1036   1042   2128   2119     1  0.0000000  1.6024720  3
   1042   2128   2119   2110     1  180.0000771  0.4184000  2
   1042   2128   2119   2110     1  0.0000000  1.6024720  3
   1045   2158   2149   2140     1  180.0000771  0.4184000  2
   1045   2158   2149   2140     1  0.0000000  1.6024720  3
   1050   1051   1063   1075     1  0.0000000  0.6508444  3
   1050   1054   1066   1072     1  0.0000000  0.6508444  3
   1050   1057   1060   1069     1  0.0000000  0.6508444  3
   1051   1050   1054   1066     1  0.0000000  0.6508444  3
   1051   1050   1057   1060     1  0.0000000  0.6508444  3
   1051   1063   1075   2218     1  0.0000000  0.6508444  3
   1054   1050   1051   1063     1  0.0000000  0.6508444  3
   1054   1050   1057   1060     1  0.0000000  0.6508444  3
   1054   1066   1072   2188     1  0.0000000  0.6508444  3
   1057   1050   1051   1063     1  0.0000000  0.6508444  3
   1057   1050   1054   1066     1  0.0000000  0.6508444  3
   1057   1060   1069   1078     1  0.0000000  0.6508444  3
   1063   1075   2218   2209     1  180.0000771  0.4184000  2
   1063   1075   2218   2209     1  0.0000000  1.6024720  3
   1066   1072   2188   2179     1  180.0000771  0.4184000  2
   1066   1072   2188   2179     1  0.0000000  1.6024720  3
   1072   2188   2179   2170     1  180.0000771  0.4184000  2
   1072   2188   2179   2170     1  0.0000000  1.6024720  3
   1075   2218   2209   2200     1  180.0000771  0.4184000  2
   1075   2218   2209   2200     1  0.0000000  1.6024720  3
   1080   1081   1093   1105     1  0.0000000  0.6508444  3
   1080   1084   1096   1102     1  0.0000000  0.6508444  3
   1080   1087   1090   1099     1  0.0000000  0.6508444  3
   1081   1080   1084   1096     1  0.0000000  0.6508444  3
   1081   1080   1087   1090     1  0.0000000  0.6508444  3
   1081   1093   1105   2278     1  0.0000000  0.6508444  3
   1084   1080   1081   1093     1  0.0000000  0.6508444  3
   1084   1080   1087   1090     1  0.0000000  0.6508444  3
   1084   1096   1102   2248     1  0.0000000  0.6508444  3
   1087   1080   1081   1093     1  0.0000000  0.6508444  3
   1087   1080   1084   1096     1  0.0000000  0.6508444  3
   1087   1090   1099   1108     1  0.0000000  0.6508444  3
   1093   1105   2278   2269     1  180.0000771  0.4184000  2
   1093   1105   2278   2269     1  0.0000000  1.6024720  3
   1096   1102   2248   2239     1  180.0000771  0.4184000  2
   1096   1102   2248   2239     1  0.0000000  1.6024720  3
   1102   2248   2239   2230     1  180.0000771  0.4184000  2
   1102   2248   2239   2230     1  0.0000000  1.6024720  3
   1105   2278   2269   2260     1  180.0000771  0.4184000  2
   1105   2278   2269   2260     1  0.0000000  1.6024720  3
   1110   1111   1123   1135     1  0.0000000  0.6508444  3
   1110   1114   1126   1132     1  0.0000000  0.6508444  3
   1110   1117   1120   1129     1  0.0000000  0.6508444  3
   1111   1110   1114   1126     1  0.0000000  0.6508444  3
   1111   1110   1117   1120     1  0.0000000  0.6508444  3
   1111   1123   1135   2338     1  0.0000000  0.6508444  3
   1114   1110   1111   1123     1  0.0000000  0.6508444  3
   1114   1110   1117   1120     1  0.0000000  0.6508444  3
   1114   1126   1132   2308     1  0.0000000  0.6508444  3
   1117   1110   1111   1123     1  0.0000000  0.6508444  3
   1117   1110   1114   1126     1  0.0000000  0.6508444  3
   1117   1120   1129   1138     1  0.0000000  0.6508444  3
   1123   1135   2338   2329     1  180.0000771  0.4184000  2
   1123   1135   2338   2329     1  0.0000000  1.6024720  3
   1126   1132   2308   2299     1  180.0000771  0.4184000  2
   1126   1132   2308   2299     1  0.0000000  1.6024720  3
   1132   2308   2299   2290     1  180.0000771  0.4184000  2
   1132   2308   2299   2290     1  0.0000000  1.6024720  3
   1135   2338   2329   2320     1  180.0000771  0.4184000  2
   1135   2338   2329   2320     1  0.0000000  1.6024720  3
   1140   1141   1153   1165     1  0.0000000  0.6508444  3
   1140   1144   1156   1162     1  0.0000000  0.6508444  3
   1140   1147   1150   1159     1  0.0000000  0.6508444  3
   1141   1140   1144   1156     1  0.0000000  0.6508444  3
   1141   1140   1147   1150     1  0.0000000  0.6508444  3
   1141   1153   1165   2398     1  0.0000000  0.6508444  3
   1144   1140   1141   1153     1  0.0000000  0.6508444  3
   1144   1140   1147   1150     1  0.0000000  0.6508444  3
   1144   1156   1162   2368     1  0.0000000  0.6508444  3
   1147   1140   1141   1153     1  0.0000000  0.6508444  3
   1147   1140   1144   1156     1  0.0000000  0.6508444  3
   1147   1150   1159   1168     1  0.0000000  0.6508444  3
   1153   1165   2398   2389     1  180.0000771  0.4184000  2
   1153   1165   2398   2389     1  0.0000000  1.6024720  3
   1156   1162   2368   2359     1  180.0000771  0.4184000  2
   1156   1162   2368   2359     1  0.0000000  1.6024720  3
   1162   2368   2359   2350     1  180.0000771  0.4184000  2
   1162   2368   2359   2350     1  0.0000000  1.6024720  3
   1165   2398   2389   2380     1  180.0000771  0.4184000  2
   1165   2398   2389   2380     1  0.0000000  1.6024720  3
   1170   1171   1183   1195     1  0.0000000  0.6508444  3
   1170   1174   1186   1192     1  0.0000000  0.6508444  3
   1170   1177   1180   1189     1  0.0000000  0.6508444  3
   1171   1170   1174   1186     1  0.0000000  0.6508444  3
   1171   1170   1177   1180     1  0.0000000  0.6508444  3
   1171   1183   1195   2458     1  0.0000000  0.6508444  3
   1174   1170   1171   1183     1  0.0000000  0.6508444  3
   1174   1170   1177   1180     1  0.0000000  0.6508444  3
   1174   1186   1192   2428     1  0.0000000  0.6508444  3
   1177   1170   1171   1183     1  0.0000000  0.6508444  3
   1177   1170   1174   1186     1  0.0000000  0.6508444  3
   1177   1180   1189   1198     1  0.0000000  0.6508444  3
   1183   1195   2458   2449     1  180.0000771  0.4184000  2
   1183   1195   2458   2449     1  0.0000000  1.6024720  3
   1186   1192   2428   2419     1  180.0000771  0.4184000  2
   1186   1192   2428   2419     1  0.0000000  1.6024720  3
   1192   2428   2419   2410     1  180.0000771  0.4184000  2
   1192   2428   2419   2410     1  0.0000000  1.6024720  3
   1195   2458   2449   2440     1  180.0000771  0.4184000  2
   1195   2458   2449   2440     1  0.0000000  1.6024720  3
   1200   1201   1213   1225     1  0.0000000  0.6508444  3
   1200   1204   1216   1222     1  0.0000000  0.6508444  3
   1200   1207   1210   1219     1  0.0000000  0.6508444  3
   1201   1200   1204   1216     1  0.0000000  0.6508444  3
   1201   1200   1207   1210     1  0.0000000  0.6508444  3
   1201   1213   1225   2518     1  0.0000000  0.6508444  3
   1204   1200   1201   1213     1  0.0000000  0.6508444  3
   1204   1200   1207   1210     1  0.0000000  0.6508444  3
   1204   1216   1222   2488     1  0.0000000  0.6508444  3
   1207   1200   1201   1213     1  0.0000000  0.6508444  3
   1207   1200   1204   1216     1  0.0000000  0.6508444  3
   1207   1210   1219   1228     1  0.0000000  0.6508444  3
   1213   1225   2518   2509     1  180.0000771  0.4184000  2
   1213   1225   2518   2509     1  0.0000000  1.6024720  3
   1216   1222   2488   2479     1  180.0000771  0.4184000  2
   1216   1222   2488   2479     1  0.0000000  1.6024720  3
   1222   2488   2479   2470     1  180.0000771  0.4184000  2
   1222   2488   2479   2470     1  0.0000000  1.6024720  3
   1225   2518   2509   2500     1  180.0000771  0.4184000  2
   1225   2518   2509   2500     1  0.0000000  1.6024720  3
   1230   1231   1243   1255     1  0.0000000  0.6508444  3
   1230   1234   1246   1252     1  0.0000000  0.6508444  3
   1230   1237   1240   1249     1  0.0000000  0.6508444  3
   1231   1230   1234   1246     1  0.0000000  0.6508444  3
   1231   1230   1237   1240     1  0.0000000  0.6508444  3
   1231   1243   1255   2578     1  0.0000000  0.6508444  3
   1234   1230   1231   1243     1  0.0000000  0.6508444  3
   1234   1230   1237   1240     1  0.0000000  0.6508444  3
   1234   1246   1252   2548     1  0.0000000  0.6508444  3
   1237   1230   1231   1243     1  0.0000000  0.6508444  3
   1237   1230   1234   1246     1  0.0000000  0.6508444  3
   1237   1240   1249   1258     1  0.0000000  0.6508444  3
   1243   1255   2578   2569     1  180.0000771  0.4184000  2
   1243   1255   2578   2569     1  0.0000000  1.6024720  3
   1246   1252   2548   2539     1  180.0000771  0.4184000  2
   1246   1252   2548   2539     1  0.0000000  1.6024720  3
   1252   2548   2539   2530     1  180.0000771  0.4184000  2
   1252   2548   2539   2530     1  0.0000000  1.6024720  3
   1255   2578   2569   2560     1  180.0000771  0.4184000  2
   1255   2578   2569   2560     1  0.0000000  1.6024720  3
   1260   1261   1273   1285     1  0.0000000  0.6508444  3
   1260   1264   1276   1282     1  0.0000000  0.6508444  3
   1260   1267   1270   1279     1  0.0000000  0.6508444  3
   1261   1260   1264   1276     1  0.0000000  0.6508444  3
   1261   1260   1267   1270     1  0.0000000  0.6508444  3
   1261   1273   1285   2638     1  0.0000000  0.6508444  3
   1264   1260   1261   1273     1  0.0000000  0.6508444  3
   1264   1260   1267   1270     1  0.0000000  0.6508444  3
   1264   1276   1282   2608     1  0.0000000  0.6508444  3
   1267   1260   1261   1273     1  0.0000000  0.6508444  3
   1267   1260   1264   1276     1  0.0000000  0.6508444  3
   1267   1270   1279   1288     1  0.0000000  0.6508444  3
   1273   1285   2638   2629     1  180.0000771  0.4184000  2
   1273   1285   2638   2629     1  0.0000000  1.6024720  3
   1276   1282   2608   2599     1  180.0000771  0.4184000  2
   1276   1282   2608   2599     1  0.0000000  1.6024720  3
   1282   2608   2599   2590     1  180.0000771  0.4184000  2
   1282   2608   2599   2590     1  0.0000000  1.6024720  3
   1285   2638   2629   2620     1  180.0000771  0.4184000  2
   1285   2638   2629   2620     1  0.0000000  1.6024720  3
   1290   1291   1303   1315     1  0.0000000  0.6508444  3
   1290   1294   1306   1312     1  0.0000000  0.6508444  3
   1290   1297   1300   1309     1  0.0000000  0.6508444  3
   1291   1290   1294   1306     1  0.0000000  0.6508444  3
   1291   1290   1297   1300     1  0.0000000  0.6508444  3
   1291   1303   1315   2698     1  0.0000000  0.6508444  3
   1294   1290   1291   1303     1  0.0000000  0.6508444  3
   1294   1290   1297   1300     1  0.0000000  0.6508444  3
   1294   1306   1312   2668     1  0.0000000  0.6508444  3
   1297   1290   1291   1303     1  0.0000000  0.6508444  3
   1297   1290   1294   1306     1  0.0000000  0.6508444  3
   1297   1300   1309   1318     1  0.0000000  0.6508444  3
   1303   1315   2698   2689     1  180.0000771  0.4184000  2
   1303   1315   2698   2689     1  0.0000000  1.6024720  3
   1306   1312   2668   2659     1  180.0000771  0.4184000  2
   1306   1312   2668   2659     1  0.0000000  1.6024720  3
   1312   2668   2659   2650     1  180.0000771  0.4184000  2
   1312   2668   2659   2650     1  0.0000000  1.6024720  3
   1315   2698   2689   2680     1  180.0000771  0.4184000  2
   1315   2698   2689   2680     1  0.0000000  1.6024720  3
   1320   1321   1333   1345     1  0.0000000  0.6508444  3
   1320   1324   1336   1342     1  0.0000000  0.6508444  3
   1320   1327   1330   1339     1  0.0000000  0.6508444  3
   1321   1320   1324   1336     1  0.0000000  0.6508444  3
   1321   1320   1327   1330     1  0.0000000  0.6508444  3
   1321   1333   1345   2758     1  0.0000000  0.6508444  3
   1324   1320   1321   1333     1  0.0000000  0.6508444  3
   1324   1320   1327   1330     1  0.0000000  0.6508444  3
   1324   1336   1342   2728     1  0.0000000  0.6508444  3
   1327   1320   1321   1333     1  0.0000000  0.6508444  3
   1327   1320   1324   1336     1  0.0000000  0.6508444  3
   1327   1330   1339   1348     1  0.0000000  0.6508444  3
   1333   1345   2758   2749     1  180.0000771  0.4184000  2
   1333   1345   2758   2749     1  0.0000000  1.6024720  3
   1336   1342   2728   2719     1  180.0000771  0.4184000  2
   1336   1342   2728   2719     1  0.0000000  1.6024720  3
   1342   2728   2719   2710     1  180.0000771  0.4184000  2
   1342   2728   2719   2710     1  0.0000000  1.6024720  3
   1345   2758   2749   2740     1  180.0000771  0.4184000  2
   1345   2758   2749   2740     1  0.0000000  1.6024720  3
   1350   1351   1363   1375     1  0.0000000  0.6508444  3
   1350   1354   1366   1372     1  0.0000000  0.6508444  3
   1350   1357   1360   1369     1  0.0000000  0.6508444  3
   1351   1350   1354   1366     1  0.0000000  0.6508444  3
   1351   1350   1357   1360     1  0.0000000  0.6508444  3
   1351   1363   1375   2818     1  0.0000000  0.6508444  3
   1354   1350   1351   1363     1  0.0000000  0.6508444  3
   1354   1350   1357   1360     1  0.0000000  0.6508444  3
   1354   1366   1372   2788     1  0.0000000  0.6508444  3
   1357   1350   1351   1363     1  0.0000000  0.6508444  3
   1357   1350   1354   1366     1  0.0000000  0.6508444  3
   1357   1360   1369   1378     1  0.0000000  0.6508444  3
   1363   1375   2818   2809     1  180.0000771  0.4184000  2
   1363   1375   2818   2809     1  0.0000000  1.6024720  3
   1366   1372   2788   2779     1  180.0000771  0.4184000  2
   1366   1372   2788   2779     1  0.0000000  1.6024720  3
   1372   2788   2779   2770     1  180.0000771  0.4184000  2
   1372   2788   2779   2770     1  0.0000000  1.6024720  3
   1375   2818   2809   2800     1  180.0000771  0.4184000  2
   1375   2818   2809   2800     1  0.0000000  1.6024720  3
   1380   1381   1393   1405     1  0.0000000  0.6508444  3
   1380   1384   1396   1402     1  0.0000000  0.6508444  3
   1380   1387   1390   1399     1  0.0000000  0.6508444  3
   1381   1380   1384   1396     1  0.0000000  0.6508444  3
   1381   1380   1387   1390     1  0.0000000  0.6508444  3
   1381   1393   1405   2878     1  0.0000000  0.6508444  3
   1384   1380   1381   1393     1  0.0000000  0.6508444  3
   1384   1380   1387   1390     1  0.0000000  0.6508444  3
   1384   1396   1402   2848     1  0.0000000  0.6508444  3
   1387   1380   1381   1393     1  0.0000000  0.6508444  3
   1387   1380   1384   1396     1  0.0000000  0.6508444  3
   1387   1390   1399   1408     1  0.0000000  0.6508444  3
   1393   1405   2878   2869     1  180.0000771  0.4184000  2
   1393   1405   2878   2869     1  0.0000000  1.6024720  3
   1396   1402   2848   2839     1  180.0000771  0.4184000  2
   1396   1402   2848   2839     1  0.0000000  1.6024720  3
   1402   2848   2839   2830     1  180.0000771  0.4184000  2
   1402   2848   2839   2830     1  0.0000000  1.6024720  3
   1405   2878   2869   2860     1  180.0000771  0.4184000  2
   1405   2878   2869   2860     1  0.0000000  1.6024720  3
   1410   1411   1423   1435     1  0.0000000  0.6508444  3
   1410   1414   1426   1432     1  0.0000000  0.6508444  3
   1410   1417   1420   1429     1  0.0000000  0.6508444  3
   1411   1410   1414   1426     1  0.0000000  0.6508444  3
   1411   1410   1417   1420     1  0.0000000  0.6508444  3
   1411   1423   1435   2938     1  0.0000000  0.6508444  3
   1414   1410   1411   1423     1  0.0000000  0.6508444  3
   1414   1410   1417   1420     1  0.0000000  0.6508444  3
   1414   1426   1432   2908     1  0.0000000  0.6508444  3
   1417   1410   1411   1423     1  0.0000000  0.6508444  3
   1417   1410   1414   1426     1  0.0000000  0.6508444  3
   1417   1420   1429   1438     1  0.0000000  0.6508444  3
   1423   1435   2938   2929     1  180.0000771  0.4184000  2
   1423   1435   2938   2929     1  0.0000000  1.6024720  3
   1426   1432   2908   2899     1  180.0000771  0.4184000  2
   1426   1432   2908   2899     1  0.0000000  1.6024720  3
   1432   2908   2899   2890     1  180.0000771  0.4184000  2
   1432   2908   2899   2890     1  0.0000000  1.6024720  3
   1435   2938   2929   2920     1  180.0000771  0.4184000  2
   1435   2938   2929   2920     1  0.0000000  1.6024720  3
   1440   1441   1453   1465     1  0.0000000  0.6508444  3
   1440   1444   1456   1462     1  0.0000000  0.6508444  3
   1440   1447   1450   1459     1  0.0000000  0.6508444  3
   1441   1440   1444   1456     1  0.0000000  0.6508444  3
   1441   1440   1447   1450     1  0.0000000  0.6508444  3
   1441   1453   1465   2998     1  0.0000000  0.6508444  3
   1444   1440   1441   1453     1  0.0000000  0.6508444  3
   1444   1440   1447   1450     1  0.0000000  0.6508444  3
   1444   1456   1462   2968     1  0.0000000  0.6508444  3
   1447   1440   1441   1453     1  0.0000000  0.6508444  3
   1447   1440   1444   1456     1  0.0000000  0.6508444  3
   1447   1450   1459   1468     1  0.0000000  0.6508444  3
   1453   1465   2998   2989     1  180.0000771  0.4184000  2
   1453   1465   2998   2989     1  0.0000000  1.6024720  3
   1456   1462   2968   2959     1  180.0000771  0.4184000  2
   1456   1462   2968   2959     1  0.0000000  1.6024720  3
   1462   2968   2959   2950     1  180.0000771  0.4184000  2
   1462   2968   2959   2950     1  0.0000000  1.6024720  3
   1465   2998   2989   2980     1  180.0000771  0.4184000  2
   1465   2998   2989   2980     1  0.0000000  1.6024720  3
   1470   1471   1483   1495     1  0.0000000  0.6508444  3
   1470   1474   1486   1492     1  0.0000000  0.6508444  3
   1470   1477   1480   1489     1  0.0000000  0.6508444  3
   1471   1470   1474   1486     1  0.0000000  0.6508444  3
   1471   1470   1477   1480     1  0.0000000  0.6508444  3
   1471   1483   1495   3058     1  0.0000000  0.6508444  3
   1474   1470   1471   1483     1  0.0000000  0.6508444  3
   1474   1470   1477   1480     1  0.0000000  0.6508444  3
   1474   1486   1492   3028     1  0.0000000  0.6508444  3
   1477   1470   1471   1483     1  0.0000000  0.6508444  3
   1477   1470   1474   1486     1  0.0000000  0.6508444  3
   1477   1480   1489   1498     1  0.0000000  0.6508444  3
   1483   1495   3058   3049     1  180.0000771  0.4184000  2
   1483   1495   3058   3049     1  0.0000000  1.6024720  3
   1486   1492   3028   3019     1  180.0000771  0.4184000  2
   1486   1492   3028   3019     1  0.0000000  1.6024720  3
   1492   3028   3019   3010     1  180.0000771  0.4184000  2
   1492   3028   3019   3010     1  0.0000000  1.6024720  3
   1495   3058   3049   3040     1  180.0000771  0.4184000  2
   1495   3058   3049   3040     1  0.0000000  1.6024720  3
   1500   1501   1513   1525     1  0.0000000  0.6508444  3
   1500   1504   1516   1522     1  0.0000000  0.6508444  3
   1500   1507   1510   1519     1  0.0000000  0.6508444  3
   1501   1500   1504   1516     1  0.0000000  0.6508444  3
   1501   1500   1507   1510     1  0.0000000  0.6508444  3
   1501   1513   1525   3118     1  0.0000000  0.6508444  3
   1504   1500   1501   1513     1  0.0000000  0.6508444  3
   1504   1500   1507   1510     1  0.0000000  0.6508444  3
   1504   1516   1522   3088     1  0.0000000  0.6508444  3
   1507   1500   1501   1513     1  0.0000000  0.6508444  3
   1507   1500   1504   1516     1  0.0000000  0.6508444  3
   1507   1510   1519   1528     1  0.0000000  0.6508444  3
   1513   1525   3118   3109     1  180.0000771  0.4184000  2
   1513   1525   3118   3109     1  0.0000000  1.6024720  3
   1516   1522   3088   3079     1  180.0000771  0.4184000  2
   1516   1522   3088   3079     1  0.0000000  1.6024720  3
   1522   3088   3079   3070     1  180.0000771  0.4184000  2
   1522   3088   3079   3070     1  0.0000000  1.6024720  3
   1525   3118   3109   3100     1  180.0000771  0.4184000  2
   1525   3118   3109   3100     1  0.0000000  1.6024720  3
   1530   1531   1543   1555     1  0.0000000  0.6508444  3
   1530   1534   1546   1552     1  0.0000000  0.6508444  3
   1530   1537   1540   1549     1  0.0000000  0.6508444  3
   1531   1530   1534   1546     1  0.0000000  0.6508444  3
   1531   1530   1537   1540     1  0.0000000  0.6508444  3
   1531   1543   1555   3178     1  0.0000000  0.6508444  3
   1534   1530   1531   1543     1  0.0000000  0.6508444  3
   1534   1530   1537   1540     1  0.0000000  0.6508444  3
   1534   1546   1552   3148     1  0.0000000  0.6508444  3
   1537   1530   1531   1543     1  0.0000000  0.6508444  3
   1537   1530   1534   1546     1  0.0000000  0.6508444  3
   1537   1540   1549   1558     1  0.0000000  0.6508444  3
   1543   1555   3178   3169     1  180.0000771  0.4184000  2
   1543   1555   3178   3169     1  0.0000000  1.6024720  3
   1546   1552   3148   3139     1  180.0000771  0.4184000  2
   1546   1552   3148   3139     1  0.0000000  1.6024720  3
   1552   3148   3139   3130     1  180.0000771  0.4184000  2
   1552   3148   3139   3130     1  0.0000000  1.6024720  3
   1555   3178   3169   3160     1  180.0000771  0.4184000  2
   1555   3178   3169   3160     1  0.0000000  1.6024720  3
   1560   1561   1573   1585     1  0.0000000  0.6508444  3
   1560   1564   1576   1582     1  0.0000000  0.6508444  3
   1560   1567   1570   1579     1  0.0000000  0.6508444  3
   1561   1560   1564   1576     1  0.0000000  0.6508444  3
   1561   1560   1567   1570     1  0.0000000  0.6508444  3
   1561   1573   1585   3238     1  0.0000000  0.6508444  3
   1564   1560   1561   1573     1  0.0000000  0.6508444  3
   1564   1560   1567   1570     1  0.0000000  0.6508444  3
   1564   1576   1582   3208     1  0.0000000  0.6508444  3
   1567   1560   1561   1573     1  0.0000000  0.6508444  3
   1567   1560   1564   1576     1  0.0000000  0.6508444  3
   1567   1570   1579   1588     1  0.0000000  0.6508444  3
   1573   1585   3238   3229     1  180.0000771  0.4184000  2
   1573   1585   3238   3229     1  0.0000000  1.6024720  3
   1576   1582   3208   3199     1  180.0000771  0.4184000  2
   1576   1582   3208   3199     1  0.0000000  1.6024720  3
   1582   3208   3199   3190     1  180.0000771  0.4184000  2
   1582   3208   3199   3190     1  0.0000000  1.6024720  3
   1585   3238   3229   3220     1  180.0000771  0.4184000  2
   1585   3238   3229   3220     1  0.0000000  1.6024720  3
   1590   1591   1603   1615     1  0.0000000  0.6508444  3
   1590   1594   1606   1612     1  0.0000000  0.6508444  3
   1590   1597   1600   1609     1  0.0000000  0.6508444  3
   1591   1590   1594   1606     1  0.0000000  0.6508444  3
   1591   1590   1597   1600     1  0.0000000  0.6508444  3
   1591   1603   1615   3298     1  0.0000000  0.6508444  3
   1594   1590   1591   1603     1  0.0000000  0.6508444  3
   1594   1590   1597   1600     1  0.0000000  0.6508444  3
   1594   1606   1612   3268     1  0.0000000  0.6508444  3
   1597   1590   1591   1603     1  0.0000000  0.6508444  3
   1597   1590   1594   1606     1  0.0000000  0.6508444  3
   1597   1600   1609   1618     1  0.0000000  0.6508444  3
   1603   1615   3298   3289     1  180.0000771  0.4184000  2
   1603   1615   3298   3289     1  0.0000000  1.6024720  3
   1606   1612   3268   3259     1  180.0000771  0.4184000  2
   1606   1612   3268   3259     1  0.0000000  1.6024720  3
   1612   3268   3259   3250     1  180.0000771  0.4184000  2
   1612   3268   3259   3250     1  0.0000000  1.6024720  3
   1615   3298   3289   3280     1  180.0000771  0.4184000  2
   1615   3298   3289   3280     1  0.0000000  1.6024720  3
   1620   1621   1633   1645     1  0.0000000  0.6508444  3
   1620   1624   1636   1642     1  0.0000000  0.6508444  3
   1620   1627   1630   1639     1  0.0000000  0.6508444  3
   1621   1620   1624   1636     1  0.0000000  0.6508444  3
   1621   1620   1627   1630     1  0.0000000  0.6508444  3
   1621   1633   1645   3358     1  0.0000000  0.6508444  3
   1624   1620   1621   1633     1  0.0000000  0.6508444  3
   1624   1620   1627   1630     1  0.0000000  0.6508444  3
   1624   1636   1642   3328     1  0.0000000  0.6508444  3
   1627   1620   1621   1633     1  0.0000000  0.6508444  3
   1627   1620   1624   1636     1  0.0000000  0.6508444  3
   1627   1630   1639   1648     1  0.0000000  0.6508444  3
   1633   1645   3358   3349     1  180.0000771  0.4184000  2
   1633   1645   3358   3349     1  0.0000000  1.6024720  3
   1636   1642   3328   3319     1  180.0000771  0.4184000  2
   1636   1642   3328   3319     1  0.0000000  1.6024720  3
   1642   3328   3319   3310     1  180.0000771  0.4184000  2
   1642   3328   3319   3310     1  0.0000000  1.6024720  3
   1645   3358   3349   3340     1  180.0000771  0.4184000  2
   1645   3358   3349   3340     1  0.0000000  1.6024720  3
   1650   1651   1663   1675     1  0.0000000  0.6508444  3
   1650   1654   1666   1672     1  0.0000000  0.6508444  3
   1650   1657   1660   1669     1  0.0000000  0.6508444  3
   1651   1650   1654   1666     1  0.0000000  0.6508444  3
   1651   1650   1657   1660     1  0.0000000  0.6508444  3
   1651   1663   1675   3418     1  0.0000000  0.6508444  3
   1654   1650   1651   1663     1  0.0000000  0.6508444  3
   1654   1650   1657   1660     1  0.0000000  0.6508444  3
   1654   1666   1672   3388     1  0.0000000  0.6508444  3
   1657   1650   1651   1663     1  0.0000000  0.6508444  3
   1657   1650   1654   1666     1  0.0000000  0.6508444  3
   1657   1660   1669   1678     1  0.0000000  0.6508444  3
   1663   1675   3418   3409     1  180.0000771  0.4184000  2
   1663   1675   3418   3409     1  0.0000000  1.6024720  3
   1666   1672   3388   3379     1  180.0000771  0.4184000  2
   1666   1672   3388   3379     1  0.0000000  1.6024720  3
   1672   3388   3379   3370     1  180.0000771  0.4184000  2
   1672   3388   3379   3370     1  0.0000000  1.6024720  3
   1675   3418   3409   3400     1  180.0000771  0.4184000  2
   1675   3418   3409   3400     1  0.0000000  1.6024720  3
   1680   1681   1693   1705     1  0.0000000  0.6508444  3
   1680   1684   1696   1702     1  0.0000000  0.6508444  3
   1680   1687   1690   1699     1  0.0000000  0.6508444  3
   1681   1680   1684   1696     1  0.0000000  0.6508444  3
   1681   1680   1687   1690     1  0.0000000  0.6508444  3
   1681   1693   1705   3478     1  0.0000000  0.6508444  3
   1684   1680   1681   1693     1  0.0000000  0.6508444  3
   1684   1680   1687   1690     1  0.0000000  0.6508444  3
   1684   1696   1702   3448     1  0.0000000  0.6508444  3
   1687   1680   1681   1693     1  0.0000000  0.6508444  3
   1687   1680   1684   1696     1  0.0000000  0.6508444  3
   1687   1690   1699   1708     1  0.0000000  0.6508444  3
   1693   1705   3478   3469     1  180.0000771  0.4184000  2
   1693   1705   3478   3469     1  0.0000000  1.6024720  3
   1696   1702   3448   3439     1  180.0000771  0.4184000  2
   1696   1702   3448   3439     1  0.0000000  1.6024720  3
   1702   3448   3439   3430     1  180.0000771  0.4184000  2
   1702   3448   3439   3430     1  0.0000000  1.6024720  3
   1705   3478   3469   3460     1  180.0000771  0.4184000  2
   1705   3478   3469   3460     1  0.0000000  1.6024720  3
   1710   1711   1723   1735     1  0.0000000  0.6508444  3
   1710   1714   1726   1732     1  0.0000000  0.6508444  3
   1710   1717   1720   1729     1  0.0000000  0.6508444  3
   1711   1710   1714   1726     1  0.0000000  0.6508444  3
   1711   1710   1717   1720     1  0.0000000  0.6508444  3
   1711   1723   1735   3538     1  0.0000000  0.6508444  3
   1714   1710   1711   1723     1  0.0000000  0.6508444  3
   1714   1710   1717   1720     1  0.0000000  0.6508444  3
   1714   1726   1732   3508     1  0.0000000  0.6508444  3
   1717   1710   1711   1723     1  0.0000000  0.6508444  3
   1717   1710   1714   1726     1  0.0000000  0.6508444  3
   1717   1720   1729   1738     1  0.0000000  0.6508444  3
   1723   1735   3538   3529     1  180.0000771  0.4184000  2
   1723   1735   3538   3529     1  0.0000000  1.6024720  3
   1726   1732   3508   3499     1  180.0000771  0.4184000  2
   1726   1732   3508   3499     1  0.0000000  1.6024720  3
   1732   3508   3499   3490     1  180.0000771  0.4184000  2
   1732   3508   3499   3490     1  0.0000000  1.6024720  3
   1735   3538   3529   3520     1  180.0000771  0.4184000  2
   1735   3538   3529   3520     1  0.0000000  1.6024720  3
   1740   1741   1753   1765     1  0.0000000  0.6508444  3
   1740   1744   1756   1762     1  0.0000000  0.6508444  3
   1740   1747   1750   1759     1  0.0000000  0.6508444  3
   1741   1740   1744   1756     1  0.0000000  0.6508444  3
   1741   1740   1747   1750     1  0.0000000  0.6508444  3
   1741   1753   1765   3598     1  0.0000000  0.6508444  3
   1744   1740   1741   1753     1  0.0000000  0.6508444  3
   1744   1740   1747   1750     1  0.0000000  0.6508444  3
   1744   1756   1762   3568     1  0.0000000  0.6508444  3
   1747   1740   1741   1753     1  0.0000000  0.6508444  3
   1747   1740   1744   1756     1  0.0000000  0.6508444  3
   1747   1750   1759   1768     1  0.0000000  0.6508444  3
   1753   1765   3598   3589     1  180.0000771  0.4184000  2
   1753   1765   3598   3589     1  0.0000000  1.6024720  3
   1756   1762   3568   3559     1  180.0000771  0.4184000  2
   1756   1762   3568   3559     1  0.0000000  1.6024720  3
   1762   3568   3559   3550     1  180.0000771  0.4184000  2
   1762   3568   3559   3550     1  0.0000000  1.6024720  3
   1765   3598   3589   3580     1  180.0000771  0.4184000  2
   1765   3598   3589   3580     1  0.0000000  1.6024720  3
   1770   1771   1783   1795     1  0.0000000  0.6508444  3
   1770   1774   1786   1792     1  0.0000000  0.6508444  3
   1770   1777   1780   1789     1  0.0000000  0.6508444  3
   1771   1770   1774   1786     1  0.0000000  0.6508444  3
   1771   1770   1777   1780     1  0.0000000  0.6508444  3
   1771   1783   1795   3658     1  0.0000000  0.6508444  3
   1774   1770   1771   1783     1  0.0000000  0.6508444  3
   1774   1770   1777   1780     1  0.0000000  0.6508444  3
   1774   1786   1792   3628     1  0.0000000  0.6508444  3
   1777   1770   1771   1783     1  0.0000000  0.6508444  3
   1777   1770   1774   1786     1  0.0000000  0.6508444  3
   1777   1780   1789   1798     1  0.0000000  0.6508444  3
   1783   1795   3658   3649     1  180.0000771  0.4184000  2
   1783   1795   3658   3649     1  0.0000000  1.6024720  3
   1786   1792   3628   3619     1  180.0000771  0.4184000  2
   1786   1792   3628   3619     1  0.0000000  1.6024720  3
   1792   3628   3619   3610     1  180.0000771  0.4184000  2
   1792   3628   3619   3610     1  0.0000000  1.6024720  3
   1795   3658   3649   3640     1  180.0000771  0.4184000  2
   1795   3658   3649   3640     1  0.0000000  1.6024720  3
   1800   1801   1813   1825     1  0.0000000  0.6508444  3
   1800   1804   1816   1822     1  0.0000000  0.6508444  3
   1800   1807   1810   1819     1  0.0000000  0.6508444  3
   1801   1800   1804   1816     1  0.0000000  0.6508444  3
   1801   1800   1807   1810     1  0.0000000  0.6508444  3
   1801   1813   1825   3718     1  0.0000000  0.6508444  3
   1804   1800   1801   1813     1  0.0000000  0.6508444  3
   1804   1800   1807   1810     1  0.0000000  0.6508444  3
   1804   1816   1822   3688     1  0.0000000  0.6508444  3
   1807   1800   1801   1813     1  0.0000000  0.6508444  3
   1807   1800   1804   1816     1  0.0000000  0.6508444  3
   1807   1810   1819   1828     1  0.0000000  0.6508444  3
   1813   1825   3718   3709     1  180.0000771  0.4184000  2
   1813   1825   3718   3709     1  0.0000000  1.6024720  3
   1816   1822   3688   3679     1  180.0000771  0.4184000  2
   1816   1822   3688   3679     1  0.0000000  1.6024720  3
   1822   3688   3679   3670     1  180.0000771  0.4184000  2
   1822   3688   3679   3670     1  0.0000000  1.6024720  3
   1825   3718   3709   3700     1  180.0000771  0.4184000  2
   1825   3718   3709   3700     1  0.0000000  1.6024720  3
   1830   1831   1843   1855     1  0.0000000  0.6508444  3
   1830   1834   1846   1852     1  0.0000000  0.6508444  3
   1830   1837   1840   1849     1  0.0000000  0.6508444  3
   1831   1830   1834   1846     1  0.0000000  0.6508444  3
   1831   1830   1837   1840     1  0.0000000  0.6508444  3
   1831   1843   1855   3778     1  0.0000000  0.6508444  3
   1834   1830   1831   1843     1  0.0000000  0.6508444  3
   1834   1830   1837   1840     1  0.0000000  0.6508444  3
   1834   1846   1852   3748     1  0.0000000  0.6508444  3
   1837   1830   1831   1843     1  0.0000000  0.6508444  3
   1837   1830   1834   1846     1  0.0000000  0.6508444  3
   1837   1840   1849   1858     1  0.0000000  0.6508444  3
   1843   1855   3778   3769     1  180.0000771  0.4184000  2
   1843   1855   3778   3769     1  0.0000000  1.6024720  3
   1846   1852   3748   3739     1  180.0000771  0.4184000  2
   1846   1852   3748   3739     1  0.0000000  1.6024720  3
   1852   3748   3739   3730     1  180.0000771  0.4184000  2
   1852   3748   3739   3730     1  0.0000000  1.6024720  3
   1855   3778   3769   3760     1  180.0000771  0.4184000  2
   1855   3778   3769   3760     1  0.0000000  1.6024720  3
   1860   1861   1873   1885     1  0.0000000  0.6508444  3
   1860   1864   1876   1882     1  0.0000000  0.6508444  3
   1860   1867   1870   1879     1  0.0000000  0.6508444  3
   1861   1860   1864   1876     1  0.0000000  0.6508444  3
   1861   1860   1867   1870     1  0.0000000  0.6508444  3
   1861   1873   1885   3838     1  0.0000000  0.6508444  3
   1864   1860   1861   1873     1  0.0000000  0.6508444  3
   1864   1860   1867   1870     1  0.0000000  0.6508444  3
   1864   1876   1882   3808     1  0.0000000  0.6508444  3
   1867   1860   1861   1873     1  0.0000000  0.6508444  3
   1867   1860   1864   1876     1  0.0000000  0.6508444  3
   1867   1870   1879   1888     1  0.0000000  0.6508444  3
   1873   1885   3838   3829     1  180.0000771  0.4184000  2
   1873   1885   3838   3829     1  0.0000000  1.6024720  3
   1876   1882   3808   3799     1  180.0000771  0.4184000  2
   1876   1882   3808   3799     1  0.0000000  1.6024720  3
   1882   3808   3799   3790     1  180.0000771  0.4184000  2
   1882   3808   3799   3790     1  0.0000000  1.6024720  3
   1885   3838   3829   3820     1  180.0000771  0.4184000  2
   1885   3838   3829   3820     1  0.0000000  1.6024720  3
   1890   1891   1903   1915     1  0.0000000  0.6508444  3
   1890   1894   1906   1912     1  0.0000000  0.6508444  3
   1890   1897   1900   1909     1  0.0000000  0.6508444  3
   1891   1890   1894   1906     1  0.0000000  0.6508444  3
   1891   1890   1897   1900     1  0.0000000  0.6508444  3
   1891   1903   1915   3898     1  0.0000000  0.6508444  3
   1894   1890   1891   1903     1  0.0000000  0.6508444  3
   1894   1890   1897   1900     1  0.0000000  0.6508444  3
   1894   1906   1912   3868     1  0.0000000  0.6508444  3
   1897   1890   1891   1903     1  0.0000000  0.6508444  3
   1897   1890   1894   1906     1  0.0000000  0.6508444  3
   1897   1900   1909   1918     1  0.0000000  0.6508444  3
   1903   1915   3898   3889     1  180.0000771  0.4184000  2
   1903   1915   3898   3889     1  0.0000000  1.6024720  3
   1906   1912   3868   3859     1  180.0000771  0.4184000  2
   1906   1912   3868   3859     1  0.0000000  1.6024720  3
   1912   3868   3859   3850     1  180.0000771  0.4184000  2
   1912   3868   3859   3850     1  0.0000000  1.6024720  3
   1915   3898   3889   3880     1  180.0000771  0.4184000  2
   1915   3898   3889   3880     1  0.0000000  1.6024720  3
   1920   1921   1933   1945     1  0.0000000  0.6508444  3
   1920   1924   1936   1942     1  0.0000000  0.6508444  3
   1920   1927   1930   1939     1  0.0000000  0.6508444  3
   1921   1920   1924   1936     1  0.0000000  0.6508444  3
   1921   1920   1927   1930     1  0.0000000  0.6508444  3
   1921   1933   1945   3958     1  0.0000000  0.6508444  3
   1924   1920   1921   1933     1  0.0000000  0.6508444  3
   1924   1920   1927   1930     1  0.0000000  0.6508444  3
   1924   1936   1942   3928     1  0.0000000  0.6508444  3
   1927   1920   1921   1933     1  0.0000000  0.6508444  3
   1927   1920   1924   1936     1  0.0000000  0.6508444  3
   1927   1930   1939   1948     1  0.0000000  0.6508444  3
   1933   1945   3958   3949     1  180.0000771  0.4184000  2
   1933   1945   3958   3949     1  0.0000000  1.6024720  3
   1936   1942   3928   3919     1  180.0000771  0.4184000  2
   1936   1942   3928   3919     1  0.0000000  1.6024720  3
   1942   3928   3919   3910     1  180.0000771  0.4184000  2
   1942   3928   3919   3910     1  0.0000000  1.6024720  3
   1945   3958   3949   3940     1  180.0000771  0.4184000  2
   1945   3958   3949   3940     1  0.0000000  1.6024720  3
   1950   1951   1963   1975     1  0.0000000  0.6508444  3
   1950   1954   1966   1972     1  0.0000000  0.6508444  3
   1950   1957   1960   1969     1  0.0000000  0.6508444  3
   1951   1950   1954   1966     1  0.0000000  0.6508444  3
   1951   1950   1957   1960     1  0.0000000  0.6508444  3
   1951   1963   1975   4018     1  0.0000000  0.6508444  3
   1954   1950   1951   1963     1  0.0000000  0.6508444  3
   1954   1950   1957   1960     1  0.0000000  0.6508444  3
   1954   1966   1972   3988     1  0.0000000  0.6508444  3
   1957   1950   1951   1963     1  0.0000000  0.6508444  3
   1957   1950   1954   1966     1  0.0000000  0.6508444  3
   1957   1960   1969   1978     1  0.0000000  0.6508444  3
   1963   1975   4018   4009     1  180.0000771  0.4184000  2
   1963   1975   4018   4009     1  0.0000000  1.6024720  3
   1966   1972   3988   3979     1  180.0000771  0.4184000  2
   1966   1972   3988   3979     1  0.0000000  1.6024720  3
   1972   3988   3979   3970     1  180.0000771  0.4184000  2
   1972   3988   3979   3970     1  0.0000000  1.6024720  3
   1975   4018   4009   4000     1  180.0000771  0.4184000  2
   1975   4018   4009   4000     1  0.0000000  1.6024720  3
   1980   1981   1993   2005     1  0.0000000  0.6508444  3
   1980   1984   1996   2002     1  0.0000000  0.6508444  3
   1980   1987   1990   1999     1  0.0000000  0.6508444  3
   1981   1980   1984   1996     1  0.0000000  0.6508444  3
   1981   1980   1987   1990     1  0.0000000  0.6508444  3
   1981   1993   2005   4078     1  0.0000000  0.6508444  3
   1984   1980   1981   1993     1  0.0000000  0.6508444  3
   1984   1980   1987   1990     1  0.0000000  0.6508444  3
   1984   1996   2002   4048     1  0.0000000  0.6508444  3
   1987   1980   1981   1993     1  0.0000000  0.6508444  3
   1987   1980   1984   1996     1  0.0000000  0.6508444  3
   1987   1990   1999   2008     1  0.0000000  0.6508444  3
   1993   2005   4078   4069     1  180.0000771  0.4184000  2
   1993   2005   4078   4069     1  0.0000000  1.6024720  3
   1996   2002   4048   4039     1  180.0000771  0.4184000  2
   1996   2002   4048   4039     1  0.0000000  1.6024720  3
   2002   4048   4039   4030     1  180.0000771  0.4184000  2
   2002   4048   4039   4030     1  0.0000000  1.6024720  3
   2005   4078   4069   4060     1  180.0000771  0.4184000  2
   2005   4078   4069   4060     1  0.0000000  1.6024720  3
   2010   2011   2023   2035     1  0.0000000  0.6508444  3
   2010   2014   2026   2032     1  0.0000000  0.6508444  3
   2010   2017   2020   2029     1  0.0000000  0.6508444  3
   2011   2010   2014   2026     1  0.0000000  0.6508444  3
   2011   2010   2017   2020     1  0.0000000  0.6508444  3
   2011   2023   2035   4138     1  0.0000000  0.6508444  3
   2014   2010   2011   2023     1  0.0000000  0.6508444  3
   2014   2010   2017   2020     1  0.0000000  0.6508444  3
   2014   2026   2032   4108     1  0.0000000  0.6508444  3
   2017   2010   2011   2023     1  0.0000000  0.6508444  3
   2017   2010   2014   2026     1  0.0000000  0.6508444  3
   2017   2020   2029   2038     1  0.0000000  0.6508444  3
   2023   2035   4138   4129     1  180.0000771  0.4184000  2
   2023   2035   4138   4129     1  0.0000000  1.6024720  3
   2026   2032   4108   4099     1  180.0000771  0.4184000  2
   2026   2032   4108   4099     1  0.0000000  1.6024720  3
   2032   4108   4099   4090     1  180.0000771  0.4184000  2
   2032   4108   4099   4090     1  0.0000000  1.6024720  3
   2035   4138   4129   4120     1  180.0000771  0.4184000  2
   2035   4138   4129   4120     1  0.0000000  1.6024720  3
   2040   2041   2053   2065     1  0.0000000  0.6508444  3
   2040   2044   2056   2062     1  0.0000000  0.6508444  3
   2040   2047   2050   2059     1  0.0000000  0.6508444  3
   2041   2040   2044   2056     1  0.0000000  0.6508444  3
   2041   2040   2047   2050     1  0.0000000  0.6508444  3
   2041   2053   2065   4198     1  0.0000000  0.6508444  3
   2044   2040   2041   2053     1  0.0000000  0.6508444  3
   2044   2040   2047   2050     1  0.0000000  0.6508444  3
   2044   2056   2062   4168     1  0.0000000  0.6508444  3
   2047   2040   2041   2053     1  0.0000000  0.6508444  3
   2047   2040   2044   2056     1  0.0000000  0.6508444  3
   2047   2050   2059   2068     1  0.0000000  0.6508444  3
   2053   2065   4198   4189     1  180.0000771  0.4184000  2
   2053   2065   4198   4189     1  0.0000000  1.6024720  3
   2056   2062   4168   4159     1  180.0000771  0.4184000  2
   2056   2062   4168   4159     1  0.0000000  1.6024720  3
   2062   4168   4159   4150     1  180.0000771  0.4184000  2
   2062   4168   4159   4150     1  0.0000000  1.6024720  3
   2065   4198   4189   4180     1  180.0000771  0.4184000  2
   2065   4198   4189   4180     1  0.0000000  1.6024720  3
   2070   2071   2083   2095     1  0.0000000  0.6508444  3
   2070   2074   2086   2092     1  0.0000000  0.6508444  3
   2070   2077   2080   2089     1  0.0000000  0.6508444  3
   2071   2070   2074   2086     1  0.0000000  0.6508444  3
   2071   2070   2077   2080     1  0.0000000  0.6508444  3
   2071   2083   2095   4258     1  0.0000000  0.6508444  3
   2074   2070   2071   2083     1  0.0000000  0.6508444  3
   2074   2070   2077   2080     1  0.0000000  0.6508444  3
   2074   2086   2092   4228     1  0.0000000  0.6508444  3
   2077   2070   2071   2083     1  0.0000000  0.6508444  3
   2077   2070   2074   2086     1  0.0000000  0.6508444  3
   2077   2080   2089   2098     1  0.0000000  0.6508444  3
   2083   2095   4258   4249     1  180.0000771  0.4184000  2
   2083   2095   4258   4249     1  0.0000000  1.6024720  3
   2086   2092   4228   4219     1  180.0000771  0.4184000  2
   2086   2092   4228   4219     1  0.0000000  1.6024720  3
   2092   4228   4219   4210     1  180.0000771  0.4184000  2
   2092   4228   4219   4210     1  0.0000000  1.6024720  3
   2095   4258   4249   4240     1  180.0000771  0.4184000  2
   2095   4258   4249   4240     1  0.0000000  1.6024720  3
   2100   2101   2113   2125     1  0.0000000  0.6508444  3
   2100   2104   2116   2122     1  0.0000000  0.6508444  3
   2100   2107   2110   2119     1  0.0000000  0.6508444  3
   2101   2100   2104   2116     1  0.0000000  0.6508444  3
   2101   2100   2107   2110     1  0.0000000  0.6508444  3
   2101   2113   2125   4318     1  0.0000000  0.6508444  3
   2104   2100   2101   2113     1  0.0000000  0.6508444  3
   2104   2100   2107   2110     1  0.0000000  0.6508444  3
   2104   2116   2122   4288     1  0.0000000  0.6508444  3
   2107   2100   2101   2113     1  0.0000000  0.6508444  3
   2107   2100   2104   2116     1  0.0000000  0.6508444  3
   2107   2110   2119   2128     1  0.0000000  0.6508444  3
   2113   2125   4318   4309     1  180.0000771  0.4184000  2
   2113   2125   4318   4309     1  0.0000000  1.6024720  3
   2116   2122   4288   4279     1  180.0000771  0.4184000  2
   2116   2122   4288   4279     1  0.0000000  1.6024720  3
   2122   4288   4279   4270     1  180.0000771  0.4184000  2
   2122   4288   4279   4270     1  0.0000000  1.6024720  3
   2125   4318   4309   4300     1  180.0000771  0.4184000  2
   2125   4318   4309   4300     1  0.0000000  1.6024720  3
   2130   2131   2143   2155     1  0.0000000  0.6508444  3
   2130   2134   2146   2152     1  0.0000000  0.6508444  3
   2130   2137   2140   2149     1  0.0000000  0.6508444  3
   2131   2130   2134   2146     1  0.0000000  0.6508444  3
   2131   2130   2137   2140     1  0.0000000  0.6508444  3
   2131   2143   2155   4378     1  0.0000000  0.6508444  3
   2134   2130   2131   2143     1  0.0000000  0.6508444  3
   2134   2130   2137   2140     1  0.0000000  0.6508444  3
   2134   2146   2152   4348     1  0.0000000  0.6508444  3
   2137   2130   2131   2143     1  0.0000000  0.6508444  3
   2137   2130   2134   2146     1  0.0000000  0.6508444  3
   2137   2140   2149   2158     1  0.0000000  0.6508444  3
   2143   2155   4378   4369     1  180.0000771  0.4184000  2
   2143   2155   4378   4369     1  0.0000000  1.6024720  3
   2146   2152   4348   4339     1  180.0000771  0.4184000  2
   2146   2152   4348   4339     1  0.0000000  1.6024720  3
   2152   4348   4339   4330     1  180.0000771  0.4184000  2
   2152   4348   4339   4330     1  0.0000000  1.6024720  3
   2155   4378   4369   4360     1  180.0000771  0.4184000  2
   2155   4378   4369   4360     1  0.0000000  1.6024720  3
   2160   2161   2173   2185     1  0.0000000  0.6508444  3
   2160   2164   2176   2182     1  0.0000000  0.6508444  3
   2160   2167   2170   2179     1  0.0000000  0.6508444  3
   2161   2160   2164   2176     1  0.0000000  0.6508444  3
   2161   2160   2167   2170     1  0.0000000  0.6508444  3
   2161   2173   2185   4438     1  0.0000000  0.6508444  3
   2164   2160   2161   2173     1  0.0000000  0.6508444  3
   2164   2160   2167   2170     1  0.0000000  0.6508444  3
   2164   2176   2182   4408     1  0.0000000  0.6508444  3
   2167   2160   2161   2173     1  0.0000000  0.6508444  3
   2167   2160   2164   2176     1  0.0000000  0.6508444  3
   2167   2170   2179   2188     1  0.0000000  0.6508444  3
   2173   2185   4438   4429     1  180.0000771  0.4184000  2
   2173   2185   4438   4429     1  0.0000000  1.6024720  3
   2176   2182   4408   4399     1  180.0000771  0.4184000  2
   2176   2182   4408   4399     1  0.0000000  1.6024720  3
   2182   4408   4399   4390     1  180.0000771  0.4184000  2
   2182   4408   4399   4390     1  0.0000000  1.6024720  3
   2185   4438   4429   4420     1  180.0000771  0.4184000  2
   2185   4438   4429   4420     1  0.0000000  1.6024720  3
   2190   2191   2203   2215     1  0.0000000  0.6508444  3
   2190   2194   2206   2212     1  0.0000000  0.6508444  3
   2190   2197   2200   2209     1  0.0000000  0.6508444  3
   2191   2190   2194   2206     1  0.0000000  0.6508444  3
   2191   2190   2197   2200     1  0.0000000  0.6508444  3
   2191   2203   2215   4498     1  0.0000000  0.6508444  3
   2194   2190   2191   2203     1  0.0000000  0.6508444  3
   2194   2190   2197   2200     1  0.0000000  0.6508444  3
   2194   2206   2212   4468     1  0.0000000  0.6508444  3
   2197   2190   2191   2203     1  0.0000000  0.6508444  3
   2197   2190   2194   2206     1  0.0000000  0.6508444  3
   2197   2200   2209   2218     1  0.0000000  0.6508444  3
   2203   2215   4498   4489     1  180.0000771  0.4184000  2
   2203   2215   4498   4489     1  0.0000000  1.6024720  3
   2206   2212   4468   4459     1  180.0000771  0.4184000  2
   2206   2212   4468   4459     1  0.0000000  1.6024720  3
   2212   4468   4459   4450     1  180.0000771  0.4184000  2
   2212   4468   4459   4450     1  0.0000000  1.6024720  3
   2215   4498   4489   4480     1  180.0000771  0.4184000  2
   2215   4498   4489   4480     1  0.0000000  1.6024720  3
   2220   2221   2233   2245     1  0.0000000  0.6508444  3
   2220   2224   2236   2242     1  0.0000000  0.6508444  3
   2220   2227   2230   2239     1  0.0000000  0.6508444  3
   2221   2220   2224   2236     1  0.0000000  0.6508444  3
   2221   2220   2227   2230     1  0.0000000  0.6508444  3
   2221   2233   2245   4558     1  0.0000000  0.6508444  3
   2224   2220   2221   2233     1  0.0000000  0.6508444  3
   2224   2220   2227   2230     1  0.0000000  0.6508444  3
   2224   2236   2242   4528     1  0.0000000  0.6508444  3
   2227   2220   2221   2233     1  0.0000000  0.6508444  3
   2227   2220   2224   2236     1  0.0000000  0.6508444  3
   2227   2230   2239   2248     1  0.0000000  0.6508444  3
   2233   2245   4558   4549     1  180.0000771  0.4184000  2
   2233   2245   4558   4549     1  0.0000000  1.6024720  3
   2236   2242   4528   4519     1  180.0000771  0.4184000  2
   2236   2242   4528   4519     1  0.0000000  1.6024720  3
   2242   4528   4519   4510     1  180.0000771  0.4184000  2
   2242   4528   4519   4510     1  0.0000000  1.6024720  3
   2245   4558   4549   4540     1  180.0000771  0.4184000  2
   2245   4558   4549   4540     1  0.0000000  1.6024720  3
   2250   2251   2263   2275     1  0.0000000  0.6508444  3
   2250   2254   2266   2272     1  0.0000000  0.6508444  3
   2250   2257   2260   2269     1  0.0000000  0.6508444  3
   2251   2250   2254   2266     1  0.0000000  0.6508444  3
   2251   2250   2257   2260     1  0.0000000  0.6508444  3
   2251   2263   2275   4618     1  0.0000000  0.6508444  3
   2254   2250   2251   2263     1  0.0000000  0.6508444  3
   2254   2250   2257   2260     1  0.0000000  0.6508444  3
   2254   2266   2272   4588     1  0.0000000  0.6508444  3
   2257   2250   2251   2263     1  0.0000000  0.6508444  3
   2257   2250   2254   2266     1  0.0000000  0.6508444  3
   2257   2260   2269   2278     1  0.0000000  0.6508444  3
   2263   2275   4618   4609     1  180.0000771  0.4184000  2
   2263   2275   4618   4609     1  0.0000000  1.6024720  3
   2266   2272   4588   4579     1  180.0000771  0.4184000  2
   2266   2272   4588   4579     1  0.0000000  1.6024720  3
   2272   4588   4579   4570     1  180.0000771  0.4184000  2
   2272   4588   4579   4570     1  0.0000000  1.6024720  3
   2275   4618   4609   4600     1  180.0000771  0.4184000  2
   2275   4618   4609   4600     1  0.0000000  1.6024720  3
   2280   2281   2293   2305     1  0.0000000  0.6508444  3
   2280   2284   2296   2302     1  0.0000000  0.6508444  3
   2280   2287   2290   2299     1  0.0000000  0.6508444  3
   2281   2280   2284   2296     1  0.0000000  0.6508444  3
   2281   2280   2287   2290     1  0.0000000  0.6508444  3
   2281   2293   2305   4678     1  0.0000000  0.6508444  3
   2284   2280   2281   2293     1  0.0000000  0.6508444  3
   2284   2280   2287   2290     1  0.0000000  0.6508444  3
   2284   2296   2302   4648     1  0.0000000  0.6508444  3
   2287   2280   2281   2293     1  0.0000000  0.6508444  3
   2287   2280   2284   2296     1  0.0000000  0.6508444  3
   2287   2290   2299   2308     1  0.0000000  0.6508444  3
   2293   2305   4678   4669     1  180.0000771  0.4184000  2
   2293   2305   4678   4669     1  0.0000000  1.6024720  3
   2296   2302   4648   4639     1  180.0000771  0.4184000  2
   2296   2302   4648   4639     1  0.0000000  1.6024720  3
   2302   4648   4639   4630     1  180.0000771  0.4184000  2
   2302   4648   4639   4630     1  0.0000000  1.6024720  3
   2305   4678   4669   4660     1  180.0000771  0.4184000  2
   2305   4678   4669   4660     1  0.0000000  1.6024720  3
   2310   2311   2323   2335     1  0.0000000  0.6508444  3
   2310   2314   2326   2332     1  0.0000000  0.6508444  3
   2310   2317   2320   2329     1  0.0000000  0.6508444  3
   2311   2310   2314   2326     1  0.0000000  0.6508444  3
   2311   2310   2317   2320     1  0.0000000  0.6508444  3
   2311   2323   2335   4738     1  0.0000000  0.6508444  3
   2314   2310   2311   2323     1  0.0000000  0.6508444  3
   2314   2310   2317   2320     1  0.0000000  0.6508444  3
   2314   2326   2332   4708     1  0.0000000  0.6508444  3
   2317   2310   2311   2323     1  0.0000000  0.6508444  3
   2317   2310   2314   2326     1  0.0000000  0.6508444  3
   2317   2320   2329   2338     1  0.0000000  0.6508444  3
   2323   2335   4738   4729     1  180.0000771  0.4184000  2
   2323   2335   4738   4729     1  0.0000000  1.6024720  3
   2326   2332   4708   4699     1  180.0000771  0.4184000  2
   2326   2332   4708   4699     1  0.0000000  1.6024720  3
   2332   4708   4699   4690     1  180.0000771  0.4184000  2
   2332   4708   4699   4690     1  0.0000000  1.6024720  3
   2335   4738   4729   4720     1  180.0000771  0.4184000  2
   2335   4738   4729   4720     1  0.0000000  1.6024720  3
   2340   2341   2353   2365     1  0.0000000  0.6508444  3
   2340   2344   2356   2362     1  0.0000000  0.6508444  3
   2340   2347   2350   2359     1  0.0000000  0.6508444  3
   2341   2340   2344   2356     1  0.0000000  0.6508444  3
   2341   2340   2347   2350     1  0.0000000  0.6508444  3
   2341   2353   2365   4798     1  0.0000000  0.6508444  3
   2344   2340   2341   2353     1  0.0000000  0.6508444  3
   2344   2340   2347   2350     1  0.0000000  0.6508444  3
   2344   2356   2362   4768     1  0.0000000  0.6508444  3
   2347   2340   2341   2353     1  0.0000000  0.6508444  3
   2347   2340   2344   2356     1  0.0000000  0.6508444  3
   2347   2350   2359   2368     1  0.0000000  0.6508444  3
   2353   2365   4798   4789     1  180.0000771  0.4184000  2
   2353   2365   4798   4789     1  0.0000000  1.6024720  3
   2356   2362   4768   4759     1  180.0000771  0.4184000  2
   2356   2362   4768   4759     1  0.0000000  1.6024720  3
   2362   4768   4759   4750     1  180.0000771  0.4184000  2
   2362   4768   4759   4750     1  0.0000000  1.6024720  3
   2365   4798   4789   4780     1  180.0000771  0.4184000  2
   2365   4798   4789   4780     1  0.0000000  1.6024720  3
   2370   2371   2383   2395     1  0.0000000  0.6508444  3
   2370   2374   2386   2392     1  0.0000000  0.6508444  3
   2370   2377   2380   2389     1  0.0000000  0.6508444  3
   2371   2370   2374   2386     1  0.0000000  0.6508444  3
   2371   2370   2377   2380     1  0.0000000  0.6508444  3
   2371   2383   2395   4858     1  0.0000000  0.6508444  3
   2374   2370   2371   2383     1  0.0000000  0.6508444  3
   2374   2370   2377   2380     1  0.0000000  0.6508444  3
   2374   2386   2392   4828     1  0.0000000  0.6508444  3
   2377   2370   2371   2383     1  0.0000000  0.6508444  3
   2377   2370   2374   2386     1  0.0000000  0.6508444  3
   2377   2380   2389   2398     1  0.0000000  0.6508444  3
   2383   2395   4858   4849     1  180.0000771  0.4184000  2
   2383   2395   4858   4849     1  0.0000000  1.6024720  3
   2386   2392   4828   4819     1  180.0000771  0.4184000  2
   2386   2392   4828   4819     1  0.0000000  1.6024720  3
   2392   4828   4819   4810     1  180.0000771  0.4184000  2
   2392   4828   4819   4810     1  0.0000000  1.6024720  3
   2395   4858   4849   4840     1  180.0000771  0.4184000  2
   2395   4858   4849   4840     1  0.0000000  1.6024720  3
   2400   2401   2413   2425     1  0.0000000  0.6508444  3
   2400   2404   2416   2422     1  0.0000000  0.6508444  3
   2400   2407   2410   2419     1  0.0000000  0.6508444  3
   2401   2400   2404   2416     1  0.0000000  0.6508444  3
   2401   2400   2407   2410     1  0.0000000  0.6508444  3
   2401   2413   2425   4918     1  0.0000000  0.6508444  3
   2404   2400   2401   2413     1  0.0000000  0.6508444  3
   2404   2400   2407   2410     1  0.0000000  0.6508444  3
   2404   2416   2422   4888     1  0.0000000  0.6508444  3
   2407   2400   2401   2413     1  0.0000000  0.6508444  3
   2407   2400   2404   2416     1  0.0000000  0.6508444  3
   2407   2410   2419   2428     1  0.0000000  0.6508444  3
   2413   2425   4918   4909     1  180.0000771  0.4184000  2
   2413   2425   4918   4909     1  0.0000000  1.6024720  3
   2416   2422   4888   4879     1  180.0000771  0.4184000  2
   2416   2422   4888   4879     1  0.0000000  1.6024720  3
   2422   4888   4879   4870     1  180.0000771  0.4184000  2
   2422   4888   4879   4870     1  0.0000000  1.6024720  3
   2425   4918   4909   4900     1  180.0000771  0.4184000  2
   2425   4918   4909   4900     1  0.0000000  1.6024720  3
   2430   2431   2443   2455     1  0.0000000  0.6508444  3
   2430   2434   2446   2452     1  0.0000000  0.6508444  3
   2430   2437   2440   2449     1  0.0000000  0.6508444  3
   2431   2430   2434   2446     1  0.0000000  0.6508444  3
   2431   2430   2437   2440     1  0.0000000  0.6508444  3
   2431   2443   2455   4978     1  0.0000000  0.6508444  3
   2434   2430   2431   2443     1  0.0000000  0.6508444  3
   2434   2430   2437   2440     1  0.0000000  0.6508444  3
   2434   2446   2452   4948     1  0.0000000  0.6508444  3
   2437   2430   2431   2443     1  0.0000000  0.6508444  3
   2437   2430   2434   2446     1  0.0000000  0.6508444  3
   2437   2440   2449   2458     1  0.0000000  0.6508444  3
   2443   2455   4978   4969     1  180.0000771  0.4184000  2
   2443   2455   4978   4969     1  0.0000000  1.6024720  3
   2446   2452   4948   4939     1  180.0000771  0.4184000  2
   2446   2452   4948   4939     1  0.0000000  1.6024720  3
   2452   4948   4939   4930     1  180.0000771  0.4184000  2
   2452   4948   4939   4930     1  0.0000000  1.6024720  3
   2455   4978   4969   4960     1  180.0000771  0.4184000  2
   2455   4978   4969   4960     1  0.0000000  1.6024720  3
   2460   2461   2473   2485     1  0.0000000  0.6508444  3
   2460   2464   2476   2482     1  0.0000000  0.6508444  3
   2460   2467   2470   2479     1  0.0000000  0.6508444  3
   2461   2460   2464   2476     1  0.0000000  0.6508444  3
   2461   2460   2467   2470     1  0.0000000  0.6508444  3
   2461   2473   2485   5038     1  0.0000000  0.6508444  3
   2464   2460   2461   2473     1  0.0000000  0.6508444  3
   2464   2460   2467   2470     1  0.0000000  0.6508444  3
   2464   2476   2482   5008     1  0.0000000  0.6508444  3
   2467   2460   2461   2473     1  0.0000000  0.6508444  3
   2467   2460   2464   2476     1  0.0000000  0.6508444  3
   2467   2470   2479   2488     1  0.0000000  0.6508444  3
   2473   2485   5038   5029     1  180.0000771  0.4184000  2
   2473   2485   5038   5029     1  0.0000000  1.6024720  3
   2476   2482   5008   4999     1  180.0000771  0.4184000  2
   2476   2482   5008   4999     1  0.0000000  1.6024720  3
   2482   5008   4999   4990     1  180.0000771  0.4184000  2
   2482   5008   4999   4990     1  0.0000000  1.6024720  3
   2485   5038   5029   5020     1  180.0000771  0.4184000  2
   2485   5038   5029   5020     1  0.0000000  1.6024720  3
   2490   2491   2503   2515     1  0.0000000  0.6508444  3
   2490   2494   2506   2512     1  0.0000000  0.6508444  3
   2490   2497   2500   2509     1  0.0000000  0.6508444  3
   2491   2490   2494   2506     1  0.0000000  0.6508444  3
   2491   2490   2497   2500     1  0.0000000  0.6508444  3
   2491   2503   2515   5098     1  0.0000000  0.6508444  3
   2494   2490   2491   2503     1  0.0000000  0.6508444  3
   2494   2490   2497   2500     1  0.0000000  0.6508444  3
   2494   2506   2512   5068     1  0.0000000  0.6508444  3
   2497   2490   2491   2503     1  0.0000000  0.6508444  3
   2497   2490   2494   2506     1  0.0000000  0.6508444  3
   2497   2500   2509   2518     1  0.0000000  0.6508444  3
   2503   2515   5098   5089     1  180.0000771  0.4184000  2
   2503   2515   5098   5089     1  0.0000000  1.6024720  3
   2506   2512   5068   5059     1  180.0000771  0.4184000  2
   2506   2512   5068   5059     1  0.0000000  1.6024720  3
   2512   5068   5059   5050     1  180.0000771  0.4184000  2
   2512   5068   5059   5050     1  0.0000000  1.6024720  3
   2515   5098   5089   5080     1  180.0000771  0.4184000  2
   2515   5098   5089   5080     1  0.0000000  1.6024720  3
   2520   2521   2533   2545     1  0.0000000  0.6508444  3
   2520   2524   2536   2542     1  0.0000000  0.6508444  3
   2520   2527   2530   2539     1  0.0000000  0.6508444  3
   2521   2520   2524   2536     1  0.0000000  0.6508444  3
   2521   2520   2527   2530     1  0.0000000  0.6508444  3
   2521   2533   2545   5158     1  0.0000000  0.6508444  3
   2524   2520   2521   2533     1  0.0000000  0.6508444  3
   2524   2520   2527   2530     1  0.0000000  0.6508444  3
   2524   2536   2542   5128     1  0.0000000  0.6508444  3
   2527   2520   2521   2533     1  0.0000000  0.6508444  3
   2527   2520   2524   2536     1  0.0000000  0.6508444  3
   2527   2530   2539   2548     1  0.0000000  0.6508444  3
   2533   2545   5158   5149     1  180.0000771  0.4184000  2
   2533   2545   5158   5149     1  0.0000000  1.6024720  3
   2536   2542   5128   5119     1  180.0000771  0.4184000  2
   2536   2542   5128   5119     1  0.0000000  1.6024720  3
   2542   5128   5119   5110     1  180.0000771  0.4184000  2
   2542   5128   5119   5110     1  0.0000000  1.6024720  3
   2545   5158   5149   5140     1  180.0000771  0.4184000  2
   2545   5158   5149   5140     1  0.0000000  1.6024720  3
   2550   2551   2563   2575     1  0.0000000  0.6508444  3
   2550   2554   2566   2572     1  0.0000000  0.6508444  3
   2550   2557   2560   2569     1  0.0000000  0.6508444  3
   2551   2550   2554   2566     1  0.0000000  0.6508444  3
   2551   2550   2557   2560     1  0.0000000  0.6508444  3
   2551   2563   2575   5218     1  0.0000000  0.6508444  3
   2554   2550   2551   2563     1  0.0000000  0.6508444  3
   2554   2550   2557   2560     1  0.0000000  0.6508444  3
   2554   2566   2572   5188     1  0.0000000  0.6508444  3
   2557   2550   2551   2563     1  0.0000000  0.6508444  3
   2557   2550   2554   2566     1  0.0000000  0.6508444  3
   2557   2560   2569   2578     1  0.0000000  0.6508444  3
   2563   2575   5218   5209     1  180.0000771  0.4184000  2
   2563   2575   5218   5209     1  0.0000000  1.6024720  3
   2566   2572   5188   5179     1  180.0000771  0.4184000  2
   2566   2572   5188   5179     1  0.0000000  1.6024720  3
   2572   5188   5179   5170     1  180.0000771  0.4184000  2
   2572   5188   5179   5170     1  0.0000000  1.6024720  3
   2575   5218   5209   5200     1  180.0000771  0.4184000  2
   2575   5218   5209   5200     1  0.0000000  1.6024720  3
   2580   2581   2593   2605     1  0.0000000  0.6508444  3
   2580   2584   2596   2602     1  0.0000000  0.6508444  3
   2580   2587   2590   2599     1  0.0000000  0.6508444  3
   2581   2580   2584   2596     1  0.0000000  0.6508444  3
   2581   2580   2587   2590     1  0.0000000  0.6508444  3
   2581   2593   2605   5278     1  0.0000000  0.6508444  3
   2584   2580   2581   2593     1  0.0000000  0.6508444  3
   2584   2580   2587   2590     1  0.0000000  0.6508444  3
   2584   2596   2602   5248     1  0.0000000  0.6508444  3
   2587   2580   2581   2593     1  0.0000000  0.6508444  3
   2587   2580   2584   2596     1  0.0000000  0.6508444  3
   2587   2590   2599   2608     1  0.0000000  0.6508444  3
   2593   2605   5278   5269     1  180.0000771  0.4184000  2
   2593   2605   5278   5269     1  0.0000000  1.6024720  3
   2596   2602   5248   5239     1  180.0000771  0.4184000  2
   2596   2602   5248   5239     1  0.0000000  1.6024720  3
   2602   5248   5239   5230     1  180.0000771  0.4184000  2
   2602   5248   5239   5230     1  0.0000000  1.6024720  3
   2605   5278   5269   5260     1  180.0000771  0.4184000  2
   2605   5278   5269   5260     1  0.0000000  1.6024720  3
   2610   2611   2623   2635     1  0.0000000  0.6508444  3
   2610   2614   2626   2632     1  0.0000000  0.6508444  3
   2610   2617   2620   2629     1  0.0000000  0.6508444  3
   2611   2610   2614   2626     1  0.0000000  0.6508444  3
   2611   2610   2617   2620     1  0.0000000  0.6508444  3
   2611   2623   2635   5338     1  0.0000000  0.6508444  3
   2614   2610   2611   2623     1  0.0000000  0.6508444  3
   2614   2610   2617   2620     1  0.0000000  0.6508444  3
   2614   2626   2632   5308     1  0.0000000  0.6508444  3
   2617   2610   2611   2623     1  0.0000000  0.6508444  3
   2617   2610   2614   2626     1  0.0000000  0.6508444  3
   2617   2620   2629   2638     1  0.0000000  0.6508444  3
   2623   2635   5338   5329     1  180.0000771  0.4184000  2
   2623   2635   5338   5329     1  0.0000000  1.6024720  3
   2626   2632   5308   5299     1  180.0000771  0.4184000  2
   2626   2632   5308   5299     1  0.0000000  1.6024720  3
   2632   5308   5299   5290     1  180.0000771  0.4184000  2
   2632   5308   5299   5290     1  0.0000000  1.6024720  3
   2635   5338   5329   5320     1  180.0000771  0.4184000  2
   2635   5338   5329   5320     1  0.0000000  1.6024720  3
   2640   2641   2653   2665     1  0.0000000  0.6508444  3
   2640   2644   2656   2662     1  0.0000000  0.6508444  3
   2640   2647   2650   2659     1  0.0000000  0.6508444  3
   2641   2640   2644   2656     1  0.0000000  0.6508444  3
   2641   2640   2647   2650     1  0.0000000  0.6508444  3
   2641   2653   2665   5398     1  0.0000000  0.6508444  3
   2644   2640   2641   2653     1  0.0000000  0.6508444  3
   2644   2640   2647   2650     1  0.0000000  0.6508444  3
   2644   2656   2662   5368     1  0.0000000  0.6508444  3
   2647   2640   2641   2653     1  0.0000000  0.6508444  3
   2647   2640   2644   2656     1  0.0000000  0.6508444  3
   2647   2650   2659   2668     1  0.0000000  0.6508444  3
   2653   2665   5398   5389     1  180.0000771  0.4184000  2
   2653   2665   5398   5389     1  0.0000000  1.6024720  3
   2656   2662   5368   5359     1  180.0000771  0.4184000  2
   2656   2662   5368   5359     1  0.0000000  1.6024720  3
   2662   5368   5359   5350     1  180.0000771  0.4184000  2
   2662   5368   5359   5350     1  0.0000000  1.6024720  3
   2665   5398   5389   5380     1  180.0000771  0.4184000  2
   2665   5398   5389   5380     1  0.0000000  1.6024720  3
   2670   2671   2683   2695     1  0.0000000  0.6508444  3
   2670   2674   2686   2692     1  0.0000000  0.6508444  3
   2670   2677   2680   2689     1  0.0000000  0.6508444  3
   2671   2670   2674   2686     1  0.0000000  0.6508444  3
   2671   2670   2677   2680     1  0.0000000  0.6508444  3
   2671   2683   2695   5458     1  0.0000000  0.6508444  3
   2674   2670   2671   2683     1  0.0000000  0.6508444  3
   2674   2670   2677   2680     1  0.0000000  0.6508444  3
   2674   2686   2692   5428     1  0.0000000  0.6508444  3
   2677   2670   2671   2683     1  0.0000000  0.6508444  3
   2677   2670   2674   2686     1  0.0000000  0.6508444  3
   2677   2680   2689   2698     1  0.0000000  0.6508444  3
   2683   2695   5458   5449     1  180.0000771  0.4184000  2
   2683   2695   5458   5449     1  0.0000000  1.6024720  3
   2686   2692   5428   5419     1  180.0000771  0.4184000  2
   2686   2692   5428   5419     1  0.0000000  1.6024720  3
   2692   5428   5419   5410     1  180.0000771  0.4184000  2
   2692   5428   5419   5410     1  0.0000000  1.6024720  3
   2695   5458   5449   5440     1  180.0000771  0.4184000  2
   2695   5458   5449   5440     1  0.0000000  1.6024720  3
   2700   2701   2713   2725     1  0.0000000  0.6508444  3
   2700   2704   2716   2722     1  0.0000000  0.6508444  3
   2700   2707   2710   2719     1  0.0000000  0.6508444  3
   2701   2700   2704   2716     1  0.0000000  0.6508444  3
   2701   2700   2707   2710     1  0.0000000  0.6508444  3
   2701   2713   2725   5518     1  0.0000000  0.6508444  3
   2704   2700   2701   2713     1  0.0000000  0.6508444  3
   2704   2700   2707   2710     1  0.0000000  0.6508444  3
   2704   2716   2722   5488     1  0.0000000  0.6508444  3
   2707   2700   2701   2713     1  0.0000000  0.6508444  3
   2707   2700   2704   2716     1  0.0000000  0.6508444  3
   2707   2710   2719   2728     1  0.0000000  0.6508444  3
   2713   2725   5518   5509     1  180.0000771  0.4184000  2
   2713   2725   5518   5509     1  0.0000000  1.6024720  3
   2716   2722   5488   5479     1  180.0000771  0.4184000  2
   2716   2722   5488   5479     1  0.0000000  1.6024720  3
   2722   5488   5479   5470     1  180.0000771  0.4184000  2
   2722   5488   5479   5470     1  0.0000000  1.6024720  3
   2725   5518   5509   5500     1  180.0000771  0.4184000  2
   2725   5518   5509   5500     1  0.0000000  1.6024720  3
   2730   2731   2743   2755     1  0.0000000  0.6508444  3
   2730   2734   2746   2752     1  0.0000000  0.6508444  3
   2730   2737   2740   2749     1  0.0000000  0.6508444  3
   2731   2730   2734   2746     1  0.0000000  0.6508444  3
   2731   2730   2737   2740     1  0.0000000  0.6508444  3
   2731   2743   2755   5578     1  0.0000000  0.6508444  3
   2734   2730   2731   2743     1  0.0000000  0.6508444  3
   2734   2730   2737   2740     1  0.0000000  0.6508444  3
   2734   2746   2752   5548     1  0.0000000  0.6508444  3
   2737   2730   2731   2743     1  0.0000000  0.6508444  3
   2737   2730   2734   2746     1  0.0000000  0.6508444  3
   2737   2740   2749   2758     1  0.0000000  0.6508444  3
   2743   2755   5578   5569     1  180.0000771  0.4184000  2
   2743   2755   5578   5569     1  0.0000000  1.6024720  3
   2746   2752   5548   5539     1  180.0000771  0.4184000  2
   2746   2752   5548   5539     1  0.0000000  1.6024720  3
   2752   5548   5539   5530     1  180.0000771  0.4184000  2
   2752   5548   5539   5530     1  0.0000000  1.6024720  3
   2755   5578   5569   5560     1  180.0000771  0.4184000  2
   2755   5578   5569   5560     1  0.0000000  1.6024720  3
   2760   2761   2773   2785     1  0.0000000  0.6508444  3
   2760   2764   2776   2782     1  0.0000000  0.6508444  3
   2760   2767   2770   2779     1  0.0000000  0.6508444  3
   2761   2760   2764   2776     1  0.0000000  0.6508444  3
   2761   2760   2767   2770     1  0.0000000  0.6508444  3
   2761   2773   2785   5638     1  0.0000000  0.6508444  3
   2764   2760   2761   2773     1  0.0000000  0.6508444  3
   2764   2760   2767   2770     1  0.0000000  0.6508444  3
   2764   2776   2782   5608     1  0.0000000  0.6508444  3
   2767   2760   2761   2773     1  0.0000000  0.6508444  3
   2767   2760   2764   2776     1  0.0000000  0.6508444  3
   2767   2770   2779   2788     1  0.0000000  0.6508444  3
   2773   2785   5638   5629     1  180.0000771  0.4184000  2
   2773   2785   5638   5629     1  0.0000000  1.6024720  3
   2776   2782   5608   5599     1  180.0000771  0.4184000  2
   2776   2782   5608   5599     1  0.0000000  1.6024720  3
   2782   5608   5599   5590     1  180.0000771  0.4184000  2
   2782   5608   5599   5590     1  0.0000000  1.6024720  3
   2785   5638   5629   5620     1  180.0000771  0.4184000  2
   2785   5638   5629   5620     1  0.0000000  1.6024720  3
   2790   2791   2803   2815     1  0.0000000  0.6508444  3
   2790   2794   2806   2812     1  0.0000000  0.6508444  3
   2790   2797   2800   2809     1  0.0000000  0.6508444  3
   2791   2790   2794   2806     1  0.0000000  0.6508444  3
   2791   2790   2797   2800     1  0.0000000  0.6508444  3
   2791   2803   2815   5698     1  0.0000000  0.6508444  3
   2794   2790   2791   2803     1  0.0000000  0.6508444  3
   2794   2790   2797   2800     1  0.0000000  0.6508444  3
   2794   2806   2812   5668     1  0.0000000  0.6508444  3
   2797   2790   2791   2803     1  0.0000000  0.6508444  3
   2797   2790   2794   2806     1  0.0000000  0.6508444  3
   2797   2800   2809   2818     1  0.0000000  0.6508444  3
   2803   2815   5698   5689     1  180.0000771  0.4184000  2
   2803   2815   5698   5689     1  0.0000000  1.6024720  3
   2806   2812   5668   5659     1  180.0000771  0.4184000  2
   2806   2812   5668   5659     1  0.0000000  1.6024720  3
   2812   5668   5659   5650     1  180.0000771  0.4184000  2
   2812   5668   5659   5650     1  0.0000000  1.6024720  3
   2815   5698   5689   5680     1  180.0000771  0.4184000  2
   2815   5698   5689   5680     1  0.0000000  1.6024720  3
   2820   2821   2833   2845     1  0.0000000  0.6508444  3
   2820   2824   2836   2842     1  0.0000000  0.6508444  3
   2820   2827   2830   2839     1  0.0000000  0.6508444  3
   2821   2820   2824   2836     1  0.0000000  0.6508444  3
   2821   2820   2827   2830     1  0.0000000  0.6508444  3
   2821   2833   2845   5758     1  0.0000000  0.6508444  3
   2824   2820   2821   2833     1  0.0000000  0.6508444  3
   2824   2820   2827   2830     1  0.0000000  0.6508444  3
   2824   2836   2842   5728     1  0.0000000  0.6508444  3
   2827   2820   2821   2833     1  0.0000000  0.6508444  3
   2827   2820   2824   2836     1  0.0000000  0.6508444  3
   2827   2830   2839   2848     1  0.0000000  0.6508444  3
   2833   2845   5758   5749     1  180.0000771  0.4184000  2
   2833   2845   5758   5749     1  0.0000000  1.6024720  3
   2836   2842   5728   5719     1  180.0000771  0.4184000  2
   2836   2842   5728   5719     1  0.0000000  1.6024720  3
   2842   5728   5719   5710     1  180.0000771  0.4184000  2
   2842   5728   5719   5710     1  0.0000000  1.6024720  3
   2845   5758   5749   5740     1  180.0000771  0.4184000  2
   2845   5758   5749   5740     1  0.0000000  1.6024720  3
   2850   2851   2863   2875     1  0.0000000  0.6508444  3
   2850   2854   2866   2872     1  0.0000000  0.6508444  3
   2850   2857   2860   2869     1  0.0000000  0.6508444  3
   2851   2850   2854   2866     1  0.0000000  0.6508444  3
   2851   2850   2857   2860     1  0.0000000  0.6508444  3
   2851   2863   2875   5818     1  0.0000000  0.6508444  3
   2854   2850   2851   2863     1  0.0000000  0.6508444  3
   2854   2850   2857   2860     1  0.0000000  0.6508444  3
   2854   2866   2872   5788     1  0.0000000  0.6508444  3
   2857   2850   2851   2863     1  0.0000000  0.6508444  3
   2857   2850   2854   2866     1  0.0000000  0.6508444  3
   2857   2860   2869   2878     1  0.0000000  0.6508444  3
   2863   2875   5818   5809     1  180.0000771  0.4184000  2
   2863   2875   5818   5809     1  0.0000000  1.6024720  3
   2866   2872   5788   5779     1  180.0000771  0.4184000  2
   2866   2872   5788   5779     1  0.0000000  1.6024720  3
   2872   5788   5779   5770     1  180.0000771  0.4184000  2
   2872   5788   5779   5770     1  0.0000000  1.6024720  3
   2875   5818   5809   5800     1  180.0000771  0.4184000  2
   2875   5818   5809   5800     1  0.0000000  1.6024720  3
   2880   2881   2893   2905     1  0.0000000  0.6508444  3
   2880   2884   2896   2902     1  0.0000000  0.6508444  3
   2880   2887   2890   2899     1  0.0000000  0.6508444  3
   2881   2880   2884   2896     1  0.0000000  0.6508444  3
   2881   2880   2887   2890     1  0.0000000  0.6508444  3
   2881   2893   2905   5878     1  0.0000000  0.6508444  3
   2884   2880   2881   2893     1  0.0000000  0.6508444  3
   2884   2880   2887   2890     1  0.0000000  0.6508444  3
   2884   2896   2902   5848     1  0.0000000  0.6508444  3
   2887   2880   2881   2893     1  0.0000000  0.6508444  3
   2887   2880   2884   2896     1  0.0000000  0.6508444  3
   2887   2890   2899   2908     1  0.0000000  0.6508444  3
   2893   2905   5878   5869     1  180.0000771  0.4184000  2
   2893   2905   5878   5869     1  0.0000000  1.6024720  3
   2896   2902   5848   5839     1  180.0000771  0.4184000  2
   2896   2902   5848   5839     1  0.0000000  1.6024720  3
   2902   5848   5839   5830     1  180.0000771  0.4184000  2
   2902   5848   5839   5830     1  0.0000000  1.6024720  3
   2905   5878   5869   5860     1  180.0000771  0.4184000  2
   2905   5878   5869   5860     1  0.0000000  1.6024720  3
   2910   2911   2923   2935     1  0.0000000  0.6508444  3
   2910   2914   2926   2932     1  0.0000000  0.6508444  3
   2910   2917   2920   2929     1  0.0000000  0.6508444  3
   2911   2910   2914   2926     1  0.0000000  0.6508444  3
   2911   2910   2917   2920     1  0.0000000  0.6508444  3
   2911   2923   2935   5938     1  0.0000000  0.6508444  3
   2914   2910   2911   2923     1  0.0000000  0.6508444  3
   2914   2910   2917   2920     1  0.0000000  0.6508444  3
   2914   2926   2932   5908     1  0.0000000  0.6508444  3
   2917   2910   2911   2923     1  0.0000000  0.6508444  3
   2917   2910   2914   2926     1  0.0000000  0.6508444  3
   2917   2920   2929   2938     1  0.0000000  0.6508444  3
   2923   2935   5938   5929     1  180.0000771  0.4184000  2
   2923   2935   5938   5929     1  0.0000000  1.6024720  3
   2926   2932   5908   5899     1  180.0000771  0.4184000  2
   2926   2932   5908   5899     1  0.0000000  1.6024720  3
   2932   5908   5899   5890     1  180.0000771  0.4184000  2
   2932   5908   5899   5890     1  0.0000000  1.6024720  3
   2935   5938   5929   5920     1  180.0000771  0.4184000  2
   2935   5938   5929   5920     1  0.0000000  1.6024720  3
   2940   2941   2953   2965     1  0.0000000  0.6508444  3
   2940   2944   2956   2962     1  0.0000000  0.6508444  3
   2940   2947   2950   2959     1  0.0000000  0.6508444  3
   2941   2940   2944   2956     1  0.0000000  0.6508444  3
   2941   2940   2947   2950     1  0.0000000  0.6508444  3
   2941   2953   2965   5998     1  0.0000000  0.6508444  3
   2944   2940   2941   2953     1  0.0000000  0.6508444  3
   2944   2940   2947   2950     1  0.0000000  0.6508444  3
   2944   2956   2962   5968     1  0.0000000  0.6508444  3
   2947   2940   2941   2953     1  0.0000000  0.6508444  3
   2947   2940   2944   2956     1  0.0000000  0.6508444  3
   2947   2950   2959   2968     1  0.0000000  0.6508444  3
   2953   2965   5998   5989     1  180.0000771  0.4184000  2
   2953   2965   5998   5989     1  0.0000000  1.6024720  3
   2956   2962   5968   5959     1  180.0000771  0.4184000  2
   2956   2962   5968   5959     1  0.0000000  1.6024720  3
   2962   5968   5959   5950     1  180.0000771  0.4184000  2
   2962   5968   5959   5950     1  0.0000000  1.6024720  3
   2965   5998   5989   5980     1  180.0000771  0.4184000  2
   2965   5998   5989   5980     1  0.0000000  1.6024720  3
   2970   2971   2983   2995     1  0.0000000  0.6508444  3
   2970   2974   2986   2992     1  0.0000000  0.6508444  3
   2970   2977   2980   2989     1  0.0000000  0.6508444  3
   2971   2970   2974   2986     1  0.0000000  0.6508444  3
   2971   2970   2977   2980     1  0.0000000  0.6508444  3
   2971   2983   2995   6058     1  0.0000000  0.6508444  3
   2974   2970   2971   2983     1  0.0000000  0.6508444  3
   2974   2970   2977   2980     1  0.0000000  0.6508444  3
   2974   2986   2992   6028     1  0.0000000  0.6508444  3
   2977   2970   2971   2983     1  0.0000000  0.6508444  3
   2977   2970   2974   2986     1  0.0000000  0.6508444  3
   2977   2980   2989   2998     1  0.0000000  0.6508444  3
   2983   2995   6058   6049     1  180.0000771  0.4184000  2
   2983   2995   6058   6049     1  0.0000000  1.6024720  3
   2986   2992   6028   6019     1  180.0000771  0.4184000  2
   2986   2992   6028   6019     1  0.0000000  1.6024720  3
   2992   6028   6019   6010     1  180.0000771  0.4184000  2
   2992   6028   6019   6010     1  0.0000000  1.6024720  3
   2995   6058   6049   6040     1  180.0000771  0.4184000  2
   2995   6058   6049   6040     1  0.0000000  1.6024720  3
   3000   3001   3013   3025     1  0.0000000  0.6508444  3
   3000   3004   3016   3022     1  0.0000000  0.6508444  3
   3000   3007   3010   3019     1  0.0000000  0.6508444  3
   3001   3000   3004   3016     1  0.0000000  0.6508444  3
   3001   3000   3007   3010     1  0.0000000  0.6508444  3
   3001   3013   3025   6118     1  0.0000000  0.6508444  3
   3004   3000   3001   3013     1  0.0000000  0.6508444  3
   3004   3000   3007   3010     1  0.0000000  0.6508444  3
   3004   3016   3022   6088     1  0.0000000  0.6508444  3
   3007   3000   3001   3013     1  0.0000000  0.6508444  3
   3007   3000   3004   3016     1  0.0000000  0.6508444  3
   3007   3010   3019   3028     1  0.0000000  0.6508444  3
   3013   3025   6118   6109     1  180.0000771  0.4184000  2
   3013   3025   6118   6109     1  0.0000000  1.6024720  3
   3016   3022   6088   6079     1  180.0000771  0.4184000  2
   3016   3022   6088   6079     1  0.0000000  1.6024720  3
   3022   6088   6079   6070     1  180.0000771  0.4184000  2
   3022   6088   6079   6070     1  0.0000000  1.6024720  3
   3025   6118   6109   6100     1  180.0000771  0.4184000  2
   3025   6118   6109   6100     1  0.0000000  1.6024720  3
   3030   3031   3043   3055     1  0.0000000  0.6508444  3
   3030   3034   3046   3052     1  0.0000000  0.6508444  3
   3030   3037   3040   3049     1  0.0000000  0.6508444  3
   3031   3030   3034   3046     1  0.0000000  0.6508444  3
   3031   3030   3037   3040     1  0.0000000  0.6508444  3
   3031   3043   3055   6178     1  0.0000000  0.6508444  3
   3034   3030   3031   3043     1  0.0000000  0.6508444  3
   3034   3030   3037   3040     1  0.0000000  0.6508444  3
   3034   3046   3052   6148     1  0.0000000  0.6508444  3
   3037   3030   3031   3043     1  0.0000000  0.6508444  3
   3037   3030   3034   3046     1  0.0000000  0.6508444  3
   3037   3040   3049   3058     1  0.0000000  0.6508444  3
   3043   3055   6178   6169     1  180.0000771  0.4184000  2
   3043   3055   6178   6169     1  0.0000000  1.6024720  3
   3046   3052   6148   6139     1  180.0000771  0.4184000  2
   3046   3052   6148   6139     1  0.0000000  1.6024720  3
   3052   6148   6139   6130     1  180.0000771  0.4184000  2
   3052   6148   6139   6130     1  0.0000000  1.6024720  3
   3055   6178   6169   6160     1  180.0000771  0.4184000  2
   3055   6178   6169   6160     1  0.0000000  1.6024720  3
   3060   3061   3073   3085     1  0.0000000  0.6508444  3
   3060   3064   3076   3082     1  0.0000000  0.6508444  3
   3060   3067   3070   3079     1  0.0000000  0.6508444  3
   3061   3060   3064   3076     1  0.0000000  0.6508444  3
   3061   3060   3067   3070     1  0.0000000  0.6508444  3
   3061   3073   3085   6238     1  0.0000000  0.6508444  3
   3064   3060   3061   3073     1  0.0000000  0.6508444  3
   3064   3060   3067   3070     1  0.0000000  0.6508444  3
   3064   3076   3082   6208     1  0.0000000  0.6508444  3
   3067   3060   3061   3073     1  0.0000000  0.6508444  3
   3067   3060   3064   3076     1  0.0000000  0.6508444  3
   3067   3070   3079   3088     1  0.0000000  0.6508444  3
   3073   3085   6238   6229     1  180.0000771  0.4184000  2
   3073   3085   6238   6229     1  0.0000000  1.6024720  3
   3076   3082   6208   6199     1  180.0000771  0.4184000  2
   3076   3082   6208   6199     1  0.0000000  1.6024720  3
   3082   6208   6199   6190     1  180.0000771  0.4184000  2
   3082   6208   6199   6190     1  0.0000000  1.6024720  3
   3085   6238   6229   6220     1  180.0000771  0.4184000  2
   3085   6238   6229   6220     1  0.0000000  1.6024720  3
   3090   3091   3103   3115     1  0.0000000  0.6508444  3
   3090   3094   3106   3112     1  0.0000000  0.6508444  3
   3090   3097   3100   3109     1  0.0000000  0.6508444  3
   3091   3090   3094   3106     1  0.0000000  0.6508444  3
   3091   3090   3097   3100     1  0.0000000  0.6508444  3
   3091   3103   3115   6298     1  0.0000000  0.6508444  3
   3094   3090   3091   3103     1  0.0000000  0.6508444  3
   3094   3090   3097   3100     1  0.0000000  0.6508444  3
   3094   3106   3112   6268     1  0.0000000  0.6508444  3
   3097   3090   3091   3103     1  0.0000000  0.6508444  3
   3097   3090   3094   3106     1  0.0000000  0.6508444  3
   3097   3100   3109   3118     1  0.0000000  0.6508444  3
   3103   3115   6298   6289     1  180.0000771  0.4184000  2
   3103   3115   6298   6289     1  0.0000000  1.6024720  3
   3106   3112   6268   6259     1  180.0000771  0.4184000  2
   3106   3112   6268   6259     1  0.0000000  1.6024720  3
   3112   6268   6259   6250     1  180.0000771  0.4184000  2
   3112   6268   6259   6250     1  0.0000000  1.6024720  3
   3115   6298   6289   6280     1  180.0000771  0.4184000  2
   3115   6298   6289   6280     1  0.0000000  1.6024720  3
   3120   3121   3133   3145     1  0.0000000  0.6508444  3
   3120   3124   3136   3142     1  0.0000000  0.6508444  3
   3120   3127   3130   3139     1  0.0000000  0.6508444  3
   3121   3120   3124   3136     1  0.0000000  0.6508444  3
   3121   3120   3127   3130     1  0.0000000  0.6508444  3
   3121   3133   3145   6358     1  0.0000000  0.6508444  3
   3124   3120   3121   3133     1  0.0000000  0.6508444  3
   3124   3120   3127   3130     1  0.0000000  0.6508444  3
   3124   3136   3142   6328     1  0.0000000  0.6508444  3
   3127   3120   3121   3133     1  0.0000000  0.6508444  3
   3127   3120   3124   3136     1  0.0000000  0.6508444  3
   3127   3130   3139   3148     1  0.0000000  0.6508444  3
   3133   3145   6358   6349     1  180.0000771  0.4184000  2
   3133   3145   6358   6349     1  0.0000000  1.6024720  3
   3136   3142   6328   6319     1  180.0000771  0.4184000  2
   3136   3142   6328   6319     1  0.0000000  1.6024720  3
   3142   6328   6319   6310     1  180.0000771  0.4184000  2
   3142   6328   6319   6310     1  0.0000000  1.6024720  3
   3145   6358   6349   6340     1  180.0000771  0.4184000  2
   3145   6358   6349   6340     1  0.0000000  1.6024720  3
   3150   3151   3163   3175     1  0.0000000  0.6508444  3
   3150   3154   3166   3172     1  0.0000000  0.6508444  3
   3150   3157   3160   3169     1  0.0000000  0.6508444  3
   3151   3150   3154   3166     1  0.0000000  0.6508444  3
   3151   3150   3157   3160     1  0.0000000  0.6508444  3
   3151   3163   3175   6418     1  0.0000000  0.6508444  3
   3154   3150   3151   3163     1  0.0000000  0.6508444  3
   3154   3150   3157   3160     1  0.0000000  0.6508444  3
   3154   3166   3172   6388     1  0.0000000  0.6508444  3
   3157   3150   3151   3163     1  0.0000000  0.6508444  3
   3157   3150   3154   3166     1  0.0000000  0.6508444  3
   3157   3160   3169   3178     1  0.0000000  0.6508444  3
   3163   3175   6418   6409     1  180.0000771  0.4184000  2
   3163   3175   6418   6409     1  0.0000000  1.6024720  3
   3166   3172   6388   6379     1  180.0000771  0.4184000  2
   3166   3172   6388   6379     1  0.0000000  1.6024720  3
   3172   6388   6379   6370     1  180.0000771  0.4184000  2
   3172   6388   6379   6370     1  0.0000000  1.6024720  3
   3175   6418   6409   6400     1  180.0000771  0.4184000  2
   3175   6418   6409   6400     1  0.0000000  1.6024720  3
   3180   3181   3193   3205     1  0.0000000  0.6508444  3
   3180   3184   3196   3202     1  0.0000000  0.6508444  3
   3180   3187   3190   3199     1  0.0000000  0.6508444  3
   3181   3180   3184   3196     1  0.0000000  0.6508444  3
   3181   3180   3187   3190     1  0.0000000  0.6508444  3
   3181   3193   3205   6478     1  0.0000000  0.6508444  3
   3184   3180   3181   3193     1  0.0000000  0.6508444  3
   3184   3180   3187   3190     1  0.0000000  0.6508444  3
   3184   3196   3202   6448     1  0.0000000  0.6508444  3
   3187   3180   3181   3193     1  0.0000000  0.6508444  3
   3187   3180   3184   3196     1  0.0000000  0.6508444  3
   3187   3190   3199   3208     1  0.0000000  0.6508444  3
   3193   3205   6478   6469     1  180.0000771  0.4184000  2
   3193   3205   6478   6469     1  0.0000000  1.6024720  3
   3196   3202   6448   6439     1  180.0000771  0.4184000  2
   3196   3202   6448   6439     1  0.0000000  1.6024720  3
   3202   6448   6439   6430     1  180.0000771  0.4184000  2
   3202   6448   6439   6430     1  0.0000000  1.6024720  3
   3205   6478   6469   6460     1  180.0000771  0.4184000  2
   3205   6478   6469   6460     1  0.0000000  1.6024720  3
   3210   3211   3223   3235     1  0.0000000  0.6508444  3
   3210   3214   3226   3232     1  0.0000000  0.6508444  3
   3210   3217   3220   3229     1  0.0000000  0.6508444  3
   3211   3210   3214   3226     1  0.0000000  0.6508444  3
   3211   3210   3217   3220     1  0.0000000  0.6508444  3
   3211   3223   3235   6538     1  0.0000000  0.6508444  3
   3214   3210   3211   3223     1  0.0000000  0.6508444  3
   3214   3210   3217   3220     1  0.0000000  0.6508444  3
   3214   3226   3232   6508     1  0.0000000  0.6508444  3
   3217   3210   3211   3223     1  0.0000000  0.6508444  3
   3217   3210   3214   3226     1  0.0000000  0.6508444  3
   3217   3220   3229   3238     1  0.0000000  0.6508444  3
   3223   3235   6538   6529     1  180.0000771  0.4184000  2
   3223   3235   6538   6529     1  0.0000000  1.6024720  3
   3226   3232   6508   6499     1  180.0000771  0.4184000  2
   3226   3232   6508   6499     1  0.0000000  1.6024720  3
   3232   6508   6499   6490     1  180.0000771  0.4184000  2
   3232   6508   6499   6490     1  0.0000000  1.6024720  3
   3235   6538   6529   6520     1  180.0000771  0.4184000  2
   3235   6538   6529   6520     1  0.0000000  1.6024720  3
   3240   3241   3253   3265     1  0.0000000  0.6508444  3
   3240   3244   3256   3262     1  0.0000000  0.6508444  3
   3240   3247   3250   3259     1  0.0000000  0.6508444  3
   3241   3240   3244   3256     1  0.0000000  0.6508444  3
   3241   3240   3247   3250     1  0.0000000  0.6508444  3
   3241   3253   3265   6598     1  0.0000000  0.6508444  3
   3244   3240   3241   3253     1  0.0000000  0.6508444  3
   3244   3240   3247   3250     1  0.0000000  0.6508444  3
   3244   3256   3262   6568     1  0.0000000  0.6508444  3
   3247   3240   3241   3253     1  0.0000000  0.6508444  3
   3247   3240   3244   3256     1  0.0000000  0.6508444  3
   3247   3250   3259   3268     1  0.0000000  0.6508444  3
   3253   3265   6598   6589     1  180.0000771  0.4184000  2
   3253   3265   6598   6589     1  0.0000000  1.6024720  3
   3256   3262   6568   6559     1  180.0000771  0.4184000  2
   3256   3262   6568   6559     1  0.0000000  1.6024720  3
   3262   6568   6559   6550     1  180.0000771  0.4184000  2
   3262   6568   6559   6550     1  0.0000000  1.6024720  3
   3265   6598   6589   6580     1  180.0000771  0.4184000  2
   3265   6598   6589   6580     1  0.0000000  1.6024720  3
   3270   3271   3283   3295     1  0.0000000  0.6508444  3
   3270   3274   3286   3292     1  0.0000000  0.6508444  3
   3270   3277   3280   3289     1  0.0000000  0.6508444  3
   3271   3270   3274   3286     1  0.0000000  0.6508444  3
   3271   3270   3277   3280     1  0.0000000  0.6508444  3
   3271   3283   3295   6658     1  0.0000000  0.6508444  3
   3274   3270   3271   3283     1  0.0000000  0.6508444  3
   3274   3270   3277   3280     1  0.0000000  0.6508444  3
   3274   3286   3292   6628     1  0.0000000  0.6508444  3
   3277   3270   3271   3283     1  0.0000000  0.6508444  3
   3277   3270   3274   3286     1  0.0000000  0.6508444  3
   3277   3280   3289   3298     1  0.0000000  0.6508444  3
   3283   3295   6658   6649     1  180.0000771  0.4184000  2
   3283   3295   6658   6649     1  0.0000000  1.6024720  3
   3286   3292   6628   6619     1  180.0000771  0.4184000  2
   3286   3292   6628   6619     1  0.0000000  1.6024720  3
   3292   6628   6619   6610     1  180.0000771  0.4184000  2
   3292   6628   6619   6610     1  0.0000000  1.6024720  3
   3295   6658   6649   6640     1  180.0000771  0.4184000  2
   3295   6658   6649   6640     1  0.0000000  1.6024720  3
   3300   3301   3313   3325     1  0.0000000  0.6508444  3
   3300   3304   3316   3322     1  0.0000000  0.6508444  3
   3300   3307   3310   3319     1  0.0000000  0.6508444  3
   3301   3300   3304   3316     1  0.0000000  0.6508444  3
   3301   3300   3307   3310     1  0.0000000  0.6508444  3
   3301   3313   3325   6718     1  0.0000000  0.6508444  3
   3304   3300   3301   3313     1  0.0000000  0.6508444  3
   3304   3300   3307   3310     1  0.0000000  0.6508444  3
   3304   3316   3322   6688     1  0.0000000  0.6508444  3
   3307   3300   3301   3313     1  0.0000000  0.6508444  3
   3307   3300   3304   3316     1  0.0000000  0.6508444  3
   3307   3310   3319   3328     1  0.0000000  0.6508444  3
   3313   3325   6718   6709     1  180.0000771  0.4184000  2
   3313   3325   6718   6709     1  0.0000000  1.6024720  3
   3316   3322   6688   6679     1  180.0000771  0.4184000  2
   3316   3322   6688   6679     1  0.0000000  1.6024720  3
   3322   6688   6679   6670     1  180.0000771  0.4184000  2
   3322   6688   6679   6670     1  0.0000000  1.6024720  3
   3325   6718   6709   6700     1  180.0000771  0.4184000  2
   3325   6718   6709   6700     1  0.0000000  1.6024720  3
   3330   3331   3343   3355     1  0.0000000  0.6508444  3
   3330   3334   3346   3352     1  0.0000000  0.6508444  3
   3330   3337   3340   3349     1  0.0000000  0.6508444  3
   3331   3330   3334   3346     1  0.0000000  0.6508444  3
   3331   3330   3337   3340     1  0.0000000  0.6508444  3
   3331   3343   3355   6778     1  0.0000000  0.6508444  3
   3334   3330   3331   3343     1  0.0000000  0.6508444  3
   3334   3330   3337   3340     1  0.0000000  0.6508444  3
   3334   3346   3352   6748     1  0.0000000  0.6508444  3
   3337   3330   3331   3343     1  0.0000000  0.6508444  3
   3337   3330   3334   3346     1  0.0000000  0.6508444  3
   3337   3340   3349   3358     1  0.0000000  0.6508444  3
   3343   3355   6778   6769     1  180.0000771  0.4184000  2
   3343   3355   6778   6769     1  0.0000000  1.6024720  3
   3346   3352   6748   6739     1  180.0000771  0.4184000  2
   3346   3352   6748   6739     1  0.0000000  1.6024720  3
   3352   6748   6739   6730     1  180.0000771  0.4184000  2
   3352   6748   6739   6730     1  0.0000000  1.6024720  3
   3355   6778   6769   6760     1  180.0000771  0.4184000  2
   3355   6778   6769   6760     1  0.0000000  1.6024720  3
   3360   3361   3373   3385     1  0.0000000  0.6508444  3
   3360   3364   3376   3382     1  0.0000000  0.6508444  3
   3360   3367   3370   3379     1  0.0000000  0.6508444  3
   3361   3360   3364   3376     1  0.0000000  0.6508444  3
   3361   3360   3367   3370     1  0.0000000  0.6508444  3
   3361   3373   3385   6838     1  0.0000000  0.6508444  3
   3364   3360   3361   3373     1  0.0000000  0.6508444  3
   3364   3360   3367   3370     1  0.0000000  0.6508444  3
   3364   3376   3382   6808     1  0.0000000  0.6508444  3
   3367   3360   3361   3373     1  0.0000000  0.6508444  3
   3367   3360   3364   3376     1  0.0000000  0.6508444  3
   3367   3370   3379   3388     1  0.0000000  0.6508444  3
   3373   3385   6838   6829     1  180.0000771  0.4184000  2
   3373   3385   6838   6829     1  0.0000000  1.6024720  3
   3376   3382   6808   6799     1  180.0000771  0.4184000  2
   3376   3382   6808   6799     1  0.0000000  1.6024720  3
   3382   6808   6799   6790     1  180.0000771  0.4184000  2
   3382   6808   6799   6790     1  0.0000000  1.6024720  3
   3385   6838   6829   6820     1  180.0000771  0.4184000  2
   3385   6838   6829   6820     1  0.0000000  1.6024720  3
   3390   3391   3403   3415     1  0.0000000  0.6508444  3
   3390   3394   3406   3412     1  0.0000000  0.6508444  3
   3390   3397   3400   3409     1  0.0000000  0.6508444  3
   3391   3390   3394   3406     1  0.0000000  0.6508444  3
   3391   3390   3397   3400     1  0.0000000  0.6508444  3
   3391   3403   3415   6898     1  0.0000000  0.6508444  3
   3394   3390   3391   3403     1  0.0000000  0.6508444  3
   3394   3390   3397   3400     1  0.0000000  0.6508444  3
   3394   3406   3412   6868     1  0.0000000  0.6508444  3
   3397   3390   3391   3403     1  0.0000000  0.6508444  3
   3397   3390   3394   3406     1  0.0000000  0.6508444  3
   3397   3400   3409   3418     1  0.0000000  0.6508444  3
   3403   3415   6898   6889     1  180.0000771  0.4184000  2
   3403   3415   6898   6889     1  0.0000000  1.6024720  3
   3406   3412   6868   6859     1  180.0000771  0.4184000  2
   3406   3412   6868   6859     1  0.0000000  1.6024720  3
   3412   6868   6859   6850     1  180.0000771  0.4184000  2
   3412   6868   6859   6850     1  0.0000000  1.6024720  3
   3415   6898   6889   6880     1  180.0000771  0.4184000  2
   3415   6898   6889   6880     1  0.0000000  1.6024720  3
   3420   3421   3433   3445     1  0.0000000  0.6508444  3
   3420   3424   3436   3442     1  0.0000000  0.6508444  3
   3420   3427   3430   3439     1  0.0000000  0.6508444  3
   3421   3420   3424   3436     1  0.0000000  0.6508444  3
   3421   3420   3427   3430     1  0.0000000  0.6508444  3
   3421   3433   3445   6958     1  0.0000000  0.6508444  3
   3424   3420   3421   3433     1  0.0000000  0.6508444  3
   3424   3420   3427   3430     1  0.0000000  0.6508444  3
   3424   3436   3442   6928     1  0.0000000  0.6508444  3
   3427   3420   3421   3433     1  0.0000000  0.6508444  3
   3427   3420   3424   3436     1  0.0000000  0.6508444  3
   3427   3430   3439   3448     1  0.0000000  0.6508444  3
   3433   3445   6958   6949     1  180.0000771  0.4184000  2
   3433   3445   6958   6949     1  0.0000000  1.6024720  3
   3436   3442   6928   6919     1  180.0000771  0.4184000  2
   3436   3442   6928   6919     1  0.0000000  1.6024720  3
   3442   6928   6919   6910     1  180.0000771  0.4184000  2
   3442   6928   6919   6910     1  0.0000000  1.6024720  3
   3445   6958   6949   6940     1  180.0000771  0.4184000  2
   3445   6958   6949   6940     1  0.0000000  1.6024720  3
   3450   3451   3463   3475     1  0.0000000  0.6508444  3
   3450   3454   3466   3472     1  0.0000000  0.6508444  3
   3450   3457   3460   3469     1  0.0000000  0.6508444  3
   3451   3450   3454   3466     1  0.0000000  0.6508444  3
   3451   3450   3457   3460     1  0.0000000  0.6508444  3
   3451   3463   3475   7018     1  0.0000000  0.6508444  3
   3454   3450   3451   3463     1  0.0000000  0.6508444  3
   3454   3450   3457   3460     1  0.0000000  0.6508444  3
   3454   3466   3472   6988     1  0.0000000  0.6508444  3
   3457   3450   3451   3463     1  0.0000000  0.6508444  3
   3457   3450   3454   3466     1  0.0000000  0.6508444  3
   3457   3460   3469   3478     1  0.0000000  0.6508444  3
   3463   3475   7018   7009     1  180.0000771  0.4184000  2
   3463   3475   7018   7009     1  0.0000000  1.6024720  3
   3466   3472   6988   6979     1  180.0000771  0.4184000  2
   3466   3472   6988   6979     1  0.0000000  1.6024720  3
   3472   6988   6979   6970     1  180.0000771  0.4184000  2
   3472   6988   6979   6970     1  0.0000000  1.6024720  3
   3475   7018   7009   7000     1  180.0000771  0.4184000  2
   3475   7018   7009   7000     1  0.0000000  1.6024720  3
   3480   3481   3493   3505     1  0.0000000  0.6508444  3
   3480   3484   3496   3502     1  0.0000000  0.6508444  3
   3480   3487   3490   3499     1  0.0000000  0.6508444  3
   3481   3480   3484   3496     1  0.0000000  0.6508444  3
   3481   3480   3487   3490     1  0.0000000  0.6508444  3
   3481   3493   3505   7078     1  0.0000000  0.6508444  3
   3484   3480   3481   3493     1  0.0000000  0.6508444  3
   3484   3480   3487   3490     1  0.0000000  0.6508444  3
   3484   3496   3502   7048     1  0.0000000  0.6508444  3
   3487   3480   3481   3493     1  0.0000000  0.6508444  3
   3487   3480   3484   3496     1  0.0000000  0.6508444  3
   3487   3490   3499   3508     1  0.0000000  0.6508444  3
   3493   3505   7078   7069     1  180.0000771  0.4184000  2
   3493   3505   7078   7069     1  0.0000000  1.6024720  3
   3496   3502   7048   7039     1  180.0000771  0.4184000  2
   3496   3502   7048   7039     1  0.0000000  1.6024720  3
   3502   7048   7039   7030     1  180.0000771  0.4184000  2
   3502   7048   7039   7030     1  0.0000000  1.6024720  3
   3505   7078   7069   7060     1  180.0000771  0.4184000  2
   3505   7078   7069   7060     1  0.0000000  1.6024720  3
   3510   3511   3523   3535     1  0.0000000  0.6508444  3
   3510   3514   3526   3532     1  0.0000000  0.6508444  3
   3510   3517   3520   3529     1  0.0000000  0.6508444  3
   3511   3510   3514   3526     1  0.0000000  0.6508444  3
   3511   3510   3517   3520     1  0.0000000  0.6508444  3
   3511   3523   3535   7138     1  0.0000000  0.6508444  3
   3514   3510   3511   3523     1  0.0000000  0.6508444  3
   3514   3510   3517   3520     1  0.0000000  0.6508444  3
   3514   3526   3532   7108     1  0.0000000  0.6508444  3
   3517   3510   3511   3523     1  0.0000000  0.6508444  3
   3517   3510   3514   3526     1  0.0000000  0.6508444  3
   3517   3520   3529   3538     1  0.0000000  0.6508444  3
   3523   3535   7138   7129     1  180.0000771  0.4184000  2
   3523   3535   7138   7129     1  0.0000000  1.6024720  3
   3526   3532   7108   7099     1  180.0000771  0.4184000  2
   3526   3532   7108   7099     1  0.0000000  1.6024720  3
   3532   7108   7099   7090     1  180.0000771  0.4184000  2
   3532   7108   7099   7090     1  0.0000000  1.6024720  3
   3535   7138   7129   7120     1  180.0000771  0.4184000  2
   3535   7138   7129   7120     1  0.0000000  1.6024720  3
   3540   3541   3553   3565     1  0.0000000  0.6508444  3
   3540   3544   3556   3562     1  0.0000000  0.6508444  3
   3540   3547   3550   3559     1  0.0000000  0.6508444  3
   3541   3540   3544   3556     1  0.0000000  0.6508444  3
   3541   3540   3547   3550     1  0.0000000  0.6508444  3
   3541   3553   3565   7198     1  0.0000000  0.6508444  3
   3544   3540   3541   3553     1  0.0000000  0.6508444  3
   3544   3540   3547   3550     1  0.0000000  0.6508444  3
   3544   3556   3562   7168     1  0.0000000  0.6508444  3
   3547   3540   3541   3553     1  0.0000000  0.6508444  3
   3547   3540   3544   3556     1  0.0000000  0.6508444  3
   3547   3550   3559   3568     1  0.0000000  0.6508444  3
   3553   3565   7198   7189     1  180.0000771  0.4184000  2
   3553   3565   7198   7189     1  0.0000000  1.6024720  3
   3556   3562   7168   7159     1  180.0000771  0.4184000  2
   3556   3562   7168   7159     1  0.0000000  1.6024720  3
   3562   7168   7159   7150     1  180.0000771  0.4184000  2
   3562   7168   7159   7150     1  0.0000000  1.6024720  3
   3565   7198   7189   7180     1  180.0000771  0.4184000  2
   3565   7198   7189   7180     1  0.0000000  1.6024720  3
   3570   3571   3583   3595     1  0.0000000  0.6508444  3
   3570   3574   3586   3592     1  0.0000000  0.6508444  3
   3570   3577   3580   3589     1  0.0000000  0.6508444  3
   3571   3570   3574   3586     1  0.0000000  0.6508444  3
   3571   3570   3577   3580     1  0.0000000  0.6508444  3
   3571   3583   3595   7258     1  0.0000000  0.6508444  3
   3574   3570   3571   3583     1  0.0000000  0.6508444  3
   3574   3570   3577   3580     1  0.0000000  0.6508444  3
   3574   3586   3592   7228     1  0.0000000  0.6508444  3
   3577   3570   3571   3583     1  0.0000000  0.6508444  3
   3577   3570   3574   3586     1  0.0000000  0.6508444  3
   3577   3580   3589   3598     1  0.0000000  0.6508444  3
   3583   3595   7258   7249     1  180.0000771  0.4184000  2
   3583   3595   7258   7249     1  0.0000000  1.6024720  3
   3586   3592   7228   7219     1  180.0000771  0.4184000  2
   3586   3592   7228   7219     1  0.0000000  1.6024720  3
   3592   7228   7219   7210     1  180.0000771  0.4184000  2
   3592   7228   7219   7210     1  0.0000000  1.6024720  3
   3595   7258   7249   7240     1  180.0000771  0.4184000  2
   3595   7258   7249   7240     1  0.0000000  1.6024720  3
   3600   3601   3613   3625     1  0.0000000  0.6508444  3
   3600   3604   3616   3622     1  0.0000000  0.6508444  3
   3600   3607   3610   3619     1  0.0000000  0.6508444  3
   3601   3600   3604   3616     1  0.0000000  0.6508444  3
   3601   3600   3607   3610     1  0.0000000  0.6508444  3
   3601   3613   3625   7318     1  0.0000000  0.6508444  3
   3604   3600   3601   3613     1  0.0000000  0.6508444  3
   3604   3600   3607   3610     1  0.0000000  0.6508444  3
   3604   3616   3622   7288     1  0.0000000  0.6508444  3
   3607   3600   3601   3613     1  0.0000000  0.6508444  3
   3607   3600   3604   3616     1  0.0000000  0.6508444  3
   3607   3610   3619   3628     1  0.0000000  0.6508444  3
   3613   3625   7318   7309     1  180.0000771  0.4184000  2
   3613   3625   7318   7309     1  0.0000000  1.6024720  3
   3616   3622   7288   7279     1  180.0000771  0.4184000  2
   3616   3622   7288   7279     1  0.0000000  1.6024720  3
   3622   7288   7279   7270     1  180.0000771  0.4184000  2
   3622   7288   7279   7270     1  0.0000000  1.6024720  3
   3625   7318   7309   7300     1  180.0000771  0.4184000  2
   3625   7318   7309   7300     1  0.0000000  1.6024720  3
   3630   3631   3643   3655     1  0.0000000  0.6508444  3
   3630   3634   3646   3652     1  0.0000000  0.6508444  3
   3630   3637   3640   3649     1  0.0000000  0.6508444  3
   3631   3630   3634   3646     1  0.0000000  0.6508444  3
   3631   3630   3637   3640     1  0.0000000  0.6508444  3
   3631   3643   3655   7378     1  0.0000000  0.6508444  3
   3634   3630   3631   3643     1  0.0000000  0.6508444  3
   3634   3630   3637   3640     1  0.0000000  0.6508444  3
   3634   3646   3652   7348     1  0.0000000  0.6508444  3
   3637   3630   3631   3643     1  0.0000000  0.6508444  3
   3637   3630   3634   3646     1  0.0000000  0.6508444  3
   3637   3640   3649   3658     1  0.0000000  0.6508444  3
   3643   3655   7378   7369     1  180.0000771  0.4184000  2
   3643   3655   7378   7369     1  0.0000000  1.6024720  3
   3646   3652   7348   7339     1  180.0000771  0.4184000  2
   3646   3652   7348   7339     1  0.0000000  1.6024720  3
   3652   7348   7339   7330     1  180.0000771  0.4184000  2
   3652   7348   7339   7330     1  0.0000000  1.6024720  3
   3655   7378   7369   7360     1  180.0000771  0.4184000  2
   3655   7378   7369   7360     1  0.0000000  1.6024720  3
   3660   3661   3673   3685     1  0.0000000  0.6508444  3
   3660   3664   3676   3682     1  0.0000000  0.6508444  3
   3660   3667   3670   3679     1  0.0000000  0.6508444  3
   3661   3660   3664   3676     1  0.0000000  0.6508444  3
   3661   3660   3667   3670     1  0.0000000  0.6508444  3
   3661   3673   3685   7438     1  0.0000000  0.6508444  3
   3664   3660   3661   3673     1  0.0000000  0.6508444  3
   3664   3660   3667   3670     1  0.0000000  0.6508444  3
   3664   3676   3682   7408     1  0.0000000  0.6508444  3
   3667   3660   3661   3673     1  0.0000000  0.6508444  3
   3667   3660   3664   3676     1  0.0000000  0.6508444  3
   3667   3670   3679   3688     1  0.0000000  0.6508444  3
   3673   3685   7438   7429     1  180.0000771  0.4184000  2
   3673   3685   7438   7429     1  0.0000000  1.6024720  3
   3676   3682   7408   7399     1  180.0000771  0.4184000  2
   3676   3682   7408   7399     1  0.0000000  1.6024720  3
   3682   7408   7399   7390     1  180.0000771  0.4184000  2
   3682   7408   7399   7390     1  0.0000000  1.6024720  3
   3685   7438   7429   7420     1  180.0000771  0.4184000  2
   3685   7438   7429   7420     1  0.0000000  1.6024720  3
   3690   3691   3703   3715     1  0.0000000  0.6508444  3
   3690   3694   3706   3712     1  0.0000000  0.6508444  3
   3690   3697   3700   3709     1  0.0000000  0.6508444  3
   3691   3690   3694   3706     1  0.0000000  0.6508444  3
   3691   3690   3697   3700     1  0.0000000  0.6508444  3
   3691   3703   3715   7498     1  0.0000000  0.6508444  3
   3694   3690   3691   3703     1  0.0000000  0.6508444  3
   3694   3690   3697   3700     1  0.0000000  0.6508444  3
   3694   3706   3712   7468     1  0.0000000  0.6508444  3
   3697   3690   3691   3703     1  0.0000000  0.6508444  3
   3697   3690   3694   3706     1  0.0000000  0.6508444  3
   3697   3700   3709   3718     1  0.0000000  0.6508444  3
   3703   3715   7498   7489     1  180.0000771  0.4184000  2
   3703   3715   7498   7489     1  0.0000000  1.6024720  3
   3706   3712   7468   7459     1  180.0000771  0.4184000  2
   3706   3712   7468   7459     1  0.0000000  1.6024720  3
   3712   7468   7459   7450     1  180.0000771  0.4184000  2
   3712   7468   7459   7450     1  0.0000000  1.6024720  3
   3715   7498   7489   7480     1  180.0000771  0.4184000  2
   3715   7498   7489   7480     1  0.0000000  1.6024720  3
   3720   3721   3733   3745     1  0.0000000  0.6508444  3
   3720   3724   3736   3742     1  0.0000000  0.6508444  3
   3720   3727   3730   3739     1  0.0000000  0.6508444  3
   3721   3720   3724   3736     1  0.0000000  0.6508444  3
   3721   3720   3727   3730     1  0.0000000  0.6508444  3
   3721   3733   3745   7558     1  0.0000000  0.6508444  3
   3724   3720   3721   3733     1  0.0000000  0.6508444  3
   3724   3720   3727   3730     1  0.0000000  0.6508444  3
   3724   3736   3742   7528     1  0.0000000  0.6508444  3
   3727   3720   3721   3733     1  0.0000000  0.6508444  3
   3727   3720   3724   3736     1  0.0000000  0.6508444  3
   3727   3730   3739   3748     1  0.0000000  0.6508444  3
   3733   3745   7558   7549     1  180.0000771  0.4184000  2
   3733   3745   7558   7549     1  0.0000000  1.6024720  3
   3736   3742   7528   7519     1  180.0000771  0.4184000  2
   3736   3742   7528   7519     1  0.0000000  1.6024720  3
   3742   7528   7519   7510     1  180.0000771  0.4184000  2
   3742   7528   7519   7510     1  0.0000000  1.6024720  3
   3745   7558   7549   7540     1  180.0000771  0.4184000  2
   3745   7558   7549   7540     1  0.0000000  1.6024720  3
   3750   3751   3763   3775     1  0.0000000  0.6508444  3
   3750   3754   3766   3772     1  0.0000000  0.6508444  3
   3750   3757   3760   3769     1  0.0000000  0.6508444  3
   3751   3750   3754   3766     1  0.0000000  0.6508444  3
   3751   3750   3757   3760     1  0.0000000  0.6508444  3
   3751   3763   3775   7618     1  0.0000000  0.6508444  3
   3754   3750   3751   3763     1  0.0000000  0.6508444  3
   3754   3750   3757   3760     1  0.0000000  0.6508444  3
   3754   3766   3772   7588     1  0.0000000  0.6508444  3
   3757   3750   3751   3763     1  0.0000000  0.6508444  3
   3757   3750   3754   3766     1  0.0000000  0.6508444  3
   3757   3760   3769   3778     1  0.0000000  0.6508444  3
   3763   3775   7618   7609     1  180.0000771  0.4184000  2
   3763   3775   7618   7609     1  0.0000000  1.6024720  3
   3766   3772   7588   7579     1  180.0000771  0.4184000  2
   3766   3772   7588   7579     1  0.0000000  1.6024720  3
   3772   7588   7579   7570     1  180.0000771  0.4184000  2
   3772   7588   7579   7570     1  0.0000000  1.6024720  3
   3775   7618   7609   7600     1  180.0000771  0.4184000  2
   3775   7618   7609   7600     1  0.0000000  1.6024720  3
   3780   3781   3793   3805     1  0.0000000  0.6508444  3
   3780   3784   3796   3802     1  0.0000000  0.6508444  3
   3780   3787   3790   3799     1  0.0000000  0.6508444  3
   3781   3780   3784   3796     1  0.0000000  0.6508444  3
   3781   3780   3787   3790     1  0.0000000  0.6508444  3
   3781   3793   3805   7678     1  0.0000000  0.6508444  3
   3784   3780   3781   3793     1  0.0000000  0.6508444  3
   3784   3780   3787   3790     1  0.0000000  0.6508444  3
   3784   3796   3802   7648     1  0.0000000  0.6508444  3
   3787   3780   3781   3793     1  0.0000000  0.6508444  3
   3787   3780   3784   3796     1  0.0000000  0.6508444  3
   3787   3790   3799   3808     1  0.0000000  0.6508444  3
   3793   3805   7678   7669     1  180.0000771  0.4184000  2
   3793   3805   7678   7669     1  0.0000000  1.6024720  3
   3796   3802   7648   7639     1  180.0000771  0.4184000  2
   3796   3802   7648   7639     1  0.0000000  1.6024720  3
   3802   7648   7639   7630     1  180.0000771  0.4184000  2
   3802   7648   7639   7630     1  0.0000000  1.6024720  3
   3805   7678   7669   7660     1  180.0000771  0.4184000  2
   3805   7678   7669   7660     1  0.0000000  1.6024720  3
   3810   3811   3823   3835     1  0.0000000  0.6508444  3
   3810   3814   3826   3832     1  0.0000000  0.6508444  3
   3810   3817   3820   3829     1  0.0000000  0.6508444  3
   3811   3810   3814   3826     1  0.0000000  0.6508444  3
   3811   3810   3817   3820     1  0.0000000  0.6508444  3
   3811   3823   3835   7738     1  0.0000000  0.6508444  3
   3814   3810   3811   3823     1  0.0000000  0.6508444  3
   3814   3810   3817   3820     1  0.0000000  0.6508444  3
   3814   3826   3832   7708     1  0.0000000  0.6508444  3
   3817   3810   3811   3823     1  0.0000000  0.6508444  3
   3817   3810   3814   3826     1  0.0000000  0.6508444  3
   3817   3820   3829   3838     1  0.0000000  0.6508444  3
   3823   3835   7738   7729     1  180.0000771  0.4184000  2
   3823   3835   7738   7729     1  0.0000000  1.6024720  3
   3826   3832   7708   7699     1  180.0000771  0.4184000  2
   3826   3832   7708   7699     1  0.0000000  1.6024720  3
   3832   7708   7699   7690     1  180.0000771  0.4184000  2
   3832   7708   7699   7690     1  0.0000000  1.6024720  3
   3835   7738   7729   7720     1  180.0000771  0.4184000  2
   3835   7738   7729   7720     1  0.0000000  1.6024720  3
   3840   3841   3853   3865     1  0.0000000  0.6508444  3
   3840   3844   3856   3862     1  0.0000000  0.6508444  3
   3840   3847   3850   3859     1  0.0000000  0.6508444  3
   3841   3840   3844   3856     1  0.0000000  0.6508444  3
   3841   3840   3847   3850     1  0.0000000  0.6508444  3
   3841   3853   3865   7798     1  0.0000000  0.6508444  3
   3844   3840   3841   3853     1  0.0000000  0.6508444  3
   3844   3840   3847   3850     1  0.0000000  0.6508444  3
   3844   3856   3862   7768     1  0.0000000  0.6508444  3
   3847   3840   3841   3853     1  0.0000000  0.6508444  3
   3847   3840   3844   3856     1  0.0000000  0.6508444  3
   3847   3850   3859   3868     1  0.0000000  0.6508444  3
   3853   3865   7798   7789     1  180.0000771  0.4184000  2
   3853   3865   7798   7789     1  0.0000000  1.6024720  3
   3856   3862   7768   7759     1  180.0000771  0.4184000  2
   3856   3862   7768   7759     1  0.0000000  1.6024720  3
   3862   7768   7759   7750     1  180.0000771  0.4184000  2
   3862   7768   7759   7750     1  0.0000000  1.6024720  3
   3865   7798   7789   7780     1  180.0000771  0.4184000  2
   3865   7798   7789   7780     1  0.0000000  1.6024720  3
   3870   3871   3883   3895     1  0.0000000  0.6508444  3
   3870   3874   3886   3892     1  0.0000000  0.6508444  3
   3870   3877   3880   3889     1  0.0000000  0.6508444  3
   3871   3870   3874   3886     1  0.0000000  0.6508444  3
   3871   3870   3877   3880     1  0.0000000  0.6508444  3
   3871   3883   3895   7858     1  0.0000000  0.6508444  3
   3874   3870   3871   3883     1  0.0000000  0.6508444  3
   3874   3870   3877   3880     1  0.0000000  0.6508444  3
   3874   3886   3892   7828     1  0.0000000  0.6508444  3
   3877   3870   3871   3883     1  0.0000000  0.6508444  3
   3877   3870   3874   3886     1  0.0000000  0.6508444  3
   3877   3880   3889   3898     1  0.0000000  0.6508444  3
   3883   3895   7858   7849     1  180.0000771  0.4184000  2
   3883   3895   7858   7849     1  0.0000000  1.6024720  3
   3886   3892   7828   7819     1  180.0000771  0.4184000  2
   3886   3892   7828   7819     1  0.0000000  1.6024720  3
   3892   7828   7819   7810     1  180.0000771  0.4184000  2
   3892   7828   7819   7810     1  0.0000000  1.6024720  3
   3895   7858   7849   7840     1  180.0000771  0.4184000  2
   3895   7858   7849   7840     1  0.0000000  1.6024720  3
   3900   3901   3913   3925     1  0.0000000  0.6508444  3
   3900   3904   3916   3922     1  0.0000000  0.6508444  3
   3900   3907   3910   3919     1  0.0000000  0.6508444  3
   3901   3900   3904   3916     1  0.0000000  0.6508444  3
   3901   3900   3907   3910     1  0.0000000  0.6508444  3
   3901   3913   3925   7918     1  0.0000000  0.6508444  3
   3904   3900   3901   3913     1  0.0000000  0.6508444  3
   3904   3900   3907   3910     1  0.0000000  0.6508444  3
   3904   3916   3922   7888     1  0.0000000  0.6508444  3
   3907   3900   3901   3913     1  0.0000000  0.6508444  3
   3907   3900   3904   3916     1  0.0000000  0.6508444  3
   3907   3910   3919   3928     1  0.0000000  0.6508444  3
   3913   3925   7918   7909     1  180.0000771  0.4184000  2
   3913   3925   7918   7909     1  0.0000000  1.6024720  3
   3916   3922   7888   7879     1  180.0000771  0.4184000  2
   3916   3922   7888   7879     1  0.0000000  1.6024720  3
   3922   7888   7879   7870     1  180.0000771  0.4184000  2
   3922   7888   7879   7870     1  0.0000000  1.6024720  3
   3925   7918   7909   7900     1  180.0000771  0.4184000  2
   3925   7918   7909   7900     1  0.0000000  1.6024720  3
   3930   3931   3943   3955     1  0.0000000  0.6508444  3
   3930   3934   3946   3952     1  0.0000000  0.6508444  3
   3930   3937   3940   3949     1  0.0000000  0.6508444  3
   3931   3930   3934   3946     1  0.0000000  0.6508444  3
   3931   3930   3937   3940     1  0.0000000  0.6508444  3
   3931   3943   3955   7978     1  0.0000000  0.6508444  3
   3934   3930   3931   3943     1  0.0000000  0.6508444  3
   3934   3930   3937   3940     1  0.0000000  0.6508444  3
   3934   3946   3952   7948     1  0.0000000  0.6508444  3
   3937   3930   3931   3943     1  0.0000000  0.6508444  3
   3937   3930   3934   3946     1  0.0000000  0.6508444  3
   3937   3940   3949   3958     1  0.0000000  0.6508444  3
   3943   3955   7978   7969     1  180.0000771  0.4184000  2
   3943   3955   7978   7969     1  0.0000000  1.6024720  3
   3946   3952   7948   7939     1  180.0000771  0.4184000  2
   3946   3952   7948   7939     1  0.0000000  1.6024720  3
   3952   7948   7939   7930     1  180.0000771  0.4184000  2
   3952   7948   7939   7930     1  0.0000000  1.6024720  3
   3955   7978   7969   7960     1  180.0000771  0.4184000  2
   3955   7978   7969   7960     1  0.0000000  1.6024720  3
   3960   3961   3973   3985     1  0.0000000  0.6508444  3
   3960   3964   3976   3982     1  0.0000000  0.6508444  3
   3960   3967   3970   3979     1  0.0000000  0.6508444  3
   3961   3960   3964   3976     1  0.0000000  0.6508444  3
   3961   3960   3967   3970     1  0.0000000  0.6508444  3
   3961   3973   3985   8038     1  0.0000000  0.6508444  3
   3964   3960   3961   3973     1  0.0000000  0.6508444  3
   3964   3960   3967   3970     1  0.0000000  0.6508444  3
   3964   3976   3982   8008     1  0.0000000  0.6508444  3
   3967   3960   3961   3973     1  0.0000000  0.6508444  3
   3967   3960   3964   3976     1  0.0000000  0.6508444  3
   3967   3970   3979   3988     1  0.0000000  0.6508444  3
   3973   3985   8038   8029     1  180.0000771  0.4184000  2
   3973   3985   8038   8029     1  0.0000000  1.6024720  3
   3976   3982   8008   7999     1  180.0000771  0.4184000  2
   3976   3982   8008   7999     1  0.0000000  1.6024720  3
   3982   8008   7999   7990     1  180.0000771  0.4184000  2
   3982   8008   7999   7990     1  0.0000000  1.6024720  3
   3985   8038   8029   8020     1  180.0000771  0.4184000  2
   3985   8038   8029   8020     1  0.0000000  1.6024720  3
   3990   3991   4003   4015     1  0.0000000  0.6508444  3
   3990   3994   4006   4012     1  0.0000000  0.6508444  3
   3990   3997   4000   4009     1  0.0000000  0.6508444  3
   3991   3990   3994   4006     1  0.0000000  0.6508444  3
   3991   3990   3997   4000     1  0.0000000  0.6508444  3
   3991   4003   4015   8098     1  0.0000000  0.6508444  3
   3994   3990   3991   4003     1  0.0000000  0.6508444  3
   3994   3990   3997   4000     1  0.0000000  0.6508444  3
   3994   4006   4012   8068     1  0.0000000  0.6508444  3
   3997   3990   3991   4003     1  0.0000000  0.6508444  3
   3997   3990   3994   4006     1  0.0000000  0.6508444  3
   3997   4000   4009   4018     1  0.0000000  0.6508444  3
   4003   4015   8098   8089     1  180.0000771  0.4184000  2
   4003   4015   8098   8089     1  0.0000000  1.6024720  3
   4006   4012   8068   8059     1  180.0000771  0.4184000  2
   4006   4012   8068   8059     1  0.0000000  1.6024720  3
   4012   8068   8059   8050     1  180.0000771  0.4184000  2
   4012   8068   8059   8050     1  0.0000000  1.6024720  3
   4015   8098   8089   8080     1  180.0000771  0.4184000  2
   4015   8098   8089   8080     1  0.0000000  1.6024720  3
   4020   4021   4033   4045     1  0.0000000  0.6508444  3
   4020   4024   4036   4042     1  0.0000000  0.6508444  3
   4020   4027   4030   4039     1  0.0000000  0.6508444  3
   4021   4020   4024   4036     1  0.0000000  0.6508444  3
   4021   4020   4027   4030     1  0.0000000  0.6508444  3
   4021   4033   4045   8158     1  0.0000000  0.6508444  3
   4024   4020   4021   4033     1  0.0000000  0.6508444  3
   4024   4020   4027   4030     1  0.0000000  0.6508444  3
   4024   4036   4042   8128     1  0.0000000  0.6508444  3
   4027   4020   4021   4033     1  0.0000000  0.6508444  3
   4027   4020   4024   4036     1  0.0000000  0.6508444  3
   4027   4030   4039   4048     1  0.0000000  0.6508444  3
   4033   4045   8158   8149     1  180.0000771  0.4184000  2
   4033   4045   8158   8149     1  0.0000000  1.6024720  3
   4036   4042   8128   8119     1  180.0000771  0.4184000  2
   4036   4042   8128   8119     1  0.0000000  1.6024720  3
   4042   8128   8119   8110     1  180.0000771  0.4184000  2
   4042   8128   8119   8110     1  0.0000000  1.6024720  3
   4045   8158   8149   8140     1  180.0000771  0.4184000  2
   4045   8158   8149   8140     1  0.0000000  1.6024720  3
   4050   4051   4063   4075     1  0.0000000  0.6508444  3
   4050   4054   4066   4072     1  0.0000000  0.6508444  3
   4050   4057   4060   4069     1  0.0000000  0.6508444  3
   4051   4050   4054   4066     1  0.0000000  0.6508444  3
   4051   4050   4057   4060     1  0.0000000  0.6508444  3
   4051   4063   4075   8218     1  0.0000000  0.6508444  3
   4054   4050   4051   4063     1  0.0000000  0.6508444  3
   4054   4050   4057   4060     1  0.0000000  0.6508444  3
   4054   4066   4072   8188     1  0.0000000  0.6508444  3
   4057   4050   4051   4063     1  0.0000000  0.6508444  3
   4057   4050   4054   4066     1  0.0000000  0.6508444  3
   4057   4060   4069   4078     1  0.0000000  0.6508444  3
   4063   4075   8218   8209     1  180.0000771  0.4184000  2
   4063   4075   8218   8209     1  0.0000000  1.6024720  3
   4066   4072   8188   8179     1  180.0000771  0.4184000  2
   4066   4072   8188   8179     1  0.0000000  1.6024720  3
   4072   8188   8179   8170     1  180.0000771  0.4184000  2
   4072   8188   8179   8170     1  0.0000000  1.6024720  3
   4075   8218   8209   8200     1  180.0000771  0.4184000  2
   4075   8218   8209   8200     1  0.0000000  1.6024720  3
   4080   4081   4093   4105     1  0.0000000  0.6508444  3
   4080   4084   4096   4102     1  0.0000000  0.6508444  3
   4080   4087   4090   4099     1  0.0000000  0.6508444  3
   4081   4080   4084   4096     1  0.0000000  0.6508444  3
   4081   4080   4087   4090     1  0.0000000  0.6508444  3
   4081   4093   4105   8278     1  0.0000000  0.6508444  3
   4084   4080   4081   4093     1  0.0000000  0.6508444  3
   4084   4080   4087   4090     1  0.0000000  0.6508444  3
   4084   4096   4102   8248     1  0.0000000  0.6508444  3
   4087   4080   4081   4093     1  0.0000000  0.6508444  3
   4087   4080   4084   4096     1  0.0000000  0.6508444  3
   4087   4090   4099   4108     1  0.0000000  0.6508444  3
   4093   4105   8278   8269     1  180.0000771  0.4184000  2
   4093   4105   8278   8269     1  0.0000000  1.6024720  3
   4096   4102   8248   8239     1  180.0000771  0.4184000  2
   4096   4102   8248   8239     1  0.0000000  1.6024720  3
   4102   8248   8239   8230     1  180.0000771  0.4184000  2
   4102   8248   8239   8230     1  0.0000000  1.6024720  3
   4105   8278   8269   8260     1  180.0000771  0.4184000  2
   4105   8278   8269   8260     1  0.0000000  1.6024720  3
   4110   4111   4123   4135     1  0.0000000  0.6508444  3
   4110   4114   4126   4132     1  0.0000000  0.6508444  3
   4110   4117   4120   4129     1  0.0000000  0.6508444  3
   4111   4110   4114   4126     1  0.0000000  0.6508444  3
   4111   4110   4117   4120     1  0.0000000  0.6508444  3
   4111   4123   4135   8338     1  0.0000000  0.6508444  3
   4114   4110   4111   4123     1  0.0000000  0.6508444  3
   4114   4110   4117   4120     1  0.0000000  0.6508444  3
   4114   4126   4132   8308     1  0.0000000  0.6508444  3
   4117   4110   4111   4123     1  0.0000000  0.6508444  3
   4117   4110   4114   4126     1  0.0000000  0.6508444  3
   4117   4120   4129   4138     1  0.0000000  0.6508444  3
   4123   4135   8338   8329     1  180.0000771  0.4184000  2
   4123   4135   8338   8329     1  0.0000000  1.6024720  3
   4126   4132   8308   8299     1  180.0000771  0.4184000  2
   4126   4132   8308   8299     1  0.0000000  1.6024720  3
   4132   8308   8299   8290     1  180.0000771  0.4184000  2
   4132   8308   8299   8290     1  0.0000000  1.6024720  3
   4135   8338   8329   8320     1  180.0000771  0.4184000  2
   4135   8338   8329   8320     1  0.0000000  1.6024720  3
   4140   4141   4153   4165     1  0.0000000  0.6508444  3
   4140   4144   4156   4162     1  0.0000000  0.6508444  3
   4140   4147   4150   4159     1  0.0000000  0.6508444  3
   4141   4140   4144   4156     1  0.0000000  0.6508444  3
   4141   4140   4147   4150     1  0.0000000  0.6508444  3
   4141   4153   4165   8398     1  0.0000000  0.6508444  3
   4144   4140   4141   4153     1  0.0000000  0.6508444  3
   4144   4140   4147   4150     1  0.0000000  0.6508444  3
   4144   4156   4162   8368     1  0.0000000  0.6508444  3
   4147   4140   4141   4153     1  0.0000000  0.6508444  3
   4147   4140   4144   4156     1  0.0000000  0.6508444  3
   4147   4150   4159   4168     1  0.0000000  0.6508444  3
   4153   4165   8398   8389     1  180.0000771  0.4184000  2
   4153   4165   8398   8389     1  0.0000000  1.6024720  3
   4156   4162   8368   8359     1  180.0000771  0.4184000  2
   4156   4162   8368   8359     1  0.0000000  1.6024720  3
   4162   8368   8359   8350     1  180.0000771  0.4184000  2
   4162   8368   8359   8350     1  0.0000000  1.6024720  3
   4165   8398   8389   8380     1  180.0000771  0.4184000  2
   4165   8398   8389   8380     1  0.0000000  1.6024720  3
   4170   4171   4183   4195     1  0.0000000  0.6508444  3
   4170   4174   4186   4192     1  0.0000000  0.6508444  3
   4170   4177   4180   4189     1  0.0000000  0.6508444  3
   4171   4170   4174   4186     1  0.0000000  0.6508444  3
   4171   4170   4177   4180     1  0.0000000  0.6508444  3
   4171   4183   4195   8458     1  0.0000000  0.6508444  3
   4174   4170   4171   4183     1  0.0000000  0.6508444  3
   4174   4170   4177   4180     1  0.0000000  0.6508444  3
   4174   4186   4192   8428     1  0.0000000  0.6508444  3
   4177   4170   4171   4183     1  0.0000000  0.6508444  3
   4177   4170   4174   4186     1  0.0000000  0.6508444  3
   4177   4180   4189   4198     1  0.0000000  0.6508444  3
   4183   4195   8458   8449     1  180.0000771  0.4184000  2
   4183   4195   8458   8449     1  0.0000000  1.6024720  3
   4186   4192   8428   8419     1  180.0000771  0.4184000  2
   4186   4192   8428   8419     1  0.0000000  1.6024720  3
   4192   8428   8419   8410     1  180.0000771  0.4184000  2
   4192   8428   8419   8410     1  0.0000000  1.6024720  3
   4195   8458   8449   8440     1  180.0000771  0.4184000  2
   4195   8458   8449   8440     1  0.0000000  1.6024720  3
   4200   4201   4213   4225     1  0.0000000  0.6508444  3
   4200   4204   4216   4222     1  0.0000000  0.6508444  3
   4200   4207   4210   4219     1  0.0000000  0.6508444  3
   4201   4200   4204   4216     1  0.0000000  0.6508444  3
   4201   4200   4207   4210     1  0.0000000  0.6508444  3
   4201   4213   4225   8518     1  0.0000000  0.6508444  3
   4204   4200   4201   4213     1  0.0000000  0.6508444  3
   4204   4200   4207   4210     1  0.0000000  0.6508444  3
   4204   4216   4222   8488     1  0.0000000  0.6508444  3
   4207   4200   4201   4213     1  0.0000000  0.6508444  3
   4207   4200   4204   4216     1  0.0000000  0.6508444  3
   4207   4210   4219   4228     1  0.0000000  0.6508444  3
   4213   4225   8518   8509     1  180.0000771  0.4184000  2
   4213   4225   8518   8509     1  0.0000000  1.6024720  3
   4216   4222   8488   8479     1  180.0000771  0.4184000  2
   4216   4222   8488   8479     1  0.0000000  1.6024720  3
   4222   8488   8479   8470     1  180.0000771  0.4184000  2
   4222   8488   8479   8470     1  0.0000000  1.6024720  3
   4225   8518   8509   8500     1  180.0000771  0.4184000  2
   4225   8518   8509   8500     1  0.0000000  1.6024720  3
   4230   4231   4243   4255     1  0.0000000  0.6508444  3
   4230   4234   4246   4252     1  0.0000000  0.6508444  3
   4230   4237   4240   4249     1  0.0000000  0.6508444  3
   4231   4230   4234   4246     1  0.0000000  0.6508444  3
   4231   4230   4237   4240     1  0.0000000  0.6508444  3
   4231   4243   4255   8578     1  0.0000000  0.6508444  3
   4234   4230   4231   4243     1  0.0000000  0.6508444  3
   4234   4230   4237   4240     1  0.0000000  0.6508444  3
   4234   4246   4252   8548     1  0.0000000  0.6508444  3
   4237   4230   4231   4243     1  0.0000000  0.6508444  3
   4237   4230   4234   4246     1  0.0000000  0.6508444  3
   4237   4240   4249   4258     1  0.0000000  0.6508444  3
   4243   4255   8578   8569     1  180.0000771  0.4184000  2
   4243   4255   8578   8569     1  0.0000000  1.6024720  3
   4246   4252   8548   8539     1  180.0000771  0.4184000  2
   4246   4252   8548   8539     1  0.0000000  1.6024720  3
   4252   8548   8539   8530     1  180.0000771  0.4184000  2
   4252   8548   8539   8530     1  0.0000000  1.6024720  3
   4255   8578   8569   8560     1  180.0000771  0.4184000  2
   4255   8578   8569   8560     1  0.0000000  1.6024720  3
   4260   4261   4273   4285     1  0.0000000  0.6508444  3
   4260   4264   4276   4282     1  0.0000000  0.6508444  3
   4260   4267   4270   4279     1  0.0000000  0.6508444  3
   4261   4260   4264   4276     1  0.0000000  0.6508444  3
   4261   4260   4267   4270     1  0.0000000  0.6508444  3
   4261   4273   4285   8638     1  0.0000000  0.6508444  3
   4264   4260   4261   4273     1  0.0000000  0.6508444  3
   4264   4260   4267   4270     1  0.0000000  0.6508444  3
   4264   4276   4282   8608     1  0.0000000  0.6508444  3
   4267   4260   4261   4273     1  0.0000000  0.6508444  3
   4267   4260   4264   4276     1  0.0000000  0.6508444  3
   4267   4270   4279   4288     1  0.0000000  0.6508444  3
   4273   4285   8638   8629     1  180.0000771  0.4184000  2
   4273   4285   8638   8629     1  0.0000000  1.6024720  3
   4276   4282   8608   8599     1  180.0000771  0.4184000  2
   4276   4282   8608   8599     1  0.0000000  1.6024720  3
   4282   8608   8599   8590     1  180.0000771  0.4184000  2
   4282   8608   8599   8590     1  0.0000000  1.6024720  3
   4285   8638   8629   8620     1  180.0000771  0.4184000  2
   4285   8638   8629   8620     1  0.0000000  1.6024720  3
   4290   4291   4303   4315     1  0.0000000  0.6508444  3
   4290   4294   4306   4312     1  0.0000000  0.6508444  3
   4290   4297   4300   4309     1  0.0000000  0.6508444  3
   4291   4290   4294   4306     1  0.0000000  0.6508444  3
   4291   4290   4297   4300     1  0.0000000  0.6508444  3
   4291   4303   4315   8698     1  0.0000000  0.6508444  3
   4294   4290   4291   4303     1  0.0000000  0.6508444  3
   4294   4290   4297   4300     1  0.0000000  0.6508444  3
   4294   4306   4312   8668     1  0.0000000  0.6508444  3
   4297   4290   4291   4303     1  0.0000000  0.6508444  3
   4297   4290   4294   4306     1  0.0000000  0.6508444  3
   4297   4300   4309   4318     1  0.0000000  0.6508444  3
   4303   4315   8698   8689     1  180.0000771  0.4184000  2
   4303   4315   8698   8689     1  0.0000000  1.6024720  3
   4306   4312   8668   8659     1  180.0000771  0.4184000  2
   4306   4312   8668   8659     1  0.0000000  1.6024720  3
   4312   8668   8659   8650     1  180.0000771  0.4184000  2
   4312   8668   8659   8650     1  0.0000000  1.6024720  3
   4315   8698   8689   8680     1  180.0000771  0.4184000  2
   4315   8698   8689   8680     1  0.0000000  1.6024720  3
   4320   4321   4333   4345     1  0.0000000  0.6508444  3
   4320   4324   4336   4342     1  0.0000000  0.6508444  3
   4320   4327   4330   4339     1  0.0000000  0.6508444  3
   4321   4320   4324   4336     1  0.0000000  0.6508444  3
   4321   4320   4327   4330     1  0.0000000  0.6508444  3
   4321   4333   4345   8758     1  0.0000000  0.6508444  3
   4324   4320   4321   4333     1  0.0000000  0.6508444  3
   4324   4320   4327   4330     1  0.0000000  0.6508444  3
   4324   4336   4342   8728     1  0.0000000  0.6508444  3
   4327   4320   4321   4333     1  0.0000000  0.6508444  3
   4327   4320   4324   4336     1  0.0000000  0.6508444  3
   4327   4330   4339   4348     1  0.0000000  0.6508444  3
   4333   4345   8758   8749     1  180.0000771  0.4184000  2
   4333   4345   8758   8749     1  0.0000000  1.6024720  3
   4336   4342   8728   8719     1  180.0000771  0.4184000  2
   4336   4342   8728   8719     1  0.0000000  1.6024720  3
   4342   8728   8719   8710     1  180.0000771  0.4184000  2
   4342   8728   8719   8710     1  0.0000000  1.6024720  3
   4345   8758   8749   8740     1  180.0000771  0.4184000  2
   4345   8758   8749   8740     1  0.0000000  1.6024720  3
   4350   4351   4363   4375     1  0.0000000  0.6508444  3
   4350   4354   4366   4372     1  0.0000000  0.6508444  3
   4350   4357   4360   4369     1  0.0000000  0.6508444  3
   4351   4350   4354   4366     1  0.0000000  0.6508444  3
   4351   4350   4357   4360     1  0.0000000  0.6508444  3
   4351   4363   4375   8818     1  0.0000000  0.6508444  3
   4354   4350   4351   4363     1  0.0000000  0.6508444  3
   4354   4350   4357   4360     1  0.0000000  0.6508444  3
   4354   4366   4372   8788     1  0.0000000  0.6508444  3
   4357   4350   4351   4363     1  0.0000000  0.6508444  3
   4357   4350   4354   4366     1  0.0000000  0.6508444  3
   4357   4360   4369   4378     1  0.0000000  0.6508444  3
   4363   4375   8818   8809     1  180.0000771  0.4184000  2
   4363   4375   8818   8809     1  0.0000000  1.6024720  3
   4366   4372   8788   8779     1  180.0000771  0.4184000  2
   4366   4372   8788   8779     1  0.0000000  1.6024720  3
   4372   8788   8779   8770     1  180.0000771  0.4184000  2
   4372   8788   8779   8770     1  0.0000000  1.6024720  3
   4375   8818   8809   8800     1  180.0000771  0.4184000  2
   4375   8818   8809   8800     1  0.0000000  1.6024720  3
   4380   4381   4393   4405     1  0.0000000  0.6508444  3
   4380   4384   4396   4402     1  0.0000000  0.6508444  3
   4380   4387   4390   4399     1  0.0000000  0.6508444  3
   4381   4380   4384   4396     1  0.0000000  0.6508444  3
   4381   4380   4387   4390     1  0.0000000  0.6508444  3
   4381   4393   4405   8878     1  0.0000000  0.6508444  3
   4384   4380   4381   4393     1  0.0000000  0.6508444  3
   4384   4380   4387   4390     1  0.0000000  0.6508444  3
   4384   4396   4402   8848     1  0.0000000  0.6508444  3
   4387   4380   4381   4393     1  0.0000000  0.6508444  3
   4387   4380   4384   4396     1  0.0000000  0.6508444  3
   4387   4390   4399   4408     1  0.0000000  0.6508444  3
   4393   4405   8878   8869     1  180.0000771  0.4184000  2
   4393   4405   8878   8869     1  0.0000000  1.6024720  3
   4396   4402   8848   8839     1  180.0000771  0.4184000  2
   4396   4402   8848   8839     1  0.0000000  1.6024720  3
   4402   8848   8839   8830     1  180.0000771  0.4184000  2
   4402   8848   8839   8830     1  0.0000000  1.6024720  3
   4405   8878   8869   8860     1  180.0000771  0.4184000  2
   4405   8878   8869   8860     1  0.0000000  1.6024720  3
   4410   4411   4423   4435     1  0.0000000  0.6508444  3
   4410   4414   4426   4432     1  0.0000000  0.6508444  3
   4410   4417   4420   4429     1  0.0000000  0.6508444  3
   4411   4410   4414   4426     1  0.0000000  0.6508444  3
   4411   4410   4417   4420     1  0.0000000  0.6508444  3
   4411   4423   4435   8938     1  0.0000000  0.6508444  3
   4414   4410   4411   4423     1  0.0000000  0.6508444  3
   4414   4410   4417   4420     1  0.0000000  0.6508444  3
   4414   4426   4432   8908     1  0.0000000  0.6508444  3
   4417   4410   4411   4423     1  0.0000000  0.6508444  3
   4417   4410   4414   4426     1  0.0000000  0.6508444  3
   4417   4420   4429   4438     1  0.0000000  0.6508444  3
   4423   4435   8938   8929     1  180.0000771  0.4184000  2
   4423   4435   8938   8929     1  0.0000000  1.6024720  3
   4426   4432   8908   8899     1  180.0000771  0.4184000  2
   4426   4432   8908   8899     1  0.0000000  1.6024720  3
   4432   8908   8899   8890     1  180.0000771  0.4184000  2
   4432   8908   8899   8890     1  0.0000000  1.6024720  3
   4435   8938   8929   8920     1  180.0000771  0.4184000  2
   4435   8938   8929   8920     1  0.0000000  1.6024720  3
   4440   4441   4453   4465     1  0.0000000  0.6508444  3
   4440   4444   4456   4462     1  0.0000000  0.6508444  3
   4440   4447   4450   4459     1  0.0000000  0.6508444  3
   4441   4440   4444   4456     1  0.0000000  0.6508444  3
   4441   4440   4447   4450     1  0.0000000  0.6508444  3
   4441   4453   4465   8998     1  0.0000000  0.6508444  3
   4444   4440   4441   4453     1  0.0000000  0.6508444  3
   4444   4440   4447   4450     1  0.0000000  0.6508444  3
   4444   4456   4462   8968     1  0.0000000  0.6508444  3
   4447   4440   4441   4453     1  0.0000000  0.6508444  3
   4447   4440   4444   4456     1  0.0000000  0.6508444  3
   4447   4450   4459   4468     1  0.0000000  0.6508444  3
   4453   4465   8998   8989     1  180.0000771  0.4184000  2
   4453   4465   8998   8989     1  0.0000000  1.6024720  3
   4456   4462   8968   8959     1  180.0000771  0.4184000  2
   4456   4462   8968   8959     1  0.0000000  1.6024720  3
   4462   8968   8959   8950     1  180.0000771  0.4184000  2
   4462   8968   8959   8950     1  0.0000000  1.6024720  3
   4465   8998   8989   8980     1  180.0000771  0.4184000  2
   4465   8998   8989   8980     1  0.0000000  1.6024720  3
   4470   4471   4483   4495     1  0.0000000  0.6508444  3
   4470   4474   4486   4492     1  0.0000000  0.6508444  3
   4470   4477   4480   4489     1  0.0000000  0.6508444  3
   4471   4470   4474   4486     1  0.0000000  0.6508444  3
   4471   4470   4477   4480     1  0.0000000  0.6508444  3
   4471   4483   4495   9058     1  0.0000000  0.6508444  3
   4474   4470   4471   4483     1  0.0000000  0.6508444  3
   4474   4470   4477   4480     1  0.0000000  0.6508444  3
   4474   4486   4492   9028     1  0.0000000  0.6508444  3
   4477   4470   4471   4483     1  0.0000000  0.6508444  3
   4477   4470   4474   4486     1  0.0000000  0.6508444  3
   4477   4480   4489   4498     1  0.0000000  0.6508444  3
   4483   4495   9058   9049     1  180.0000771  0.4184000  2
   4483   4495   9058   9049     1  0.0000000  1.6024720  3
   4486   4492   9028   9019     1  180.0000771  0.4184000  2
   4486   4492   9028   9019     1  0.0000000  1.6024720  3
   4492   9028   9019   9010     1  180.0000771  0.4184000  2
   4492   9028   9019   9010     1  0.0000000  1.6024720  3
   4495   9058   9049   9040     1  180.0000771  0.4184000  2
   4495   9058   9049   9040     1  0.0000000  1.6024720  3
   4500   4501   4513   4525     1  0.0000000  0.6508444  3
   4500   4504   4516   4522     1  0.0000000  0.6508444  3
   4500   4507   4510   4519     1  0.0000000  0.6508444  3
   4501   4500   4504   4516     1  0.0000000  0.6508444  3
   4501   4500   4507   4510     1  0.0000000  0.6508444  3
   4501   4513   4525   9118     1  0.0000000  0.6508444  3
   4504   4500   4501   4513     1  0.0000000  0.6508444  3
   4504   4500   4507   4510     1  0.0000000  0.6508444  3
   4504   4516   4522   9088     1  0.0000000  0.6508444  3
   4507   4500   4501   4513     1  0.0000000  0.6508444  3
   4507   4500   4504   4516     1  0.0000000  0.6508444  3
   4507   4510   4519   4528     1  0.0000000  0.6508444  3
   4513   4525   9118   9109     1  180.0000771  0.4184000  2
   4513   4525   9118   9109     1  0.0000000  1.6024720  3
   4516   4522   9088   9079     1  180.0000771  0.4184000  2
   4516   4522   9088   9079     1  0.0000000  1.6024720  3
   4522   9088   9079   9070     1  180.0000771  0.4184000  2
   4522   9088   9079   9070     1  0.0000000  1.6024720  3
   4525   9118   9109   9100     1  180.0000771  0.4184000  2
   4525   9118   9109   9100     1  0.0000000  1.6024720  3
   4530   4531   4543   4555     1  0.0000000  0.6508444  3
   4530   4534   4546   4552     1  0.0000000  0.6508444  3
   4530   4537   4540   4549     1  0.0000000  0.6508444  3
   4531   4530   4534   4546     1  0.0000000  0.6508444  3
   4531   4530   4537   4540     1  0.0000000  0.6508444  3
   4531   4543   4555   9178     1  0.0000000  0.6508444  3
   4534   4530   4531   4543     1  0.0000000  0.6508444  3
   4534   4530   4537   4540     1  0.0000000  0.6508444  3
   4534   4546   4552   9148     1  0.0000000  0.6508444  3
   4537   4530   4531   4543     1  0.0000000  0.6508444  3
   4537   4530   4534   4546     1  0.0000000  0.6508444  3
   4537   4540   4549   4558     1  0.0000000  0.6508444  3
   4543   4555   9178   9169     1  180.0000771  0.4184000  2
   4543   4555   9178   9169     1  0.0000000  1.6024720  3
   4546   4552   9148   9139     1  180.0000771  0.4184000  2
   4546   4552   9148   9139     1  0.0000000  1.6024720  3
   4552   9148   9139   9130     1  180.0000771  0.4184000  2
   4552   9148   9139   9130     1  0.0000000  1.6024720  3
   4555   9178   9169   9160     1  180.0000771  0.4184000  2
   4555   9178   9169   9160     1  0.0000000  1.6024720  3
   4560   4561   4573   4585     1  0.0000000  0.6508444  3
   4560   4564   4576   4582     1  0.0000000  0.6508444  3
   4560   4567   4570   4579     1  0.0000000  0.6508444  3
   4561   4560   4564   4576     1  0.0000000  0.6508444  3
   4561   4560   4567   4570     1  0.0000000  0.6508444  3
   4561   4573   4585   9238     1  0.0000000  0.6508444  3
   4564   4560   4561   4573     1  0.0000000  0.6508444  3
   4564   4560   4567   4570     1  0.0000000  0.6508444  3
   4564   4576   4582   9208     1  0.0000000  0.6508444  3
   4567   4560   4561   4573     1  0.0000000  0.6508444  3
   4567   4560   4564   4576     1  0.0000000  0.6508444  3
   4567   4570   4579   4588     1  0.0000000  0.6508444  3
   4573   4585   9238   9229     1  180.0000771  0.4184000  2
   4573   4585   9238   9229     1  0.0000000  1.6024720  3
   4576   4582   9208   9199     1  180.0000771  0.4184000  2
   4576   4582   9208   9199     1  0.0000000  1.6024720  3
   4582   9208   9199   9190     1  180.0000771  0.4184000  2
   4582   9208   9199   9190     1  0.0000000  1.6024720  3
   4585   9238   9229   9220     1  180.0000771  0.4184000  2
   4585   9238   9229   9220     1  0.0000000  1.6024720  3
   4590   4591   4603   4615     1  0.0000000  0.6508444  3
   4590   4594   4606   4612     1  0.0000000  0.6508444  3
   4590   4597   4600   4609     1  0.0000000  0.6508444  3
   4591   4590   4594   4606     1  0.0000000  0.6508444  3
   4591   4590   4597   4600     1  0.0000000  0.6508444  3
   4591   4603   4615   9298     1  0.0000000  0.6508444  3
   4594   4590   4591   4603     1  0.0000000  0.6508444  3
   4594   4590   4597   4600     1  0.0000000  0.6508444  3
   4594   4606   4612   9268     1  0.0000000  0.6508444  3
   4597   4590   4591   4603     1  0.0000000  0.6508444  3
   4597   4590   4594   4606     1  0.0000000  0.6508444  3
   4597   4600   4609   4618     1  0.0000000  0.6508444  3
   4603   4615   9298   9289     1  180.0000771  0.4184000  2
   4603   4615   9298   9289     1  0.0000000  1.6024720  3
   4606   4612   9268   9259     1  180.0000771  0.4184000  2
   4606   4612   9268   9259     1  0.0000000  1.6024720  3
   4612   9268   9259   9250     1  180.0000771  0.4184000  2
   4612   9268   9259   9250     1  0.0000000  1.6024720  3
   4615   9298   9289   9280     1  180.0000771  0.4184000  2
   4615   9298   9289   9280     1  0.0000000  1.6024720  3
   4620   4621   4633   4645     1  0.0000000  0.6508444  3
   4620   4624   4636   4642     1  0.0000000  0.6508444  3
   4620   4627   4630   4639     1  0.0000000  0.6508444  3
   4621   4620   4624   4636     1  0.0000000  0.6508444  3
   4621   4620   4627   4630     1  0.0000000  0.6508444  3
   4621   4633   4645   9358     1  0.0000000  0.6508444  3
   4624   4620   4621   4633     1  0.0000000  0.6508444  3
   4624   4620   4627   4630     1  0.0000000  0.6508444  3
   4624   4636   4642   9328     1  0.0000000  0.6508444  3
   4627   4620   4621   4633     1  0.0000000  0.6508444  3
   4627   4620   4624   4636     1  0.0000000  0.6508444  3
   4627   4630   4639   4648     1  0.0000000  0.6508444  3
   4633   4645   9358   9349     1  180.0000771  0.4184000  2
   4633   4645   9358   9349     1  0.0000000  1.6024720  3
   4636   4642   9328   9319     1  180.0000771  0.4184000  2
   4636   4642   9328   9319     1  0.0000000  1.6024720  3
   4642   9328   9319   9310     1  180.0000771  0.4184000  2
   4642   9328   9319   9310     1  0.0000000  1.6024720  3
   4645   9358   9349   9340     1  180.0000771  0.4184000  2
   4645   9358   9349   9340     1  0.0000000  1.6024720  3
   4650   4651   4663   4675     1  0.0000000  0.6508444  3
   4650   4654   4666   4672     1  0.0000000  0.6508444  3
   4650   4657   4660   4669     1  0.0000000  0.6508444  3
   4651   4650   4654   4666     1  0.0000000  0.6508444  3
   4651   4650   4657   4660     1  0.0000000  0.6508444  3
   4651   4663   4675   9418     1  0.0000000  0.6508444  3
   4654   4650   4651   4663     1  0.0000000  0.6508444  3
   4654   4650   4657   4660     1  0.0000000  0.6508444  3
   4654   4666   4672   9388     1  0.0000000  0.6508444  3
   4657   4650   4651   4663     1  0.0000000  0.6508444  3
   4657   4650   4654   4666     1  0.0000000  0.6508444  3
   4657   4660   4669   4678     1  0.0000000  0.6508444  3
   4663   4675   9418   9409     1  180.0000771  0.4184000  2
   4663   4675   9418   9409     1  0.0000000  1.6024720  3
   4666   4672   9388   9379     1  180.0000771  0.4184000  2
   4666   4672   9388   9379     1  0.0000000  1.6024720  3
   4672   9388   9379   9370     1  180.0000771  0.4184000  2
   4672   9388   9379   9370     1  0.0000000  1.6024720  3
   4675   9418   9409   9400     1  180.0000771  0.4184000  2
   4675   9418   9409   9400     1  0.0000000  1.6024720  3
   4680   4681   4693   4705     1  0.0000000  0.6508444  3
   4680   4684   4696   4702     1  0.0000000  0.6508444  3
   4680   4687   4690   4699     1  0.0000000  0.6508444  3
   4681   4680   4684   4696     1  0.0000000  0.6508444  3
   4681   4680   4687   4690     1  0.0000000  0.6508444  3
   4681   4693   4705   9478     1  0.0000000  0.6508444  3
   4684   4680   4681   4693     1  0.0000000  0.6508444  3
   4684   4680   4687   4690     1  0.0000000  0.6508444  3
   4684   4696   4702   9448     1  0.0000000  0.6508444  3
   4687   4680   4681   4693     1  0.0000000  0.6508444  3
   4687   4680   4684   4696     1  0.0000000  0.6508444  3
   4687   4690   4699   4708     1  0.0000000  0.6508444  3
   4693   4705   9478   9469     1  180.0000771  0.4184000  2
   4693   4705   9478   9469     1  0.0000000  1.6024720  3
   4696   4702   9448   9439     1  180.0000771  0.4184000  2
   4696   4702   9448   9439     1  0.0000000  1.6024720  3
   4702   9448   9439   9430     1  180.0000771  0.4184000  2
   4702   9448   9439   9430     1  0.0000000  1.6024720  3
   4705   9478   9469   9460     1  180.0000771  0.4184000  2
   4705   9478   9469   9460     1  0.0000000  1.6024720  3
   4710   4711   4723   4735     1  0.0000000  0.6508444  3
   4710   4714   4726   4732     1  0.0000000  0.6508444  3
   4710   4717   4720   4729     1  0.0000000  0.6508444  3
   4711   4710   4714   4726     1  0.0000000  0.6508444  3
   4711   4710   4717   4720     1  0.0000000  0.6508444  3
   4711   4723   4735   9538     1  0.0000000  0.6508444  3
   4714   4710   4711   4723     1  0.0000000  0.6508444  3
   4714   4710   4717   4720     1  0.0000000  0.6508444  3
   4714   4726   4732   9508     1  0.0000000  0.6508444  3
   4717   4710   4711   4723     1  0.0000000  0.6508444  3
   4717   4710   4714   4726     1  0.0000000  0.6508444  3
   4717   4720   4729   4738     1  0.0000000  0.6508444  3
   4723   4735   9538   9529     1  180.0000771  0.4184000  2
   4723   4735   9538   9529     1  0.0000000  1.6024720  3
   4726   4732   9508   9499     1  180.0000771  0.4184000  2
   4726   4732   9508   9499     1  0.0000000  1.6024720  3
   4732   9508   9499   9490     1  180.0000771  0.4184000  2
   4732   9508   9499   9490     1  0.0000000  1.6024720  3
   4735   9538   9529   9520     1  180.0000771  0.4184000  2
   4735   9538   9529   9520     1  0.0000000  1.6024720  3
   4740   4741   4753   4765     1  0.0000000  0.6508444  3
   4740   4744   4756   4762     1  0.0000000  0.6508444  3
   4740   4747   4750   4759     1  0.0000000  0.6508444  3
   4741   4740   4744   4756     1  0.0000000  0.6508444  3
   4741   4740   4747   4750     1  0.0000000  0.6508444  3
   4741   4753   4765   9598     1  0.0000000  0.6508444  3
   4744   4740   4741   4753     1  0.0000000  0.6508444  3
   4744   4740   4747   4750     1  0.0000000  0.6508444  3
   4744   4756   4762   9568     1  0.0000000  0.6508444  3
   4747   4740   4741   4753     1  0.0000000  0.6508444  3
   4747   4740   4744   4756     1  0.0000000  0.6508444  3
   4747   4750   4759   4768     1  0.0000000  0.6508444  3
   4753   4765   9598   9589     1  180.0000771  0.4184000  2
   4753   4765   9598   9589     1  0.0000000  1.6024720  3
   4756   4762   9568   9559     1  180.0000771  0.4184000  2
   4756   4762   9568   9559     1  0.0000000  1.6024720  3
   4762   9568   9559   9550     1  180.0000771  0.4184000  2
   4762   9568   9559   9550     1  0.0000000  1.6024720  3
   4765   9598   9589   9580     1  180.0000771  0.4184000  2
   4765   9598   9589   9580     1  0.0000000  1.6024720  3
   4770   4771   4783   4795     1  0.0000000  0.6508444  3
   4770   4774   4786   4792     1  0.0000000  0.6508444  3
   4770   4777   4780   4789     1  0.0000000  0.6508444  3
   4771   4770   4774   4786     1  0.0000000  0.6508444  3
   4771   4770   4777   4780     1  0.0000000  0.6508444  3
   4771   4783   4795   9658     1  0.0000000  0.6508444  3
   4774   4770   4771   4783     1  0.0000000  0.6508444  3
   4774   4770   4777   4780     1  0.0000000  0.6508444  3
   4774   4786   4792   9628     1  0.0000000  0.6508444  3
   4777   4770   4771   4783     1  0.0000000  0.6508444  3
   4777   4770   4774   4786     1  0.0000000  0.6508444  3
   4777   4780   4789   4798     1  0.0000000  0.6508444  3
   4783   4795   9658   9649     1  180.0000771  0.4184000  2
   4783   4795   9658   9649     1  0.0000000  1.6024720  3
   4786   4792   9628   9619     1  180.0000771  0.4184000  2
   4786   4792   9628   9619     1  0.0000000  1.6024720  3
   4792   9628   9619   9610     1  180.0000771  0.4184000  2
   4792   9628   9619   9610     1  0.0000000  1.6024720  3
   4795   9658   9649   9640     1  180.0000771  0.4184000  2
   4795   9658   9649   9640     1  0.0000000  1.6024720  3
   4800   4801   4813   4825     1  0.0000000  0.6508444  3
   4800   4804   4816   4822     1  0.0000000  0.6508444  3
   4800   4807   4810   4819     1  0.0000000  0.6508444  3
   4801   4800   4804   4816     1  0.0000000  0.6508444  3
   4801   4800   4807   4810     1  0.0000000  0.6508444  3
   4801   4813   4825   9718     1  0.0000000  0.6508444  3
   4804   4800   4801   4813     1  0.0000000  0.6508444  3
   4804   4800   4807   4810     1  0.0000000  0.6508444  3
   4804   4816   4822   9688     1  0.0000000  0.6508444  3
   4807   4800   4801   4813     1  0.0000000  0.6508444  3
   4807   4800   4804   4816     1  0.0000000  0.6508444  3
   4807   4810   4819   4828     1  0.0000000  0.6508444  3
   4813   4825   9718   9709     1  180.0000771  0.4184000  2
   4813   4825   9718   9709     1  0.0000000  1.6024720  3
   4816   4822   9688   9679     1  180.0000771  0.4184000  2
   4816   4822   9688   9679     1  0.0000000  1.6024720  3
   4822   9688   9679   9670     1  180.0000771  0.4184000  2
   4822   9688   9679   9670     1  0.0000000  1.6024720  3
   4825   9718   9709   9700     1  180.0000771  0.4184000  2
   4825   9718   9709   9700     1  0.0000000  1.6024720  3
   4830   4831   4843   4855     1  0.0000000  0.6508444  3
   4830   4834   4846   4852     1  0.0000000  0.6508444  3
   4830   4837   4840   4849     1  0.0000000  0.6508444  3
   4831   4830   4834   4846     1  0.0000000  0.6508444  3
   4831   4830   4837   4840     1  0.0000000  0.6508444  3
   4831   4843   4855   9778     1  0.0000000  0.6508444  3
   4834   4830   4831   4843     1  0.0000000  0.6508444  3
   4834   4830   4837   4840     1  0.0000000  0.6508444  3
   4834   4846   4852   9748     1  0.0000000  0.6508444  3
   4837   4830   4831   4843     1  0.0000000  0.6508444  3
   4837   4830   4834   4846     1  0.0000000  0.6508444  3
   4837   4840   4849   4858     1  0.0000000  0.6508444  3
   4843   4855   9778   9769     1  180.0000771  0.4184000  2
   4843   4855   9778   9769     1  0.0000000  1.6024720  3
   4846   4852   9748   9739     1  180.0000771  0.4184000  2
   4846   4852   9748   9739     1  0.0000000  1.6024720  3
   4852   9748   9739   9730     1  180.0000771  0.4184000  2
   4852   9748   9739   9730     1  0.0000000  1.6024720  3
   4855   9778   9769   9760     1  180.0000771  0.4184000  2
   4855   9778   9769   9760     1  0.0000000  1.6024720  3
   4860   4861   4873   4885     1  0.0000000  0.6508444  3
   4860   4864   4876   4882     1  0.0000000  0.6508444  3
   4860   4867   4870   4879     1  0.0000000  0.6508444  3
   4861   4860   4864   4876     1  0.0000000  0.6508444  3
   4861   4860   4867   4870     1  0.0000000  0.6508444  3
   4861   4873   4885   9838     1  0.0000000  0.6508444  3
   4864   4860   4861   4873     1  0.0000000  0.6508444  3
   4864   4860   4867   4870     1  0.0000000  0.6508444  3
   4864   4876   4882   9808     1  0.0000000  0.6508444  3
   4867   4860   4861   4873     1  0.0000000  0.6508444  3
   4867   4860   4864   4876     1  0.0000000  0.6508444  3
   4867   4870   4879   4888     1  0.0000000  0.6508444  3
   4873   4885   9838   9829     1  180.0000771  0.4184000  2
   4873   4885   9838   9829     1  0.0000000  1.6024720  3
   4876   4882   9808   9799     1  180.0000771  0.4184000  2
   4876   4882   9808   9799     1  0.0000000  1.6024720  3
   4882   9808   9799   9790     1  180.0000771  0.4184000  2
   4882   9808   9799   9790     1  0.0000000  1.6024720  3
   4885   9838   9829   9820     1  180.0000771  0.4184000  2
   4885   9838   9829   9820     1  0.0000000  1.6024720  3
   4890   4891   4903   4915     1  0.0000000  0.6508444  3
   4890   4894   4906   4912     1  0.0000000  0.6508444  3
   4890   4897   4900   4909     1  0.0000000  0.6508444  3
   4891   4890   4894   4906     1  0.0000000  0.6508444  3
   4891   4890   4897   4900     1  0.0000000  0.6508444  3
   4891   4903   4915   9898     1  0.0000000  0.6508444  3
   4894   4890   4891   4903     1  0.0000000  0.6508444  3
   4894   4890   4897   4900     1  0.0000000  0.6508444  3
   4894   4906   4912   9868     1  0.0000000  0.6508444  3
   4897   4890   4891   4903     1  0.0000000  0.6508444  3
   4897   4890   4894   4906     1  0.0000000  0.6508444  3
   4897   4900   4909   4918     1  0.0000000  0.6508444  3
   4903   4915   9898   9889     1  180.0000771  0.4184000  2
   4903   4915   9898   9889     1  0.0000000  1.6024720  3
   4906   4912   9868   9859     1  180.0000771  0.4184000  2
   4906   4912   9868   9859     1  0.0000000  1.6024720  3
   4912   9868   9859   9850     1  180.0000771  0.4184000  2
   4912   9868   9859   9850     1  0.0000000  1.6024720  3
   4915   9898   9889   9880     1  180.0000771  0.4184000  2
   4915   9898   9889   9880     1  0.0000000  1.6024720  3
   4920   4921   4933   4945     1  0.0000000  0.6508444  3
   4920   4924   4936   4942     1  0.0000000  0.6508444  3
   4920   4927   4930   4939     1  0.0000000  0.6508444  3
   4921   4920   4924   4936     1  0.0000000  0.6508444  3
   4921   4920   4927   4930     1  0.0000000  0.6508444  3
   4921   4933   4945   9958     1  0.0000000  0.6508444  3
   4924   4920   4921   4933     1  0.0000000  0.6508444  3
   4924   4920   4927   4930     1  0.0000000  0.6508444  3
   4924   4936   4942   9928     1  0.0000000  0.6508444  3
   4927   4920   4921   4933     1  0.0000000  0.6508444  3
   4927   4920   4924   4936     1  0.0000000  0.6508444  3
   4927   4930   4939   4948     1  0.0000000  0.6508444  3
   4933   4945   9958   9949     1  180.0000771  0.4184000  2
   4933   4945   9958   9949     1  0.0000000  1.6024720  3
   4936   4942   9928   9919     1  180.0000771  0.4184000  2
   4936   4942   9928   9919     1  0.0000000  1.6024720  3
   4942   9928   9919   9910     1  180.0000771  0.4184000  2
   4942   9928   9919   9910     1  0.0000000  1.6024720  3
   4945   9958   9949   9940     1  180.0000771  0.4184000  2
   4945   9958   9949   9940     1  0.0000000  1.6024720  3
   4950   4951   4963   4975     1  0.0000000  0.6508444  3
   4950   4954   4966   4972     1  0.0000000  0.6508444  3
   4950   4957   4960   4969     1  0.0000000  0.6508444  3
   4951   4950   4954   4966     1  0.0000000  0.6508444  3
   4951   4950   4957   4960     1  0.0000000  0.6508444  3
   4951   4963   4975  10018     1  0.0000000  0.6508444  3
   4954   4950   4951   4963     1  0.0000000  0.6508444  3
   4954   4950   4957   4960     1  0.0000000  0.6508444  3
   4954   4966   4972   9988     1  0.0000000  0.6508444  3
   4957   4950   4951   4963     1  0.0000000  0.6508444  3
   4957   4950   4954   4966     1  0.0000000  0.6508444  3
   4957   4960   4969   4978     1  0.0000000  0.6508444  3
   4963   4975  10018  10009     1  180.0000771  0.4184000  2
   4963   4975  10018  10009     1  0.0000000  1.6024720  3
   4966   4972   9988   9979     1  180.0000771  0.4184000  2
   4966   4972   9988   9979     1  0.0000000  1.6024720  3
   4972   9988   9979   9970     1  180.0000771  0.4184000  2
   4972   9988   9979   9970     1  0.0000000  1.6024720  3
   4975  10018  10009  10000     1  180.0000771  0.4184000  2
   4975  10018  10009  10000     1  0.0000000  1.6024720  3
   4980   4981   4993   5005     1  0.0000000  0.6508444  3
   4980   4984   4996   5002     1  0.0000000  0.6508444  3
   4980   4987   4990   4999     1  0.0000000  0.6508444  3
   4981   4980   4984   4996     1  0.0000000  0.6508444  3
   4981   4980   4987   4990     1  0.0000000  0.6508444  3
   4981   4993   5005  10078     1  0.0000000  0.6508444  3
   4984   4980   4981   4993     1  0.0000000  0.6508444  3
   4984   4980   4987   4990     1  0.0000000  0.6508444  3
   4984   4996   5002  10048     1  0.0000000  0.6508444  3
   4987   4980   4981   4993     1  0.0000000  0.6508444  3
   4987   4980   4984   4996     1  0.0000000  0.6508444  3
   4987   4990   4999   5008     1  0.0000000  0.6508444  3
   4993   5005  10078  10069     1  180.0000771  0.4184000  2
   4993   5005  10078  10069     1  0.0000000  1.6024720  3
   4996   5002  10048  10039     1  180.0000771  0.4184000  2
   4996   5002  10048  10039     1  0.0000000  1.6024720  3
   5002  10048  10039  10030     1  180.0000771  0.4184000  2
   5002  10048  10039  10030     1  0.0000000  1.6024720  3
   5005  10078  10069  10060     1  180.0000771  0.4184000  2
   5005  10078  10069  10060     1  0.0000000  1.6024720  3
   5010   5011   5023   5035     1  0.0000000  0.6508444  3
   5010   5014   5026   5032     1  0.0000000  0.6508444  3
   5010   5017   5020   5029     1  0.0000000  0.6508444  3
   5011   5010   5014   5026     1  0.0000000  0.6508444  3
   5011   5010   5017   5020     1  0.0000000  0.6508444  3
   5011   5023   5035  10138     1  0.0000000  0.6508444  3
   5014   5010   5011   5023     1  0.0000000  0.6508444  3
   5014   5010   5017   5020     1  0.0000000  0.6508444  3
   5014   5026   5032  10108     1  0.0000000  0.6508444  3
   5017   5010   5011   5023     1  0.0000000  0.6508444  3
   5017   5010   5014   5026     1  0.0000000  0.6508444  3
   5017   5020   5029   5038     1  0.0000000  0.6508444  3
   5023   5035  10138  10129     1  180.0000771  0.4184000  2
   5023   5035  10138  10129     1  0.0000000  1.6024720  3
   5026   5032  10108  10099     1  180.0000771  0.4184000  2
   5026   5032  10108  10099     1  0.0000000  1.6024720  3
   5032  10108  10099  10090     1  180.0000771  0.4184000  2
   5032  10108  10099  10090     1  0.0000000  1.6024720  3
   5035  10138  10129  10120     1  180.0000771  0.4184000  2
   5035  10138  10129  10120     1  0.0000000  1.6024720  3
   5040   5041   5053   5065     1  0.0000000  0.6508444  3
   5040   5044   5056   5062     1  0.0000000  0.6508444  3
   5040   5047   5050   5059     1  0.0000000  0.6508444  3
   5041   5040   5044   5056     1  0.0000000  0.6508444  3
   5041   5040   5047   5050     1  0.0000000  0.6508444  3
   5041   5053   5065  10198     1  0.0000000  0.6508444  3
   5044   5040   5041   5053     1  0.0000000  0.6508444  3
   5044   5040   5047   5050     1  0.0000000  0.6508444  3
   5044   5056   5062  10168     1  0.0000000  0.6508444  3
   5047   5040   5041   5053     1  0.0000000  0.6508444  3
   5047   5040   5044   5056     1  0.0000000  0.6508444  3
   5047   5050   5059   5068     1  0.0000000  0.6508444  3
   5053   5065  10198  10189     1  180.0000771  0.4184000  2
   5053   5065  10198  10189     1  0.0000000  1.6024720  3
   5056   5062  10168  10159     1  180.0000771  0.4184000  2
   5056   5062  10168  10159     1  0.0000000  1.6024720  3
   5062  10168  10159  10150     1  180.0000771  0.4184000  2
   5062  10168  10159  10150     1  0.0000000  1.6024720  3
   5065  10198  10189  10180     1  180.0000771  0.4184000  2
   5065  10198  10189  10180     1  0.0000000  1.6024720  3
   5070   5071   5083   5095     1  0.0000000  0.6508444  3
   5070   5074   5086   5092     1  0.0000000  0.6508444  3
   5070   5077   5080   5089     1  0.0000000  0.6508444  3
   5071   5070   5074   5086     1  0.0000000  0.6508444  3
   5071   5070   5077   5080     1  0.0000000  0.6508444  3
   5071   5083   5095  10258     1  0.0000000  0.6508444  3
   5074   5070   5071   5083     1  0.0000000  0.6508444  3
   5074   5070   5077   5080     1  0.0000000  0.6508444  3
   5074   5086   5092  10228     1  0.0000000  0.6508444  3
   5077   5070   5071   5083     1  0.0000000  0.6508444  3
   5077   5070   5074   5086     1  0.0000000  0.6508444  3
   5077   5080   5089   5098     1  0.0000000  0.6508444  3
   5083   5095  10258  10249     1  180.0000771  0.4184000  2
   5083   5095  10258  10249     1  0.0000000  1.6024720  3
   5086   5092  10228  10219     1  180.0000771  0.4184000  2
   5086   5092  10228  10219     1  0.0000000  1.6024720  3
   5092  10228  10219  10210     1  180.0000771  0.4184000  2
   5092  10228  10219  10210     1  0.0000000  1.6024720  3
   5095  10258  10249  10240     1  180.0000771  0.4184000  2
   5095  10258  10249  10240     1  0.0000000  1.6024720  3
   5100   5101   5113   5125     1  0.0000000  0.6508444  3
   5100   5104   5116   5122     1  0.0000000  0.6508444  3
   5100   5107   5110   5119     1  0.0000000  0.6508444  3
   5101   5100   5104   5116     1  0.0000000  0.6508444  3
   5101   5100   5107   5110     1  0.0000000  0.6508444  3
   5101   5113   5125  10318     1  0.0000000  0.6508444  3
   5104   5100   5101   5113     1  0.0000000  0.6508444  3
   5104   5100   5107   5110     1  0.0000000  0.6508444  3
   5104   5116   5122  10288     1  0.0000000  0.6508444  3
   5107   5100   5101   5113     1  0.0000000  0.6508444  3
   5107   5100   5104   5116     1  0.0000000  0.6508444  3
   5107   5110   5119   5128     1  0.0000000  0.6508444  3
   5113   5125  10318  10309     1  180.0000771  0.4184000  2
   5113   5125  10318  10309     1  0.0000000  1.6024720  3
   5116   5122  10288  10279     1  180.0000771  0.4184000  2
   5116   5122  10288  10279     1  0.0000000  1.6024720  3
   5122  10288  10279  10270     1  180.0000771  0.4184000  2
   5122  10288  10279  10270     1  0.0000000  1.6024720  3
   5125  10318  10309  10300     1  180.0000771  0.4184000  2
   5125  10318  10309  10300     1  0.0000000  1.6024720  3
   5130   5131   5143   5155     1  0.0000000  0.6508444  3
   5130   5134   5146   5152     1  0.0000000  0.6508444  3
   5130   5137   5140   5149     1  0.0000000  0.6508444  3
   5131   5130   5134   5146     1  0.0000000  0.6508444  3
   5131   5130   5137   5140     1  0.0000000  0.6508444  3
   5131   5143   5155  10378     1  0.0000000  0.6508444  3
   5134   5130   5131   5143     1  0.0000000  0.6508444  3
   5134   5130   5137   5140     1  0.0000000  0.6508444  3
   5134   5146   5152  10348     1  0.0000000  0.6508444  3
   5137   5130   5131   5143     1  0.0000000  0.6508444  3
   5137   5130   5134   5146     1  0.0000000  0.6508444  3
   5137   5140   5149   5158     1  0.0000000  0.6508444  3
   5143   5155  10378  10369     1  180.0000771  0.4184000  2
   5143   5155  10378  10369     1  0.0000000  1.6024720  3
   5146   5152  10348  10339     1  180.0000771  0.4184000  2
   5146   5152  10348  10339     1  0.0000000  1.6024720  3
   5152  10348  10339  10330     1  180.0000771  0.4184000  2
   5152  10348  10339  10330     1  0.0000000  1.6024720  3
   5155  10378  10369  10360     1  180.0000771  0.4184000  2
   5155  10378  10369  10360     1  0.0000000  1.6024720  3
   5160   5161   5173   5185     1  0.0000000  0.6508444  3
   5160   5164   5176   5182     1  0.0000000  0.6508444  3
   5160   5167   5170   5179     1  0.0000000  0.6508444  3
   5161   5160   5164   5176     1  0.0000000  0.6508444  3
   5161   5160   5167   5170     1  0.0000000  0.6508444  3
   5161   5173   5185  10438     1  0.0000000  0.6508444  3
   5164   5160   5161   5173     1  0.0000000  0.6508444  3
   5164   5160   5167   5170     1  0.0000000  0.6508444  3
   5164   5176   5182  10408     1  0.0000000  0.6508444  3
   5167   5160   5161   5173     1  0.0000000  0.6508444  3
   5167   5160   5164   5176     1  0.0000000  0.6508444  3
   5167   5170   5179   5188     1  0.0000000  0.6508444  3
   5173   5185  10438  10429     1  180.0000771  0.4184000  2
   5173   5185  10438  10429     1  0.0000000  1.6024720  3
   5176   5182  10408  10399     1  180.0000771  0.4184000  2
   5176   5182  10408  10399     1  0.0000000  1.6024720  3
   5182  10408  10399  10390     1  180.0000771  0.4184000  2
   5182  10408  10399  10390     1  0.0000000  1.6024720  3
   5185  10438  10429  10420     1  180.0000771  0.4184000  2
   5185  10438  10429  10420     1  0.0000000  1.6024720  3
   5190   5191   5203   5215     1  0.0000000  0.6508444  3
   5190   5194   5206   5212     1  0.0000000  0.6508444  3
   5190   5197   5200   5209     1  0.0000000  0.6508444  3
   5191   5190   5194   5206     1  0.0000000  0.6508444  3
   5191   5190   5197   5200     1  0.0000000  0.6508444  3
   5191   5203   5215  10498     1  0.0000000  0.6508444  3
   5194   5190   5191   5203     1  0.0000000  0.6508444  3
   5194   5190   5197   5200     1  0.0000000  0.6508444  3
   5194   5206   5212  10468     1  0.0000000  0.6508444  3
   5197   5190   5191   5203     1  0.0000000  0.6508444  3
   5197   5190   5194   5206     1  0.0000000  0.6508444  3
   5197   5200   5209   5218     1  0.0000000  0.6508444  3
   5203   5215  10498  10489     1  180.0000771  0.4184000  2
   5203   5215  10498  10489     1  0.0000000  1.6024720  3
   5206   5212  10468  10459     1  180.0000771  0.4184000  2
   5206   5212  10468  10459     1  0.0000000  1.6024720  3
   5212  10468  10459  10450     1  180.0000771  0.4184000  2
   5212  10468  10459  10450     1  0.0000000  1.6024720  3
   5215  10498  10489  10480     1  180.0000771  0.4184000  2
   5215  10498  10489  10480     1  0.0000000  1.6024720  3
   5220   5221   5233   5245     1  0.0000000  0.6508444  3
   5220   5224   5236   5242     1  0.0000000  0.6508444  3
   5220   5227   5230   5239     1  0.0000000  0.6508444  3
   5221   5220   5224   5236     1  0.0000000  0.6508444  3
   5221   5220   5227   5230     1  0.0000000  0.6508444  3
   5221   5233   5245  10558     1  0.0000000  0.6508444  3
   5224   5220   5221   5233     1  0.0000000  0.6508444  3
   5224   5220   5227   5230     1  0.0000000  0.6508444  3
   5224   5236   5242  10528     1  0.0000000  0.6508444  3
   5227   5220   5221   5233     1  0.0000000  0.6508444  3
   5227   5220   5224   5236     1  0.0000000  0.6508444  3
   5227   5230   5239   5248     1  0.0000000  0.6508444  3
   5233   5245  10558  10549     1  180.0000771  0.4184000  2
   5233   5245  10558  10549     1  0.0000000  1.6024720  3
   5236   5242  10528  10519     1  180.0000771  0.4184000  2
   5236   5242  10528  10519     1  0.0000000  1.6024720  3
   5242  10528  10519  10510     1  180.0000771  0.4184000  2
   5242  10528  10519  10510     1  0.0000000  1.6024720  3
   5245  10558  10549  10540     1  180.0000771  0.4184000  2
   5245  10558  10549  10540     1  0.0000000  1.6024720  3
   5250   5251   5263   5275     1  0.0000000  0.6508444  3
   5250   5254   5266   5272     1  0.0000000  0.6508444  3
   5250   5257   5260   5269     1  0.0000000  0.6508444  3
   5251   5250   5254   5266     1  0.0000000  0.6508444  3
   5251   5250   5257   5260     1  0.0000000  0.6508444  3
   5251   5263   5275  10618     1  0.0000000  0.6508444  3
   5254   5250   5251   5263     1  0.0000000  0.6508444  3
   5254   5250   5257   5260     1  0.0000000  0.6508444  3
   5254   5266   5272  10588     1  0.0000000  0.6508444  3
   5257   5250   5251   5263     1  0.0000000  0.6508444  3
   5257   5250   5254   5266     1  0.0000000  0.6508444  3
   5257   5260   5269   5278     1  0.0000000  0.6508444  3
   5263   5275  10618  10609     1  180.0000771  0.4184000  2
   5263   5275  10618  10609     1  0.0000000  1.6024720  3
   5266   5272  10588  10579     1  180.0000771  0.4184000  2
   5266   5272  10588  10579     1  0.0000000  1.6024720  3
   5272  10588  10579  10570     1  180.0000771  0.4184000  2
   5272  10588  10579  10570     1  0.0000000  1.6024720  3
   5275  10618  10609  10600     1  180.0000771  0.4184000  2
   5275  10618  10609  10600     1  0.0000000  1.6024720  3
   5280   5281   5293   5305     1  0.0000000  0.6508444  3
   5280   5284   5296   5302     1  0.0000000  0.6508444  3
   5280   5287   5290   5299     1  0.0000000  0.6508444  3
   5281   5280   5284   5296     1  0.0000000  0.6508444  3
   5281   5280   5287   5290     1  0.0000000  0.6508444  3
   5281   5293   5305  10678     1  0.0000000  0.6508444  3
   5284   5280   5281   5293     1  0.0000000  0.6508444  3
   5284   5280   5287   5290     1  0.0000000  0.6508444  3
   5284   5296   5302  10648     1  0.0000000  0.6508444  3
   5287   5280   5281   5293     1  0.0000000  0.6508444  3
   5287   5280   5284   5296     1  0.0000000  0.6508444  3
   5287   5290   5299   5308     1  0.0000000  0.6508444  3
   5293   5305  10678  10669     1  180.0000771  0.4184000  2
   5293   5305  10678  10669     1  0.0000000  1.6024720  3
   5296   5302  10648  10639     1  180.0000771  0.4184000  2
   5296   5302  10648  10639     1  0.0000000  1.6024720  3
   5302  10648  10639  10630     1  180.0000771  0.4184000  2
   5302  10648  10639  10630     1  0.0000000  1.6024720  3
   5305  10678  10669  10660     1  180.0000771  0.4184000  2
   5305  10678  10669  10660     1  0.0000000  1.6024720  3
   5310   5311   5323   5335     1  0.0000000  0.6508444  3
   5310   5314   5326   5332     1  0.0000000  0.6508444  3
   5310   5317   5320   5329     1  0.0000000  0.6508444  3
   5311   5310   5314   5326     1  0.0000000  0.6508444  3
   5311   5310   5317   5320     1  0.0000000  0.6508444  3
   5311   5323   5335  10738     1  0.0000000  0.6508444  3
   5314   5310   5311   5323     1  0.0000000  0.6508444  3
   5314   5310   5317   5320     1  0.0000000  0.6508444  3
   5314   5326   5332  10708     1  0.0000000  0.6508444  3
   5317   5310   5311   5323     1  0.0000000  0.6508444  3
   5317   5310   5314   5326     1  0.0000000  0.6508444  3
   5317   5320   5329   5338     1  0.0000000  0.6508444  3
   5323   5335  10738  10729     1  180.0000771  0.4184000  2
   5323   5335  10738  10729     1  0.0000000  1.6024720  3
   5326   5332  10708  10699     1  180.0000771  0.4184000  2
   5326   5332  10708  10699     1  0.0000000  1.6024720  3
   5332  10708  10699  10690     1  180.0000771  0.4184000  2
   5332  10708  10699  10690     1  0.0000000  1.6024720  3
   5335  10738  10729  10720     1  180.0000771  0.4184000  2
   5335  10738  10729  10720     1  0.0000000  1.6024720  3
   5340   5341   5353   5365     1  0.0000000  0.6508444  3
   5340   5344   5356   5362     1  0.0000000  0.6508444  3
   5340   5347   5350   5359     1  0.0000000  0.6508444  3
   5341   5340   5344   5356     1  0.0000000  0.6508444  3
   5341   5340   5347   5350     1  0.0000000  0.6508444  3
   5341   5353   5365  10798     1  0.0000000  0.6508444  3
   5344   5340   5341   5353     1  0.0000000  0.6508444  3
   5344   5340   5347   5350     1  0.0000000  0.6508444  3
   5344   5356   5362  10768     1  0.0000000  0.6508444  3
   5347   5340   5341   5353     1  0.0000000  0.6508444  3
   5347   5340   5344   5356     1  0.0000000  0.6508444  3
   5347   5350   5359   5368     1  0.0000000  0.6508444  3
   5353   5365  10798  10789     1  180.0000771  0.4184000  2
   5353   5365  10798  10789     1  0.0000000  1.6024720  3
   5356   5362  10768  10759     1  180.0000771  0.4184000  2
   5356   5362  10768  10759     1  0.0000000  1.6024720  3
   5362  10768  10759  10750     1  180.0000771  0.4184000  2
   5362  10768  10759  10750     1  0.0000000  1.6024720  3
   5365  10798  10789  10780     1  180.0000771  0.4184000  2
   5365  10798  10789  10780     1  0.0000000  1.6024720  3
   5370   5371   5383   5395     1  0.0000000  0.6508444  3
   5370   5374   5386   5392     1  0.0000000  0.6508444  3
   5370   5377   5380   5389     1  0.0000000  0.6508444  3
   5371   5370   5374   5386     1  0.0000000  0.6508444  3
   5371   5370   5377   5380     1  0.0000000  0.6508444  3
   5371   5383   5395  10858     1  0.0000000  0.6508444  3
   5374   5370   5371   5383     1  0.0000000  0.6508444  3
   5374   5370   5377   5380     1  0.0000000  0.6508444  3
   5374   5386   5392  10828     1  0.0000000  0.6508444  3
   5377   5370   5371   5383     1  0.0000000  0.6508444  3
   5377   5370   5374   5386     1  0.0000000  0.6508444  3
   5377   5380   5389   5398     1  0.0000000  0.6508444  3
   5383   5395  10858  10849     1  180.0000771  0.4184000  2
   5383   5395  10858  10849     1  0.0000000  1.6024720  3
   5386   5392  10828  10819     1  180.0000771  0.4184000  2
   5386   5392  10828  10819     1  0.0000000  1.6024720  3
   5392  10828  10819  10810     1  180.0000771  0.4184000  2
   5392  10828  10819  10810     1  0.0000000  1.6024720  3
   5395  10858  10849  10840     1  180.0000771  0.4184000  2
   5395  10858  10849  10840     1  0.0000000  1.6024720  3
   5400   5401   5413   5425     1  0.0000000  0.6508444  3
   5400   5404   5416   5422     1  0.0000000  0.6508444  3
   5400   5407   5410   5419     1  0.0000000  0.6508444  3
   5401   5400   5404   5416     1  0.0000000  0.6508444  3
   5401   5400   5407   5410     1  0.0000000  0.6508444  3
   5401   5413   5425  10918     1  0.0000000  0.6508444  3
   5404   5400   5401   5413     1  0.0000000  0.6508444  3
   5404   5400   5407   5410     1  0.0000000  0.6508444  3
   5404   5416   5422  10888     1  0.0000000  0.6508444  3
   5407   5400   5401   5413     1  0.0000000  0.6508444  3
   5407   5400   5404   5416     1  0.0000000  0.6508444  3
   5407   5410   5419   5428     1  0.0000000  0.6508444  3
   5413   5425  10918  10909     1  180.0000771  0.4184000  2
   5413   5425  10918  10909     1  0.0000000  1.6024720  3
   5416   5422  10888  10879     1  180.0000771  0.4184000  2
   5416   5422  10888  10879     1  0.0000000  1.6024720  3
   5422  10888  10879  10870     1  180.0000771  0.4184000  2
   5422  10888  10879  10870     1  0.0000000  1.6024720  3
   5425  10918  10909  10900     1  180.0000771  0.4184000  2
   5425  10918  10909  10900     1  0.0000000  1.6024720  3
   5430   5431   5443   5455     1  0.0000000  0.6508444  3
   5430   5434   5446   5452     1  0.0000000  0.6508444  3
   5430   5437   5440   5449     1  0.0000000  0.6508444  3
   5431   5430   5434   5446     1  0.0000000  0.6508444  3
   5431   5430   5437   5440     1  0.0000000  0.6508444  3
   5431   5443   5455  10978     1  0.0000000  0.6508444  3
   5434   5430   5431   5443     1  0.0000000  0.6508444  3
   5434   5430   5437   5440     1  0.0000000  0.6508444  3
   5434   5446   5452  10948     1  0.0000000  0.6508444  3
   5437   5430   5431   5443     1  0.0000000  0.6508444  3
   5437   5430   5434   5446     1  0.0000000  0.6508444  3
   5437   5440   5449   5458     1  0.0000000  0.6508444  3
   5443   5455  10978  10969     1  180.0000771  0.4184000  2
   5443   5455  10978  10969     1  0.0000000  1.6024720  3
   5446   5452  10948  10939     1  180.0000771  0.4184000  2
   5446   5452  10948  10939     1  0.0000000  1.6024720  3
   5452  10948  10939  10930     1  180.0000771  0.4184000  2
   5452  10948  10939  10930     1  0.0000000  1.6024720  3
   5455  10978  10969  10960     1  180.0000771  0.4184000  2
   5455  10978  10969  10960     1  0.0000000  1.6024720  3
   5460   5461   5473   5485     1  0.0000000  0.6508444  3
   5460   5464   5476   5482     1  0.0000000  0.6508444  3
   5460   5467   5470   5479     1  0.0000000  0.6508444  3
   5461   5460   5464   5476     1  0.0000000  0.6508444  3
   5461   5460   5467   5470     1  0.0000000  0.6508444  3
   5461   5473   5485  11038     1  0.0000000  0.6508444  3
   5464   5460   5461   5473     1  0.0000000  0.6508444  3
   5464   5460   5467   5470     1  0.0000000  0.6508444  3
   5464   5476   5482  11008     1  0.0000000  0.6508444  3
   5467   5460   5461   5473     1  0.0000000  0.6508444  3
   5467   5460   5464   5476     1  0.0000000  0.6508444  3
   5467   5470   5479   5488     1  0.0000000  0.6508444  3
   5473   5485  11038  11029     1  180.0000771  0.4184000  2
   5473   5485  11038  11029     1  0.0000000  1.6024720  3
   5476   5482  11008  10999     1  180.0000771  0.4184000  2
   5476   5482  11008  10999     1  0.0000000  1.6024720  3
   5482  11008  10999  10990     1  180.0000771  0.4184000  2
   5482  11008  10999  10990     1  0.0000000  1.6024720  3
   5485  11038  11029  11020     1  180.0000771  0.4184000  2
   5485  11038  11029  11020     1  0.0000000  1.6024720  3
   5490   5491   5503   5515     1  0.0000000  0.6508444  3
   5490   5494   5506   5512     1  0.0000000  0.6508444  3
   5490   5497   5500   5509     1  0.0000000  0.6508444  3
   5491   5490   5494   5506     1  0.0000000  0.6508444  3
   5491   5490   5497   5500     1  0.0000000  0.6508444  3
   5491   5503   5515  11098     1  0.0000000  0.6508444  3
   5494   5490   5491   5503     1  0.0000000  0.6508444  3
   5494   5490   5497   5500     1  0.0000000  0.6508444  3
   5494   5506   5512  11068     1  0.0000000  0.6508444  3
   5497   5490   5491   5503     1  0.0000000  0.6508444  3
   5497   5490   5494   5506     1  0.0000000  0.6508444  3
   5497   5500   5509   5518     1  0.0000000  0.6508444  3
   5503   5515  11098  11089     1  180.0000771  0.4184000  2
   5503   5515  11098  11089     1  0.0000000  1.6024720  3
   5506   5512  11068  11059     1  180.0000771  0.4184000  2
   5506   5512  11068  11059     1  0.0000000  1.6024720  3
   5512  11068  11059  11050     1  180.0000771  0.4184000  2
   5512  11068  11059  11050     1  0.0000000  1.6024720  3
   5515  11098  11089  11080     1  180.0000771  0.4184000  2
   5515  11098  11089  11080     1  0.0000000  1.6024720  3
   5520   5521   5533   5545     1  0.0000000  0.6508444  3
   5520   5524   5536   5542     1  0.0000000  0.6508444  3
   5520   5527   5530   5539     1  0.0000000  0.6508444  3
   5521   5520   5524   5536     1  0.0000000  0.6508444  3
   5521   5520   5527   5530     1  0.0000000  0.6508444  3
   5521   5533   5545  11158     1  0.0000000  0.6508444  3
   5524   5520   5521   5533     1  0.0000000  0.6508444  3
   5524   5520   5527   5530     1  0.0000000  0.6508444  3
   5524   5536   5542  11128     1  0.0000000  0.6508444  3
   5527   5520   5521   5533     1  0.0000000  0.6508444  3
   5527   5520   5524   5536     1  0.0000000  0.6508444  3
   5527   5530   5539   5548     1  0.0000000  0.6508444  3
   5533   5545  11158  11149     1  180.0000771  0.4184000  2
   5533   5545  11158  11149     1  0.0000000  1.6024720  3
   5536   5542  11128  11119     1  180.0000771  0.4184000  2
   5536   5542  11128  11119     1  0.0000000  1.6024720  3
   5542  11128  11119  11110     1  180.0000771  0.4184000  2
   5542  11128  11119  11110     1  0.0000000  1.6024720  3
   5545  11158  11149  11140     1  180.0000771  0.4184000  2
   5545  11158  11149  11140     1  0.0000000  1.6024720  3
   5550   5551   5563   5575     1  0.0000000  0.6508444  3
   5550   5554   5566   5572     1  0.0000000  0.6508444  3
   5550   5557   5560   5569     1  0.0000000  0.6508444  3
   5551   5550   5554   5566     1  0.0000000  0.6508444  3
   5551   5550   5557   5560     1  0.0000000  0.6508444  3
   5551   5563   5575  11218     1  0.0000000  0.6508444  3
   5554   5550   5551   5563     1  0.0000000  0.6508444  3
   5554   5550   5557   5560     1  0.0000000  0.6508444  3
   5554   5566   5572  11188     1  0.0000000  0.6508444  3
   5557   5550   5551   5563     1  0.0000000  0.6508444  3
   5557   5550   5554   5566     1  0.0000000  0.6508444  3
   5557   5560   5569   5578     1  0.0000000  0.6508444  3
   5563   5575  11218  11209     1  180.0000771  0.4184000  2
   5563   5575  11218  11209     1  0.0000000  1.6024720  3
   5566   5572  11188  11179     1  180.0000771  0.4184000  2
   5566   5572  11188  11179     1  0.0000000  1.6024720  3
   5572  11188  11179  11170     1  180.0000771  0.4184000  2
   5572  11188  11179  11170     1  0.0000000  1.6024720  3
   5575  11218  11209  11200     1  180.0000771  0.4184000  2
   5575  11218  11209  11200     1  0.0000000  1.6024720  3
   5580   5581   5593   5605     1  0.0000000  0.6508444  3
   5580   5584   5596   5602     1  0.0000000  0.6508444  3
   5580   5587   5590   5599     1  0.0000000  0.6508444  3
   5581   5580   5584   5596     1  0.0000000  0.6508444  3
   5581   5580   5587   5590     1  0.0000000  0.6508444  3
   5581   5593   5605  11278     1  0.0000000  0.6508444  3
   5584   5580   5581   5593     1  0.0000000  0.6508444  3
   5584   5580   5587   5590     1  0.0000000  0.6508444  3
   5584   5596   5602  11248     1  0.0000000  0.6508444  3
   5587   5580   5581   5593     1  0.0000000  0.6508444  3
   5587   5580   5584   5596     1  0.0000000  0.6508444  3
   5587   5590   5599   5608     1  0.0000000  0.6508444  3
   5593   5605  11278  11269     1  180.0000771  0.4184000  2
   5593   5605  11278  11269     1  0.0000000  1.6024720  3
   5596   5602  11248  11239     1  180.0000771  0.4184000  2
   5596   5602  11248  11239     1  0.0000000  1.6024720  3
   5602  11248  11239  11230     1  180.0000771  0.4184000  2
   5602  11248  11239  11230     1  0.0000000  1.6024720  3
   5605  11278  11269  11260     1  180.0000771  0.4184000  2
   5605  11278  11269  11260     1  0.0000000  1.6024720  3
   5610   5611   5623   5635     1  0.0000000  0.6508444  3
   5610   5614   5626   5632     1  0.0000000  0.6508444  3
   5610   5617   5620   5629     1  0.0000000  0.6508444  3
   5611   5610   5614   5626     1  0.0000000  0.6508444  3
   5611   5610   5617   5620     1  0.0000000  0.6508444  3
   5611   5623   5635  11338     1  0.0000000  0.6508444  3
   5614   5610   5611   5623     1  0.0000000  0.6508444  3
   5614   5610   5617   5620     1  0.0000000  0.6508444  3
   5614   5626   5632  11308     1  0.0000000  0.6508444  3
   5617   5610   5611   5623     1  0.0000000  0.6508444  3
   5617   5610   5614   5626     1  0.0000000  0.6508444  3
   5617   5620   5629   5638     1  0.0000000  0.6508444  3
   5623   5635  11338  11329     1  180.0000771  0.4184000  2
   5623   5635  11338  11329     1  0.0000000  1.6024720  3
   5626   5632  11308  11299     1  180.0000771  0.4184000  2
   5626   5632  11308  11299     1  0.0000000  1.6024720  3
   5632  11308  11299  11290     1  180.0000771  0.4184000  2
   5632  11308  11299  11290     1  0.0000000  1.6024720  3
   5635  11338  11329  11320     1  180.0000771  0.4184000  2
   5635  11338  11329  11320     1  0.0000000  1.6024720  3
   5640   5641   5653   5665     1  0.0000000  0.6508444  3
   5640   5644   5656   5662     1  0.0000000  0.6508444  3
   5640   5647   5650   5659     1  0.0000000  0.6508444  3
   5641   5640   5644   5656     1  0.0000000  0.6508444  3
   5641   5640   5647   5650     1  0.0000000  0.6508444  3
   5641   5653   5665  11398     1  0.0000000  0.6508444  3
   5644   5640   5641   5653     1  0.0000000  0.6508444  3
   5644   5640   5647   5650     1  0.0000000  0.6508444  3
   5644   5656   5662  11368     1  0.0000000  0.6508444  3
   5647   5640   5641   5653     1  0.0000000  0.6508444  3
   5647   5640   5644   5656     1  0.0000000  0.6508444  3
   5647   5650   5659   5668     1  0.0000000  0.6508444  3
   5653   5665  11398  11389     1  180.0000771  0.4184000  2
   5653   5665  11398  11389     1  0.0000000  1.6024720  3
   5656   5662  11368  11359     1  180.0000771  0.4184000  2
   5656   5662  11368  11359     1  0.0000000  1.6024720  3
   5662  11368  11359  11350     1  180.0000771  0.4184000  2
   5662  11368  11359  11350     1  0.0000000  1.6024720  3
   5665  11398  11389  11380     1  180.0000771  0.4184000  2
   5665  11398  11389  11380     1  0.0000000  1.6024720  3
   5670   5671   5683   5695     1  0.0000000  0.6508444  3
   5670   5674   5686   5692     1  0.0000000  0.6508444  3
   5670   5677   5680   5689     1  0.0000000  0.6508444  3
   5671   5670   5674   5686     1  0.0000000  0.6508444  3
   5671   5670   5677   5680     1  0.0000000  0.6508444  3
   5671   5683   5695  11458     1  0.0000000  0.6508444  3
   5674   5670   5671   5683     1  0.0000000  0.6508444  3
   5674   5670   5677   5680     1  0.0000000  0.6508444  3
   5674   5686   5692  11428     1  0.0000000  0.6508444  3
   5677   5670   5671   5683     1  0.0000000  0.6508444  3
   5677   5670   5674   5686     1  0.0000000  0.6508444  3
   5677   5680   5689   5698     1  0.0000000  0.6508444  3
   5683   5695  11458  11449     1  180.0000771  0.4184000  2
   5683   5695  11458  11449     1  0.0000000  1.6024720  3
   5686   5692  11428  11419     1  180.0000771  0.4184000  2
   5686   5692  11428  11419     1  0.0000000  1.6024720  3
   5692  11428  11419  11410     1  180.0000771  0.4184000  2
   5692  11428  11419  11410     1  0.0000000  1.6024720  3
   5695  11458  11449  11440     1  180.0000771  0.4184000  2
   5695  11458  11449  11440     1  0.0000000  1.6024720  3
   5700   5701   5713   5725     1  0.0000000  0.6508444  3
   5700   5704   5716   5722     1  0.0000000  0.6508444  3
   5700   5707   5710   5719     1  0.0000000  0.6508444  3
   5701   5700   5704   5716     1  0.0000000  0.6508444  3
   5701   5700   5707   5710     1  0.0000000  0.6508444  3
   5701   5713   5725  11493     1  0.0000000  0.6508444  3
   5704   5700   5701   5713     1  0.0000000  0.6508444  3
   5704   5700   5707   5710     1  0.0000000  0.6508444  3
   5704   5716   5722  11470     1  0.0000000  0.6508444  3
   5707   5700   5701   5713     1  0.0000000  0.6508444  3
   5707   5700   5704   5716     1  0.0000000  0.6508444  3
   5707   5710   5719   5728     1  0.0000000  0.6508444  3
   5713   5725  11493  11489     1  180.0000771  0.4184000  2
   5713   5725  11493  11489     1  0.0000000  1.6024720  3
   5716   5722  11470  11466     1  180.0000771  0.4184000  2
   5716   5722  11470  11466     1  0.0000000  1.6024720  3
   5722  11470  11466  11465     1  180.0000771  0.4184000  2
   5722  11470  11466  11465     1  0.0000000  1.6024720  3
   5722  11470  11466  11482     1  180.0000771  5.6484000  1
   5722  11470  11466  11482     1  180.0000771  3.5564000  2
   5722  11470  11466  11482     1  0.0000000  0.4184000  3
   5725  11493  11489  11505     1  180.0000771  5.6484000  1
   5725  11493  11489  11505     1  180.0000771  3.5564000  2
   5725  11493  11489  11505     1  0.0000000  0.4184000  3
   5725  11493  11489  11488     1  180.0000771  0.4184000  2
   5725  11493  11489  11488     1  0.0000000  1.6024720  3
   5730   5731   5743   5755     1  0.0000000  0.6508444  3
   5730   5734   5746   5752     1  0.0000000  0.6508444  3
   5730   5737   5740   5749     1  0.0000000  0.6508444  3
   5731   5730   5734   5746     1  0.0000000  0.6508444  3
   5731   5730   5737   5740     1  0.0000000  0.6508444  3
   5731   5743   5755  11539     1  0.0000000  0.6508444  3
   5734   5730   5731   5743     1  0.0000000  0.6508444  3
   5734   5730   5737   5740     1  0.0000000  0.6508444  3
   5734   5746   5752  11516     1  0.0000000  0.6508444  3
   5737   5730   5731   5743     1  0.0000000  0.6508444  3
   5737   5730   5734   5746     1  0.0000000  0.6508444  3
   5737   5740   5749   5758     1  0.0000000  0.6508444  3
   5743   5755  11539  11535     1  180.0000771  0.4184000  2
   5743   5755  11539  11535     1  0.0000000  1.6024720  3
   5746   5752  11516  11512     1  180.0000771  0.4184000  2
   5746   5752  11516  11512     1  0.0000000  1.6024720  3
   5752  11516  11512  11511     1  180.0000771  0.4184000  2
   5752  11516  11512  11511     1  0.0000000  1.6024720  3
   5752  11516  11512  11528     1  180.0000771  5.6484000  1
   5752  11516  11512  11528     1  180.0000771  3.5564000  2
   5752  11516  11512  11528     1  0.0000000  0.4184000  3
   5755  11539  11535  11551     1  180.0000771  5.6484000  1
   5755  11539  11535  11551     1  180.0000771  3.5564000  2
   5755  11539  11535  11551     1  0.0000000  0.4184000  3
   5755  11539  11535  11534     1  180.0000771  0.4184000  2
   5755  11539  11535  11534     1  0.0000000  1.6024720  3
   5760   5761   5773   5785     1  0.0000000  0.6508444  3
   5760   5764   5776   5782     1  0.0000000  0.6508444  3
   5760   5767   5770   5779     1  0.0000000  0.6508444  3
   5761   5760   5764   5776     1  0.0000000  0.6508444  3
   5761   5760   5767   5770     1  0.0000000  0.6508444  3
   5761   5773   5785  11585     1  0.0000000  0.6508444  3
   5764   5760   5761   5773     1  0.0000000  0.6508444  3
   5764   5760   5767   5770     1  0.0000000  0.6508444  3
   5764   5776   5782  11562     1  0.0000000  0.6508444  3
   5767   5760   5761   5773     1  0.0000000  0.6508444  3
   5767   5760   5764   5776     1  0.0000000  0.6508444  3
   5767   5770   5779   5788     1  0.0000000  0.6508444  3
   5773   5785  11585  11581     1  180.0000771  0.4184000  2
   5773   5785  11585  11581     1  0.0000000  1.6024720  3
   5776   5782  11562  11558     1  180.0000771  0.4184000  2
   5776   5782  11562  11558     1  0.0000000  1.6024720  3
   5782  11562  11558  11557     1  180.0000771  0.4184000  2
   5782  11562  11558  11557     1  0.0000000  1.6024720  3
   5782  11562  11558  11574     1  180.0000771  5.6484000  1
   5782  11562  11558  11574     1  180.0000771  3.5564000  2
   5782  11562  11558  11574     1  0.0000000  0.4184000  3
   5785  11585  11581  11597     1  180.0000771  5.6484000  1
   5785  11585  11581  11597     1  180.0000771  3.5564000  2
   5785  11585  11581  11597     1  0.0000000  0.4184000  3
   5785  11585  11581  11580     1  180.0000771  0.4184000  2
   5785  11585  11581  11580     1  0.0000000  1.6024720  3
   5790   5791   5803   5815     1  0.0000000  0.6508444  3
   5790   5794   5806   5812     1  0.0000000  0.6508444  3
   5790   5797   5800   5809     1  0.0000000  0.6508444  3
   5791   5790   5794   5806     1  0.0000000  0.6508444  3
   5791   5790   5797   5800     1  0.0000000  0.6508444  3
   5791   5803   5815  11631     1  0.0000000  0.6508444  3
   5794   5790   5791   5803     1  0.0000000  0.6508444  3
   5794   5790   5797   5800     1  0.0000000  0.6508444  3
   5794   5806   5812  11608     1  0.0000000  0.6508444  3
   5797   5790   5791   5803     1  0.0000000  0.6508444  3
   5797   5790   5794   5806     1  0.0000000  0.6508444  3
   5797   5800   5809   5818     1  0.0000000  0.6508444  3
   5803   5815  11631  11627     1  180.0000771  0.4184000  2
   5803   5815  11631  11627     1  0.0000000  1.6024720  3
   5806   5812  11608  11604     1  180.0000771  0.4184000  2
   5806   5812  11608  11604     1  0.0000000  1.6024720  3
   5812  11608  11604  11603     1  180.0000771  0.4184000  2
   5812  11608  11604  11603     1  0.0000000  1.6024720  3
   5812  11608  11604  11620     1  180.0000771  5.6484000  1
   5812  11608  11604  11620     1  180.0000771  3.5564000  2
   5812  11608  11604  11620     1  0.0000000  0.4184000  3
   5815  11631  11627  11643     1  180.0000771  5.6484000  1
   5815  11631  11627  11643     1  180.0000771  3.5564000  2
   5815  11631  11627  11643     1  0.0000000  0.4184000  3
   5815  11631  11627  11626     1  180.0000771  0.4184000  2
   5815  11631  11627  11626     1  0.0000000  1.6024720  3
   5820   5821   5833   5845     1  0.0000000  0.6508444  3
   5820   5824   5836   5842     1  0.0000000  0.6508444  3
   5820   5827   5830   5839     1  0.0000000  0.6508444  3
   5821   5820   5824   5836     1  0.0000000  0.6508444  3
   5821   5820   5827   5830     1  0.0000000  0.6508444  3
   5821   5833   5845  11677     1  0.0000000  0.6508444  3
   5824   5820   5821   5833     1  0.0000000  0.6508444  3
   5824   5820   5827   5830     1  0.0000000  0.6508444  3
   5824   5836   5842  11654     1  0.0000000  0.6508444  3
   5827   5820   5821   5833     1  0.0000000  0.6508444  3
   5827   5820   5824   5836     1  0.0000000  0.6508444  3
   5827   5830   5839   5848     1  0.0000000  0.6508444  3
   5833   5845  11677  11673     1  180.0000771  0.4184000  2
   5833   5845  11677  11673     1  0.0000000  1.6024720  3
   5836   5842  11654  11650     1  180.0000771  0.4184000  2
   5836   5842  11654  11650     1  0.0000000  1.6024720  3
   5842  11654  11650  11649     1  180.0000771  0.4184000  2
   5842  11654  11650  11649     1  0.0000000  1.6024720  3
   5842  11654  11650  11666     1  180.0000771  5.6484000  1
   5842  11654  11650  11666     1  180.0000771  3.5564000  2
   5842  11654  11650  11666     1  0.0000000  0.4184000  3
   5845  11677  11673  11689     1  180.0000771  5.6484000  1
   5845  11677  11673  11689     1  180.0000771  3.5564000  2
   5845  11677  11673  11689     1  0.0000000  0.4184000  3
   5845  11677  11673  11672     1  180.0000771  0.4184000  2
   5845  11677  11673  11672     1  0.0000000  1.6024720  3
   5850   5851   5863   5875     1  0.0000000  0.6508444  3
   5850   5854   5866   5872     1  0.0000000  0.6508444  3
   5850   5857   5860   5869     1  0.0000000  0.6508444  3
   5851   5850   5854   5866     1  0.0000000  0.6508444  3
   5851   5850   5857   5860     1  0.0000000  0.6508444  3
   5851   5863   5875  11723     1  0.0000000  0.6508444  3
   5854   5850   5851   5863     1  0.0000000  0.6508444  3
   5854   5850   5857   5860     1  0.0000000  0.6508444  3
   5854   5866   5872  11700     1  0.0000000  0.6508444  3
   5857   5850   5851   5863     1  0.0000000  0.6508444  3
   5857   5850   5854   5866     1  0.0000000  0.6508444  3
   5857   5860   5869   5878     1  0.0000000  0.6508444  3
   5863   5875  11723  11719     1  180.0000771  0.4184000  2
   5863   5875  11723  11719     1  0.0000000  1.6024720  3
   5866   5872  11700  11696     1  180.0000771  0.4184000  2
   5866   5872  11700  11696     1  0.0000000  1.6024720  3
   5872  11700  11696  11695     1  180.0000771  0.4184000  2
   5872  11700  11696  11695     1  0.0000000  1.6024720  3
   5872  11700  11696  11712     1  180.0000771  5.6484000  1
   5872  11700  11696  11712     1  180.0000771  3.5564000  2
   5872  11700  11696  11712     1  0.0000000  0.4184000  3
   5875  11723  11719  11735     1  180.0000771  5.6484000  1
   5875  11723  11719  11735     1  180.0000771  3.5564000  2
   5875  11723  11719  11735     1  0.0000000  0.4184000  3
   5875  11723  11719  11718     1  180.0000771  0.4184000  2
   5875  11723  11719  11718     1  0.0000000  1.6024720  3
   5880   5881   5893   5905     1  0.0000000  0.6508444  3
   5880   5884   5896   5902     1  0.0000000  0.6508444  3
   5880   5887   5890   5899     1  0.0000000  0.6508444  3
   5881   5880   5884   5896     1  0.0000000  0.6508444  3
   5881   5880   5887   5890     1  0.0000000  0.6508444  3
   5881   5893   5905  11769     1  0.0000000  0.6508444  3
   5884   5880   5881   5893     1  0.0000000  0.6508444  3
   5884   5880   5887   5890     1  0.0000000  0.6508444  3
   5884   5896   5902  11746     1  0.0000000  0.6508444  3
   5887   5880   5881   5893     1  0.0000000  0.6508444  3
   5887   5880   5884   5896     1  0.0000000  0.6508444  3
   5887   5890   5899   5908     1  0.0000000  0.6508444  3
   5893   5905  11769  11765     1  180.0000771  0.4184000  2
   5893   5905  11769  11765     1  0.0000000  1.6024720  3
   5896   5902  11746  11742     1  180.0000771  0.4184000  2
   5896   5902  11746  11742     1  0.0000000  1.6024720  3
   5902  11746  11742  11741     1  180.0000771  0.4184000  2
   5902  11746  11742  11741     1  0.0000000  1.6024720  3
   5902  11746  11742  11758     1  180.0000771  5.6484000  1
   5902  11746  11742  11758     1  180.0000771  3.5564000  2
   5902  11746  11742  11758     1  0.0000000  0.4184000  3
   5905  11769  11765  11781     1  180.0000771  5.6484000  1
   5905  11769  11765  11781     1  180.0000771  3.5564000  2
   5905  11769  11765  11781     1  0.0000000  0.4184000  3
   5905  11769  11765  11764     1  180.0000771  0.4184000  2
   5905  11769  11765  11764     1  0.0000000  1.6024720  3
   5910   5911   5923   5935     1  0.0000000  0.6508444  3
   5910   5914   5926   5932     1  0.0000000  0.6508444  3
   5910   5917   5920   5929     1  0.0000000  0.6508444  3
   5911   5910   5914   5926     1  0.0000000  0.6508444  3
   5911   5910   5917   5920     1  0.0000000  0.6508444  3
   5911   5923   5935  11815     1  0.0000000  0.6508444  3
   5914   5910   5911   5923     1  0.0000000  0.6508444  3
   5914   5910   5917   5920     1  0.0000000  0.6508444  3
   5914   5926   5932  11792     1  0.0000000  0.6508444  3
   5917   5910   5911   5923     1  0.0000000  0.6508444  3
   5917   5910   5914   5926     1  0.0000000  0.6508444  3
   5917   5920   5929   5938     1  0.0000000  0.6508444  3
   5923   5935  11815  11811     1  180.0000771  0.4184000  2
   5923   5935  11815  11811     1  0.0000000  1.6024720  3
   5926   5932  11792  11788     1  180.0000771  0.4184000  2
   5926   5932  11792  11788     1  0.0000000  1.6024720  3
   5932  11792  11788  11787     1  180.0000771  0.4184000  2
   5932  11792  11788  11787     1  0.0000000  1.6024720  3
   5932  11792  11788  11804     1  180.0000771  5.6484000  1
   5932  11792  11788  11804     1  180.0000771  3.5564000  2
   5932  11792  11788  11804     1  0.0000000  0.4184000  3
   5935  11815  11811  11827     1  180.0000771  5.6484000  1
   5935  11815  11811  11827     1  180.0000771  3.5564000  2
   5935  11815  11811  11827     1  0.0000000  0.4184000  3
   5935  11815  11811  11810     1  180.0000771  0.4184000  2
   5935  11815  11811  11810     1  0.0000000  1.6024720  3
   5940   5941   5953   5965     1  0.0000000  0.6508444  3
   5940   5944   5956   5962     1  0.0000000  0.6508444  3
   5940   5947   5950   5959     1  0.0000000  0.6508444  3
   5941   5940   5944   5956     1  0.0000000  0.6508444  3
   5941   5940   5947   5950     1  0.0000000  0.6508444  3
   5941   5953   5965  11861     1  0.0000000  0.6508444  3
   5944   5940   5941   5953     1  0.0000000  0.6508444  3
   5944   5940   5947   5950     1  0.0000000  0.6508444  3
   5944   5956   5962  11838     1  0.0000000  0.6508444  3
   5947   5940   5941   5953     1  0.0000000  0.6508444  3
   5947   5940   5944   5956     1  0.0000000  0.6508444  3
   5947   5950   5959   5968     1  0.0000000  0.6508444  3
   5953   5965  11861  11857     1  180.0000771  0.4184000  2
   5953   5965  11861  11857     1  0.0000000  1.6024720  3
   5956   5962  11838  11834     1  180.0000771  0.4184000  2
   5956   5962  11838  11834     1  0.0000000  1.6024720  3
   5962  11838  11834  11833     1  180.0000771  0.4184000  2
   5962  11838  11834  11833     1  0.0000000  1.6024720  3
   5962  11838  11834  11850     1  180.0000771  5.6484000  1
   5962  11838  11834  11850     1  180.0000771  3.5564000  2
   5962  11838  11834  11850     1  0.0000000  0.4184000  3
   5965  11861  11857  11873     1  180.0000771  5.6484000  1
   5965  11861  11857  11873     1  180.0000771  3.5564000  2
   5965  11861  11857  11873     1  0.0000000  0.4184000  3
   5965  11861  11857  11856     1  180.0000771  0.4184000  2
   5965  11861  11857  11856     1  0.0000000  1.6024720  3
   5970   5971   5983   5995     1  0.0000000  0.6508444  3
   5970   5974   5986   5992     1  0.0000000  0.6508444  3
   5970   5977   5980   5989     1  0.0000000  0.6508444  3
   5971   5970   5974   5986     1  0.0000000  0.6508444  3
   5971   5970   5977   5980     1  0.0000000  0.6508444  3
   5971   5983   5995  11907     1  0.0000000  0.6508444  3
   5974   5970   5971   5983     1  0.0000000  0.6508444  3
   5974   5970   5977   5980     1  0.0000000  0.6508444  3
   5974   5986   5992  11884     1  0.0000000  0.6508444  3
   5977   5970   5971   5983     1  0.0000000  0.6508444  3
   5977   5970   5974   5986     1  0.0000000  0.6508444  3
   5977   5980   5989   5998     1  0.0000000  0.6508444  3
   5983   5995  11907  11903     1  180.0000771  0.4184000  2
   5983   5995  11907  11903     1  0.0000000  1.6024720  3
   5986   5992  11884  11880     1  180.0000771  0.4184000  2
   5986   5992  11884  11880     1  0.0000000  1.6024720  3
   5992  11884  11880  11879     1  180.0000771  0.4184000  2
   5992  11884  11880  11879     1  0.0000000  1.6024720  3
   5992  11884  11880  11896     1  180.0000771  5.6484000  1
   5992  11884  11880  11896     1  180.0000771  3.5564000  2
   5992  11884  11880  11896     1  0.0000000  0.4184000  3
   5995  11907  11903  11919     1  180.0000771  5.6484000  1
   5995  11907  11903  11919     1  180.0000771  3.5564000  2
   5995  11907  11903  11919     1  0.0000000  0.4184000  3
   5995  11907  11903  11902     1  180.0000771  0.4184000  2
   5995  11907  11903  11902     1  0.0000000  1.6024720  3
   6000   6001   6013   6025     1  0.0000000  0.6508444  3
   6000   6004   6016   6022     1  0.0000000  0.6508444  3
   6000   6007   6010   6019     1  0.0000000  0.6508444  3
   6001   6000   6004   6016     1  0.0000000  0.6508444  3
   6001   6000   6007   6010     1  0.0000000  0.6508444  3
   6001   6013   6025  11953     1  0.0000000  0.6508444  3
   6004   6000   6001   6013     1  0.0000000  0.6508444  3
   6004   6000   6007   6010     1  0.0000000  0.6508444  3
   6004   6016   6022  11930     1  0.0000000  0.6508444  3
   6007   6000   6001   6013     1  0.0000000  0.6508444  3
   6007   6000   6004   6016     1  0.0000000  0.6508444  3
   6007   6010   6019   6028     1  0.0000000  0.6508444  3
   6013   6025  11953  11949     1  180.0000771  0.4184000  2
   6013   6025  11953  11949     1  0.0000000  1.6024720  3
   6016   6022  11930  11926     1  180.0000771  0.4184000  2
   6016   6022  11930  11926     1  0.0000000  1.6024720  3
   6022  11930  11926  11925     1  180.0000771  0.4184000  2
   6022  11930  11926  11925     1  0.0000000  1.6024720  3
   6022  11930  11926  11942     1  180.0000771  5.6484000  1
   6022  11930  11926  11942     1  180.0000771  3.5564000  2
   6022  11930  11926  11942     1  0.0000000  0.4184000  3
   6025  11953  11949  11965     1  180.0000771  5.6484000  1
   6025  11953  11949  11965     1  180.0000771  3.5564000  2
   6025  11953  11949  11965     1  0.0000000  0.4184000  3
   6025  11953  11949  11948     1  180.0000771  0.4184000  2
   6025  11953  11949  11948     1  0.0000000  1.6024720  3
   6030   6031   6043   6055     1  0.0000000  0.6508444  3
   6030   6034   6046   6052     1  0.0000000  0.6508444  3
   6030   6037   6040   6049     1  0.0000000  0.6508444  3
   6031   6030   6034   6046     1  0.0000000  0.6508444  3
   6031   6030   6037   6040     1  0.0000000  0.6508444  3
   6031   6043   6055  11999     1  0.0000000  0.6508444  3
   6034   6030   6031   6043     1  0.0000000  0.6508444  3
   6034   6030   6037   6040     1  0.0000000  0.6508444  3
   6034   6046   6052  11976     1  0.0000000  0.6508444  3
   6037   6030   6031   6043     1  0.0000000  0.6508444  3
   6037   6030   6034   6046     1  0.0000000  0.6508444  3
   6037   6040   6049   6058     1  0.0000000  0.6508444  3
   6043   6055  11999  11995     1  180.0000771  0.4184000  2
   6043   6055  11999  11995     1  0.0000000  1.6024720  3
   6046   6052  11976  11972     1  180.0000771  0.4184000  2
   6046   6052  11976  11972     1  0.0000000  1.6024720  3
   6052  11976  11972  11971     1  180.0000771  0.4184000  2
   6052  11976  11972  11971     1  0.0000000  1.6024720  3
   6052  11976  11972  11988     1  180.0000771  5.6484000  1
   6052  11976  11972  11988     1  180.0000771  3.5564000  2
   6052  11976  11972  11988     1  0.0000000  0.4184000  3
   6055  11999  11995  12011     1  180.0000771  5.6484000  1
   6055  11999  11995  12011     1  180.0000771  3.5564000  2
   6055  11999  11995  12011     1  0.0000000  0.4184000  3
   6055  11999  11995  11994     1  180.0000771  0.4184000  2
   6055  11999  11995  11994     1  0.0000000  1.6024720  3
   6060   6061   6073   6085     1  0.0000000  0.6508444  3
   6060   6064   6076   6082     1  0.0000000  0.6508444  3
   6060   6067   6070   6079     1  0.0000000  0.6508444  3
   6061   6060   6064   6076     1  0.0000000  0.6508444  3
   6061   6060   6067   6070     1  0.0000000  0.6508444  3
   6061   6073   6085  12045     1  0.0000000  0.6508444  3
   6064   6060   6061   6073     1  0.0000000  0.6508444  3
   6064   6060   6067   6070     1  0.0000000  0.6508444  3
   6064   6076   6082  12022     1  0.0000000  0.6508444  3
   6067   6060   6061   6073     1  0.0000000  0.6508444  3
   6067   6060   6064   6076     1  0.0000000  0.6508444  3
   6067   6070   6079   6088     1  0.0000000  0.6508444  3
   6073   6085  12045  12041     1  180.0000771  0.4184000  2
   6073   6085  12045  12041     1  0.0000000  1.6024720  3
   6076   6082  12022  12018     1  180.0000771  0.4184000  2
   6076   6082  12022  12018     1  0.0000000  1.6024720  3
   6082  12022  12018  12017     1  180.0000771  0.4184000  2
   6082  12022  12018  12017     1  0.0000000  1.6024720  3
   6082  12022  12018  12034     1  180.0000771  5.6484000  1
   6082  12022  12018  12034     1  180.0000771  3.5564000  2
   6082  12022  12018  12034     1  0.0000000  0.4184000  3
   6085  12045  12041  12057     1  180.0000771  5.6484000  1
   6085  12045  12041  12057     1  180.0000771  3.5564000  2
   6085  12045  12041  12057     1  0.0000000  0.4184000  3
   6085  12045  12041  12040     1  180.0000771  0.4184000  2
   6085  12045  12041  12040     1  0.0000000  1.6024720  3
   6090   6091   6103   6115     1  0.0000000  0.6508444  3
   6090   6094   6106   6112     1  0.0000000  0.6508444  3
   6090   6097   6100   6109     1  0.0000000  0.6508444  3
   6091   6090   6094   6106     1  0.0000000  0.6508444  3
   6091   6090   6097   6100     1  0.0000000  0.6508444  3
   6091   6103   6115  12091     1  0.0000000  0.6508444  3
   6094   6090   6091   6103     1  0.0000000  0.6508444  3
   6094   6090   6097   6100     1  0.0000000  0.6508444  3
   6094   6106   6112  12068     1  0.0000000  0.6508444  3
   6097   6090   6091   6103     1  0.0000000  0.6508444  3
   6097   6090   6094   6106     1  0.0000000  0.6508444  3
   6097   6100   6109   6118     1  0.0000000  0.6508444  3
   6103   6115  12091  12087     1  180.0000771  0.4184000  2
   6103   6115  12091  12087     1  0.0000000  1.6024720  3
   6106   6112  12068  12064     1  180.0000771  0.4184000  2
   6106   6112  12068  12064     1  0.0000000  1.6024720  3
   6112  12068  12064  12063     1  180.0000771  0.4184000  2
   6112  12068  12064  12063     1  0.0000000  1.6024720  3
   6112  12068  12064  12080     1  180.0000771  5.6484000  1
   6112  12068  12064  12080     1  180.0000771  3.5564000  2
   6112  12068  12064  12080     1  0.0000000  0.4184000  3
   6115  12091  12087  12103     1  180.0000771  5.6484000  1
   6115  12091  12087  12103     1  180.0000771  3.5564000  2
   6115  12091  12087  12103     1  0.0000000  0.4184000  3
   6115  12091  12087  12086     1  180.0000771  0.4184000  2
   6115  12091  12087  12086     1  0.0000000  1.6024720  3
   6120   6121   6133   6145     1  0.0000000  0.6508444  3
   6120   6124   6136   6142     1  0.0000000  0.6508444  3
   6120   6127   6130   6139     1  0.0000000  0.6508444  3
   6121   6120   6124   6136     1  0.0000000  0.6508444  3
   6121   6120   6127   6130     1  0.0000000  0.6508444  3
   6121   6133   6145  12137     1  0.0000000  0.6508444  3
   6124   6120   6121   6133     1  0.0000000  0.6508444  3
   6124   6120   6127   6130     1  0.0000000  0.6508444  3
   6124   6136   6142  12114     1  0.0000000  0.6508444  3
   6127   6120   6121   6133     1  0.0000000  0.6508444  3
   6127   6120   6124   6136     1  0.0000000  0.6508444  3
   6127   6130   6139   6148     1  0.0000000  0.6508444  3
   6133   6145  12137  12133     1  180.0000771  0.4184000  2
   6133   6145  12137  12133     1  0.0000000  1.6024720  3
   6136   6142  12114  12110     1  180.0000771  0.4184000  2
   6136   6142  12114  12110     1  0.0000000  1.6024720  3
   6142  12114  12110  12109     1  180.0000771  0.4184000  2
   6142  12114  12110  12109     1  0.0000000  1.6024720  3
   6142  12114  12110  12126     1  180.0000771  5.6484000  1
   6142  12114  12110  12126     1  180.0000771  3.5564000  2
   6142  12114  12110  12126     1  0.0000000  0.4184000  3
   6145  12137  12133  12149     1  180.0000771  5.6484000  1
   6145  12137  12133  12149     1  180.0000771  3.5564000  2
   6145  12137  12133  12149     1  0.0000000  0.4184000  3
   6145  12137  12133  12132     1  180.0000771  0.4184000  2
   6145  12137  12133  12132     1  0.0000000  1.6024720  3
   6150   6151   6163   6175     1  0.0000000  0.6508444  3
   6150   6154   6166   6172     1  0.0000000  0.6508444  3
   6150   6157   6160   6169     1  0.0000000  0.6508444  3
   6151   6150   6154   6166     1  0.0000000  0.6508444  3
   6151   6150   6157   6160     1  0.0000000  0.6508444  3
   6151   6163   6175  12183     1  0.0000000  0.6508444  3
   6154   6150   6151   6163     1  0.0000000  0.6508444  3
   6154   6150   6157   6160     1  0.0000000  0.6508444  3
   6154   6166   6172  12160     1  0.0000000  0.6508444  3
   6157   6150   6151   6163     1  0.0000000  0.6508444  3
   6157   6150   6154   6166     1  0.0000000  0.6508444  3
   6157   6160   6169   6178     1  0.0000000  0.6508444  3
   6163   6175  12183  12179     1  180.0000771  0.4184000  2
   6163   6175  12183  12179     1  0.0000000  1.6024720  3
   6166   6172  12160  12156     1  180.0000771  0.4184000  2
   6166   6172  12160  12156     1  0.0000000  1.6024720  3
   6172  12160  12156  12155     1  180.0000771  0.4184000  2
   6172  12160  12156  12155     1  0.0000000  1.6024720  3
   6172  12160  12156  12172     1  180.0000771  5.6484000  1
   6172  12160  12156  12172     1  180.0000771  3.5564000  2
   6172  12160  12156  12172     1  0.0000000  0.4184000  3
   6175  12183  12179  12195     1  180.0000771  5.6484000  1
   6175  12183  12179  12195     1  180.0000771  3.5564000  2
   6175  12183  12179  12195     1  0.0000000  0.4184000  3
   6175  12183  12179  12178     1  180.0000771  0.4184000  2
   6175  12183  12179  12178     1  0.0000000  1.6024720  3
   6180   6181   6193   6205     1  0.0000000  0.6508444  3
   6180   6184   6196   6202     1  0.0000000  0.6508444  3
   6180   6187   6190   6199     1  0.0000000  0.6508444  3
   6181   6180   6184   6196     1  0.0000000  0.6508444  3
   6181   6180   6187   6190     1  0.0000000  0.6508444  3
   6181   6193   6205  12229     1  0.0000000  0.6508444  3
   6184   6180   6181   6193     1  0.0000000  0.6508444  3
   6184   6180   6187   6190     1  0.0000000  0.6508444  3
   6184   6196   6202  12206     1  0.0000000  0.6508444  3
   6187   6180   6181   6193     1  0.0000000  0.6508444  3
   6187   6180   6184   6196     1  0.0000000  0.6508444  3
   6187   6190   6199   6208     1  0.0000000  0.6508444  3
   6193   6205  12229  12225     1  180.0000771  0.4184000  2
   6193   6205  12229  12225     1  0.0000000  1.6024720  3
   6196   6202  12206  12202     1  180.0000771  0.4184000  2
   6196   6202  12206  12202     1  0.0000000  1.6024720  3
   6202  12206  12202  12201     1  180.0000771  0.4184000  2
   6202  12206  12202  12201     1  0.0000000  1.6024720  3
   6202  12206  12202  12218     1  180.0000771  5.6484000  1
   6202  12206  12202  12218     1  180.0000771  3.5564000  2
   6202  12206  12202  12218     1  0.0000000  0.4184000  3
   6205  12229  12225  12241     1  180.0000771  5.6484000  1
   6205  12229  12225  12241     1  180.0000771  3.5564000  2
   6205  12229  12225  12241     1  0.0000000  0.4184000  3
   6205  12229  12225  12224     1  180.0000771  0.4184000  2
   6205  12229  12225  12224     1  0.0000000  1.6024720  3
   6210   6211   6223   6235     1  0.0000000  0.6508444  3
   6210   6214   6226   6232     1  0.0000000  0.6508444  3
   6210   6217   6220   6229     1  0.0000000  0.6508444  3
   6211   6210   6214   6226     1  0.0000000  0.6508444  3
   6211   6210   6217   6220     1  0.0000000  0.6508444  3
   6211   6223   6235  12275     1  0.0000000  0.6508444  3
   6214   6210   6211   6223     1  0.0000000  0.6508444  3
   6214   6210   6217   6220     1  0.0000000  0.6508444  3
   6214   6226   6232  12252     1  0.0000000  0.6508444  3
   6217   6210   6211   6223     1  0.0000000  0.6508444  3
   6217   6210   6214   6226     1  0.0000000  0.6508444  3
   6217   6220   6229   6238     1  0.0000000  0.6508444  3
   6223   6235  12275  12271     1  180.0000771  0.4184000  2
   6223   6235  12275  12271     1  0.0000000  1.6024720  3
   6226   6232  12252  12248     1  180.0000771  0.4184000  2
   6226   6232  12252  12248     1  0.0000000  1.6024720  3
   6232  12252  12248  12247     1  180.0000771  0.4184000  2
   6232  12252  12248  12247     1  0.0000000  1.6024720  3
   6232  12252  12248  12264     1  180.0000771  5.6484000  1
   6232  12252  12248  12264     1  180.0000771  3.5564000  2
   6232  12252  12248  12264     1  0.0000000  0.4184000  3
   6235  12275  12271  12287     1  180.0000771  5.6484000  1
   6235  12275  12271  12287     1  180.0000771  3.5564000  2
   6235  12275  12271  12287     1  0.0000000  0.4184000  3
   6235  12275  12271  12270     1  180.0000771  0.4184000  2
   6235  12275  12271  12270     1  0.0000000  1.6024720  3
   6240   6241   6253   6265     1  0.0000000  0.6508444  3
   6240   6244   6256   6262     1  0.0000000  0.6508444  3
   6240   6247   6250   6259     1  0.0000000  0.6508444  3
   6241   6240   6244   6256     1  0.0000000  0.6508444  3
   6241   6240   6247   6250     1  0.0000000  0.6508444  3
   6241   6253   6265  12321     1  0.0000000  0.6508444  3
   6244   6240   6241   6253     1  0.0000000  0.6508444  3
   6244   6240   6247   6250     1  0.0000000  0.6508444  3
   6244   6256   6262  12298     1  0.0000000  0.6508444  3
   6247   6240   6241   6253     1  0.0000000  0.6508444  3
   6247   6240   6244   6256     1  0.0000000  0.6508444  3
   6247   6250   6259   6268     1  0.0000000  0.6508444  3
   6253   6265  12321  12317     1  180.0000771  0.4184000  2
   6253   6265  12321  12317     1  0.0000000  1.6024720  3
   6256   6262  12298  12294     1  180.0000771  0.4184000  2
   6256   6262  12298  12294     1  0.0000000  1.6024720  3
   6262  12298  12294  12293     1  180.0000771  0.4184000  2
   6262  12298  12294  12293     1  0.0000000  1.6024720  3
   6262  12298  12294  12310     1  180.0000771  5.6484000  1
   6262  12298  12294  12310     1  180.0000771  3.5564000  2
   6262  12298  12294  12310     1  0.0000000  0.4184000  3
   6265  12321  12317  12333     1  180.0000771  5.6484000  1
   6265  12321  12317  12333     1  180.0000771  3.5564000  2
   6265  12321  12317  12333     1  0.0000000  0.4184000  3
   6265  12321  12317  12316     1  180.0000771  0.4184000  2
   6265  12321  12317  12316     1  0.0000000  1.6024720  3
   6270   6271   6283   6295     1  0.0000000  0.6508444  3
   6270   6274   6286   6292     1  0.0000000  0.6508444  3
   6270   6277   6280   6289     1  0.0000000  0.6508444  3
   6271   6270   6274   6286     1  0.0000000  0.6508444  3
   6271   6270   6277   6280     1  0.0000000  0.6508444  3
   6271   6283   6295  12367     1  0.0000000  0.6508444  3
   6274   6270   6271   6283     1  0.0000000  0.6508444  3
   6274   6270   6277   6280     1  0.0000000  0.6508444  3
   6274   6286   6292  12344     1  0.0000000  0.6508444  3
   6277   6270   6271   6283     1  0.0000000  0.6508444  3
   6277   6270   6274   6286     1  0.0000000  0.6508444  3
   6277   6280   6289   6298     1  0.0000000  0.6508444  3
   6283   6295  12367  12363     1  180.0000771  0.4184000  2
   6283   6295  12367  12363     1  0.0000000  1.6024720  3
   6286   6292  12344  12340     1  180.0000771  0.4184000  2
   6286   6292  12344  12340     1  0.0000000  1.6024720  3
   6292  12344  12340  12339     1  180.0000771  0.4184000  2
   6292  12344  12340  12339     1  0.0000000  1.6024720  3
   6292  12344  12340  12356     1  180.0000771  5.6484000  1
   6292  12344  12340  12356     1  180.0000771  3.5564000  2
   6292  12344  12340  12356     1  0.0000000  0.4184000  3
   6295  12367  12363  12379     1  180.0000771  5.6484000  1
   6295  12367  12363  12379     1  180.0000771  3.5564000  2
   6295  12367  12363  12379     1  0.0000000  0.4184000  3
   6295  12367  12363  12362     1  180.0000771  0.4184000  2
   6295  12367  12363  12362     1  0.0000000  1.6024720  3
   6300   6301   6313   6325     1  0.0000000  0.6508444  3
   6300   6304   6316   6322     1  0.0000000  0.6508444  3
   6300   6307   6310   6319     1  0.0000000  0.6508444  3
   6301   6300   6304   6316     1  0.0000000  0.6508444  3
   6301   6300   6307   6310     1  0.0000000  0.6508444  3
   6301   6313   6325  12413     1  0.0000000  0.6508444  3
   6304   6300   6301   6313     1  0.0000000  0.6508444  3
   6304   6300   6307   6310     1  0.0000000  0.6508444  3
   6304   6316   6322  12390     1  0.0000000  0.6508444  3
   6307   6300   6301   6313     1  0.0000000  0.6508444  3
   6307   6300   6304   6316     1  0.0000000  0.6508444  3
   6307   6310   6319   6328     1  0.0000000  0.6508444  3
   6313   6325  12413  12409     1  180.0000771  0.4184000  2
   6313   6325  12413  12409     1  0.0000000  1.6024720  3
   6316   6322  12390  12386     1  180.0000771  0.4184000  2
   6316   6322  12390  12386     1  0.0000000  1.6024720  3
   6322  12390  12386  12385     1  180.0000771  0.4184000  2
   6322  12390  12386  12385     1  0.0000000  1.6024720  3
   6322  12390  12386  12402     1  180.0000771  5.6484000  1
   6322  12390  12386  12402     1  180.0000771  3.5564000  2
   6322  12390  12386  12402     1  0.0000000  0.4184000  3
   6325  12413  12409  12425     1  180.0000771  5.6484000  1
   6325  12413  12409  12425     1  180.0000771  3.5564000  2
   6325  12413  12409  12425     1  0.0000000  0.4184000  3
   6325  12413  12409  12408     1  180.0000771  0.4184000  2
   6325  12413  12409  12408     1  0.0000000  1.6024720  3
   6330   6331   6343   6355     1  0.0000000  0.6508444  3
   6330   6334   6346   6352     1  0.0000000  0.6508444  3
   6330   6337   6340   6349     1  0.0000000  0.6508444  3
   6331   6330   6334   6346     1  0.0000000  0.6508444  3
   6331   6330   6337   6340     1  0.0000000  0.6508444  3
   6331   6343   6355  12459     1  0.0000000  0.6508444  3
   6334   6330   6331   6343     1  0.0000000  0.6508444  3
   6334   6330   6337   6340     1  0.0000000  0.6508444  3
   6334   6346   6352  12436     1  0.0000000  0.6508444  3
   6337   6330   6331   6343     1  0.0000000  0.6508444  3
   6337   6330   6334   6346     1  0.0000000  0.6508444  3
   6337   6340   6349   6358     1  0.0000000  0.6508444  3
   6343   6355  12459  12455     1  180.0000771  0.4184000  2
   6343   6355  12459  12455     1  0.0000000  1.6024720  3
   6346   6352  12436  12432     1  180.0000771  0.4184000  2
   6346   6352  12436  12432     1  0.0000000  1.6024720  3
   6352  12436  12432  12431     1  180.0000771  0.4184000  2
   6352  12436  12432  12431     1  0.0000000  1.6024720  3
   6352  12436  12432  12448     1  180.0000771  5.6484000  1
   6352  12436  12432  12448     1  180.0000771  3.5564000  2
   6352  12436  12432  12448     1  0.0000000  0.4184000  3
   6355  12459  12455  12471     1  180.0000771  5.6484000  1
   6355  12459  12455  12471     1  180.0000771  3.5564000  2
   6355  12459  12455  12471     1  0.0000000  0.4184000  3
   6355  12459  12455  12454     1  180.0000771  0.4184000  2
   6355  12459  12455  12454     1  0.0000000  1.6024720  3
   6360   6361   6373   6385     1  0.0000000  0.6508444  3
   6360   6364   6376   6382     1  0.0000000  0.6508444  3
   6360   6367   6370   6379     1  0.0000000  0.6508444  3
   6361   6360   6364   6376     1  0.0000000  0.6508444  3
   6361   6360   6367   6370     1  0.0000000  0.6508444  3
   6361   6373   6385  12505     1  0.0000000  0.6508444  3
   6364   6360   6361   6373     1  0.0000000  0.6508444  3
   6364   6360   6367   6370     1  0.0000000  0.6508444  3
   6364   6376   6382  12482     1  0.0000000  0.6508444  3
   6367   6360   6361   6373     1  0.0000000  0.6508444  3
   6367   6360   6364   6376     1  0.0000000  0.6508444  3
   6367   6370   6379   6388     1  0.0000000  0.6508444  3
   6373   6385  12505  12501     1  180.0000771  0.4184000  2
   6373   6385  12505  12501     1  0.0000000  1.6024720  3
   6376   6382  12482  12478     1  180.0000771  0.4184000  2
   6376   6382  12482  12478     1  0.0000000  1.6024720  3
   6382  12482  12478  12477     1  180.0000771  0.4184000  2
   6382  12482  12478  12477     1  0.0000000  1.6024720  3
   6382  12482  12478  12494     1  180.0000771  5.6484000  1
   6382  12482  12478  12494     1  180.0000771  3.5564000  2
   6382  12482  12478  12494     1  0.0000000  0.4184000  3
   6385  12505  12501  12517     1  180.0000771  5.6484000  1
   6385  12505  12501  12517     1  180.0000771  3.5564000  2
   6385  12505  12501  12517     1  0.0000000  0.4184000  3
   6385  12505  12501  12500     1  180.0000771  0.4184000  2
   6385  12505  12501  12500     1  0.0000000  1.6024720  3
   6390   6391   6403   6415     1  0.0000000  0.6508444  3
   6390   6394   6406   6412     1  0.0000000  0.6508444  3
   6390   6397   6400   6409     1  0.0000000  0.6508444  3
   6391   6390   6394   6406     1  0.0000000  0.6508444  3
   6391   6390   6397   6400     1  0.0000000  0.6508444  3
   6391   6403   6415  12551     1  0.0000000  0.6508444  3
   6394   6390   6391   6403     1  0.0000000  0.6508444  3
   6394   6390   6397   6400     1  0.0000000  0.6508444  3
   6394   6406   6412  12528     1  0.0000000  0.6508444  3
   6397   6390   6391   6403     1  0.0000000  0.6508444  3
   6397   6390   6394   6406     1  0.0000000  0.6508444  3
   6397   6400   6409   6418     1  0.0000000  0.6508444  3
   6403   6415  12551  12547     1  180.0000771  0.4184000  2
   6403   6415  12551  12547     1  0.0000000  1.6024720  3
   6406   6412  12528  12524     1  180.0000771  0.4184000  2
   6406   6412  12528  12524     1  0.0000000  1.6024720  3
   6412  12528  12524  12523     1  180.0000771  0.4184000  2
   6412  12528  12524  12523     1  0.0000000  1.6024720  3
   6412  12528  12524  12540     1  180.0000771  5.6484000  1
   6412  12528  12524  12540     1  180.0000771  3.5564000  2
   6412  12528  12524  12540     1  0.0000000  0.4184000  3
   6415  12551  12547  12563     1  180.0000771  5.6484000  1
   6415  12551  12547  12563     1  180.0000771  3.5564000  2
   6415  12551  12547  12563     1  0.0000000  0.4184000  3
   6415  12551  12547  12546     1  180.0000771  0.4184000  2
   6415  12551  12547  12546     1  0.0000000  1.6024720  3
   6420   6421   6433   6445     1  0.0000000  0.6508444  3
   6420   6424   6436   6442     1  0.0000000  0.6508444  3
   6420   6427   6430   6439     1  0.0000000  0.6508444  3
   6421   6420   6424   6436     1  0.0000000  0.6508444  3
   6421   6420   6427   6430     1  0.0000000  0.6508444  3
   6421   6433   6445  12597     1  0.0000000  0.6508444  3
   6424   6420   6421   6433     1  0.0000000  0.6508444  3
   6424   6420   6427   6430     1  0.0000000  0.6508444  3
   6424   6436   6442  12574     1  0.0000000  0.6508444  3
   6427   6420   6421   6433     1  0.0000000  0.6508444  3
   6427   6420   6424   6436     1  0.0000000  0.6508444  3
   6427   6430   6439   6448     1  0.0000000  0.6508444  3
   6433   6445  12597  12593     1  180.0000771  0.4184000  2
   6433   6445  12597  12593     1  0.0000000  1.6024720  3
   6436   6442  12574  12570     1  180.0000771  0.4184000  2
   6436   6442  12574  12570     1  0.0000000  1.6024720  3
   6442  12574  12570  12569     1  180.0000771  0.4184000  2
   6442  12574  12570  12569     1  0.0000000  1.6024720  3
   6442  12574  12570  12586     1  180.0000771  5.6484000  1
   6442  12574  12570  12586     1  180.0000771  3.5564000  2
   6442  12574  12570  12586     1  0.0000000  0.4184000  3
   6445  12597  12593  12609     1  180.0000771  5.6484000  1
   6445  12597  12593  12609     1  180.0000771  3.5564000  2
   6445  12597  12593  12609     1  0.0000000  0.4184000  3
   6445  12597  12593  12592     1  180.0000771  0.4184000  2
   6445  12597  12593  12592     1  0.0000000  1.6024720  3
   6450   6451   6463   6475     1  0.0000000  0.6508444  3
   6450   6454   6466   6472     1  0.0000000  0.6508444  3
   6450   6457   6460   6469     1  0.0000000  0.6508444  3
   6451   6450   6454   6466     1  0.0000000  0.6508444  3
   6451   6450   6457   6460     1  0.0000000  0.6508444  3
   6451   6463   6475  12643     1  0.0000000  0.6508444  3
   6454   6450   6451   6463     1  0.0000000  0.6508444  3
   6454   6450   6457   6460     1  0.0000000  0.6508444  3
   6454   6466   6472  12620     1  0.0000000  0.6508444  3
   6457   6450   6451   6463     1  0.0000000  0.6508444  3
   6457   6450   6454   6466     1  0.0000000  0.6508444  3
   6457   6460   6469   6478     1  0.0000000  0.6508444  3
   6463   6475  12643  12639     1  180.0000771  0.4184000  2
   6463   6475  12643  12639     1  0.0000000  1.6024720  3
   6466   6472  12620  12616     1  180.0000771  0.4184000  2
   6466   6472  12620  12616     1  0.0000000  1.6024720  3
   6472  12620  12616  12615     1  180.0000771  0.4184000  2
   6472  12620  12616  12615     1  0.0000000  1.6024720  3
   6472  12620  12616  12632     1  180.0000771  5.6484000  1
   6472  12620  12616  12632     1  180.0000771  3.5564000  2
   6472  12620  12616  12632     1  0.0000000  0.4184000  3
   6475  12643  12639  12655     1  180.0000771  5.6484000  1
   6475  12643  12639  12655     1  180.0000771  3.5564000  2
   6475  12643  12639  12655     1  0.0000000  0.4184000  3
   6475  12643  12639  12638     1  180.0000771  0.4184000  2
   6475  12643  12639  12638     1  0.0000000  1.6024720  3
   6480   6481   6493   6505     1  0.0000000  0.6508444  3
   6480   6484   6496   6502     1  0.0000000  0.6508444  3
   6480   6487   6490   6499     1  0.0000000  0.6508444  3
   6481   6480   6484   6496     1  0.0000000  0.6508444  3
   6481   6480   6487   6490     1  0.0000000  0.6508444  3
   6481   6493   6505  12689     1  0.0000000  0.6508444  3
   6484   6480   6481   6493     1  0.0000000  0.6508444  3
   6484   6480   6487   6490     1  0.0000000  0.6508444  3
   6484   6496   6502  12666     1  0.0000000  0.6508444  3
   6487   6480   6481   6493     1  0.0000000  0.6508444  3
   6487   6480   6484   6496     1  0.0000000  0.6508444  3
   6487   6490   6499   6508     1  0.0000000  0.6508444  3
   6493   6505  12689  12685     1  180.0000771  0.4184000  2
   6493   6505  12689  12685     1  0.0000000  1.6024720  3
   6496   6502  12666  12662     1  180.0000771  0.4184000  2
   6496   6502  12666  12662     1  0.0000000  1.6024720  3
   6502  12666  12662  12661     1  180.0000771  0.4184000  2
   6502  12666  12662  12661     1  0.0000000  1.6024720  3
   6502  12666  12662  12678     1  180.0000771  5.6484000  1
   6502  12666  12662  12678     1  180.0000771  3.5564000  2
   6502  12666  12662  12678     1  0.0000000  0.4184000  3
   6505  12689  12685  12701     1  180.0000771  5.6484000  1
   6505  12689  12685  12701     1  180.0000771  3.5564000  2
   6505  12689  12685  12701     1  0.0000000  0.4184000  3
   6505  12689  12685  12684     1  180.0000771  0.4184000  2
   6505  12689  12685  12684     1  0.0000000  1.6024720  3
   6510   6511   6523   6535     1  0.0000000  0.6508444  3
   6510   6514   6526   6532     1  0.0000000  0.6508444  3
   6510   6517   6520   6529     1  0.0000000  0.6508444  3
   6511   6510   6514   6526     1  0.0000000  0.6508444  3
   6511   6510   6517   6520     1  0.0000000  0.6508444  3
   6511   6523   6535  12735     1  0.0000000  0.6508444  3
   6514   6510   6511   6523     1  0.0000000  0.6508444  3
   6514   6510   6517   6520     1  0.0000000  0.6508444  3
   6514   6526   6532  12712     1  0.0000000  0.6508444  3
   6517   6510   6511   6523     1  0.0000000  0.6508444  3
   6517   6510   6514   6526     1  0.0000000  0.6508444  3
   6517   6520   6529   6538     1  0.0000000  0.6508444  3
   6523   6535  12735  12731     1  180.0000771  0.4184000  2
   6523   6535  12735  12731     1  0.0000000  1.6024720  3
   6526   6532  12712  12708     1  180.0000771  0.4184000  2
   6526   6532  12712  12708     1  0.0000000  1.6024720  3
   6532  12712  12708  12707     1  180.0000771  0.4184000  2
   6532  12712  12708  12707     1  0.0000000  1.6024720  3
   6532  12712  12708  12724     1  180.0000771  5.6484000  1
   6532  12712  12708  12724     1  180.0000771  3.5564000  2
   6532  12712  12708  12724     1  0.0000000  0.4184000  3
   6535  12735  12731  12747     1  180.0000771  5.6484000  1
   6535  12735  12731  12747     1  180.0000771  3.5564000  2
   6535  12735  12731  12747     1  0.0000000  0.4184000  3
   6535  12735  12731  12730     1  180.0000771  0.4184000  2
   6535  12735  12731  12730     1  0.0000000  1.6024720  3
   6540   6541   6553   6565     1  0.0000000  0.6508444  3
   6540   6544   6556   6562     1  0.0000000  0.6508444  3
   6540   6547   6550   6559     1  0.0000000  0.6508444  3
   6541   6540   6544   6556     1  0.0000000  0.6508444  3
   6541   6540   6547   6550     1  0.0000000  0.6508444  3
   6541   6553   6565  12781     1  0.0000000  0.6508444  3
   6544   6540   6541   6553     1  0.0000000  0.6508444  3
   6544   6540   6547   6550     1  0.0000000  0.6508444  3
   6544   6556   6562  12758     1  0.0000000  0.6508444  3
   6547   6540   6541   6553     1  0.0000000  0.6508444  3
   6547   6540   6544   6556     1  0.0000000  0.6508444  3
   6547   6550   6559   6568     1  0.0000000  0.6508444  3
   6553   6565  12781  12777     1  180.0000771  0.4184000  2
   6553   6565  12781  12777     1  0.0000000  1.6024720  3
   6556   6562  12758  12754     1  180.0000771  0.4184000  2
   6556   6562  12758  12754     1  0.0000000  1.6024720  3
   6562  12758  12754  12753     1  180.0000771  0.4184000  2
   6562  12758  12754  12753     1  0.0000000  1.6024720  3
   6562  12758  12754  12770     1  180.0000771  5.6484000  1
   6562  12758  12754  12770     1  180.0000771  3.5564000  2
   6562  12758  12754  12770     1  0.0000000  0.4184000  3
   6565  12781  12777  12793     1  180.0000771  5.6484000  1
   6565  12781  12777  12793     1  180.0000771  3.5564000  2
   6565  12781  12777  12793     1  0.0000000  0.4184000  3
   6565  12781  12777  12776     1  180.0000771  0.4184000  2
   6565  12781  12777  12776     1  0.0000000  1.6024720  3
   6570   6571   6583   6595     1  0.0000000  0.6508444  3
   6570   6574   6586   6592     1  0.0000000  0.6508444  3
   6570   6577   6580   6589     1  0.0000000  0.6508444  3
   6571   6570   6574   6586     1  0.0000000  0.6508444  3
   6571   6570   6577   6580     1  0.0000000  0.6508444  3
   6571   6583   6595  12827     1  0.0000000  0.6508444  3
   6574   6570   6571   6583     1  0.0000000  0.6508444  3
   6574   6570   6577   6580     1  0.0000000  0.6508444  3
   6574   6586   6592  12804     1  0.0000000  0.6508444  3
   6577   6570   6571   6583     1  0.0000000  0.6508444  3
   6577   6570   6574   6586     1  0.0000000  0.6508444  3
   6577   6580   6589   6598     1  0.0000000  0.6508444  3
   6583   6595  12827  12823     1  180.0000771  0.4184000  2
   6583   6595  12827  12823     1  0.0000000  1.6024720  3
   6586   6592  12804  12800     1  180.0000771  0.4184000  2
   6586   6592  12804  12800     1  0.0000000  1.6024720  3
   6592  12804  12800  12799     1  180.0000771  0.4184000  2
   6592  12804  12800  12799     1  0.0000000  1.6024720  3
   6592  12804  12800  12816     1  180.0000771  5.6484000  1
   6592  12804  12800  12816     1  180.0000771  3.5564000  2
   6592  12804  12800  12816     1  0.0000000  0.4184000  3
   6595  12827  12823  12839     1  180.0000771  5.6484000  1
   6595  12827  12823  12839     1  180.0000771  3.5564000  2
   6595  12827  12823  12839     1  0.0000000  0.4184000  3
   6595  12827  12823  12822     1  180.0000771  0.4184000  2
   6595  12827  12823  12822     1  0.0000000  1.6024720  3
   6600   6601   6613   6625     1  0.0000000  0.6508444  3
   6600   6604   6616   6622     1  0.0000000  0.6508444  3
   6600   6607   6610   6619     1  0.0000000  0.6508444  3
   6601   6600   6604   6616     1  0.0000000  0.6508444  3
   6601   6600   6607   6610     1  0.0000000  0.6508444  3
   6601   6613   6625  12873     1  0.0000000  0.6508444  3
   6604   6600   6601   6613     1  0.0000000  0.6508444  3
   6604   6600   6607   6610     1  0.0000000  0.6508444  3
   6604   6616   6622  12850     1  0.0000000  0.6508444  3
   6607   6600   6601   6613     1  0.0000000  0.6508444  3
   6607   6600   6604   6616     1  0.0000000  0.6508444  3
   6607   6610   6619   6628     1  0.0000000  0.6508444  3
   6613   6625  12873  12869     1  180.0000771  0.4184000  2
   6613   6625  12873  12869     1  0.0000000  1.6024720  3
   6616   6622  12850  12846     1  180.0000771  0.4184000  2
   6616   6622  12850  12846     1  0.0000000  1.6024720  3
   6622  12850  12846  12845     1  180.0000771  0.4184000  2
   6622  12850  12846  12845     1  0.0000000  1.6024720  3
   6622  12850  12846  12862     1  180.0000771  5.6484000  1
   6622  12850  12846  12862     1  180.0000771  3.5564000  2
   6622  12850  12846  12862     1  0.0000000  0.4184000  3
   6625  12873  12869  12885     1  180.0000771  5.6484000  1
   6625  12873  12869  12885     1  180.0000771  3.5564000  2
   6625  12873  12869  12885     1  0.0000000  0.4184000  3
   6625  12873  12869  12868     1  180.0000771  0.4184000  2
   6625  12873  12869  12868     1  0.0000000  1.6024720  3
   6630   6631   6643   6655     1  0.0000000  0.6508444  3
   6630   6634   6646   6652     1  0.0000000  0.6508444  3
   6630   6637   6640   6649     1  0.0000000  0.6508444  3
   6631   6630   6634   6646     1  0.0000000  0.6508444  3
   6631   6630   6637   6640     1  0.0000000  0.6508444  3
   6631   6643   6655  12919     1  0.0000000  0.6508444  3
   6634   6630   6631   6643     1  0.0000000  0.6508444  3
   6634   6630   6637   6640     1  0.0000000  0.6508444  3
   6634   6646   6652  12896     1  0.0000000  0.6508444  3
   6637   6630   6631   6643     1  0.0000000  0.6508444  3
   6637   6630   6634   6646     1  0.0000000  0.6508444  3
   6637   6640   6649   6658     1  0.0000000  0.6508444  3
   6643   6655  12919  12915     1  180.0000771  0.4184000  2
   6643   6655  12919  12915     1  0.0000000  1.6024720  3
   6646   6652  12896  12892     1  180.0000771  0.4184000  2
   6646   6652  12896  12892     1  0.0000000  1.6024720  3
   6652  12896  12892  12891     1  180.0000771  0.4184000  2
   6652  12896  12892  12891     1  0.0000000  1.6024720  3
   6652  12896  12892  12908     1  180.0000771  5.6484000  1
   6652  12896  12892  12908     1  180.0000771  3.5564000  2
   6652  12896  12892  12908     1  0.0000000  0.4184000  3
   6655  12919  12915  12931     1  180.0000771  5.6484000  1
   6655  12919  12915  12931     1  180.0000771  3.5564000  2
   6655  12919  12915  12931     1  0.0000000  0.4184000  3
   6655  12919  12915  12914     1  180.0000771  0.4184000  2
   6655  12919  12915  12914     1  0.0000000  1.6024720  3
   6660   6661   6673   6685     1  0.0000000  0.6508444  3
   6660   6664   6676   6682     1  0.0000000  0.6508444  3
   6660   6667   6670   6679     1  0.0000000  0.6508444  3
   6661   6660   6664   6676     1  0.0000000  0.6508444  3
   6661   6660   6667   6670     1  0.0000000  0.6508444  3
   6661   6673   6685  12965     1  0.0000000  0.6508444  3
   6664   6660   6661   6673     1  0.0000000  0.6508444  3
   6664   6660   6667   6670     1  0.0000000  0.6508444  3
   6664   6676   6682  12942     1  0.0000000  0.6508444  3
   6667   6660   6661   6673     1  0.0000000  0.6508444  3
   6667   6660   6664   6676     1  0.0000000  0.6508444  3
   6667   6670   6679   6688     1  0.0000000  0.6508444  3
   6673   6685  12965  12961     1  180.0000771  0.4184000  2
   6673   6685  12965  12961     1  0.0000000  1.6024720  3
   6676   6682  12942  12938     1  180.0000771  0.4184000  2
   6676   6682  12942  12938     1  0.0000000  1.6024720  3
   6682  12942  12938  12937     1  180.0000771  0.4184000  2
   6682  12942  12938  12937     1  0.0000000  1.6024720  3
   6682  12942  12938  12954     1  180.0000771  5.6484000  1
   6682  12942  12938  12954     1  180.0000771  3.5564000  2
   6682  12942  12938  12954     1  0.0000000  0.4184000  3
   6685  12965  12961  12977     1  180.0000771  5.6484000  1
   6685  12965  12961  12977     1  180.0000771  3.5564000  2
   6685  12965  12961  12977     1  0.0000000  0.4184000  3
   6685  12965  12961  12960     1  180.0000771  0.4184000  2
   6685  12965  12961  12960     1  0.0000000  1.6024720  3
   6690   6691   6703   6715     1  0.0000000  0.6508444  3
   6690   6694   6706   6712     1  0.0000000  0.6508444  3
   6690   6697   6700   6709     1  0.0000000  0.6508444  3
   6691   6690   6694   6706     1  0.0000000  0.6508444  3
   6691   6690   6697   6700     1  0.0000000  0.6508444  3
   6691   6703   6715  13011     1  0.0000000  0.6508444  3
   6694   6690   6691   6703     1  0.0000000  0.6508444  3
   6694   6690   6697   6700     1  0.0000000  0.6508444  3
   6694   6706   6712  12988     1  0.0000000  0.6508444  3
   6697   6690   6691   6703     1  0.0000000  0.6508444  3
   6697   6690   6694   6706     1  0.0000000  0.6508444  3
   6697   6700   6709   6718     1  0.0000000  0.6508444  3
   6703   6715  13011  13007     1  180.0000771  0.4184000  2
   6703   6715  13011  13007     1  0.0000000  1.6024720  3
   6706   6712  12988  12984     1  180.0000771  0.4184000  2
   6706   6712  12988  12984     1  0.0000000  1.6024720  3
   6712  12988  12984  12983     1  180.0000771  0.4184000  2
   6712  12988  12984  12983     1  0.0000000  1.6024720  3
   6712  12988  12984  13000     1  180.0000771  5.6484000  1
   6712  12988  12984  13000     1  180.0000771  3.5564000  2
   6712  12988  12984  13000     1  0.0000000  0.4184000  3
   6715  13011  13007  13023     1  180.0000771  5.6484000  1
   6715  13011  13007  13023     1  180.0000771  3.5564000  2
   6715  13011  13007  13023     1  0.0000000  0.4184000  3
   6715  13011  13007  13006     1  180.0000771  0.4184000  2
   6715  13011  13007  13006     1  0.0000000  1.6024720  3
   6720   6721   6733   6745     1  0.0000000  0.6508444  3
   6720   6724   6736   6742     1  0.0000000  0.6508444  3
   6720   6727   6730   6739     1  0.0000000  0.6508444  3
   6721   6720   6724   6736     1  0.0000000  0.6508444  3
   6721   6720   6727   6730     1  0.0000000  0.6508444  3
   6721   6733   6745  13057     1  0.0000000  0.6508444  3
   6724   6720   6721   6733     1  0.0000000  0.6508444  3
   6724   6720   6727   6730     1  0.0000000  0.6508444  3
   6724   6736   6742  13034     1  0.0000000  0.6508444  3
   6727   6720   6721   6733     1  0.0000000  0.6508444  3
   6727   6720   6724   6736     1  0.0000000  0.6508444  3
   6727   6730   6739   6748     1  0.0000000  0.6508444  3
   6733   6745  13057  13053     1  180.0000771  0.4184000  2
   6733   6745  13057  13053     1  0.0000000  1.6024720  3
   6736   6742  13034  13030     1  180.0000771  0.4184000  2
   6736   6742  13034  13030     1  0.0000000  1.6024720  3
   6742  13034  13030  13029     1  180.0000771  0.4184000  2
   6742  13034  13030  13029     1  0.0000000  1.6024720  3
   6742  13034  13030  13046     1  180.0000771  5.6484000  1
   6742  13034  13030  13046     1  180.0000771  3.5564000  2
   6742  13034  13030  13046     1  0.0000000  0.4184000  3
   6745  13057  13053  13069     1  180.0000771  5.6484000  1
   6745  13057  13053  13069     1  180.0000771  3.5564000  2
   6745  13057  13053  13069     1  0.0000000  0.4184000  3
   6745  13057  13053  13052     1  180.0000771  0.4184000  2
   6745  13057  13053  13052     1  0.0000000  1.6024720  3
   6750   6751   6763   6775     1  0.0000000  0.6508444  3
   6750   6754   6766   6772     1  0.0000000  0.6508444  3
   6750   6757   6760   6769     1  0.0000000  0.6508444  3
   6751   6750   6754   6766     1  0.0000000  0.6508444  3
   6751   6750   6757   6760     1  0.0000000  0.6508444  3
   6751   6763   6775  13103     1  0.0000000  0.6508444  3
   6754   6750   6751   6763     1  0.0000000  0.6508444  3
   6754   6750   6757   6760     1  0.0000000  0.6508444  3
   6754   6766   6772  13080     1  0.0000000  0.6508444  3
   6757   6750   6751   6763     1  0.0000000  0.6508444  3
   6757   6750   6754   6766     1  0.0000000  0.6508444  3
   6757   6760   6769   6778     1  0.0000000  0.6508444  3
   6763   6775  13103  13099     1  180.0000771  0.4184000  2
   6763   6775  13103  13099     1  0.0000000  1.6024720  3
   6766   6772  13080  13076     1  180.0000771  0.4184000  2
   6766   6772  13080  13076     1  0.0000000  1.6024720  3
   6772  13080  13076  13075     1  180.0000771  0.4184000  2
   6772  13080  13076  13075     1  0.0000000  1.6024720  3
   6772  13080  13076  13092     1  180.0000771  5.6484000  1
   6772  13080  13076  13092     1  180.0000771  3.5564000  2
   6772  13080  13076  13092     1  0.0000000  0.4184000  3
   6775  13103  13099  13115     1  180.0000771  5.6484000  1
   6775  13103  13099  13115     1  180.0000771  3.5564000  2
   6775  13103  13099  13115     1  0.0000000  0.4184000  3
   6775  13103  13099  13098     1  180.0000771  0.4184000  2
   6775  13103  13099  13098     1  0.0000000  1.6024720  3
   6780   6781   6793   6805     1  0.0000000  0.6508444  3
   6780   6784   6796   6802     1  0.0000000  0.6508444  3
   6780   6787   6790   6799     1  0.0000000  0.6508444  3
   6781   6780   6784   6796     1  0.0000000  0.6508444  3
   6781   6780   6787   6790     1  0.0000000  0.6508444  3
   6781   6793   6805  13149     1  0.0000000  0.6508444  3
   6784   6780   6781   6793     1  0.0000000  0.6508444  3
   6784   6780   6787   6790     1  0.0000000  0.6508444  3
   6784   6796   6802  13126     1  0.0000000  0.6508444  3
   6787   6780   6781   6793     1  0.0000000  0.6508444  3
   6787   6780   6784   6796     1  0.0000000  0.6508444  3
   6787   6790   6799   6808     1  0.0000000  0.6508444  3
   6793   6805  13149  13145     1  180.0000771  0.4184000  2
   6793   6805  13149  13145     1  0.0000000  1.6024720  3
   6796   6802  13126  13122     1  180.0000771  0.4184000  2
   6796   6802  13126  13122     1  0.0000000  1.6024720  3
   6802  13126  13122  13121     1  180.0000771  0.4184000  2
   6802  13126  13122  13121     1  0.0000000  1.6024720  3
   6802  13126  13122  13138     1  180.0000771  5.6484000  1
   6802  13126  13122  13138     1  180.0000771  3.5564000  2
   6802  13126  13122  13138     1  0.0000000  0.4184000  3
   6805  13149  13145  13161     1  180.0000771  5.6484000  1
   6805  13149  13145  13161     1  180.0000771  3.5564000  2
   6805  13149  13145  13161     1  0.0000000  0.4184000  3
   6805  13149  13145  13144     1  180.0000771  0.4184000  2
   6805  13149  13145  13144     1  0.0000000  1.6024720  3
   6810   6811   6823   6835     1  0.0000000  0.6508444  3
   6810   6814   6826   6832     1  0.0000000  0.6508444  3
   6810   6817   6820   6829     1  0.0000000  0.6508444  3
   6811   6810   6814   6826     1  0.0000000  0.6508444  3
   6811   6810   6817   6820     1  0.0000000  0.6508444  3
   6811   6823   6835  13195     1  0.0000000  0.6508444  3
   6814   6810   6811   6823     1  0.0000000  0.6508444  3
   6814   6810   6817   6820     1  0.0000000  0.6508444  3
   6814   6826   6832  13172     1  0.0000000  0.6508444  3
   6817   6810   6811   6823     1  0.0000000  0.6508444  3
   6817   6810   6814   6826     1  0.0000000  0.6508444  3
   6817   6820   6829   6838     1  0.0000000  0.6508444  3
   6823   6835  13195  13191     1  180.0000771  0.4184000  2
   6823   6835  13195  13191     1  0.0000000  1.6024720  3
   6826   6832  13172  13168     1  180.0000771  0.4184000  2
   6826   6832  13172  13168     1  0.0000000  1.6024720  3
   6832  13172  13168  13167     1  180.0000771  0.4184000  2
   6832  13172  13168  13167     1  0.0000000  1.6024720  3
   6832  13172  13168  13184     1  180.0000771  5.6484000  1
   6832  13172  13168  13184     1  180.0000771  3.5564000  2
   6832  13172  13168  13184     1  0.0000000  0.4184000  3
   6835  13195  13191  13207     1  180.0000771  5.6484000  1
   6835  13195  13191  13207     1  180.0000771  3.5564000  2
   6835  13195  13191  13207     1  0.0000000  0.4184000  3
   6835  13195  13191  13190     1  180.0000771  0.4184000  2
   6835  13195  13191  13190     1  0.0000000  1.6024720  3
   6840   6841   6853   6865     1  0.0000000  0.6508444  3
   6840   6844   6856   6862     1  0.0000000  0.6508444  3
   6840   6847   6850   6859     1  0.0000000  0.6508444  3
   6841   6840   6844   6856     1  0.0000000  0.6508444  3
   6841   6840   6847   6850     1  0.0000000  0.6508444  3
   6841   6853   6865  13241     1  0.0000000  0.6508444  3
   6844   6840   6841   6853     1  0.0000000  0.6508444  3
   6844   6840   6847   6850     1  0.0000000  0.6508444  3
   6844   6856   6862  13218     1  0.0000000  0.6508444  3
   6847   6840   6841   6853     1  0.0000000  0.6508444  3
   6847   6840   6844   6856     1  0.0000000  0.6508444  3
   6847   6850   6859   6868     1  0.0000000  0.6508444  3
   6853   6865  13241  13237     1  180.0000771  0.4184000  2
   6853   6865  13241  13237     1  0.0000000  1.6024720  3
   6856   6862  13218  13214     1  180.0000771  0.4184000  2
   6856   6862  13218  13214     1  0.0000000  1.6024720  3
   6862  13218  13214  13213     1  180.0000771  0.4184000  2
   6862  13218  13214  13213     1  0.0000000  1.6024720  3
   6862  13218  13214  13230     1  180.0000771  5.6484000  1
   6862  13218  13214  13230     1  180.0000771  3.5564000  2
   6862  13218  13214  13230     1  0.0000000  0.4184000  3
   6865  13241  13237  13253     1  180.0000771  5.6484000  1
   6865  13241  13237  13253     1  180.0000771  3.5564000  2
   6865  13241  13237  13253     1  0.0000000  0.4184000  3
   6865  13241  13237  13236     1  180.0000771  0.4184000  2
   6865  13241  13237  13236     1  0.0000000  1.6024720  3
   6870   6871   6883   6895     1  0.0000000  0.6508444  3
   6870   6874   6886   6892     1  0.0000000  0.6508444  3
   6870   6877   6880   6889     1  0.0000000  0.6508444  3
   6871   6870   6874   6886     1  0.0000000  0.6508444  3
   6871   6870   6877   6880     1  0.0000000  0.6508444  3
   6871   6883   6895  13287     1  0.0000000  0.6508444  3
   6874   6870   6871   6883     1  0.0000000  0.6508444  3
   6874   6870   6877   6880     1  0.0000000  0.6508444  3
   6874   6886   6892  13264     1  0.0000000  0.6508444  3
   6877   6870   6871   6883     1  0.0000000  0.6508444  3
   6877   6870   6874   6886     1  0.0000000  0.6508444  3
   6877   6880   6889   6898     1  0.0000000  0.6508444  3
   6883   6895  13287  13283     1  180.0000771  0.4184000  2
   6883   6895  13287  13283     1  0.0000000  1.6024720  3
   6886   6892  13264  13260     1  180.0000771  0.4184000  2
   6886   6892  13264  13260     1  0.0000000  1.6024720  3
   6892  13264  13260  13259     1  180.0000771  0.4184000  2
   6892  13264  13260  13259     1  0.0000000  1.6024720  3
   6892  13264  13260  13276     1  180.0000771  5.6484000  1
   6892  13264  13260  13276     1  180.0000771  3.5564000  2
   6892  13264  13260  13276     1  0.0000000  0.4184000  3
   6895  13287  13283  13299     1  180.0000771  5.6484000  1
   6895  13287  13283  13299     1  180.0000771  3.5564000  2
   6895  13287  13283  13299     1  0.0000000  0.4184000  3
   6895  13287  13283  13282     1  180.0000771  0.4184000  2
   6895  13287  13283  13282     1  0.0000000  1.6024720  3
   6900   6901   6913   6925     1  0.0000000  0.6508444  3
   6900   6904   6916   6922     1  0.0000000  0.6508444  3
   6900   6907   6910   6919     1  0.0000000  0.6508444  3
   6901   6900   6904   6916     1  0.0000000  0.6508444  3
   6901   6900   6907   6910     1  0.0000000  0.6508444  3
   6901   6913   6925  13333     1  0.0000000  0.6508444  3
   6904   6900   6901   6913     1  0.0000000  0.6508444  3
   6904   6900   6907   6910     1  0.0000000  0.6508444  3
   6904   6916   6922  13310     1  0.0000000  0.6508444  3
   6907   6900   6901   6913     1  0.0000000  0.6508444  3
   6907   6900   6904   6916     1  0.0000000  0.6508444  3
   6907   6910   6919   6928     1  0.0000000  0.6508444  3
   6913   6925  13333  13329     1  180.0000771  0.4184000  2
   6913   6925  13333  13329     1  0.0000000  1.6024720  3
   6916   6922  13310  13306     1  180.0000771  0.4184000  2
   6916   6922  13310  13306     1  0.0000000  1.6024720  3
   6922  13310  13306  13305     1  180.0000771  0.4184000  2
   6922  13310  13306  13305     1  0.0000000  1.6024720  3
   6922  13310  13306  13322     1  180.0000771  5.6484000  1
   6922  13310  13306  13322     1  180.0000771  3.5564000  2
   6922  13310  13306  13322     1  0.0000000  0.4184000  3
   6925  13333  13329  13345     1  180.0000771  5.6484000  1
   6925  13333  13329  13345     1  180.0000771  3.5564000  2
   6925  13333  13329  13345     1  0.0000000  0.4184000  3
   6925  13333  13329  13328     1  180.0000771  0.4184000  2
   6925  13333  13329  13328     1  0.0000000  1.6024720  3
   6930   6931   6943   6955     1  0.0000000  0.6508444  3
   6930   6934   6946   6952     1  0.0000000  0.6508444  3
   6930   6937   6940   6949     1  0.0000000  0.6508444  3
   6931   6930   6934   6946     1  0.0000000  0.6508444  3
   6931   6930   6937   6940     1  0.0000000  0.6508444  3
   6931   6943   6955  13379     1  0.0000000  0.6508444  3
   6934   6930   6931   6943     1  0.0000000  0.6508444  3
   6934   6930   6937   6940     1  0.0000000  0.6508444  3
   6934   6946   6952  13356     1  0.0000000  0.6508444  3
   6937   6930   6931   6943     1  0.0000000  0.6508444  3
   6937   6930   6934   6946     1  0.0000000  0.6508444  3
   6937   6940   6949   6958     1  0.0000000  0.6508444  3
   6943   6955  13379  13375     1  180.0000771  0.4184000  2
   6943   6955  13379  13375     1  0.0000000  1.6024720  3
   6946   6952  13356  13352     1  180.0000771  0.4184000  2
   6946   6952  13356  13352     1  0.0000000  1.6024720  3
   6952  13356  13352  13351     1  180.0000771  0.4184000  2
   6952  13356  13352  13351     1  0.0000000  1.6024720  3
   6952  13356  13352  13368     1  180.0000771  5.6484000  1
   6952  13356  13352  13368     1  180.0000771  3.5564000  2
   6952  13356  13352  13368     1  0.0000000  0.4184000  3
   6955  13379  13375  13391     1  180.0000771  5.6484000  1
   6955  13379  13375  13391     1  180.0000771  3.5564000  2
   6955  13379  13375  13391     1  0.0000000  0.4184000  3
   6955  13379  13375  13374     1  180.0000771  0.4184000  2
   6955  13379  13375  13374     1  0.0000000  1.6024720  3
   6960   6961   6973   6985     1  0.0000000  0.6508444  3
   6960   6964   6976   6982     1  0.0000000  0.6508444  3
   6960   6967   6970   6979     1  0.0000000  0.6508444  3
   6961   6960   6964   6976     1  0.0000000  0.6508444  3
   6961   6960   6967   6970     1  0.0000000  0.6508444  3
   6961   6973   6985  13425     1  0.0000000  0.6508444  3
   6964   6960   6961   6973     1  0.0000000  0.6508444  3
   6964   6960   6967   6970     1  0.0000000  0.6508444  3
   6964   6976   6982  13402     1  0.0000000  0.6508444  3
   6967   6960   6961   6973     1  0.0000000  0.6508444  3
   6967   6960   6964   6976     1  0.0000000  0.6508444  3
   6967   6970   6979   6988     1  0.0000000  0.6508444  3
   6973   6985  13425  13421     1  180.0000771  0.4184000  2
   6973   6985  13425  13421     1  0.0000000  1.6024720  3
   6976   6982  13402  13398     1  180.0000771  0.4184000  2
   6976   6982  13402  13398     1  0.0000000  1.6024720  3
   6982  13402  13398  13397     1  180.0000771  0.4184000  2
   6982  13402  13398  13397     1  0.0000000  1.6024720  3
   6982  13402  13398  13414     1  180.0000771  5.6484000  1
   6982  13402  13398  13414     1  180.0000771  3.5564000  2
   6982  13402  13398  13414     1  0.0000000  0.4184000  3
   6985  13425  13421  13437     1  180.0000771  5.6484000  1
   6985  13425  13421  13437     1  180.0000771  3.5564000  2
   6985  13425  13421  13437     1  0.0000000  0.4184000  3
   6985  13425  13421  13420     1  180.0000771  0.4184000  2
   6985  13425  13421  13420     1  0.0000000  1.6024720  3
   6990   6991   7003   7015     1  0.0000000  0.6508444  3
   6990   6994   7006   7012     1  0.0000000  0.6508444  3
   6990   6997   7000   7009     1  0.0000000  0.6508444  3
   6991   6990   6994   7006     1  0.0000000  0.6508444  3
   6991   6990   6997   7000     1  0.0000000  0.6508444  3
   6991   7003   7015  13471     1  0.0000000  0.6508444  3
   6994   6990   6991   7003     1  0.0000000  0.6508444  3
   6994   6990   6997   7000     1  0.0000000  0.6508444  3
   6994   7006   7012  13448     1  0.0000000  0.6508444  3
   6997   6990   6991   7003     1  0.0000000  0.6508444  3
   6997   6990   6994   7006     1  0.0000000  0.6508444  3
   6997   7000   7009   7018     1  0.0000000  0.6508444  3
   7003   7015  13471  13467     1  180.0000771  0.4184000  2
   7003   7015  13471  13467     1  0.0000000  1.6024720  3
   7006   7012  13448  13444     1  180.0000771  0.4184000  2
   7006   7012  13448  13444     1  0.0000000  1.6024720  3
   7012  13448  13444  13443     1  180.0000771  0.4184000  2
   7012  13448  13444  13443     1  0.0000000  1.6024720  3
   7012  13448  13444  13460     1  180.0000771  5.6484000  1
   7012  13448  13444  13460     1  180.0000771  3.5564000  2
   7012  13448  13444  13460     1  0.0000000  0.4184000  3
   7015  13471  13467  13483     1  180.0000771  5.6484000  1
   7015  13471  13467  13483     1  180.0000771  3.5564000  2
   7015  13471  13467  13483     1  0.0000000  0.4184000  3
   7015  13471  13467  13466     1  180.0000771  0.4184000  2
   7015  13471  13467  13466     1  0.0000000  1.6024720  3
   7020   7021   7033   7045     1  0.0000000  0.6508444  3
   7020   7024   7036   7042     1  0.0000000  0.6508444  3
   7020   7027   7030   7039     1  0.0000000  0.6508444  3
   7021   7020   7024   7036     1  0.0000000  0.6508444  3
   7021   7020   7027   7030     1  0.0000000  0.6508444  3
   7021   7033   7045  13517     1  0.0000000  0.6508444  3
   7024   7020   7021   7033     1  0.0000000  0.6508444  3
   7024   7020   7027   7030     1  0.0000000  0.6508444  3
   7024   7036   7042  13494     1  0.0000000  0.6508444  3
   7027   7020   7021   7033     1  0.0000000  0.6508444  3
   7027   7020   7024   7036     1  0.0000000  0.6508444  3
   7027   7030   7039   7048     1  0.0000000  0.6508444  3
   7033   7045  13517  13513     1  180.0000771  0.4184000  2
   7033   7045  13517  13513     1  0.0000000  1.6024720  3
   7036   7042  13494  13490     1  180.0000771  0.4184000  2
   7036   7042  13494  13490     1  0.0000000  1.6024720  3
   7042  13494  13490  13489     1  180.0000771  0.4184000  2
   7042  13494  13490  13489     1  0.0000000  1.6024720  3
   7042  13494  13490  13506     1  180.0000771  5.6484000  1
   7042  13494  13490  13506     1  180.0000771  3.5564000  2
   7042  13494  13490  13506     1  0.0000000  0.4184000  3
   7045  13517  13513  13529     1  180.0000771  5.6484000  1
   7045  13517  13513  13529     1  180.0000771  3.5564000  2
   7045  13517  13513  13529     1  0.0000000  0.4184000  3
   7045  13517  13513  13512     1  180.0000771  0.4184000  2
   7045  13517  13513  13512     1  0.0000000  1.6024720  3
   7050   7051   7063   7075     1  0.0000000  0.6508444  3
   7050   7054   7066   7072     1  0.0000000  0.6508444  3
   7050   7057   7060   7069     1  0.0000000  0.6508444  3
   7051   7050   7054   7066     1  0.0000000  0.6508444  3
   7051   7050   7057   7060     1  0.0000000  0.6508444  3
   7051   7063   7075  13563     1  0.0000000  0.6508444  3
   7054   7050   7051   7063     1  0.0000000  0.6508444  3
   7054   7050   7057   7060     1  0.0000000  0.6508444  3
   7054   7066   7072  13540     1  0.0000000  0.6508444  3
   7057   7050   7051   7063     1  0.0000000  0.6508444  3
   7057   7050   7054   7066     1  0.0000000  0.6508444  3
   7057   7060   7069   7078     1  0.0000000  0.6508444  3
   7063   7075  13563  13559     1  180.0000771  0.4184000  2
   7063   7075  13563  13559     1  0.0000000  1.6024720  3
   7066   7072  13540  13536     1  180.0000771  0.4184000  2
   7066   7072  13540  13536     1  0.0000000  1.6024720  3
   7072  13540  13536  13535     1  180.0000771  0.4184000  2
   7072  13540  13536  13535     1  0.0000000  1.6024720  3
   7072  13540  13536  13552     1  180.0000771  5.6484000  1
   7072  13540  13536  13552     1  180.0000771  3.5564000  2
   7072  13540  13536  13552     1  0.0000000  0.4184000  3
   7075  13563  13559  13575     1  180.0000771  5.6484000  1
   7075  13563  13559  13575     1  180.0000771  3.5564000  2
   7075  13563  13559  13575     1  0.0000000  0.4184000  3
   7075  13563  13559  13558     1  180.0000771  0.4184000  2
   7075  13563  13559  13558     1  0.0000000  1.6024720  3
   7080   7081   7093   7105     1  0.0000000  0.6508444  3
   7080   7084   7096   7102     1  0.0000000  0.6508444  3
   7080   7087   7090   7099     1  0.0000000  0.6508444  3
   7081   7080   7084   7096     1  0.0000000  0.6508444  3
   7081   7080   7087   7090     1  0.0000000  0.6508444  3
   7081   7093   7105  13609     1  0.0000000  0.6508444  3
   7084   7080   7081   7093     1  0.0000000  0.6508444  3
   7084   7080   7087   7090     1  0.0000000  0.6508444  3
   7084   7096   7102  13586     1  0.0000000  0.6508444  3
   7087   7080   7081   7093     1  0.0000000  0.6508444  3
   7087   7080   7084   7096     1  0.0000000  0.6508444  3
   7087   7090   7099   7108     1  0.0000000  0.6508444  3
   7093   7105  13609  13605     1  180.0000771  0.4184000  2
   7093   7105  13609  13605     1  0.0000000  1.6024720  3
   7096   7102  13586  13582     1  180.0000771  0.4184000  2
   7096   7102  13586  13582     1  0.0000000  1.6024720  3
   7102  13586  13582  13581     1  180.0000771  0.4184000  2
   7102  13586  13582  13581     1  0.0000000  1.6024720  3
   7102  13586  13582  13598     1  180.0000771  5.6484000  1
   7102  13586  13582  13598     1  180.0000771  3.5564000  2
   7102  13586  13582  13598     1  0.0000000  0.4184000  3
   7105  13609  13605  13621     1  180.0000771  5.6484000  1
   7105  13609  13605  13621     1  180.0000771  3.5564000  2
   7105  13609  13605  13621     1  0.0000000  0.4184000  3
   7105  13609  13605  13604     1  180.0000771  0.4184000  2
   7105  13609  13605  13604     1  0.0000000  1.6024720  3
   7110   7111   7123   7135     1  0.0000000  0.6508444  3
   7110   7114   7126   7132     1  0.0000000  0.6508444  3
   7110   7117   7120   7129     1  0.0000000  0.6508444  3
   7111   7110   7114   7126     1  0.0000000  0.6508444  3
   7111   7110   7117   7120     1  0.0000000  0.6508444  3
   7111   7123   7135  13655     1  0.0000000  0.6508444  3
   7114   7110   7111   7123     1  0.0000000  0.6508444  3
   7114   7110   7117   7120     1  0.0000000  0.6508444  3
   7114   7126   7132  13632     1  0.0000000  0.6508444  3
   7117   7110   7111   7123     1  0.0000000  0.6508444  3
   7117   7110   7114   7126     1  0.0000000  0.6508444  3
   7117   7120   7129   7138     1  0.0000000  0.6508444  3
   7123   7135  13655  13651     1  180.0000771  0.4184000  2
   7123   7135  13655  13651     1  0.0000000  1.6024720  3
   7126   7132  13632  13628     1  180.0000771  0.4184000  2
   7126   7132  13632  13628     1  0.0000000  1.6024720  3
   7132  13632  13628  13627     1  180.0000771  0.4184000  2
   7132  13632  13628  13627     1  0.0000000  1.6024720  3
   7132  13632  13628  13644     1  180.0000771  5.6484000  1
   7132  13632  13628  13644     1  180.0000771  3.5564000  2
   7132  13632  13628  13644     1  0.0000000  0.4184000  3
   7135  13655  13651  13667     1  180.0000771  5.6484000  1
   7135  13655  13651  13667     1  180.0000771  3.5564000  2
   7135  13655  13651  13667     1  0.0000000  0.4184000  3
   7135  13655  13651  13650     1  180.0000771  0.4184000  2
   7135  13655  13651  13650     1  0.0000000  1.6024720  3
   7140   7141   7153   7165     1  0.0000000  0.6508444  3
   7140   7144   7156   7162     1  0.0000000  0.6508444  3
   7140   7147   7150   7159     1  0.0000000  0.6508444  3
   7141   7140   7144   7156     1  0.0000000  0.6508444  3
   7141   7140   7147   7150     1  0.0000000  0.6508444  3
   7141   7153   7165  13701     1  0.0000000  0.6508444  3
   7144   7140   7141   7153     1  0.0000000  0.6508444  3
   7144   7140   7147   7150     1  0.0000000  0.6508444  3
   7144   7156   7162  13678     1  0.0000000  0.6508444  3
   7147   7140   7141   7153     1  0.0000000  0.6508444  3
   7147   7140   7144   7156     1  0.0000000  0.6508444  3
   7147   7150   7159   7168     1  0.0000000  0.6508444  3
   7153   7165  13701  13697     1  180.0000771  0.4184000  2
   7153   7165  13701  13697     1  0.0000000  1.6024720  3
   7156   7162  13678  13674     1  180.0000771  0.4184000  2
   7156   7162  13678  13674     1  0.0000000  1.6024720  3
   7162  13678  13674  13673     1  180.0000771  0.4184000  2
   7162  13678  13674  13673     1  0.0000000  1.6024720  3
   7162  13678  13674  13690     1  180.0000771  5.6484000  1
   7162  13678  13674  13690     1  180.0000771  3.5564000  2
   7162  13678  13674  13690     1  0.0000000  0.4184000  3
   7165  13701  13697  13713     1  180.0000771  5.6484000  1
   7165  13701  13697  13713     1  180.0000771  3.5564000  2
   7165  13701  13697  13713     1  0.0000000  0.4184000  3
   7165  13701  13697  13696     1  180.0000771  0.4184000  2
   7165  13701  13697  13696     1  0.0000000  1.6024720  3
   7170   7171   7183   7195     1  0.0000000  0.6508444  3
   7170   7174   7186   7192     1  0.0000000  0.6508444  3
   7170   7177   7180   7189     1  0.0000000  0.6508444  3
   7171   7170   7174   7186     1  0.0000000  0.6508444  3
   7171   7170   7177   7180     1  0.0000000  0.6508444  3
   7171   7183   7195  13747     1  0.0000000  0.6508444  3
   7174   7170   7171   7183     1  0.0000000  0.6508444  3
   7174   7170   7177   7180     1  0.0000000  0.6508444  3
   7174   7186   7192  13724     1  0.0000000  0.6508444  3
   7177   7170   7171   7183     1  0.0000000  0.6508444  3
   7177   7170   7174   7186     1  0.0000000  0.6508444  3
   7177   7180   7189   7198     1  0.0000000  0.6508444  3
   7183   7195  13747  13743     1  180.0000771  0.4184000  2
   7183   7195  13747  13743     1  0.0000000  1.6024720  3
   7186   7192  13724  13720     1  180.0000771  0.4184000  2
   7186   7192  13724  13720     1  0.0000000  1.6024720  3
   7192  13724  13720  13719     1  180.0000771  0.4184000  2
   7192  13724  13720  13719     1  0.0000000  1.6024720  3
   7192  13724  13720  13736     1  180.0000771  5.6484000  1
   7192  13724  13720  13736     1  180.0000771  3.5564000  2
   7192  13724  13720  13736     1  0.0000000  0.4184000  3
   7195  13747  13743  13759     1  180.0000771  5.6484000  1
   7195  13747  13743  13759     1  180.0000771  3.5564000  2
   7195  13747  13743  13759     1  0.0000000  0.4184000  3
   7195  13747  13743  13742     1  180.0000771  0.4184000  2
   7195  13747  13743  13742     1  0.0000000  1.6024720  3
   7200   7201   7213   7225     1  0.0000000  0.6508444  3
   7200   7204   7216   7222     1  0.0000000  0.6508444  3
   7200   7207   7210   7219     1  0.0000000  0.6508444  3
   7201   7200   7204   7216     1  0.0000000  0.6508444  3
   7201   7200   7207   7210     1  0.0000000  0.6508444  3
   7201   7213   7225  13793     1  0.0000000  0.6508444  3
   7204   7200   7201   7213     1  0.0000000  0.6508444  3
   7204   7200   7207   7210     1  0.0000000  0.6508444  3
   7204   7216   7222  13770     1  0.0000000  0.6508444  3
   7207   7200   7201   7213     1  0.0000000  0.6508444  3
   7207   7200   7204   7216     1  0.0000000  0.6508444  3
   7207   7210   7219   7228     1  0.0000000  0.6508444  3
   7213   7225  13793  13789     1  180.0000771  0.4184000  2
   7213   7225  13793  13789     1  0.0000000  1.6024720  3
   7216   7222  13770  13766     1  180.0000771  0.4184000  2
   7216   7222  13770  13766     1  0.0000000  1.6024720  3
   7222  13770  13766  13765     1  180.0000771  0.4184000  2
   7222  13770  13766  13765     1  0.0000000  1.6024720  3
   7222  13770  13766  13782     1  180.0000771  5.6484000  1
   7222  13770  13766  13782     1  180.0000771  3.5564000  2
   7222  13770  13766  13782     1  0.0000000  0.4184000  3
   7225  13793  13789  13805     1  180.0000771  5.6484000  1
   7225  13793  13789  13805     1  180.0000771  3.5564000  2
   7225  13793  13789  13805     1  0.0000000  0.4184000  3
   7225  13793  13789  13788     1  180.0000771  0.4184000  2
   7225  13793  13789  13788     1  0.0000000  1.6024720  3
   7230   7231   7243   7255     1  0.0000000  0.6508444  3
   7230   7234   7246   7252     1  0.0000000  0.6508444  3
   7230   7237   7240   7249     1  0.0000000  0.6508444  3
   7231   7230   7234   7246     1  0.0000000  0.6508444  3
   7231   7230   7237   7240     1  0.0000000  0.6508444  3
   7231   7243   7255  13839     1  0.0000000  0.6508444  3
   7234   7230   7231   7243     1  0.0000000  0.6508444  3
   7234   7230   7237   7240     1  0.0000000  0.6508444  3
   7234   7246   7252  13816     1  0.0000000  0.6508444  3
   7237   7230   7231   7243     1  0.0000000  0.6508444  3
   7237   7230   7234   7246     1  0.0000000  0.6508444  3
   7237   7240   7249   7258     1  0.0000000  0.6508444  3
   7243   7255  13839  13835     1  180.0000771  0.4184000  2
   7243   7255  13839  13835     1  0.0000000  1.6024720  3
   7246   7252  13816  13812     1  180.0000771  0.4184000  2
   7246   7252  13816  13812     1  0.0000000  1.6024720  3
   7252  13816  13812  13811     1  180.0000771  0.4184000  2
   7252  13816  13812  13811     1  0.0000000  1.6024720  3
   7252  13816  13812  13828     1  180.0000771  5.6484000  1
   7252  13816  13812  13828     1  180.0000771  3.5564000  2
   7252  13816  13812  13828     1  0.0000000  0.4184000  3
   7255  13839  13835  13851     1  180.0000771  5.6484000  1
   7255  13839  13835  13851     1  180.0000771  3.5564000  2
   7255  13839  13835  13851     1  0.0000000  0.4184000  3
   7255  13839  13835  13834     1  180.0000771  0.4184000  2
   7255  13839  13835  13834     1  0.0000000  1.6024720  3
   7260   7261   7273   7285     1  0.0000000  0.6508444  3
   7260   7264   7276   7282     1  0.0000000  0.6508444  3
   7260   7267   7270   7279     1  0.0000000  0.6508444  3
   7261   7260   7264   7276     1  0.0000000  0.6508444  3
   7261   7260   7267   7270     1  0.0000000  0.6508444  3
   7261   7273   7285  13885     1  0.0000000  0.6508444  3
   7264   7260   7261   7273     1  0.0000000  0.6508444  3
   7264   7260   7267   7270     1  0.0000000  0.6508444  3
   7264   7276   7282  13862     1  0.0000000  0.6508444  3
   7267   7260   7261   7273     1  0.0000000  0.6508444  3
   7267   7260   7264   7276     1  0.0000000  0.6508444  3
   7267   7270   7279   7288     1  0.0000000  0.6508444  3
   7273   7285  13885  13881     1  180.0000771  0.4184000  2
   7273   7285  13885  13881     1  0.0000000  1.6024720  3
   7276   7282  13862  13858     1  180.0000771  0.4184000  2
   7276   7282  13862  13858     1  0.0000000  1.6024720  3
   7282  13862  13858  13857     1  180.0000771  0.4184000  2
   7282  13862  13858  13857     1  0.0000000  1.6024720  3
   7282  13862  13858  13874     1  180.0000771  5.6484000  1
   7282  13862  13858  13874     1  180.0000771  3.5564000  2
   7282  13862  13858  13874     1  0.0000000  0.4184000  3
   7285  13885  13881  13897     1  180.0000771  5.6484000  1
   7285  13885  13881  13897     1  180.0000771  3.5564000  2
   7285  13885  13881  13897     1  0.0000000  0.4184000  3
   7285  13885  13881  13880     1  180.0000771  0.4184000  2
   7285  13885  13881  13880     1  0.0000000  1.6024720  3
   7290   7291   7303   7315     1  0.0000000  0.6508444  3
   7290   7294   7306   7312     1  0.0000000  0.6508444  3
   7290   7297   7300   7309     1  0.0000000  0.6508444  3
   7291   7290   7294   7306     1  0.0000000  0.6508444  3
   7291   7290   7297   7300     1  0.0000000  0.6508444  3
   7291   7303   7315  13931     1  0.0000000  0.6508444  3
   7294   7290   7291   7303     1  0.0000000  0.6508444  3
   7294   7290   7297   7300     1  0.0000000  0.6508444  3
   7294   7306   7312  13908     1  0.0000000  0.6508444  3
   7297   7290   7291   7303     1  0.0000000  0.6508444  3
   7297   7290   7294   7306     1  0.0000000  0.6508444  3
   7297   7300   7309   7318     1  0.0000000  0.6508444  3
   7303   7315  13931  13927     1  180.0000771  0.4184000  2
   7303   7315  13931  13927     1  0.0000000  1.6024720  3
   7306   7312  13908  13904     1  180.0000771  0.4184000  2
   7306   7312  13908  13904     1  0.0000000  1.6024720  3
   7312  13908  13904  13903     1  180.0000771  0.4184000  2
   7312  13908  13904  13903     1  0.0000000  1.6024720  3
   7312  13908  13904  13920     1  180.0000771  5.6484000  1
   7312  13908  13904  13920     1  180.0000771  3.5564000  2
   7312  13908  13904  13920     1  0.0000000  0.4184000  3
   7315  13931  13927  13943     1  180.0000771  5.6484000  1
   7315  13931  13927  13943     1  180.0000771  3.5564000  2
   7315  13931  13927  13943     1  0.0000000  0.4184000  3
   7315  13931  13927  13926     1  180.0000771  0.4184000  2
   7315  13931  13927  13926     1  0.0000000  1.6024720  3
   7320   7321   7333   7345     1  0.0000000  0.6508444  3
   7320   7324   7336   7342     1  0.0000000  0.6508444  3
   7320   7327   7330   7339     1  0.0000000  0.6508444  3
   7321   7320   7324   7336     1  0.0000000  0.6508444  3
   7321   7320   7327   7330     1  0.0000000  0.6508444  3
   7321   7333   7345  13977     1  0.0000000  0.6508444  3
   7324   7320   7321   7333     1  0.0000000  0.6508444  3
   7324   7320   7327   7330     1  0.0000000  0.6508444  3
   7324   7336   7342  13954     1  0.0000000  0.6508444  3
   7327   7320   7321   7333     1  0.0000000  0.6508444  3
   7327   7320   7324   7336     1  0.0000000  0.6508444  3
   7327   7330   7339   7348     1  0.0000000  0.6508444  3
   7333   7345  13977  13973     1  180.0000771  0.4184000  2
   7333   7345  13977  13973     1  0.0000000  1.6024720  3
   7336   7342  13954  13950     1  180.0000771  0.4184000  2
   7336   7342  13954  13950     1  0.0000000  1.6024720  3
   7342  13954  13950  13949     1  180.0000771  0.4184000  2
   7342  13954  13950  13949     1  0.0000000  1.6024720  3
   7342  13954  13950  13966     1  180.0000771  5.6484000  1
   7342  13954  13950  13966     1  180.0000771  3.5564000  2
   7342  13954  13950  13966     1  0.0000000  0.4184000  3
   7345  13977  13973  13989     1  180.0000771  5.6484000  1
   7345  13977  13973  13989     1  180.0000771  3.5564000  2
   7345  13977  13973  13989     1  0.0000000  0.4184000  3
   7345  13977  13973  13972     1  180.0000771  0.4184000  2
   7345  13977  13973  13972     1  0.0000000  1.6024720  3
   7350   7351   7363   7375     1  0.0000000  0.6508444  3
   7350   7354   7366   7372     1  0.0000000  0.6508444  3
   7350   7357   7360   7369     1  0.0000000  0.6508444  3
   7351   7350   7354   7366     1  0.0000000  0.6508444  3
   7351   7350   7357   7360     1  0.0000000  0.6508444  3
   7351   7363   7375  14023     1  0.0000000  0.6508444  3
   7354   7350   7351   7363     1  0.0000000  0.6508444  3
   7354   7350   7357   7360     1  0.0000000  0.6508444  3
   7354   7366   7372  14000     1  0.0000000  0.6508444  3
   7357   7350   7351   7363     1  0.0000000  0.6508444  3
   7357   7350   7354   7366     1  0.0000000  0.6508444  3
   7357   7360   7369   7378     1  0.0000000  0.6508444  3
   7363   7375  14023  14019     1  180.0000771  0.4184000  2
   7363   7375  14023  14019     1  0.0000000  1.6024720  3
   7366   7372  14000  13996     1  180.0000771  0.4184000  2
   7366   7372  14000  13996     1  0.0000000  1.6024720  3
   7372  14000  13996  13995     1  180.0000771  0.4184000  2
   7372  14000  13996  13995     1  0.0000000  1.6024720  3
   7372  14000  13996  14012     1  180.0000771  5.6484000  1
   7372  14000  13996  14012     1  180.0000771  3.5564000  2
   7372  14000  13996  14012     1  0.0000000  0.4184000  3
   7375  14023  14019  14035     1  180.0000771  5.6484000  1
   7375  14023  14019  14035     1  180.0000771  3.5564000  2
   7375  14023  14019  14035     1  0.0000000  0.4184000  3
   7375  14023  14019  14018     1  180.0000771  0.4184000  2
   7375  14023  14019  14018     1  0.0000000  1.6024720  3
   7380   7381   7393   7405     1  0.0000000  0.6508444  3
   7380   7384   7396   7402     1  0.0000000  0.6508444  3
   7380   7387   7390   7399     1  0.0000000  0.6508444  3
   7381   7380   7384   7396     1  0.0000000  0.6508444  3
   7381   7380   7387   7390     1  0.0000000  0.6508444  3
   7381   7393   7405  14069     1  0.0000000  0.6508444  3
   7384   7380   7381   7393     1  0.0000000  0.6508444  3
   7384   7380   7387   7390     1  0.0000000  0.6508444  3
   7384   7396   7402  14046     1  0.0000000  0.6508444  3
   7387   7380   7381   7393     1  0.0000000  0.6508444  3
   7387   7380   7384   7396     1  0.0000000  0.6508444  3
   7387   7390   7399   7408     1  0.0000000  0.6508444  3
   7393   7405  14069  14065     1  180.0000771  0.4184000  2
   7393   7405  14069  14065     1  0.0000000  1.6024720  3
   7396   7402  14046  14042     1  180.0000771  0.4184000  2
   7396   7402  14046  14042     1  0.0000000  1.6024720  3
   7402  14046  14042  14041     1  180.0000771  0.4184000  2
   7402  14046  14042  14041     1  0.0000000  1.6024720  3
   7402  14046  14042  14058     1  180.0000771  5.6484000  1
   7402  14046  14042  14058     1  180.0000771  3.5564000  2
   7402  14046  14042  14058     1  0.0000000  0.4184000  3
   7405  14069  14065  14081     1  180.0000771  5.6484000  1
   7405  14069  14065  14081     1  180.0000771  3.5564000  2
   7405  14069  14065  14081     1  0.0000000  0.4184000  3
   7405  14069  14065  14064     1  180.0000771  0.4184000  2
   7405  14069  14065  14064     1  0.0000000  1.6024720  3
   7410   7411   7423   7435     1  0.0000000  0.6508444  3
   7410   7414   7426   7432     1  0.0000000  0.6508444  3
   7410   7417   7420   7429     1  0.0000000  0.6508444  3
   7411   7410   7414   7426     1  0.0000000  0.6508444  3
   7411   7410   7417   7420     1  0.0000000  0.6508444  3
   7411   7423   7435  14115     1  0.0000000  0.6508444  3
   7414   7410   7411   7423     1  0.0000000  0.6508444  3
   7414   7410   7417   7420     1  0.0000000  0.6508444  3
   7414   7426   7432  14092     1  0.0000000  0.6508444  3
   7417   7410   7411   7423     1  0.0000000  0.6508444  3
   7417   7410   7414   7426     1  0.0000000  0.6508444  3
   7417   7420   7429   7438     1  0.0000000  0.6508444  3
   7423   7435  14115  14111     1  180.0000771  0.4184000  2
   7423   7435  14115  14111     1  0.0000000  1.6024720  3
   7426   7432  14092  14088     1  180.0000771  0.4184000  2
   7426   7432  14092  14088     1  0.0000000  1.6024720  3
   7432  14092  14088  14087     1  180.0000771  0.4184000  2
   7432  14092  14088  14087     1  0.0000000  1.6024720  3
   7432  14092  14088  14104     1  180.0000771  5.6484000  1
   7432  14092  14088  14104     1  180.0000771  3.5564000  2
   7432  14092  14088  14104     1  0.0000000  0.4184000  3
   7435  14115  14111  14127     1  180.0000771  5.6484000  1
   7435  14115  14111  14127     1  180.0000771  3.5564000  2
   7435  14115  14111  14127     1  0.0000000  0.4184000  3
   7435  14115  14111  14110     1  180.0000771  0.4184000  2
   7435  14115  14111  14110     1  0.0000000  1.6024720  3
   7440   7441   7453   7465     1  0.0000000  0.6508444  3
   7440   7444   7456   7462     1  0.0000000  0.6508444  3
   7440   7447   7450   7459     1  0.0000000  0.6508444  3
   7441   7440   7444   7456     1  0.0000000  0.6508444  3
   7441   7440   7447   7450     1  0.0000000  0.6508444  3
   7441   7453   7465  14161     1  0.0000000  0.6508444  3
   7444   7440   7441   7453     1  0.0000000  0.6508444  3
   7444   7440   7447   7450     1  0.0000000  0.6508444  3
   7444   7456   7462  14138     1  0.0000000  0.6508444  3
   7447   7440   7441   7453     1  0.0000000  0.6508444  3
   7447   7440   7444   7456     1  0.0000000  0.6508444  3
   7447   7450   7459   7468     1  0.0000000  0.6508444  3
   7453   7465  14161  14157     1  180.0000771  0.4184000  2
   7453   7465  14161  14157     1  0.0000000  1.6024720  3
   7456   7462  14138  14134     1  180.0000771  0.4184000  2
   7456   7462  14138  14134     1  0.0000000  1.6024720  3
   7462  14138  14134  14133     1  180.0000771  0.4184000  2
   7462  14138  14134  14133     1  0.0000000  1.6024720  3
   7462  14138  14134  14150     1  180.0000771  5.6484000  1
   7462  14138  14134  14150     1  180.0000771  3.5564000  2
   7462  14138  14134  14150     1  0.0000000  0.4184000  3
   7465  14161  14157  14173     1  180.0000771  5.6484000  1
   7465  14161  14157  14173     1  180.0000771  3.5564000  2
   7465  14161  14157  14173     1  0.0000000  0.4184000  3
   7465  14161  14157  14156     1  180.0000771  0.4184000  2
   7465  14161  14157  14156     1  0.0000000  1.6024720  3
   7470   7471   7483   7495     1  0.0000000  0.6508444  3
   7470   7474   7486   7492     1  0.0000000  0.6508444  3
   7470   7477   7480   7489     1  0.0000000  0.6508444  3
   7471   7470   7474   7486     1  0.0000000  0.6508444  3
   7471   7470   7477   7480     1  0.0000000  0.6508444  3
   7471   7483   7495  14207     1  0.0000000  0.6508444  3
   7474   7470   7471   7483     1  0.0000000  0.6508444  3
   7474   7470   7477   7480     1  0.0000000  0.6508444  3
   7474   7486   7492  14184     1  0.0000000  0.6508444  3
   7477   7470   7471   7483     1  0.0000000  0.6508444  3
   7477   7470   7474   7486     1  0.0000000  0.6508444  3
   7477   7480   7489   7498     1  0.0000000  0.6508444  3
   7483   7495  14207  14203     1  180.0000771  0.4184000  2
   7483   7495  14207  14203     1  0.0000000  1.6024720  3
   7486   7492  14184  14180     1  180.0000771  0.4184000  2
   7486   7492  14184  14180     1  0.0000000  1.6024720  3
   7492  14184  14180  14179     1  180.0000771  0.4184000  2
   7492  14184  14180  14179     1  0.0000000  1.6024720  3
   7492  14184  14180  14196     1  180.0000771  5.6484000  1
   7492  14184  14180  14196     1  180.0000771  3.5564000  2
   7492  14184  14180  14196     1  0.0000000  0.4184000  3
   7495  14207  14203  14219     1  180.0000771  5.6484000  1
   7495  14207  14203  14219     1  180.0000771  3.5564000  2
   7495  14207  14203  14219     1  0.0000000  0.4184000  3
   7495  14207  14203  14202     1  180.0000771  0.4184000  2
   7495  14207  14203  14202     1  0.0000000  1.6024720  3
   7500   7501   7513   7525     1  0.0000000  0.6508444  3
   7500   7504   7516   7522     1  0.0000000  0.6508444  3
   7500   7507   7510   7519     1  0.0000000  0.6508444  3
   7501   7500   7504   7516     1  0.0000000  0.6508444  3
   7501   7500   7507   7510     1  0.0000000  0.6508444  3
   7501   7513   7525  14253     1  0.0000000  0.6508444  3
   7504   7500   7501   7513     1  0.0000000  0.6508444  3
   7504   7500   7507   7510     1  0.0000000  0.6508444  3
   7504   7516   7522  14230     1  0.0000000  0.6508444  3
   7507   7500   7501   7513     1  0.0000000  0.6508444  3
   7507   7500   7504   7516     1  0.0000000  0.6508444  3
   7507   7510   7519   7528     1  0.0000000  0.6508444  3
   7513   7525  14253  14249     1  180.0000771  0.4184000  2
   7513   7525  14253  14249     1  0.0000000  1.6024720  3
   7516   7522  14230  14226     1  180.0000771  0.4184000  2
   7516   7522  14230  14226     1  0.0000000  1.6024720  3
   7522  14230  14226  14225     1  180.0000771  0.4184000  2
   7522  14230  14226  14225     1  0.0000000  1.6024720  3
   7522  14230  14226  14242     1  180.0000771  5.6484000  1
   7522  14230  14226  14242     1  180.0000771  3.5564000  2
   7522  14230  14226  14242     1  0.0000000  0.4184000  3
   7525  14253  14249  14265     1  180.0000771  5.6484000  1
   7525  14253  14249  14265     1  180.0000771  3.5564000  2
   7525  14253  14249  14265     1  0.0000000  0.4184000  3
   7525  14253  14249  14248     1  180.0000771  0.4184000  2
   7525  14253  14249  14248     1  0.0000000  1.6024720  3
   7530   7531   7543   7555     1  0.0000000  0.6508444  3
   7530   7534   7546   7552     1  0.0000000  0.6508444  3
   7530   7537   7540   7549     1  0.0000000  0.6508444  3
   7531   7530   7534   7546     1  0.0000000  0.6508444  3
   7531   7530   7537   7540     1  0.0000000  0.6508444  3
   7531   7543   7555  14299     1  0.0000000  0.6508444  3
   7534   7530   7531   7543     1  0.0000000  0.6508444  3
   7534   7530   7537   7540     1  0.0000000  0.6508444  3
   7534   7546   7552  14276     1  0.0000000  0.6508444  3
   7537   7530   7531   7543     1  0.0000000  0.6508444  3
   7537   7530   7534   7546     1  0.0000000  0.6508444  3
   7537   7540   7549   7558     1  0.0000000  0.6508444  3
   7543   7555  14299  14295     1  180.0000771  0.4184000  2
   7543   7555  14299  14295     1  0.0000000  1.6024720  3
   7546   7552  14276  14272     1  180.0000771  0.4184000  2
   7546   7552  14276  14272     1  0.0000000  1.6024720  3
   7552  14276  14272  14271     1  180.0000771  0.4184000  2
   7552  14276  14272  14271     1  0.0000000  1.6024720  3
   7552  14276  14272  14288     1  180.0000771  5.6484000  1
   7552  14276  14272  14288     1  180.0000771  3.5564000  2
   7552  14276  14272  14288     1  0.0000000  0.4184000  3
   7555  14299  14295  14311     1  180.0000771  5.6484000  1
   7555  14299  14295  14311     1  180.0000771  3.5564000  2
   7555  14299  14295  14311     1  0.0000000  0.4184000  3
   7555  14299  14295  14294     1  180.0000771  0.4184000  2
   7555  14299  14295  14294     1  0.0000000  1.6024720  3
   7560   7561   7573   7585     1  0.0000000  0.6508444  3
   7560   7564   7576   7582     1  0.0000000  0.6508444  3
   7560   7567   7570   7579     1  0.0000000  0.6508444  3
   7561   7560   7564   7576     1  0.0000000  0.6508444  3
   7561   7560   7567   7570     1  0.0000000  0.6508444  3
   7561   7573   7585  14345     1  0.0000000  0.6508444  3
   7564   7560   7561   7573     1  0.0000000  0.6508444  3
   7564   7560   7567   7570     1  0.0000000  0.6508444  3
   7564   7576   7582  14322     1  0.0000000  0.6508444  3
   7567   7560   7561   7573     1  0.0000000  0.6508444  3
   7567   7560   7564   7576     1  0.0000000  0.6508444  3
   7567   7570   7579   7588     1  0.0000000  0.6508444  3
   7573   7585  14345  14341     1  180.0000771  0.4184000  2
   7573   7585  14345  14341     1  0.0000000  1.6024720  3
   7576   7582  14322  14318     1  180.0000771  0.4184000  2
   7576   7582  14322  14318     1  0.0000000  1.6024720  3
   7582  14322  14318  14317     1  180.0000771  0.4184000  2
   7582  14322  14318  14317     1  0.0000000  1.6024720  3
   7582  14322  14318  14334     1  180.0000771  5.6484000  1
   7582  14322  14318  14334     1  180.0000771  3.5564000  2
   7582  14322  14318  14334     1  0.0000000  0.4184000  3
   7585  14345  14341  14357     1  180.0000771  5.6484000  1
   7585  14345  14341  14357     1  180.0000771  3.5564000  2
   7585  14345  14341  14357     1  0.0000000  0.4184000  3
   7585  14345  14341  14340     1  180.0000771  0.4184000  2
   7585  14345  14341  14340     1  0.0000000  1.6024720  3
   7590   7591   7603   7615     1  0.0000000  0.6508444  3
   7590   7594   7606   7612     1  0.0000000  0.6508444  3
   7590   7597   7600   7609     1  0.0000000  0.6508444  3
   7591   7590   7594   7606     1  0.0000000  0.6508444  3
   7591   7590   7597   7600     1  0.0000000  0.6508444  3
   7591   7603   7615  14391     1  0.0000000  0.6508444  3
   7594   7590   7591   7603     1  0.0000000  0.6508444  3
   7594   7590   7597   7600     1  0.0000000  0.6508444  3
   7594   7606   7612  14368     1  0.0000000  0.6508444  3
   7597   7590   7591   7603     1  0.0000000  0.6508444  3
   7597   7590   7594   7606     1  0.0000000  0.6508444  3
   7597   7600   7609   7618     1  0.0000000  0.6508444  3
   7603   7615  14391  14387     1  180.0000771  0.4184000  2
   7603   7615  14391  14387     1  0.0000000  1.6024720  3
   7606   7612  14368  14364     1  180.0000771  0.4184000  2
   7606   7612  14368  14364     1  0.0000000  1.6024720  3
   7612  14368  14364  14363     1  180.0000771  0.4184000  2
   7612  14368  14364  14363     1  0.0000000  1.6024720  3
   7612  14368  14364  14380     1  180.0000771  5.6484000  1
   7612  14368  14364  14380     1  180.0000771  3.5564000  2
   7612  14368  14364  14380     1  0.0000000  0.4184000  3
   7615  14391  14387  14403     1  180.0000771  5.6484000  1
   7615  14391  14387  14403     1  180.0000771  3.5564000  2
   7615  14391  14387  14403     1  0.0000000  0.4184000  3
   7615  14391  14387  14386     1  180.0000771  0.4184000  2
   7615  14391  14387  14386     1  0.0000000  1.6024720  3
   7620   7621   7633   7645     1  0.0000000  0.6508444  3
   7620   7624   7636   7642     1  0.0000000  0.6508444  3
   7620   7627   7630   7639     1  0.0000000  0.6508444  3
   7621   7620   7624   7636     1  0.0000000  0.6508444  3
   7621   7620   7627   7630     1  0.0000000  0.6508444  3
   7621   7633   7645  14437     1  0.0000000  0.6508444  3
   7624   7620   7621   7633     1  0.0000000  0.6508444  3
   7624   7620   7627   7630     1  0.0000000  0.6508444  3
   7624   7636   7642  14414     1  0.0000000  0.6508444  3
   7627   7620   7621   7633     1  0.0000000  0.6508444  3
   7627   7620   7624   7636     1  0.0000000  0.6508444  3
   7627   7630   7639   7648     1  0.0000000  0.6508444  3
   7633   7645  14437  14433     1  180.0000771  0.4184000  2
   7633   7645  14437  14433     1  0.0000000  1.6024720  3
   7636   7642  14414  14410     1  180.0000771  0.4184000  2
   7636   7642  14414  14410     1  0.0000000  1.6024720  3
   7642  14414  14410  14409     1  180.0000771  0.4184000  2
   7642  14414  14410  14409     1  0.0000000  1.6024720  3
   7642  14414  14410  14426     1  180.0000771  5.6484000  1
   7642  14414  14410  14426     1  180.0000771  3.5564000  2
   7642  14414  14410  14426     1  0.0000000  0.4184000  3
   7645  14437  14433  14449     1  180.0000771  5.6484000  1
   7645  14437  14433  14449     1  180.0000771  3.5564000  2
   7645  14437  14433  14449     1  0.0000000  0.4184000  3
   7645  14437  14433  14432     1  180.0000771  0.4184000  2
   7645  14437  14433  14432     1  0.0000000  1.6024720  3
   7650   7651   7663   7675     1  0.0000000  0.6508444  3
   7650   7654   7666   7672     1  0.0000000  0.6508444  3
   7650   7657   7660   7669     1  0.0000000  0.6508444  3
   7651   7650   7654   7666     1  0.0000000  0.6508444  3
   7651   7650   7657   7660     1  0.0000000  0.6508444  3
   7651   7663   7675  14483     1  0.0000000  0.6508444  3
   7654   7650   7651   7663     1  0.0000000  0.6508444  3
   7654   7650   7657   7660     1  0.0000000  0.6508444  3
   7654   7666   7672  14460     1  0.0000000  0.6508444  3
   7657   7650   7651   7663     1  0.0000000  0.6508444  3
   7657   7650   7654   7666     1  0.0000000  0.6508444  3
   7657   7660   7669   7678     1  0.0000000  0.6508444  3
   7663   7675  14483  14479     1  180.0000771  0.4184000  2
   7663   7675  14483  14479     1  0.0000000  1.6024720  3
   7666   7672  14460  14456     1  180.0000771  0.4184000  2
   7666   7672  14460  14456     1  0.0000000  1.6024720  3
   7672  14460  14456  14455     1  180.0000771  0.4184000  2
   7672  14460  14456  14455     1  0.0000000  1.6024720  3
   7672  14460  14456  14472     1  180.0000771  5.6484000  1
   7672  14460  14456  14472     1  180.0000771  3.5564000  2
   7672  14460  14456  14472     1  0.0000000  0.4184000  3
   7675  14483  14479  14495     1  180.0000771  5.6484000  1
   7675  14483  14479  14495     1  180.0000771  3.5564000  2
   7675  14483  14479  14495     1  0.0000000  0.4184000  3
   7675  14483  14479  14478     1  180.0000771  0.4184000  2
   7675  14483  14479  14478     1  0.0000000  1.6024720  3
   7680   7681   7693   7705     1  0.0000000  0.6508444  3
   7680   7684   7696   7702     1  0.0000000  0.6508444  3
   7680   7687   7690   7699     1  0.0000000  0.6508444  3
   7681   7680   7684   7696     1  0.0000000  0.6508444  3
   7681   7680   7687   7690     1  0.0000000  0.6508444  3
   7681   7693   7705  14529     1  0.0000000  0.6508444  3
   7684   7680   7681   7693     1  0.0000000  0.6508444  3
   7684   7680   7687   7690     1  0.0000000  0.6508444  3
   7684   7696   7702  14506     1  0.0000000  0.6508444  3
   7687   7680   7681   7693     1  0.0000000  0.6508444  3
   7687   7680   7684   7696     1  0.0000000  0.6508444  3
   7687   7690   7699   7708     1  0.0000000  0.6508444  3
   7693   7705  14529  14525     1  180.0000771  0.4184000  2
   7693   7705  14529  14525     1  0.0000000  1.6024720  3
   7696   7702  14506  14502     1  180.0000771  0.4184000  2
   7696   7702  14506  14502     1  0.0000000  1.6024720  3
   7702  14506  14502  14501     1  180.0000771  0.4184000  2
   7702  14506  14502  14501     1  0.0000000  1.6024720  3
   7702  14506  14502  14518     1  180.0000771  5.6484000  1
   7702  14506  14502  14518     1  180.0000771  3.5564000  2
   7702  14506  14502  14518     1  0.0000000  0.4184000  3
   7705  14529  14525  14541     1  180.0000771  5.6484000  1
   7705  14529  14525  14541     1  180.0000771  3.5564000  2
   7705  14529  14525  14541     1  0.0000000  0.4184000  3
   7705  14529  14525  14524     1  180.0000771  0.4184000  2
   7705  14529  14525  14524     1  0.0000000  1.6024720  3
   7710   7711   7723   7735     1  0.0000000  0.6508444  3
   7710   7714   7726   7732     1  0.0000000  0.6508444  3
   7710   7717   7720   7729     1  0.0000000  0.6508444  3
   7711   7710   7714   7726     1  0.0000000  0.6508444  3
   7711   7710   7717   7720     1  0.0000000  0.6508444  3
   7711   7723   7735  14575     1  0.0000000  0.6508444  3
   7714   7710   7711   7723     1  0.0000000  0.6508444  3
   7714   7710   7717   7720     1  0.0000000  0.6508444  3
   7714   7726   7732  14552     1  0.0000000  0.6508444  3
   7717   7710   7711   7723     1  0.0000000  0.6508444  3
   7717   7710   7714   7726     1  0.0000000  0.6508444  3
   7717   7720   7729   7738     1  0.0000000  0.6508444  3
   7723   7735  14575  14571     1  180.0000771  0.4184000  2
   7723   7735  14575  14571     1  0.0000000  1.6024720  3
   7726   7732  14552  14548     1  180.0000771  0.4184000  2
   7726   7732  14552  14548     1  0.0000000  1.6024720  3
   7732  14552  14548  14547     1  180.0000771  0.4184000  2
   7732  14552  14548  14547     1  0.0000000  1.6024720  3
   7732  14552  14548  14564     1  180.0000771  5.6484000  1
   7732  14552  14548  14564     1  180.0000771  3.5564000  2
   7732  14552  14548  14564     1  0.0000000  0.4184000  3
   7735  14575  14571  14587     1  180.0000771  5.6484000  1
   7735  14575  14571  14587     1  180.0000771  3.5564000  2
   7735  14575  14571  14587     1  0.0000000  0.4184000  3
   7735  14575  14571  14570     1  180.0000771  0.4184000  2
   7735  14575  14571  14570     1  0.0000000  1.6024720  3
   7740   7741   7753   7765     1  0.0000000  0.6508444  3
   7740   7744   7756   7762     1  0.0000000  0.6508444  3
   7740   7747   7750   7759     1  0.0000000  0.6508444  3
   7741   7740   7744   7756     1  0.0000000  0.6508444  3
   7741   7740   7747   7750     1  0.0000000  0.6508444  3
   7741   7753   7765  14621     1  0.0000000  0.6508444  3
   7744   7740   7741   7753     1  0.0000000  0.6508444  3
   7744   7740   7747   7750     1  0.0000000  0.6508444  3
   7744   7756   7762  14598     1  0.0000000  0.6508444  3
   7747   7740   7741   7753     1  0.0000000  0.6508444  3
   7747   7740   7744   7756     1  0.0000000  0.6508444  3
   7747   7750   7759   7768     1  0.0000000  0.6508444  3
   7753   7765  14621  14617     1  180.0000771  0.4184000  2
   7753   7765  14621  14617     1  0.0000000  1.6024720  3
   7756   7762  14598  14594     1  180.0000771  0.4184000  2
   7756   7762  14598  14594     1  0.0000000  1.6024720  3
   7762  14598  14594  14593     1  180.0000771  0.4184000  2
   7762  14598  14594  14593     1  0.0000000  1.6024720  3
   7762  14598  14594  14610     1  180.0000771  5.6484000  1
   7762  14598  14594  14610     1  180.0000771  3.5564000  2
   7762  14598  14594  14610     1  0.0000000  0.4184000  3
   7765  14621  14617  14633     1  180.0000771  5.6484000  1
   7765  14621  14617  14633     1  180.0000771  3.5564000  2
   7765  14621  14617  14633     1  0.0000000  0.4184000  3
   7765  14621  14617  14616     1  180.0000771  0.4184000  2
   7765  14621  14617  14616     1  0.0000000  1.6024720  3
   7770   7771   7783   7795     1  0.0000000  0.6508444  3
   7770   7774   7786   7792     1  0.0000000  0.6508444  3
   7770   7777   7780   7789     1  0.0000000  0.6508444  3
   7771   7770   7774   7786     1  0.0000000  0.6508444  3
   7771   7770   7777   7780     1  0.0000000  0.6508444  3
   7771   7783   7795  14667     1  0.0000000  0.6508444  3
   7774   7770   7771   7783     1  0.0000000  0.6508444  3
   7774   7770   7777   7780     1  0.0000000  0.6508444  3
   7774   7786   7792  14644     1  0.0000000  0.6508444  3
   7777   7770   7771   7783     1  0.0000000  0.6508444  3
   7777   7770   7774   7786     1  0.0000000  0.6508444  3
   7777   7780   7789   7798     1  0.0000000  0.6508444  3
   7783   7795  14667  14663     1  180.0000771  0.4184000  2
   7783   7795  14667  14663     1  0.0000000  1.6024720  3
   7786   7792  14644  14640     1  180.0000771  0.4184000  2
   7786   7792  14644  14640     1  0.0000000  1.6024720  3
   7792  14644  14640  14639     1  180.0000771  0.4184000  2
   7792  14644  14640  14639     1  0.0000000  1.6024720  3
   7792  14644  14640  14656     1  180.0000771  5.6484000  1
   7792  14644  14640  14656     1  180.0000771  3.5564000  2
   7792  14644  14640  14656     1  0.0000000  0.4184000  3
   7795  14667  14663  14679     1  180.0000771  5.6484000  1
   7795  14667  14663  14679     1  180.0000771  3.5564000  2
   7795  14667  14663  14679     1  0.0000000  0.4184000  3
   7795  14667  14663  14662     1  180.0000771  0.4184000  2
   7795  14667  14663  14662     1  0.0000000  1.6024720  3
   7800   7801   7813   7825     1  0.0000000  0.6508444  3
   7800   7804   7816   7822     1  0.0000000  0.6508444  3
   7800   7807   7810   7819     1  0.0000000  0.6508444  3
   7801   7800   7804   7816     1  0.0000000  0.6508444  3
   7801   7800   7807   7810     1  0.0000000  0.6508444  3
   7801   7813   7825  14713     1  0.0000000  0.6508444  3
   7804   7800   7801   7813     1  0.0000000  0.6508444  3
   7804   7800   7807   7810     1  0.0000000  0.6508444  3
   7804   7816   7822  14690     1  0.0000000  0.6508444  3
   7807   7800   7801   7813     1  0.0000000  0.6508444  3
   7807   7800   7804   7816     1  0.0000000  0.6508444  3
   7807   7810   7819   7828     1  0.0000000  0.6508444  3
   7813   7825  14713  14709     1  180.0000771  0.4184000  2
   7813   7825  14713  14709     1  0.0000000  1.6024720  3
   7816   7822  14690  14686     1  180.0000771  0.4184000  2
   7816   7822  14690  14686     1  0.0000000  1.6024720  3
   7822  14690  14686  14685     1  180.0000771  0.4184000  2
   7822  14690  14686  14685     1  0.0000000  1.6024720  3
   7822  14690  14686  14702     1  180.0000771  5.6484000  1
   7822  14690  14686  14702     1  180.0000771  3.5564000  2
   7822  14690  14686  14702     1  0.0000000  0.4184000  3
   7825  14713  14709  14725     1  180.0000771  5.6484000  1
   7825  14713  14709  14725     1  180.0000771  3.5564000  2
   7825  14713  14709  14725     1  0.0000000  0.4184000  3
   7825  14713  14709  14708     1  180.0000771  0.4184000  2
   7825  14713  14709  14708     1  0.0000000  1.6024720  3
   7830   7831   7843   7855     1  0.0000000  0.6508444  3
   7830   7834   7846   7852     1  0.0000000  0.6508444  3
   7830   7837   7840   7849     1  0.0000000  0.6508444  3
   7831   7830   7834   7846     1  0.0000000  0.6508444  3
   7831   7830   7837   7840     1  0.0000000  0.6508444  3
   7831   7843   7855  14759     1  0.0000000  0.6508444  3
   7834   7830   7831   7843     1  0.0000000  0.6508444  3
   7834   7830   7837   7840     1  0.0000000  0.6508444  3
   7834   7846   7852  14736     1  0.0000000  0.6508444  3
   7837   7830   7831   7843     1  0.0000000  0.6508444  3
   7837   7830   7834   7846     1  0.0000000  0.6508444  3
   7837   7840   7849   7858     1  0.0000000  0.6508444  3
   7843   7855  14759  14755     1  180.0000771  0.4184000  2
   7843   7855  14759  14755     1  0.0000000  1.6024720  3
   7846   7852  14736  14732     1  180.0000771  0.4184000  2
   7846   7852  14736  14732     1  0.0000000  1.6024720  3
   7852  14736  14732  14731     1  180.0000771  0.4184000  2
   7852  14736  14732  14731     1  0.0000000  1.6024720  3
   7852  14736  14732  14748     1  180.0000771  5.6484000  1
   7852  14736  14732  14748     1  180.0000771  3.5564000  2
   7852  14736  14732  14748     1  0.0000000  0.4184000  3
   7855  14759  14755  14771     1  180.0000771  5.6484000  1
   7855  14759  14755  14771     1  180.0000771  3.5564000  2
   7855  14759  14755  14771     1  0.0000000  0.4184000  3
   7855  14759  14755  14754     1  180.0000771  0.4184000  2
   7855  14759  14755  14754     1  0.0000000  1.6024720  3
   7860   7861   7873   7885     1  0.0000000  0.6508444  3
   7860   7864   7876   7882     1  0.0000000  0.6508444  3
   7860   7867   7870   7879     1  0.0000000  0.6508444  3
   7861   7860   7864   7876     1  0.0000000  0.6508444  3
   7861   7860   7867   7870     1  0.0000000  0.6508444  3
   7861   7873   7885  14805     1  0.0000000  0.6508444  3
   7864   7860   7861   7873     1  0.0000000  0.6508444  3
   7864   7860   7867   7870     1  0.0000000  0.6508444  3
   7864   7876   7882  14782     1  0.0000000  0.6508444  3
   7867   7860   7861   7873     1  0.0000000  0.6508444  3
   7867   7860   7864   7876     1  0.0000000  0.6508444  3
   7867   7870   7879   7888     1  0.0000000  0.6508444  3
   7873   7885  14805  14801     1  180.0000771  0.4184000  2
   7873   7885  14805  14801     1  0.0000000  1.6024720  3
   7876   7882  14782  14778     1  180.0000771  0.4184000  2
   7876   7882  14782  14778     1  0.0000000  1.6024720  3
   7882  14782  14778  14777     1  180.0000771  0.4184000  2
   7882  14782  14778  14777     1  0.0000000  1.6024720  3
   7882  14782  14778  14794     1  180.0000771  5.6484000  1
   7882  14782  14778  14794     1  180.0000771  3.5564000  2
   7882  14782  14778  14794     1  0.0000000  0.4184000  3
   7885  14805  14801  14817     1  180.0000771  5.6484000  1
   7885  14805  14801  14817     1  180.0000771  3.5564000  2
   7885  14805  14801  14817     1  0.0000000  0.4184000  3
   7885  14805  14801  14800     1  180.0000771  0.4184000  2
   7885  14805  14801  14800     1  0.0000000  1.6024720  3
   7890   7891   7903   7915     1  0.0000000  0.6508444  3
   7890   7894   7906   7912     1  0.0000000  0.6508444  3
   7890   7897   7900   7909     1  0.0000000  0.6508444  3
   7891   7890   7894   7906     1  0.0000000  0.6508444  3
   7891   7890   7897   7900     1  0.0000000  0.6508444  3
   7891   7903   7915  14851     1  0.0000000  0.6508444  3
   7894   7890   7891   7903     1  0.0000000  0.6508444  3
   7894   7890   7897   7900     1  0.0000000  0.6508444  3
   7894   7906   7912  14828     1  0.0000000  0.6508444  3
   7897   7890   7891   7903     1  0.0000000  0.6508444  3
   7897   7890   7894   7906     1  0.0000000  0.6508444  3
   7897   7900   7909   7918     1  0.0000000  0.6508444  3
   7903   7915  14851  14847     1  180.0000771  0.4184000  2
   7903   7915  14851  14847     1  0.0000000  1.6024720  3
   7906   7912  14828  14824     1  180.0000771  0.4184000  2
   7906   7912  14828  14824     1  0.0000000  1.6024720  3
   7912  14828  14824  14823     1  180.0000771  0.4184000  2
   7912  14828  14824  14823     1  0.0000000  1.6024720  3
   7912  14828  14824  14840     1  180.0000771  5.6484000  1
   7912  14828  14824  14840     1  180.0000771  3.5564000  2
   7912  14828  14824  14840     1  0.0000000  0.4184000  3
   7915  14851  14847  14863     1  180.0000771  5.6484000  1
   7915  14851  14847  14863     1  180.0000771  3.5564000  2
   7915  14851  14847  14863     1  0.0000000  0.4184000  3
   7915  14851  14847  14846     1  180.0000771  0.4184000  2
   7915  14851  14847  14846     1  0.0000000  1.6024720  3
   7920   7921   7933   7945     1  0.0000000  0.6508444  3
   7920   7924   7936   7942     1  0.0000000  0.6508444  3
   7920   7927   7930   7939     1  0.0000000  0.6508444  3
   7921   7920   7924   7936     1  0.0000000  0.6508444  3
   7921   7920   7927   7930     1  0.0000000  0.6508444  3
   7921   7933   7945  14897     1  0.0000000  0.6508444  3
   7924   7920   7921   7933     1  0.0000000  0.6508444  3
   7924   7920   7927   7930     1  0.0000000  0.6508444  3
   7924   7936   7942  14874     1  0.0000000  0.6508444  3
   7927   7920   7921   7933     1  0.0000000  0.6508444  3
   7927   7920   7924   7936     1  0.0000000  0.6508444  3
   7927   7930   7939   7948     1  0.0000000  0.6508444  3
   7933   7945  14897  14893     1  180.0000771  0.4184000  2
   7933   7945  14897  14893     1  0.0000000  1.6024720  3
   7936   7942  14874  14870     1  180.0000771  0.4184000  2
   7936   7942  14874  14870     1  0.0000000  1.6024720  3
   7942  14874  14870  14869     1  180.0000771  0.4184000  2
   7942  14874  14870  14869     1  0.0000000  1.6024720  3
   7942  14874  14870  14886     1  180.0000771  5.6484000  1
   7942  14874  14870  14886     1  180.0000771  3.5564000  2
   7942  14874  14870  14886     1  0.0000000  0.4184000  3
   7945  14897  14893  14909     1  180.0000771  5.6484000  1
   7945  14897  14893  14909     1  180.0000771  3.5564000  2
   7945  14897  14893  14909     1  0.0000000  0.4184000  3
   7945  14897  14893  14892     1  180.0000771  0.4184000  2
   7945  14897  14893  14892     1  0.0000000  1.6024720  3
   7950   7951   7963   7975     1  0.0000000  0.6508444  3
   7950   7954   7966   7972     1  0.0000000  0.6508444  3
   7950   7957   7960   7969     1  0.0000000  0.6508444  3
   7951   7950   7954   7966     1  0.0000000  0.6508444  3
   7951   7950   7957   7960     1  0.0000000  0.6508444  3
   7951   7963   7975  14943     1  0.0000000  0.6508444  3
   7954   7950   7951   7963     1  0.0000000  0.6508444  3
   7954   7950   7957   7960     1  0.0000000  0.6508444  3
   7954   7966   7972  14920     1  0.0000000  0.6508444  3
   7957   7950   7951   7963     1  0.0000000  0.6508444  3
   7957   7950   7954   7966     1  0.0000000  0.6508444  3
   7957   7960   7969   7978     1  0.0000000  0.6508444  3
   7963   7975  14943  14939     1  180.0000771  0.4184000  2
   7963   7975  14943  14939     1  0.0000000  1.6024720  3
   7966   7972  14920  14916     1  180.0000771  0.4184000  2
   7966   7972  14920  14916     1  0.0000000  1.6024720  3
   7972  14920  14916  14915     1  180.0000771  0.4184000  2
   7972  14920  14916  14915     1  0.0000000  1.6024720  3
   7972  14920  14916  14932     1  180.0000771  5.6484000  1
   7972  14920  14916  14932     1  180.0000771  3.5564000  2
   7972  14920  14916  14932     1  0.0000000  0.4184000  3
   7975  14943  14939  14955     1  180.0000771  5.6484000  1
   7975  14943  14939  14955     1  180.0000771  3.5564000  2
   7975  14943  14939  14955     1  0.0000000  0.4184000  3
   7975  14943  14939  14938     1  180.0000771  0.4184000  2
   7975  14943  14939  14938     1  0.0000000  1.6024720  3
   7980   7981   7993   8005     1  0.0000000  0.6508444  3
   7980   7984   7996   8002     1  0.0000000  0.6508444  3
   7980   7987   7990   7999     1  0.0000000  0.6508444  3
   7981   7980   7984   7996     1  0.0000000  0.6508444  3
   7981   7980   7987   7990     1  0.0000000  0.6508444  3
   7981   7993   8005  14989     1  0.0000000  0.6508444  3
   7984   7980   7981   7993     1  0.0000000  0.6508444  3
   7984   7980   7987   7990     1  0.0000000  0.6508444  3
   7984   7996   8002  14966     1  0.0000000  0.6508444  3
   7987   7980   7981   7993     1  0.0000000  0.6508444  3
   7987   7980   7984   7996     1  0.0000000  0.6508444  3
   7987   7990   7999   8008     1  0.0000000  0.6508444  3
   7993   8005  14989  14985     1  180.0000771  0.4184000  2
   7993   8005  14989  14985     1  0.0000000  1.6024720  3
   7996   8002  14966  14962     1  180.0000771  0.4184000  2
   7996   8002  14966  14962     1  0.0000000  1.6024720  3
   8002  14966  14962  14961     1  180.0000771  0.4184000  2
   8002  14966  14962  14961     1  0.0000000  1.6024720  3
   8002  14966  14962  14978     1  180.0000771  5.6484000  1
   8002  14966  14962  14978     1  180.0000771  3.5564000  2
   8002  14966  14962  14978     1  0.0000000  0.4184000  3
   8005  14989  14985  15001     1  180.0000771  5.6484000  1
   8005  14989  14985  15001     1  180.0000771  3.5564000  2
   8005  14989  14985  15001     1  0.0000000  0.4184000  3
   8005  14989  14985  14984     1  180.0000771  0.4184000  2
   8005  14989  14985  14984     1  0.0000000  1.6024720  3
   8010   8011   8023   8035     1  0.0000000  0.6508444  3
   8010   8014   8026   8032     1  0.0000000  0.6508444  3
   8010   8017   8020   8029     1  0.0000000  0.6508444  3
   8011   8010   8014   8026     1  0.0000000  0.6508444  3
   8011   8010   8017   8020     1  0.0000000  0.6508444  3
   8011   8023   8035  15035     1  0.0000000  0.6508444  3
   8014   8010   8011   8023     1  0.0000000  0.6508444  3
   8014   8010   8017   8020     1  0.0000000  0.6508444  3
   8014   8026   8032  15012     1  0.0000000  0.6508444  3
   8017   8010   8011   8023     1  0.0000000  0.6508444  3
   8017   8010   8014   8026     1  0.0000000  0.6508444  3
   8017   8020   8029   8038     1  0.0000000  0.6508444  3
   8023   8035  15035  15031     1  180.0000771  0.4184000  2
   8023   8035  15035  15031     1  0.0000000  1.6024720  3
   8026   8032  15012  15008     1  180.0000771  0.4184000  2
   8026   8032  15012  15008     1  0.0000000  1.6024720  3
   8032  15012  15008  15007     1  180.0000771  0.4184000  2
   8032  15012  15008  15007     1  0.0000000  1.6024720  3
   8032  15012  15008  15024     1  180.0000771  5.6484000  1
   8032  15012  15008  15024     1  180.0000771  3.5564000  2
   8032  15012  15008  15024     1  0.0000000  0.4184000  3
   8035  15035  15031  15047     1  180.0000771  5.6484000  1
   8035  15035  15031  15047     1  180.0000771  3.5564000  2
   8035  15035  15031  15047     1  0.0000000  0.4184000  3
   8035  15035  15031  15030     1  180.0000771  0.4184000  2
   8035  15035  15031  15030     1  0.0000000  1.6024720  3
   8040   8041   8053   8065     1  0.0000000  0.6508444  3
   8040   8044   8056   8062     1  0.0000000  0.6508444  3
   8040   8047   8050   8059     1  0.0000000  0.6508444  3
   8041   8040   8044   8056     1  0.0000000  0.6508444  3
   8041   8040   8047   8050     1  0.0000000  0.6508444  3
   8041   8053   8065  15081     1  0.0000000  0.6508444  3
   8044   8040   8041   8053     1  0.0000000  0.6508444  3
   8044   8040   8047   8050     1  0.0000000  0.6508444  3
   8044   8056   8062  15058     1  0.0000000  0.6508444  3
   8047   8040   8041   8053     1  0.0000000  0.6508444  3
   8047   8040   8044   8056     1  0.0000000  0.6508444  3
   8047   8050   8059   8068     1  0.0000000  0.6508444  3
   8053   8065  15081  15077     1  180.0000771  0.4184000  2
   8053   8065  15081  15077     1  0.0000000  1.6024720  3
   8056   8062  15058  15054     1  180.0000771  0.4184000  2
   8056   8062  15058  15054     1  0.0000000  1.6024720  3
   8062  15058  15054  15053     1  180.0000771  0.4184000  2
   8062  15058  15054  15053     1  0.0000000  1.6024720  3
   8062  15058  15054  15070     1  180.0000771  5.6484000  1
   8062  15058  15054  15070     1  180.0000771  3.5564000  2
   8062  15058  15054  15070     1  0.0000000  0.4184000  3
   8065  15081  15077  15093     1  180.0000771  5.6484000  1
   8065  15081  15077  15093     1  180.0000771  3.5564000  2
   8065  15081  15077  15093     1  0.0000000  0.4184000  3
   8065  15081  15077  15076     1  180.0000771  0.4184000  2
   8065  15081  15077  15076     1  0.0000000  1.6024720  3
   8070   8071   8083   8095     1  0.0000000  0.6508444  3
   8070   8074   8086   8092     1  0.0000000  0.6508444  3
   8070   8077   8080   8089     1  0.0000000  0.6508444  3
   8071   8070   8074   8086     1  0.0000000  0.6508444  3
   8071   8070   8077   8080     1  0.0000000  0.6508444  3
   8071   8083   8095  15127     1  0.0000000  0.6508444  3
   8074   8070   8071   8083     1  0.0000000  0.6508444  3
   8074   8070   8077   8080     1  0.0000000  0.6508444  3
   8074   8086   8092  15104     1  0.0000000  0.6508444  3
   8077   8070   8071   8083     1  0.0000000  0.6508444  3
   8077   8070   8074   8086     1  0.0000000  0.6508444  3
   8077   8080   8089   8098     1  0.0000000  0.6508444  3
   8083   8095  15127  15123     1  180.0000771  0.4184000  2
   8083   8095  15127  15123     1  0.0000000  1.6024720  3
   8086   8092  15104  15100     1  180.0000771  0.4184000  2
   8086   8092  15104  15100     1  0.0000000  1.6024720  3
   8092  15104  15100  15099     1  180.0000771  0.4184000  2
   8092  15104  15100  15099     1  0.0000000  1.6024720  3
   8092  15104  15100  15116     1  180.0000771  5.6484000  1
   8092  15104  15100  15116     1  180.0000771  3.5564000  2
   8092  15104  15100  15116     1  0.0000000  0.4184000  3
   8095  15127  15123  15139     1  180.0000771  5.6484000  1
   8095  15127  15123  15139     1  180.0000771  3.5564000  2
   8095  15127  15123  15139     1  0.0000000  0.4184000  3
   8095  15127  15123  15122     1  180.0000771  0.4184000  2
   8095  15127  15123  15122     1  0.0000000  1.6024720  3
   8100   8101   8113   8125     1  0.0000000  0.6508444  3
   8100   8104   8116   8122     1  0.0000000  0.6508444  3
   8100   8107   8110   8119     1  0.0000000  0.6508444  3
   8101   8100   8104   8116     1  0.0000000  0.6508444  3
   8101   8100   8107   8110     1  0.0000000  0.6508444  3
   8101   8113   8125  15173     1  0.0000000  0.6508444  3
   8104   8100   8101   8113     1  0.0000000  0.6508444  3
   8104   8100   8107   8110     1  0.0000000  0.6508444  3
   8104   8116   8122  15150     1  0.0000000  0.6508444  3
   8107   8100   8101   8113     1  0.0000000  0.6508444  3
   8107   8100   8104   8116     1  0.0000000  0.6508444  3
   8107   8110   8119   8128     1  0.0000000  0.6508444  3
   8113   8125  15173  15169     1  180.0000771  0.4184000  2
   8113   8125  15173  15169     1  0.0000000  1.6024720  3
   8116   8122  15150  15146     1  180.0000771  0.4184000  2
   8116   8122  15150  15146     1  0.0000000  1.6024720  3
   8122  15150  15146  15145     1  180.0000771  0.4184000  2
   8122  15150  15146  15145     1  0.0000000  1.6024720  3
   8122  15150  15146  15162     1  180.0000771  5.6484000  1
   8122  15150  15146  15162     1  180.0000771  3.5564000  2
   8122  15150  15146  15162     1  0.0000000  0.4184000  3
   8125  15173  15169  15185     1  180.0000771  5.6484000  1
   8125  15173  15169  15185     1  180.0000771  3.5564000  2
   8125  15173  15169  15185     1  0.0000000  0.4184000  3
   8125  15173  15169  15168     1  180.0000771  0.4184000  2
   8125  15173  15169  15168     1  0.0000000  1.6024720  3
   8130   8131   8143   8155     1  0.0000000  0.6508444  3
   8130   8134   8146   8152     1  0.0000000  0.6508444  3
   8130   8137   8140   8149     1  0.0000000  0.6508444  3
   8131   8130   8134   8146     1  0.0000000  0.6508444  3
   8131   8130   8137   8140     1  0.0000000  0.6508444  3
   8131   8143   8155  15219     1  0.0000000  0.6508444  3
   8134   8130   8131   8143     1  0.0000000  0.6508444  3
   8134   8130   8137   8140     1  0.0000000  0.6508444  3
   8134   8146   8152  15196     1  0.0000000  0.6508444  3
   8137   8130   8131   8143     1  0.0000000  0.6508444  3
   8137   8130   8134   8146     1  0.0000000  0.6508444  3
   8137   8140   8149   8158     1  0.0000000  0.6508444  3
   8143   8155  15219  15215     1  180.0000771  0.4184000  2
   8143   8155  15219  15215     1  0.0000000  1.6024720  3
   8146   8152  15196  15192     1  180.0000771  0.4184000  2
   8146   8152  15196  15192     1  0.0000000  1.6024720  3
   8152  15196  15192  15191     1  180.0000771  0.4184000  2
   8152  15196  15192  15191     1  0.0000000  1.6024720  3
   8152  15196  15192  15208     1  180.0000771  5.6484000  1
   8152  15196  15192  15208     1  180.0000771  3.5564000  2
   8152  15196  15192  15208     1  0.0000000  0.4184000  3
   8155  15219  15215  15231     1  180.0000771  5.6484000  1
   8155  15219  15215  15231     1  180.0000771  3.5564000  2
   8155  15219  15215  15231     1  0.0000000  0.4184000  3
   8155  15219  15215  15214     1  180.0000771  0.4184000  2
   8155  15219  15215  15214     1  0.0000000  1.6024720  3
   8160   8161   8173   8185     1  0.0000000  0.6508444  3
   8160   8164   8176   8182     1  0.0000000  0.6508444  3
   8160   8167   8170   8179     1  0.0000000  0.6508444  3
   8161   8160   8164   8176     1  0.0000000  0.6508444  3
   8161   8160   8167   8170     1  0.0000000  0.6508444  3
   8161   8173   8185  15265     1  0.0000000  0.6508444  3
   8164   8160   8161   8173     1  0.0000000  0.6508444  3
   8164   8160   8167   8170     1  0.0000000  0.6508444  3
   8164   8176   8182  15242     1  0.0000000  0.6508444  3
   8167   8160   8161   8173     1  0.0000000  0.6508444  3
   8167   8160   8164   8176     1  0.0000000  0.6508444  3
   8167   8170   8179   8188     1  0.0000000  0.6508444  3
   8173   8185  15265  15261     1  180.0000771  0.4184000  2
   8173   8185  15265  15261     1  0.0000000  1.6024720  3
   8176   8182  15242  15238     1  180.0000771  0.4184000  2
   8176   8182  15242  15238     1  0.0000000  1.6024720  3
   8182  15242  15238  15237     1  180.0000771  0.4184000  2
   8182  15242  15238  15237     1  0.0000000  1.6024720  3
   8182  15242  15238  15254     1  180.0000771  5.6484000  1
   8182  15242  15238  15254     1  180.0000771  3.5564000  2
   8182  15242  15238  15254     1  0.0000000  0.4184000  3
   8185  15265  15261  15277     1  180.0000771  5.6484000  1
   8185  15265  15261  15277     1  180.0000771  3.5564000  2
   8185  15265  15261  15277     1  0.0000000  0.4184000  3
   8185  15265  15261  15260     1  180.0000771  0.4184000  2
   8185  15265  15261  15260     1  0.0000000  1.6024720  3
   8190   8191   8203   8215     1  0.0000000  0.6508444  3
   8190   8194   8206   8212     1  0.0000000  0.6508444  3
   8190   8197   8200   8209     1  0.0000000  0.6508444  3
   8191   8190   8194   8206     1  0.0000000  0.6508444  3
   8191   8190   8197   8200     1  0.0000000  0.6508444  3
   8191   8203   8215  15311     1  0.0000000  0.6508444  3
   8194   8190   8191   8203     1  0.0000000  0.6508444  3
   8194   8190   8197   8200     1  0.0000000  0.6508444  3
   8194   8206   8212  15288     1  0.0000000  0.6508444  3
   8197   8190   8191   8203     1  0.0000000  0.6508444  3
   8197   8190   8194   8206     1  0.0000000  0.6508444  3
   8197   8200   8209   8218     1  0.0000000  0.6508444  3
   8203   8215  15311  15307     1  180.0000771  0.4184000  2
   8203   8215  15311  15307     1  0.0000000  1.6024720  3
   8206   8212  15288  15284     1  180.0000771  0.4184000  2
   8206   8212  15288  15284     1  0.0000000  1.6024720  3
   8212  15288  15284  15283     1  180.0000771  0.4184000  2
   8212  15288  15284  15283     1  0.0000000  1.6024720  3
   8212  15288  15284  15300     1  180.0000771  5.6484000  1
   8212  15288  15284  15300     1  180.0000771  3.5564000  2
   8212  15288  15284  15300     1  0.0000000  0.4184000  3
   8215  15311  15307  15323     1  180.0000771  5.6484000  1
   8215  15311  15307  15323     1  180.0000771  3.5564000  2
   8215  15311  15307  15323     1  0.0000000  0.4184000  3
   8215  15311  15307  15306     1  180.0000771  0.4184000  2
   8215  15311  15307  15306     1  0.0000000  1.6024720  3
   8220   8221   8233   8245     1  0.0000000  0.6508444  3
   8220   8224   8236   8242     1  0.0000000  0.6508444  3
   8220   8227   8230   8239     1  0.0000000  0.6508444  3
   8221   8220   8224   8236     1  0.0000000  0.6508444  3
   8221   8220   8227   8230     1  0.0000000  0.6508444  3
   8221   8233   8245  15357     1  0.0000000  0.6508444  3
   8224   8220   8221   8233     1  0.0000000  0.6508444  3
   8224   8220   8227   8230     1  0.0000000  0.6508444  3
   8224   8236   8242  15334     1  0.0000000  0.6508444  3
   8227   8220   8221   8233     1  0.0000000  0.6508444  3
   8227   8220   8224   8236     1  0.0000000  0.6508444  3
   8227   8230   8239   8248     1  0.0000000  0.6508444  3
   8233   8245  15357  15353     1  180.0000771  0.4184000  2
   8233   8245  15357  15353     1  0.0000000  1.6024720  3
   8236   8242  15334  15330     1  180.0000771  0.4184000  2
   8236   8242  15334  15330     1  0.0000000  1.6024720  3
   8242  15334  15330  15329     1  180.0000771  0.4184000  2
   8242  15334  15330  15329     1  0.0000000  1.6024720  3
   8242  15334  15330  15346     1  180.0000771  5.6484000  1
   8242  15334  15330  15346     1  180.0000771  3.5564000  2
   8242  15334  15330  15346     1  0.0000000  0.4184000  3
   8245  15357  15353  15369     1  180.0000771  5.6484000  1
   8245  15357  15353  15369     1  180.0000771  3.5564000  2
   8245  15357  15353  15369     1  0.0000000  0.4184000  3
   8245  15357  15353  15352     1  180.0000771  0.4184000  2
   8245  15357  15353  15352     1  0.0000000  1.6024720  3
   8250   8251   8263   8275     1  0.0000000  0.6508444  3
   8250   8254   8266   8272     1  0.0000000  0.6508444  3
   8250   8257   8260   8269     1  0.0000000  0.6508444  3
   8251   8250   8254   8266     1  0.0000000  0.6508444  3
   8251   8250   8257   8260     1  0.0000000  0.6508444  3
   8251   8263   8275  15403     1  0.0000000  0.6508444  3
   8254   8250   8251   8263     1  0.0000000  0.6508444  3
   8254   8250   8257   8260     1  0.0000000  0.6508444  3
   8254   8266   8272  15380     1  0.0000000  0.6508444  3
   8257   8250   8251   8263     1  0.0000000  0.6508444  3
   8257   8250   8254   8266     1  0.0000000  0.6508444  3
   8257   8260   8269   8278     1  0.0000000  0.6508444  3
   8263   8275  15403  15399     1  180.0000771  0.4184000  2
   8263   8275  15403  15399     1  0.0000000  1.6024720  3
   8266   8272  15380  15376     1  180.0000771  0.4184000  2
   8266   8272  15380  15376     1  0.0000000  1.6024720  3
   8272  15380  15376  15375     1  180.0000771  0.4184000  2
   8272  15380  15376  15375     1  0.0000000  1.6024720  3
   8272  15380  15376  15392     1  180.0000771  5.6484000  1
   8272  15380  15376  15392     1  180.0000771  3.5564000  2
   8272  15380  15376  15392     1  0.0000000  0.4184000  3
   8275  15403  15399  15415     1  180.0000771  5.6484000  1
   8275  15403  15399  15415     1  180.0000771  3.5564000  2
   8275  15403  15399  15415     1  0.0000000  0.4184000  3
   8275  15403  15399  15398     1  180.0000771  0.4184000  2
   8275  15403  15399  15398     1  0.0000000  1.6024720  3
   8280   8281   8293   8305     1  0.0000000  0.6508444  3
   8280   8284   8296   8302     1  0.0000000  0.6508444  3
   8280   8287   8290   8299     1  0.0000000  0.6508444  3
   8281   8280   8284   8296     1  0.0000000  0.6508444  3
   8281   8280   8287   8290     1  0.0000000  0.6508444  3
   8281   8293   8305  15449     1  0.0000000  0.6508444  3
   8284   8280   8281   8293     1  0.0000000  0.6508444  3
   8284   8280   8287   8290     1  0.0000000  0.6508444  3
   8284   8296   8302  15426     1  0.0000000  0.6508444  3
   8287   8280   8281   8293     1  0.0000000  0.6508444  3
   8287   8280   8284   8296     1  0.0000000  0.6508444  3
   8287   8290   8299   8308     1  0.0000000  0.6508444  3
   8293   8305  15449  15445     1  180.0000771  0.4184000  2
   8293   8305  15449  15445     1  0.0000000  1.6024720  3
   8296   8302  15426  15422     1  180.0000771  0.4184000  2
   8296   8302  15426  15422     1  0.0000000  1.6024720  3
   8302  15426  15422  15421     1  180.0000771  0.4184000  2
   8302  15426  15422  15421     1  0.0000000  1.6024720  3
   8302  15426  15422  15438     1  180.0000771  5.6484000  1
   8302  15426  15422  15438     1  180.0000771  3.5564000  2
   8302  15426  15422  15438     1  0.0000000  0.4184000  3
   8305  15449  15445  15461     1  180.0000771  5.6484000  1
   8305  15449  15445  15461     1  180.0000771  3.5564000  2
   8305  15449  15445  15461     1  0.0000000  0.4184000  3
   8305  15449  15445  15444     1  180.0000771  0.4184000  2
   8305  15449  15445  15444     1  0.0000000  1.6024720  3
   8310   8311   8323   8335     1  0.0000000  0.6508444  3
   8310   8314   8326   8332     1  0.0000000  0.6508444  3
   8310   8317   8320   8329     1  0.0000000  0.6508444  3
   8311   8310   8314   8326     1  0.0000000  0.6508444  3
   8311   8310   8317   8320     1  0.0000000  0.6508444  3
   8311   8323   8335  15495     1  0.0000000  0.6508444  3
   8314   8310   8311   8323     1  0.0000000  0.6508444  3
   8314   8310   8317   8320     1  0.0000000  0.6508444  3
   8314   8326   8332  15472     1  0.0000000  0.6508444  3
   8317   8310   8311   8323     1  0.0000000  0.6508444  3
   8317   8310   8314   8326     1  0.0000000  0.6508444  3
   8317   8320   8329   8338     1  0.0000000  0.6508444  3
   8323   8335  15495  15491     1  180.0000771  0.4184000  2
   8323   8335  15495  15491     1  0.0000000  1.6024720  3
   8326   8332  15472  15468     1  180.0000771  0.4184000  2
   8326   8332  15472  15468     1  0.0000000  1.6024720  3
   8332  15472  15468  15467     1  180.0000771  0.4184000  2
   8332  15472  15468  15467     1  0.0000000  1.6024720  3
   8332  15472  15468  15484     1  180.0000771  5.6484000  1
   8332  15472  15468  15484     1  180.0000771  3.5564000  2
   8332  15472  15468  15484     1  0.0000000  0.4184000  3
   8335  15495  15491  15507     1  180.0000771  5.6484000  1
   8335  15495  15491  15507     1  180.0000771  3.5564000  2
   8335  15495  15491  15507     1  0.0000000  0.4184000  3
   8335  15495  15491  15490     1  180.0000771  0.4184000  2
   8335  15495  15491  15490     1  0.0000000  1.6024720  3
   8340   8341   8353   8365     1  0.0000000  0.6508444  3
   8340   8344   8356   8362     1  0.0000000  0.6508444  3
   8340   8347   8350   8359     1  0.0000000  0.6508444  3
   8341   8340   8344   8356     1  0.0000000  0.6508444  3
   8341   8340   8347   8350     1  0.0000000  0.6508444  3
   8341   8353   8365  15541     1  0.0000000  0.6508444  3
   8344   8340   8341   8353     1  0.0000000  0.6508444  3
   8344   8340   8347   8350     1  0.0000000  0.6508444  3
   8344   8356   8362  15518     1  0.0000000  0.6508444  3
   8347   8340   8341   8353     1  0.0000000  0.6508444  3
   8347   8340   8344   8356     1  0.0000000  0.6508444  3
   8347   8350   8359   8368     1  0.0000000  0.6508444  3
   8353   8365  15541  15537     1  180.0000771  0.4184000  2
   8353   8365  15541  15537     1  0.0000000  1.6024720  3
   8356   8362  15518  15514     1  180.0000771  0.4184000  2
   8356   8362  15518  15514     1  0.0000000  1.6024720  3
   8362  15518  15514  15513     1  180.0000771  0.4184000  2
   8362  15518  15514  15513     1  0.0000000  1.6024720  3
   8362  15518  15514  15530     1  180.0000771  5.6484000  1
   8362  15518  15514  15530     1  180.0000771  3.5564000  2
   8362  15518  15514  15530     1  0.0000000  0.4184000  3
   8365  15541  15537  15553     1  180.0000771  5.6484000  1
   8365  15541  15537  15553     1  180.0000771  3.5564000  2
   8365  15541  15537  15553     1  0.0000000  0.4184000  3
   8365  15541  15537  15536     1  180.0000771  0.4184000  2
   8365  15541  15537  15536     1  0.0000000  1.6024720  3
   8370   8371   8383   8395     1  0.0000000  0.6508444  3
   8370   8374   8386   8392     1  0.0000000  0.6508444  3
   8370   8377   8380   8389     1  0.0000000  0.6508444  3
   8371   8370   8374   8386     1  0.0000000  0.6508444  3
   8371   8370   8377   8380     1  0.0000000  0.6508444  3
   8371   8383   8395  15587     1  0.0000000  0.6508444  3
   8374   8370   8371   8383     1  0.0000000  0.6508444  3
   8374   8370   8377   8380     1  0.0000000  0.6508444  3
   8374   8386   8392  15564     1  0.0000000  0.6508444  3
   8377   8370   8371   8383     1  0.0000000  0.6508444  3
   8377   8370   8374   8386     1  0.0000000  0.6508444  3
   8377   8380   8389   8398     1  0.0000000  0.6508444  3
   8383   8395  15587  15583     1  180.0000771  0.4184000  2
   8383   8395  15587  15583     1  0.0000000  1.6024720  3
   8386   8392  15564  15560     1  180.0000771  0.4184000  2
   8386   8392  15564  15560     1  0.0000000  1.6024720  3
   8392  15564  15560  15559     1  180.0000771  0.4184000  2
   8392  15564  15560  15559     1  0.0000000  1.6024720  3
   8392  15564  15560  15576     1  180.0000771  5.6484000  1
   8392  15564  15560  15576     1  180.0000771  3.5564000  2
   8392  15564  15560  15576     1  0.0000000  0.4184000  3
   8395  15587  15583  15599     1  180.0000771  5.6484000  1
   8395  15587  15583  15599     1  180.0000771  3.5564000  2
   8395  15587  15583  15599     1  0.0000000  0.4184000  3
   8395  15587  15583  15582     1  180.0000771  0.4184000  2
   8395  15587  15583  15582     1  0.0000000  1.6024720  3
   8400   8401   8413   8425     1  0.0000000  0.6508444  3
   8400   8404   8416   8422     1  0.0000000  0.6508444  3
   8400   8407   8410   8419     1  0.0000000  0.6508444  3
   8401   8400   8404   8416     1  0.0000000  0.6508444  3
   8401   8400   8407   8410     1  0.0000000  0.6508444  3
   8401   8413   8425  15633     1  0.0000000  0.6508444  3
   8404   8400   8401   8413     1  0.0000000  0.6508444  3
   8404   8400   8407   8410     1  0.0000000  0.6508444  3
   8404   8416   8422  15610     1  0.0000000  0.6508444  3
   8407   8400   8401   8413     1  0.0000000  0.6508444  3
   8407   8400   8404   8416     1  0.0000000  0.6508444  3
   8407   8410   8419   8428     1  0.0000000  0.6508444  3
   8413   8425  15633  15629     1  180.0000771  0.4184000  2
   8413   8425  15633  15629     1  0.0000000  1.6024720  3
   8416   8422  15610  15606     1  180.0000771  0.4184000  2
   8416   8422  15610  15606     1  0.0000000  1.6024720  3
   8422  15610  15606  15605     1  180.0000771  0.4184000  2
   8422  15610  15606  15605     1  0.0000000  1.6024720  3
   8422  15610  15606  15622     1  180.0000771  5.6484000  1
   8422  15610  15606  15622     1  180.0000771  3.5564000  2
   8422  15610  15606  15622     1  0.0000000  0.4184000  3
   8425  15633  15629  15645     1  180.0000771  5.6484000  1
   8425  15633  15629  15645     1  180.0000771  3.5564000  2
   8425  15633  15629  15645     1  0.0000000  0.4184000  3
   8425  15633  15629  15628     1  180.0000771  0.4184000  2
   8425  15633  15629  15628     1  0.0000000  1.6024720  3
   8430   8431   8443   8455     1  0.0000000  0.6508444  3
   8430   8434   8446   8452     1  0.0000000  0.6508444  3
   8430   8437   8440   8449     1  0.0000000  0.6508444  3
   8431   8430   8434   8446     1  0.0000000  0.6508444  3
   8431   8430   8437   8440     1  0.0000000  0.6508444  3
   8431   8443   8455  15679     1  0.0000000  0.6508444  3
   8434   8430   8431   8443     1  0.0000000  0.6508444  3
   8434   8430   8437   8440     1  0.0000000  0.6508444  3
   8434   8446   8452  15656     1  0.0000000  0.6508444  3
   8437   8430   8431   8443     1  0.0000000  0.6508444  3
   8437   8430   8434   8446     1  0.0000000  0.6508444  3
   8437   8440   8449   8458     1  0.0000000  0.6508444  3
   8443   8455  15679  15675     1  180.0000771  0.4184000  2
   8443   8455  15679  15675     1  0.0000000  1.6024720  3
   8446   8452  15656  15652     1  180.0000771  0.4184000  2
   8446   8452  15656  15652     1  0.0000000  1.6024720  3
   8452  15656  15652  15651     1  180.0000771  0.4184000  2
   8452  15656  15652  15651     1  0.0000000  1.6024720  3
   8452  15656  15652  15668     1  180.0000771  5.6484000  1
   8452  15656  15652  15668     1  180.0000771  3.5564000  2
   8452  15656  15652  15668     1  0.0000000  0.4184000  3
   8455  15679  15675  15691     1  180.0000771  5.6484000  1
   8455  15679  15675  15691     1  180.0000771  3.5564000  2
   8455  15679  15675  15691     1  0.0000000  0.4184000  3
   8455  15679  15675  15674     1  180.0000771  0.4184000  2
   8455  15679  15675  15674     1  0.0000000  1.6024720  3
   8460   8461   8473   8485     1  0.0000000  0.6508444  3
   8460   8464   8476   8482     1  0.0000000  0.6508444  3
   8460   8467   8470   8479     1  0.0000000  0.6508444  3
   8461   8460   8464   8476     1  0.0000000  0.6508444  3
   8461   8460   8467   8470     1  0.0000000  0.6508444  3
   8461   8473   8485  15725     1  0.0000000  0.6508444  3
   8464   8460   8461   8473     1  0.0000000  0.6508444  3
   8464   8460   8467   8470     1  0.0000000  0.6508444  3
   8464   8476   8482  15702     1  0.0000000  0.6508444  3
   8467   8460   8461   8473     1  0.0000000  0.6508444  3
   8467   8460   8464   8476     1  0.0000000  0.6508444  3
   8467   8470   8479   8488     1  0.0000000  0.6508444  3
   8473   8485  15725  15721     1  180.0000771  0.4184000  2
   8473   8485  15725  15721     1  0.0000000  1.6024720  3
   8476   8482  15702  15698     1  180.0000771  0.4184000  2
   8476   8482  15702  15698     1  0.0000000  1.6024720  3
   8482  15702  15698  15697     1  180.0000771  0.4184000  2
   8482  15702  15698  15697     1  0.0000000  1.6024720  3
   8482  15702  15698  15714     1  180.0000771  5.6484000  1
   8482  15702  15698  15714     1  180.0000771  3.5564000  2
   8482  15702  15698  15714     1  0.0000000  0.4184000  3
   8485  15725  15721  15737     1  180.0000771  5.6484000  1
   8485  15725  15721  15737     1  180.0000771  3.5564000  2
   8485  15725  15721  15737     1  0.0000000  0.4184000  3
   8485  15725  15721  15720     1  180.0000771  0.4184000  2
   8485  15725  15721  15720     1  0.0000000  1.6024720  3
   8490   8491   8503   8515     1  0.0000000  0.6508444  3
   8490   8494   8506   8512     1  0.0000000  0.6508444  3
   8490   8497   8500   8509     1  0.0000000  0.6508444  3
   8491   8490   8494   8506     1  0.0000000  0.6508444  3
   8491   8490   8497   8500     1  0.0000000  0.6508444  3
   8491   8503   8515  15771     1  0.0000000  0.6508444  3
   8494   8490   8491   8503     1  0.0000000  0.6508444  3
   8494   8490   8497   8500     1  0.0000000  0.6508444  3
   8494   8506   8512  15748     1  0.0000000  0.6508444  3
   8497   8490   8491   8503     1  0.0000000  0.6508444  3
   8497   8490   8494   8506     1  0.0000000  0.6508444  3
   8497   8500   8509   8518     1  0.0000000  0.6508444  3
   8503   8515  15771  15767     1  180.0000771  0.4184000  2
   8503   8515  15771  15767     1  0.0000000  1.6024720  3
   8506   8512  15748  15744     1  180.0000771  0.4184000  2
   8506   8512  15748  15744     1  0.0000000  1.6024720  3
   8512  15748  15744  15743     1  180.0000771  0.4184000  2
   8512  15748  15744  15743     1  0.0000000  1.6024720  3
   8512  15748  15744  15760     1  180.0000771  5.6484000  1
   8512  15748  15744  15760     1  180.0000771  3.5564000  2
   8512  15748  15744  15760     1  0.0000000  0.4184000  3
   8515  15771  15767  15783     1  180.0000771  5.6484000  1
   8515  15771  15767  15783     1  180.0000771  3.5564000  2
   8515  15771  15767  15783     1  0.0000000  0.4184000  3
   8515  15771  15767  15766     1  180.0000771  0.4184000  2
   8515  15771  15767  15766     1  0.0000000  1.6024720  3
   8520   8521   8533   8545     1  0.0000000  0.6508444  3
   8520   8524   8536   8542     1  0.0000000  0.6508444  3
   8520   8527   8530   8539     1  0.0000000  0.6508444  3
   8521   8520   8524   8536     1  0.0000000  0.6508444  3
   8521   8520   8527   8530     1  0.0000000  0.6508444  3
   8521   8533   8545  15817     1  0.0000000  0.6508444  3
   8524   8520   8521   8533     1  0.0000000  0.6508444  3
   8524   8520   8527   8530     1  0.0000000  0.6508444  3
   8524   8536   8542  15794     1  0.0000000  0.6508444  3
   8527   8520   8521   8533     1  0.0000000  0.6508444  3
   8527   8520   8524   8536     1  0.0000000  0.6508444  3
   8527   8530   8539   8548     1  0.0000000  0.6508444  3
   8533   8545  15817  15813     1  180.0000771  0.4184000  2
   8533   8545  15817  15813     1  0.0000000  1.6024720  3
   8536   8542  15794  15790     1  180.0000771  0.4184000  2
   8536   8542  15794  15790     1  0.0000000  1.6024720  3
   8542  15794  15790  15789     1  180.0000771  0.4184000  2
   8542  15794  15790  15789     1  0.0000000  1.6024720  3
   8542  15794  15790  15806     1  180.0000771  5.6484000  1
   8542  15794  15790  15806     1  180.0000771  3.5564000  2
   8542  15794  15790  15806     1  0.0000000  0.4184000  3
   8545  15817  15813  15829     1  180.0000771  5.6484000  1
   8545  15817  15813  15829     1  180.0000771  3.5564000  2
   8545  15817  15813  15829     1  0.0000000  0.4184000  3
   8545  15817  15813  15812     1  180.0000771  0.4184000  2
   8545  15817  15813  15812     1  0.0000000  1.6024720  3
   8550   8551   8563   8575     1  0.0000000  0.6508444  3
   8550   8554   8566   8572     1  0.0000000  0.6508444  3
   8550   8557   8560   8569     1  0.0000000  0.6508444  3
   8551   8550   8554   8566     1  0.0000000  0.6508444  3
   8551   8550   8557   8560     1  0.0000000  0.6508444  3
   8551   8563   8575  15863     1  0.0000000  0.6508444  3
   8554   8550   8551   8563     1  0.0000000  0.6508444  3
   8554   8550   8557   8560     1  0.0000000  0.6508444  3
   8554   8566   8572  15840     1  0.0000000  0.6508444  3
   8557   8550   8551   8563     1  0.0000000  0.6508444  3
   8557   8550   8554   8566     1  0.0000000  0.6508444  3
   8557   8560   8569   8578     1  0.0000000  0.6508444  3
   8563   8575  15863  15859     1  180.0000771  0.4184000  2
   8563   8575  15863  15859     1  0.0000000  1.6024720  3
   8566   8572  15840  15836     1  180.0000771  0.4184000  2
   8566   8572  15840  15836     1  0.0000000  1.6024720  3
   8572  15840  15836  15835     1  180.0000771  0.4184000  2
   8572  15840  15836  15835     1  0.0000000  1.6024720  3
   8572  15840  15836  15852     1  180.0000771  5.6484000  1
   8572  15840  15836  15852     1  180.0000771  3.5564000  2
   8572  15840  15836  15852     1  0.0000000  0.4184000  3
   8575  15863  15859  15875     1  180.0000771  5.6484000  1
   8575  15863  15859  15875     1  180.0000771  3.5564000  2
   8575  15863  15859  15875     1  0.0000000  0.4184000  3
   8575  15863  15859  15858     1  180.0000771  0.4184000  2
   8575  15863  15859  15858     1  0.0000000  1.6024720  3
   8580   8581   8593   8605     1  0.0000000  0.6508444  3
   8580   8584   8596   8602     1  0.0000000  0.6508444  3
   8580   8587   8590   8599     1  0.0000000  0.6508444  3
   8581   8580   8584   8596     1  0.0000000  0.6508444  3
   8581   8580   8587   8590     1  0.0000000  0.6508444  3
   8581   8593   8605  15909     1  0.0000000  0.6508444  3
   8584   8580   8581   8593     1  0.0000000  0.6508444  3
   8584   8580   8587   8590     1  0.0000000  0.6508444  3
   8584   8596   8602  15886     1  0.0000000  0.6508444  3
   8587   8580   8581   8593     1  0.0000000  0.6508444  3
   8587   8580   8584   8596     1  0.0000000  0.6508444  3
   8587   8590   8599   8608     1  0.0000000  0.6508444  3
   8593   8605  15909  15905     1  180.0000771  0.4184000  2
   8593   8605  15909  15905     1  0.0000000  1.6024720  3
   8596   8602  15886  15882     1  180.0000771  0.4184000  2
   8596   8602  15886  15882     1  0.0000000  1.6024720  3
   8602  15886  15882  15881     1  180.0000771  0.4184000  2
   8602  15886  15882  15881     1  0.0000000  1.6024720  3
   8602  15886  15882  15898     1  180.0000771  5.6484000  1
   8602  15886  15882  15898     1  180.0000771  3.5564000  2
   8602  15886  15882  15898     1  0.0000000  0.4184000  3
   8605  15909  15905  15921     1  180.0000771  5.6484000  1
   8605  15909  15905  15921     1  180.0000771  3.5564000  2
   8605  15909  15905  15921     1  0.0000000  0.4184000  3
   8605  15909  15905  15904     1  180.0000771  0.4184000  2
   8605  15909  15905  15904     1  0.0000000  1.6024720  3
   8610   8611   8623   8635     1  0.0000000  0.6508444  3
   8610   8614   8626   8632     1  0.0000000  0.6508444  3
   8610   8617   8620   8629     1  0.0000000  0.6508444  3
   8611   8610   8614   8626     1  0.0000000  0.6508444  3
   8611   8610   8617   8620     1  0.0000000  0.6508444  3
   8611   8623   8635  15955     1  0.0000000  0.6508444  3
   8614   8610   8611   8623     1  0.0000000  0.6508444  3
   8614   8610   8617   8620     1  0.0000000  0.6508444  3
   8614   8626   8632  15932     1  0.0000000  0.6508444  3
   8617   8610   8611   8623     1  0.0000000  0.6508444  3
   8617   8610   8614   8626     1  0.0000000  0.6508444  3
   8617   8620   8629   8638     1  0.0000000  0.6508444  3
   8623   8635  15955  15951     1  180.0000771  0.4184000  2
   8623   8635  15955  15951     1  0.0000000  1.6024720  3
   8626   8632  15932  15928     1  180.0000771  0.4184000  2
   8626   8632  15932  15928     1  0.0000000  1.6024720  3
   8632  15932  15928  15927     1  180.0000771  0.4184000  2
   8632  15932  15928  15927     1  0.0000000  1.6024720  3
   8632  15932  15928  15944     1  180.0000771  5.6484000  1
   8632  15932  15928  15944     1  180.0000771  3.5564000  2
   8632  15932  15928  15944     1  0.0000000  0.4184000  3
   8635  15955  15951  15967     1  180.0000771  5.6484000  1
   8635  15955  15951  15967     1  180.0000771  3.5564000  2
   8635  15955  15951  15967     1  0.0000000  0.4184000  3
   8635  15955  15951  15950     1  180.0000771  0.4184000  2
   8635  15955  15951  15950     1  0.0000000  1.6024720  3
   8640   8641   8653   8665     1  0.0000000  0.6508444  3
   8640   8644   8656   8662     1  0.0000000  0.6508444  3
   8640   8647   8650   8659     1  0.0000000  0.6508444  3
   8641   8640   8644   8656     1  0.0000000  0.6508444  3
   8641   8640   8647   8650     1  0.0000000  0.6508444  3
   8641   8653   8665  16001     1  0.0000000  0.6508444  3
   8644   8640   8641   8653     1  0.0000000  0.6508444  3
   8644   8640   8647   8650     1  0.0000000  0.6508444  3
   8644   8656   8662  15978     1  0.0000000  0.6508444  3
   8647   8640   8641   8653     1  0.0000000  0.6508444  3
   8647   8640   8644   8656     1  0.0000000  0.6508444  3
   8647   8650   8659   8668     1  0.0000000  0.6508444  3
   8653   8665  16001  15997     1  180.0000771  0.4184000  2
   8653   8665  16001  15997     1  0.0000000  1.6024720  3
   8656   8662  15978  15974     1  180.0000771  0.4184000  2
   8656   8662  15978  15974     1  0.0000000  1.6024720  3
   8662  15978  15974  15973     1  180.0000771  0.4184000  2
   8662  15978  15974  15973     1  0.0000000  1.6024720  3
   8662  15978  15974  15990     1  180.0000771  5.6484000  1
   8662  15978  15974  15990     1  180.0000771  3.5564000  2
   8662  15978  15974  15990     1  0.0000000  0.4184000  3
   8665  16001  15997  16013     1  180.0000771  5.6484000  1
   8665  16001  15997  16013     1  180.0000771  3.5564000  2
   8665  16001  15997  16013     1  0.0000000  0.4184000  3
   8665  16001  15997  15996     1  180.0000771  0.4184000  2
   8665  16001  15997  15996     1  0.0000000  1.6024720  3
   8670   8671   8683   8695     1  0.0000000  0.6508444  3
   8670   8674   8686   8692     1  0.0000000  0.6508444  3
   8670   8677   8680   8689     1  0.0000000  0.6508444  3
   8671   8670   8674   8686     1  0.0000000  0.6508444  3
   8671   8670   8677   8680     1  0.0000000  0.6508444  3
   8671   8683   8695  16047     1  0.0000000  0.6508444  3
   8674   8670   8671   8683     1  0.0000000  0.6508444  3
   8674   8670   8677   8680     1  0.0000000  0.6508444  3
   8674   8686   8692  16024     1  0.0000000  0.6508444  3
   8677   8670   8671   8683     1  0.0000000  0.6508444  3
   8677   8670   8674   8686     1  0.0000000  0.6508444  3
   8677   8680   8689   8698     1  0.0000000  0.6508444  3
   8683   8695  16047  16043     1  180.0000771  0.4184000  2
   8683   8695  16047  16043     1  0.0000000  1.6024720  3
   8686   8692  16024  16020     1  180.0000771  0.4184000  2
   8686   8692  16024  16020     1  0.0000000  1.6024720  3
   8692  16024  16020  16019     1  180.0000771  0.4184000  2
   8692  16024  16020  16019     1  0.0000000  1.6024720  3
   8692  16024  16020  16036     1  180.0000771  5.6484000  1
   8692  16024  16020  16036     1  180.0000771  3.5564000  2
   8692  16024  16020  16036     1  0.0000000  0.4184000  3
   8695  16047  16043  16059     1  180.0000771  5.6484000  1
   8695  16047  16043  16059     1  180.0000771  3.5564000  2
   8695  16047  16043  16059     1  0.0000000  0.4184000  3
   8695  16047  16043  16042     1  180.0000771  0.4184000  2
   8695  16047  16043  16042     1  0.0000000  1.6024720  3
   8700   8701   8713   8725     1  0.0000000  0.6508444  3
   8700   8704   8716   8722     1  0.0000000  0.6508444  3
   8700   8707   8710   8719     1  0.0000000  0.6508444  3
   8701   8700   8704   8716     1  0.0000000  0.6508444  3
   8701   8700   8707   8710     1  0.0000000  0.6508444  3
   8701   8713   8725  16093     1  0.0000000  0.6508444  3
   8704   8700   8701   8713     1  0.0000000  0.6508444  3
   8704   8700   8707   8710     1  0.0000000  0.6508444  3
   8704   8716   8722  16070     1  0.0000000  0.6508444  3
   8707   8700   8701   8713     1  0.0000000  0.6508444  3
   8707   8700   8704   8716     1  0.0000000  0.6508444  3
   8707   8710   8719   8728     1  0.0000000  0.6508444  3
   8713   8725  16093  16089     1  180.0000771  0.4184000  2
   8713   8725  16093  16089     1  0.0000000  1.6024720  3
   8716   8722  16070  16066     1  180.0000771  0.4184000  2
   8716   8722  16070  16066     1  0.0000000  1.6024720  3
   8722  16070  16066  16065     1  180.0000771  0.4184000  2
   8722  16070  16066  16065     1  0.0000000  1.6024720  3
   8722  16070  16066  16082     1  180.0000771  5.6484000  1
   8722  16070  16066  16082     1  180.0000771  3.5564000  2
   8722  16070  16066  16082     1  0.0000000  0.4184000  3
   8725  16093  16089  16105     1  180.0000771  5.6484000  1
   8725  16093  16089  16105     1  180.0000771  3.5564000  2
   8725  16093  16089  16105     1  0.0000000  0.4184000  3
   8725  16093  16089  16088     1  180.0000771  0.4184000  2
   8725  16093  16089  16088     1  0.0000000  1.6024720  3
   8730   8731   8743   8755     1  0.0000000  0.6508444  3
   8730   8734   8746   8752     1  0.0000000  0.6508444  3
   8730   8737   8740   8749     1  0.0000000  0.6508444  3
   8731   8730   8734   8746     1  0.0000000  0.6508444  3
   8731   8730   8737   8740     1  0.0000000  0.6508444  3
   8731   8743   8755  16139     1  0.0000000  0.6508444  3
   8734   8730   8731   8743     1  0.0000000  0.6508444  3
   8734   8730   8737   8740     1  0.0000000  0.6508444  3
   8734   8746   8752  16116     1  0.0000000  0.6508444  3
   8737   8730   8731   8743     1  0.0000000  0.6508444  3
   8737   8730   8734   8746     1  0.0000000  0.6508444  3
   8737   8740   8749   8758     1  0.0000000  0.6508444  3
   8743   8755  16139  16135     1  180.0000771  0.4184000  2
   8743   8755  16139  16135     1  0.0000000  1.6024720  3
   8746   8752  16116  16112     1  180.0000771  0.4184000  2
   8746   8752  16116  16112     1  0.0000000  1.6024720  3
   8752  16116  16112  16111     1  180.0000771  0.4184000  2
   8752  16116  16112  16111     1  0.0000000  1.6024720  3
   8752  16116  16112  16128     1  180.0000771  5.6484000  1
   8752  16116  16112  16128     1  180.0000771  3.5564000  2
   8752  16116  16112  16128     1  0.0000000  0.4184000  3
   8755  16139  16135  16151     1  180.0000771  5.6484000  1
   8755  16139  16135  16151     1  180.0000771  3.5564000  2
   8755  16139  16135  16151     1  0.0000000  0.4184000  3
   8755  16139  16135  16134     1  180.0000771  0.4184000  2
   8755  16139  16135  16134     1  0.0000000  1.6024720  3
   8760   8761   8773   8785     1  0.0000000  0.6508444  3
   8760   8764   8776   8782     1  0.0000000  0.6508444  3
   8760   8767   8770   8779     1  0.0000000  0.6508444  3
   8761   8760   8764   8776     1  0.0000000  0.6508444  3
   8761   8760   8767   8770     1  0.0000000  0.6508444  3
   8761   8773   8785  16185     1  0.0000000  0.6508444  3
   8764   8760   8761   8773     1  0.0000000  0.6508444  3
   8764   8760   8767   8770     1  0.0000000  0.6508444  3
   8764   8776   8782  16162     1  0.0000000  0.6508444  3
   8767   8760   8761   8773     1  0.0000000  0.6508444  3
   8767   8760   8764   8776     1  0.0000000  0.6508444  3
   8767   8770   8779   8788     1  0.0000000  0.6508444  3
   8773   8785  16185  16181     1  180.0000771  0.4184000  2
   8773   8785  16185  16181     1  0.0000000  1.6024720  3
   8776   8782  16162  16158     1  180.0000771  0.4184000  2
   8776   8782  16162  16158     1  0.0000000  1.6024720  3
   8782  16162  16158  16157     1  180.0000771  0.4184000  2
   8782  16162  16158  16157     1  0.0000000  1.6024720  3
   8782  16162  16158  16174     1  180.0000771  5.6484000  1
   8782  16162  16158  16174     1  180.0000771  3.5564000  2
   8782  16162  16158  16174     1  0.0000000  0.4184000  3
   8785  16185  16181  16197     1  180.0000771  5.6484000  1
   8785  16185  16181  16197     1  180.0000771  3.5564000  2
   8785  16185  16181  16197     1  0.0000000  0.4184000  3
   8785  16185  16181  16180     1  180.0000771  0.4184000  2
   8785  16185  16181  16180     1  0.0000000  1.6024720  3
   8790   8791   8803   8815     1  0.0000000  0.6508444  3
   8790   8794   8806   8812     1  0.0000000  0.6508444  3
   8790   8797   8800   8809     1  0.0000000  0.6508444  3
   8791   8790   8794   8806     1  0.0000000  0.6508444  3
   8791   8790   8797   8800     1  0.0000000  0.6508444  3
   8791   8803   8815  16231     1  0.0000000  0.6508444  3
   8794   8790   8791   8803     1  0.0000000  0.6508444  3
   8794   8790   8797   8800     1  0.0000000  0.6508444  3
   8794   8806   8812  16208     1  0.0000000  0.6508444  3
   8797   8790   8791   8803     1  0.0000000  0.6508444  3
   8797   8790   8794   8806     1  0.0000000  0.6508444  3
   8797   8800   8809   8818     1  0.0000000  0.6508444  3
   8803   8815  16231  16227     1  180.0000771  0.4184000  2
   8803   8815  16231  16227     1  0.0000000  1.6024720  3
   8806   8812  16208  16204     1  180.0000771  0.4184000  2
   8806   8812  16208  16204     1  0.0000000  1.6024720  3
   8812  16208  16204  16203     1  180.0000771  0.4184000  2
   8812  16208  16204  16203     1  0.0000000  1.6024720  3
   8812  16208  16204  16220     1  180.0000771  5.6484000  1
   8812  16208  16204  16220     1  180.0000771  3.5564000  2
   8812  16208  16204  16220     1  0.0000000  0.4184000  3
   8815  16231  16227  16243     1  180.0000771  5.6484000  1
   8815  16231  16227  16243     1  180.0000771  3.5564000  2
   8815  16231  16227  16243     1  0.0000000  0.4184000  3
   8815  16231  16227  16226     1  180.0000771  0.4184000  2
   8815  16231  16227  16226     1  0.0000000  1.6024720  3
   8820   8821   8833   8845     1  0.0000000  0.6508444  3
   8820   8824   8836   8842     1  0.0000000  0.6508444  3
   8820   8827   8830   8839     1  0.0000000  0.6508444  3
   8821   8820   8824   8836     1  0.0000000  0.6508444  3
   8821   8820   8827   8830     1  0.0000000  0.6508444  3
   8821   8833   8845  16277     1  0.0000000  0.6508444  3
   8824   8820   8821   8833     1  0.0000000  0.6508444  3
   8824   8820   8827   8830     1  0.0000000  0.6508444  3
   8824   8836   8842  16254     1  0.0000000  0.6508444  3
   8827   8820   8821   8833     1  0.0000000  0.6508444  3
   8827   8820   8824   8836     1  0.0000000  0.6508444  3
   8827   8830   8839   8848     1  0.0000000  0.6508444  3
   8833   8845  16277  16273     1  180.0000771  0.4184000  2
   8833   8845  16277  16273     1  0.0000000  1.6024720  3
   8836   8842  16254  16250     1  180.0000771  0.4184000  2
   8836   8842  16254  16250     1  0.0000000  1.6024720  3
   8842  16254  16250  16249     1  180.0000771  0.4184000  2
   8842  16254  16250  16249     1  0.0000000  1.6024720  3
   8842  16254  16250  16266     1  180.0000771  5.6484000  1
   8842  16254  16250  16266     1  180.0000771  3.5564000  2
   8842  16254  16250  16266     1  0.0000000  0.4184000  3
   8845  16277  16273  16289     1  180.0000771  5.6484000  1
   8845  16277  16273  16289     1  180.0000771  3.5564000  2
   8845  16277  16273  16289     1  0.0000000  0.4184000  3
   8845  16277  16273  16272     1  180.0000771  0.4184000  2
   8845  16277  16273  16272     1  0.0000000  1.6024720  3
   8850   8851   8863   8875     1  0.0000000  0.6508444  3
   8850   8854   8866   8872     1  0.0000000  0.6508444  3
   8850   8857   8860   8869     1  0.0000000  0.6508444  3
   8851   8850   8854   8866     1  0.0000000  0.6508444  3
   8851   8850   8857   8860     1  0.0000000  0.6508444  3
   8851   8863   8875  16323     1  0.0000000  0.6508444  3
   8854   8850   8851   8863     1  0.0000000  0.6508444  3
   8854   8850   8857   8860     1  0.0000000  0.6508444  3
   8854   8866   8872  16300     1  0.0000000  0.6508444  3
   8857   8850   8851   8863     1  0.0000000  0.6508444  3
   8857   8850   8854   8866     1  0.0000000  0.6508444  3
   8857   8860   8869   8878     1  0.0000000  0.6508444  3
   8863   8875  16323  16319     1  180.0000771  0.4184000  2
   8863   8875  16323  16319     1  0.0000000  1.6024720  3
   8866   8872  16300  16296     1  180.0000771  0.4184000  2
   8866   8872  16300  16296     1  0.0000000  1.6024720  3
   8872  16300  16296  16295     1  180.0000771  0.4184000  2
   8872  16300  16296  16295     1  0.0000000  1.6024720  3
   8872  16300  16296  16312     1  180.0000771  5.6484000  1
   8872  16300  16296  16312     1  180.0000771  3.5564000  2
   8872  16300  16296  16312     1  0.0000000  0.4184000  3
   8875  16323  16319  16335     1  180.0000771  5.6484000  1
   8875  16323  16319  16335     1  180.0000771  3.5564000  2
   8875  16323  16319  16335     1  0.0000000  0.4184000  3
   8875  16323  16319  16318     1  180.0000771  0.4184000  2
   8875  16323  16319  16318     1  0.0000000  1.6024720  3
   8880   8881   8893   8905     1  0.0000000  0.6508444  3
   8880   8884   8896   8902     1  0.0000000  0.6508444  3
   8880   8887   8890   8899     1  0.0000000  0.6508444  3
   8881   8880   8884   8896     1  0.0000000  0.6508444  3
   8881   8880   8887   8890     1  0.0000000  0.6508444  3
   8881   8893   8905  16369     1  0.0000000  0.6508444  3
   8884   8880   8881   8893     1  0.0000000  0.6508444  3
   8884   8880   8887   8890     1  0.0000000  0.6508444  3
   8884   8896   8902  16346     1  0.0000000  0.6508444  3
   8887   8880   8881   8893     1  0.0000000  0.6508444  3
   8887   8880   8884   8896     1  0.0000000  0.6508444  3
   8887   8890   8899   8908     1  0.0000000  0.6508444  3
   8893   8905  16369  16365     1  180.0000771  0.4184000  2
   8893   8905  16369  16365     1  0.0000000  1.6024720  3
   8896   8902  16346  16342     1  180.0000771  0.4184000  2
   8896   8902  16346  16342     1  0.0000000  1.6024720  3
   8902  16346  16342  16341     1  180.0000771  0.4184000  2
   8902  16346  16342  16341     1  0.0000000  1.6024720  3
   8902  16346  16342  16358     1  180.0000771  5.6484000  1
   8902  16346  16342  16358     1  180.0000771  3.5564000  2
   8902  16346  16342  16358     1  0.0000000  0.4184000  3
   8905  16369  16365  16381     1  180.0000771  5.6484000  1
   8905  16369  16365  16381     1  180.0000771  3.5564000  2
   8905  16369  16365  16381     1  0.0000000  0.4184000  3
   8905  16369  16365  16364     1  180.0000771  0.4184000  2
   8905  16369  16365  16364     1  0.0000000  1.6024720  3
   8910   8911   8923   8935     1  0.0000000  0.6508444  3
   8910   8914   8926   8932     1  0.0000000  0.6508444  3
   8910   8917   8920   8929     1  0.0000000  0.6508444  3
   8911   8910   8914   8926     1  0.0000000  0.6508444  3
   8911   8910   8917   8920     1  0.0000000  0.6508444  3
   8911   8923   8935  16415     1  0.0000000  0.6508444  3
   8914   8910   8911   8923     1  0.0000000  0.6508444  3
   8914   8910   8917   8920     1  0.0000000  0.6508444  3
   8914   8926   8932  16392     1  0.0000000  0.6508444  3
   8917   8910   8911   8923     1  0.0000000  0.6508444  3
   8917   8910   8914   8926     1  0.0000000  0.6508444  3
   8917   8920   8929   8938     1  0.0000000  0.6508444  3
   8923   8935  16415  16411     1  180.0000771  0.4184000  2
   8923   8935  16415  16411     1  0.0000000  1.6024720  3
   8926   8932  16392  16388     1  180.0000771  0.4184000  2
   8926   8932  16392  16388     1  0.0000000  1.6024720  3
   8932  16392  16388  16387     1  180.0000771  0.4184000  2
   8932  16392  16388  16387     1  0.0000000  1.6024720  3
   8932  16392  16388  16404     1  180.0000771  5.6484000  1
   8932  16392  16388  16404     1  180.0000771  3.5564000  2
   8932  16392  16388  16404     1  0.0000000  0.4184000  3
   8935  16415  16411  16427     1  180.0000771  5.6484000  1
   8935  16415  16411  16427     1  180.0000771  3.5564000  2
   8935  16415  16411  16427     1  0.0000000  0.4184000  3
   8935  16415  16411  16410     1  180.0000771  0.4184000  2
   8935  16415  16411  16410     1  0.0000000  1.6024720  3
   8940   8941   8953   8965     1  0.0000000  0.6508444  3
   8940   8944   8956   8962     1  0.0000000  0.6508444  3
   8940   8947   8950   8959     1  0.0000000  0.6508444  3
   8941   8940   8944   8956     1  0.0000000  0.6508444  3
   8941   8940   8947   8950     1  0.0000000  0.6508444  3
   8941   8953   8965  16461     1  0.0000000  0.6508444  3
   8944   8940   8941   8953     1  0.0000000  0.6508444  3
   8944   8940   8947   8950     1  0.0000000  0.6508444  3
   8944   8956   8962  16438     1  0.0000000  0.6508444  3
   8947   8940   8941   8953     1  0.0000000  0.6508444  3
   8947   8940   8944   8956     1  0.0000000  0.6508444  3
   8947   8950   8959   8968     1  0.0000000  0.6508444  3
   8953   8965  16461  16457     1  180.0000771  0.4184000  2
   8953   8965  16461  16457     1  0.0000000  1.6024720  3
   8956   8962  16438  16434     1  180.0000771  0.4184000  2
   8956   8962  16438  16434     1  0.0000000  1.6024720  3
   8962  16438  16434  16433     1  180.0000771  0.4184000  2
   8962  16438  16434  16433     1  0.0000000  1.6024720  3
   8962  16438  16434  16450     1  180.0000771  5.6484000  1
   8962  16438  16434  16450     1  180.0000771  3.5564000  2
   8962  16438  16434  16450     1  0.0000000  0.4184000  3
   8965  16461  16457  16473     1  180.0000771  5.6484000  1
   8965  16461  16457  16473     1  180.0000771  3.5564000  2
   8965  16461  16457  16473     1  0.0000000  0.4184000  3
   8965  16461  16457  16456     1  180.0000771  0.4184000  2
   8965  16461  16457  16456     1  0.0000000  1.6024720  3
   8970   8971   8983   8995     1  0.0000000  0.6508444  3
   8970   8974   8986   8992     1  0.0000000  0.6508444  3
   8970   8977   8980   8989     1  0.0000000  0.6508444  3
   8971   8970   8974   8986     1  0.0000000  0.6508444  3
   8971   8970   8977   8980     1  0.0000000  0.6508444  3
   8971   8983   8995  16507     1  0.0000000  0.6508444  3
   8974   8970   8971   8983     1  0.0000000  0.6508444  3
   8974   8970   8977   8980     1  0.0000000  0.6508444  3
   8974   8986   8992  16484     1  0.0000000  0.6508444  3
   8977   8970   8971   8983     1  0.0000000  0.6508444  3
   8977   8970   8974   8986     1  0.0000000  0.6508444  3
   8977   8980   8989   8998     1  0.0000000  0.6508444  3
   8983   8995  16507  16503     1  180.0000771  0.4184000  2
   8983   8995  16507  16503     1  0.0000000  1.6024720  3
   8986   8992  16484  16480     1  180.0000771  0.4184000  2
   8986   8992  16484  16480     1  0.0000000  1.6024720  3
   8992  16484  16480  16479     1  180.0000771  0.4184000  2
   8992  16484  16480  16479     1  0.0000000  1.6024720  3
   8992  16484  16480  16496     1  180.0000771  5.6484000  1
   8992  16484  16480  16496     1  180.0000771  3.5564000  2
   8992  16484  16480  16496     1  0.0000000  0.4184000  3
   8995  16507  16503  16519     1  180.0000771  5.6484000  1
   8995  16507  16503  16519     1  180.0000771  3.5564000  2
   8995  16507  16503  16519     1  0.0000000  0.4184000  3
   8995  16507  16503  16502     1  180.0000771  0.4184000  2
   8995  16507  16503  16502     1  0.0000000  1.6024720  3
   9000   9001   9013   9025     1  0.0000000  0.6508444  3
   9000   9004   9016   9022     1  0.0000000  0.6508444  3
   9000   9007   9010   9019     1  0.0000000  0.6508444  3
   9001   9000   9004   9016     1  0.0000000  0.6508444  3
   9001   9000   9007   9010     1  0.0000000  0.6508444  3
   9001   9013   9025  16553     1  0.0000000  0.6508444  3
   9004   9000   9001   9013     1  0.0000000  0.6508444  3
   9004   9000   9007   9010     1  0.0000000  0.6508444  3
   9004   9016   9022  16530     1  0.0000000  0.6508444  3
   9007   9000   9001   9013     1  0.0000000  0.6508444  3
   9007   9000   9004   9016     1  0.0000000  0.6508444  3
   9007   9010   9019   9028     1  0.0000000  0.6508444  3
   9013   9025  16553  16549     1  180.0000771  0.4184000  2
   9013   9025  16553  16549     1  0.0000000  1.6024720  3
   9016   9022  16530  16526     1  180.0000771  0.4184000  2
   9016   9022  16530  16526     1  0.0000000  1.6024720  3
   9022  16530  16526  16525     1  180.0000771  0.4184000  2
   9022  16530  16526  16525     1  0.0000000  1.6024720  3
   9022  16530  16526  16542     1  180.0000771  5.6484000  1
   9022  16530  16526  16542     1  180.0000771  3.5564000  2
   9022  16530  16526  16542     1  0.0000000  0.4184000  3
   9025  16553  16549  16565     1  180.0000771  5.6484000  1
   9025  16553  16549  16565     1  180.0000771  3.5564000  2
   9025  16553  16549  16565     1  0.0000000  0.4184000  3
   9025  16553  16549  16548     1  180.0000771  0.4184000  2
   9025  16553  16549  16548     1  0.0000000  1.6024720  3
   9030   9031   9043   9055     1  0.0000000  0.6508444  3
   9030   9034   9046   9052     1  0.0000000  0.6508444  3
   9030   9037   9040   9049     1  0.0000000  0.6508444  3
   9031   9030   9034   9046     1  0.0000000  0.6508444  3
   9031   9030   9037   9040     1  0.0000000  0.6508444  3
   9031   9043   9055  16599     1  0.0000000  0.6508444  3
   9034   9030   9031   9043     1  0.0000000  0.6508444  3
   9034   9030   9037   9040     1  0.0000000  0.6508444  3
   9034   9046   9052  16576     1  0.0000000  0.6508444  3
   9037   9030   9031   9043     1  0.0000000  0.6508444  3
   9037   9030   9034   9046     1  0.0000000  0.6508444  3
   9037   9040   9049   9058     1  0.0000000  0.6508444  3
   9043   9055  16599  16595     1  180.0000771  0.4184000  2
   9043   9055  16599  16595     1  0.0000000  1.6024720  3
   9046   9052  16576  16572     1  180.0000771  0.4184000  2
   9046   9052  16576  16572     1  0.0000000  1.6024720  3
   9052  16576  16572  16571     1  180.0000771  0.4184000  2
   9052  16576  16572  16571     1  0.0000000  1.6024720  3
   9052  16576  16572  16588     1  180.0000771  5.6484000  1
   9052  16576  16572  16588     1  180.0000771  3.5564000  2
   9052  16576  16572  16588     1  0.0000000  0.4184000  3
   9055  16599  16595  16611     1  180.0000771  5.6484000  1
   9055  16599  16595  16611     1  180.0000771  3.5564000  2
   9055  16599  16595  16611     1  0.0000000  0.4184000  3
   9055  16599  16595  16594     1  180.0000771  0.4184000  2
   9055  16599  16595  16594     1  0.0000000  1.6024720  3
   9060   9061   9073   9085     1  0.0000000  0.6508444  3
   9060   9064   9076   9082     1  0.0000000  0.6508444  3
   9060   9067   9070   9079     1  0.0000000  0.6508444  3
   9061   9060   9064   9076     1  0.0000000  0.6508444  3
   9061   9060   9067   9070     1  0.0000000  0.6508444  3
   9061   9073   9085  16645     1  0.0000000  0.6508444  3
   9064   9060   9061   9073     1  0.0000000  0.6508444  3
   9064   9060   9067   9070     1  0.0000000  0.6508444  3
   9064   9076   9082  16622     1  0.0000000  0.6508444  3
   9067   9060   9061   9073     1  0.0000000  0.6508444  3
   9067   9060   9064   9076     1  0.0000000  0.6508444  3
   9067   9070   9079   9088     1  0.0000000  0.6508444  3
   9073   9085  16645  16641     1  180.0000771  0.4184000  2
   9073   9085  16645  16641     1  0.0000000  1.6024720  3
   9076   9082  16622  16618     1  180.0000771  0.4184000  2
   9076   9082  16622  16618     1  0.0000000  1.6024720  3
   9082  16622  16618  16617     1  180.0000771  0.4184000  2
   9082  16622  16618  16617     1  0.0000000  1.6024720  3
   9082  16622  16618  16634     1  180.0000771  5.6484000  1
   9082  16622  16618  16634     1  180.0000771  3.5564000  2
   9082  16622  16618  16634     1  0.0000000  0.4184000  3
   9085  16645  16641  16657     1  180.0000771  5.6484000  1
   9085  16645  16641  16657     1  180.0000771  3.5564000  2
   9085  16645  16641  16657     1  0.0000000  0.4184000  3
   9085  16645  16641  16640     1  180.0000771  0.4184000  2
   9085  16645  16641  16640     1  0.0000000  1.6024720  3
   9090   9091   9103   9115     1  0.0000000  0.6508444  3
   9090   9094   9106   9112     1  0.0000000  0.6508444  3
   9090   9097   9100   9109     1  0.0000000  0.6508444  3
   9091   9090   9094   9106     1  0.0000000  0.6508444  3
   9091   9090   9097   9100     1  0.0000000  0.6508444  3
   9091   9103   9115  16691     1  0.0000000  0.6508444  3
   9094   9090   9091   9103     1  0.0000000  0.6508444  3
   9094   9090   9097   9100     1  0.0000000  0.6508444  3
   9094   9106   9112  16668     1  0.0000000  0.6508444  3
   9097   9090   9091   9103     1  0.0000000  0.6508444  3
   9097   9090   9094   9106     1  0.0000000  0.6508444  3
   9097   9100   9109   9118     1  0.0000000  0.6508444  3
   9103   9115  16691  16687     1  180.0000771  0.4184000  2
   9103   9115  16691  16687     1  0.0000000  1.6024720  3
   9106   9112  16668  16664     1  180.0000771  0.4184000  2
   9106   9112  16668  16664     1  0.0000000  1.6024720  3
   9112  16668  16664  16663     1  180.0000771  0.4184000  2
   9112  16668  16664  16663     1  0.0000000  1.6024720  3
   9112  16668  16664  16680     1  180.0000771  5.6484000  1
   9112  16668  16664  16680     1  180.0000771  3.5564000  2
   9112  16668  16664  16680     1  0.0000000  0.4184000  3
   9115  16691  16687  16703     1  180.0000771  5.6484000  1
   9115  16691  16687  16703     1  180.0000771  3.5564000  2
   9115  16691  16687  16703     1  0.0000000  0.4184000  3
   9115  16691  16687  16686     1  180.0000771  0.4184000  2
   9115  16691  16687  16686     1  0.0000000  1.6024720  3
   9120   9121   9133   9145     1  0.0000000  0.6508444  3
   9120   9124   9136   9142     1  0.0000000  0.6508444  3
   9120   9127   9130   9139     1  0.0000000  0.6508444  3
   9121   9120   9124   9136     1  0.0000000  0.6508444  3
   9121   9120   9127   9130     1  0.0000000  0.6508444  3
   9121   9133   9145  16737     1  0.0000000  0.6508444  3
   9124   9120   9121   9133     1  0.0000000  0.6508444  3
   9124   9120   9127   9130     1  0.0000000  0.6508444  3
   9124   9136   9142  16714     1  0.0000000  0.6508444  3
   9127   9120   9121   9133     1  0.0000000  0.6508444  3
   9127   9120   9124   9136     1  0.0000000  0.6508444  3
   9127   9130   9139   9148     1  0.0000000  0.6508444  3
   9133   9145  16737  16733     1  180.0000771  0.4184000  2
   9133   9145  16737  16733     1  0.0000000  1.6024720  3
   9136   9142  16714  16710     1  180.0000771  0.4184000  2
   9136   9142  16714  16710     1  0.0000000  1.6024720  3
   9142  16714  16710  16709     1  180.0000771  0.4184000  2
   9142  16714  16710  16709     1  0.0000000  1.6024720  3
   9142  16714  16710  16726     1  180.0000771  5.6484000  1
   9142  16714  16710  16726     1  180.0000771  3.5564000  2
   9142  16714  16710  16726     1  0.0000000  0.4184000  3
   9145  16737  16733  16749     1  180.0000771  5.6484000  1
   9145  16737  16733  16749     1  180.0000771  3.5564000  2
   9145  16737  16733  16749     1  0.0000000  0.4184000  3
   9145  16737  16733  16732     1  180.0000771  0.4184000  2
   9145  16737  16733  16732     1  0.0000000  1.6024720  3
   9150   9151   9163   9175     1  0.0000000  0.6508444  3
   9150   9154   9166   9172     1  0.0000000  0.6508444  3
   9150   9157   9160   9169     1  0.0000000  0.6508444  3
   9151   9150   9154   9166     1  0.0000000  0.6508444  3
   9151   9150   9157   9160     1  0.0000000  0.6508444  3
   9151   9163   9175  16783     1  0.0000000  0.6508444  3
   9154   9150   9151   9163     1  0.0000000  0.6508444  3
   9154   9150   9157   9160     1  0.0000000  0.6508444  3
   9154   9166   9172  16760     1  0.0000000  0.6508444  3
   9157   9150   9151   9163     1  0.0000000  0.6508444  3
   9157   9150   9154   9166     1  0.0000000  0.6508444  3
   9157   9160   9169   9178     1  0.0000000  0.6508444  3
   9163   9175  16783  16779     1  180.0000771  0.4184000  2
   9163   9175  16783  16779     1  0.0000000  1.6024720  3
   9166   9172  16760  16756     1  180.0000771  0.4184000  2
   9166   9172  16760  16756     1  0.0000000  1.6024720  3
   9172  16760  16756  16755     1  180.0000771  0.4184000  2
   9172  16760  16756  16755     1  0.0000000  1.6024720  3
   9172  16760  16756  16772     1  180.0000771  5.6484000  1
   9172  16760  16756  16772     1  180.0000771  3.5564000  2
   9172  16760  16756  16772     1  0.0000000  0.4184000  3
   9175  16783  16779  16795     1  180.0000771  5.6484000  1
   9175  16783  16779  16795     1  180.0000771  3.5564000  2
   9175  16783  16779  16795     1  0.0000000  0.4184000  3
   9175  16783  16779  16778     1  180.0000771  0.4184000  2
   9175  16783  16779  16778     1  0.0000000  1.6024720  3
   9180   9181   9193   9205     1  0.0000000  0.6508444  3
   9180   9184   9196   9202     1  0.0000000  0.6508444  3
   9180   9187   9190   9199     1  0.0000000  0.6508444  3
   9181   9180   9184   9196     1  0.0000000  0.6508444  3
   9181   9180   9187   9190     1  0.0000000  0.6508444  3
   9181   9193   9205  16829     1  0.0000000  0.6508444  3
   9184   9180   9181   9193     1  0.0000000  0.6508444  3
   9184   9180   9187   9190     1  0.0000000  0.6508444  3
   9184   9196   9202  16806     1  0.0000000  0.6508444  3
   9187   9180   9181   9193     1  0.0000000  0.6508444  3
   9187   9180   9184   9196     1  0.0000000  0.6508444  3
   9187   9190   9199   9208     1  0.0000000  0.6508444  3
   9193   9205  16829  16825     1  180.0000771  0.4184000  2
   9193   9205  16829  16825     1  0.0000000  1.6024720  3
   9196   9202  16806  16802     1  180.0000771  0.4184000  2
   9196   9202  16806  16802     1  0.0000000  1.6024720  3
   9202  16806  16802  16801     1  180.0000771  0.4184000  2
   9202  16806  16802  16801     1  0.0000000  1.6024720  3
   9202  16806  16802  16818     1  180.0000771  5.6484000  1
   9202  16806  16802  16818     1  180.0000771  3.5564000  2
   9202  16806  16802  16818     1  0.0000000  0.4184000  3
   9205  16829  16825  16841     1  180.0000771  5.6484000  1
   9205  16829  16825  16841     1  180.0000771  3.5564000  2
   9205  16829  16825  16841     1  0.0000000  0.4184000  3
   9205  16829  16825  16824     1  180.0000771  0.4184000  2
   9205  16829  16825  16824     1  0.0000000  1.6024720  3
   9210   9211   9223   9235     1  0.0000000  0.6508444  3
   9210   9214   9226   9232     1  0.0000000  0.6508444  3
   9210   9217   9220   9229     1  0.0000000  0.6508444  3
   9211   9210   9214   9226     1  0.0000000  0.6508444  3
   9211   9210   9217   9220     1  0.0000000  0.6508444  3
   9211   9223   9235  16875     1  0.0000000  0.6508444  3
   9214   9210   9211   9223     1  0.0000000  0.6508444  3
   9214   9210   9217   9220     1  0.0000000  0.6508444  3
   9214   9226   9232  16852     1  0.0000000  0.6508444  3
   9217   9210   9211   9223     1  0.0000000  0.6508444  3
   9217   9210   9214   9226     1  0.0000000  0.6508444  3
   9217   9220   9229   9238     1  0.0000000  0.6508444  3
   9223   9235  16875  16871     1  180.0000771  0.4184000  2
   9223   9235  16875  16871     1  0.0000000  1.6024720  3
   9226   9232  16852  16848     1  180.0000771  0.4184000  2
   9226   9232  16852  16848     1  0.0000000  1.6024720  3
   9232  16852  16848  16847     1  180.0000771  0.4184000  2
   9232  16852  16848  16847     1  0.0000000  1.6024720  3
   9232  16852  16848  16864     1  180.0000771  5.6484000  1
   9232  16852  16848  16864     1  180.0000771  3.5564000  2
   9232  16852  16848  16864     1  0.0000000  0.4184000  3
   9235  16875  16871  16887     1  180.0000771  5.6484000  1
   9235  16875  16871  16887     1  180.0000771  3.5564000  2
   9235  16875  16871  16887     1  0.0000000  0.4184000  3
   9235  16875  16871  16870     1  180.0000771  0.4184000  2
   9235  16875  16871  16870     1  0.0000000  1.6024720  3
   9240   9241   9253   9265     1  0.0000000  0.6508444  3
   9240   9244   9256   9262     1  0.0000000  0.6508444  3
   9240   9247   9250   9259     1  0.0000000  0.6508444  3
   9241   9240   9244   9256     1  0.0000000  0.6508444  3
   9241   9240   9247   9250     1  0.0000000  0.6508444  3
   9241   9253   9265  16921     1  0.0000000  0.6508444  3
   9244   9240   9241   9253     1  0.0000000  0.6508444  3
   9244   9240   9247   9250     1  0.0000000  0.6508444  3
   9244   9256   9262  16898     1  0.0000000  0.6508444  3
   9247   9240   9241   9253     1  0.0000000  0.6508444  3
   9247   9240   9244   9256     1  0.0000000  0.6508444  3
   9247   9250   9259   9268     1  0.0000000  0.6508444  3
   9253   9265  16921  16917     1  180.0000771  0.4184000  2
   9253   9265  16921  16917     1  0.0000000  1.6024720  3
   9256   9262  16898  16894     1  180.0000771  0.4184000  2
   9256   9262  16898  16894     1  0.0000000  1.6024720  3
   9262  16898  16894  16893     1  180.0000771  0.4184000  2
   9262  16898  16894  16893     1  0.0000000  1.6024720  3
   9262  16898  16894  16910     1  180.0000771  5.6484000  1
   9262  16898  16894  16910     1  180.0000771  3.5564000  2
   9262  16898  16894  16910     1  0.0000000  0.4184000  3
   9265  16921  16917  16933     1  180.0000771  5.6484000  1
   9265  16921  16917  16933     1  180.0000771  3.5564000  2
   9265  16921  16917  16933     1  0.0000000  0.4184000  3
   9265  16921  16917  16916     1  180.0000771  0.4184000  2
   9265  16921  16917  16916     1  0.0000000  1.6024720  3
   9270   9271   9283   9295     1  0.0000000  0.6508444  3
   9270   9274   9286   9292     1  0.0000000  0.6508444  3
   9270   9277   9280   9289     1  0.0000000  0.6508444  3
   9271   9270   9274   9286     1  0.0000000  0.6508444  3
   9271   9270   9277   9280     1  0.0000000  0.6508444  3
   9271   9283   9295  16967     1  0.0000000  0.6508444  3
   9274   9270   9271   9283     1  0.0000000  0.6508444  3
   9274   9270   9277   9280     1  0.0000000  0.6508444  3
   9274   9286   9292  16944     1  0.0000000  0.6508444  3
   9277   9270   9271   9283     1  0.0000000  0.6508444  3
   9277   9270   9274   9286     1  0.0000000  0.6508444  3
   9277   9280   9289   9298     1  0.0000000  0.6508444  3
   9283   9295  16967  16963     1  180.0000771  0.4184000  2
   9283   9295  16967  16963     1  0.0000000  1.6024720  3
   9286   9292  16944  16940     1  180.0000771  0.4184000  2
   9286   9292  16944  16940     1  0.0000000  1.6024720  3
   9292  16944  16940  16939     1  180.0000771  0.4184000  2
   9292  16944  16940  16939     1  0.0000000  1.6024720  3
   9292  16944  16940  16956     1  180.0000771  5.6484000  1
   9292  16944  16940  16956     1  180.0000771  3.5564000  2
   9292  16944  16940  16956     1  0.0000000  0.4184000  3
   9295  16967  16963  16979     1  180.0000771  5.6484000  1
   9295  16967  16963  16979     1  180.0000771  3.5564000  2
   9295  16967  16963  16979     1  0.0000000  0.4184000  3
   9295  16967  16963  16962     1  180.0000771  0.4184000  2
   9295  16967  16963  16962     1  0.0000000  1.6024720  3
   9300   9301   9313   9325     1  0.0000000  0.6508444  3
   9300   9304   9316   9322     1  0.0000000  0.6508444  3
   9300   9307   9310   9319     1  0.0000000  0.6508444  3
   9301   9300   9304   9316     1  0.0000000  0.6508444  3
   9301   9300   9307   9310     1  0.0000000  0.6508444  3
   9301   9313   9325  17013     1  0.0000000  0.6508444  3
   9304   9300   9301   9313     1  0.0000000  0.6508444  3
   9304   9300   9307   9310     1  0.0000000  0.6508444  3
   9304   9316   9322  16990     1  0.0000000  0.6508444  3
   9307   9300   9301   9313     1  0.0000000  0.6508444  3
   9307   9300   9304   9316     1  0.0000000  0.6508444  3
   9307   9310   9319   9328     1  0.0000000  0.6508444  3
   9313   9325  17013  17009     1  180.0000771  0.4184000  2
   9313   9325  17013  17009     1  0.0000000  1.6024720  3
   9316   9322  16990  16986     1  180.0000771  0.4184000  2
   9316   9322  16990  16986     1  0.0000000  1.6024720  3
   9322  16990  16986  16985     1  180.0000771  0.4184000  2
   9322  16990  16986  16985     1  0.0000000  1.6024720  3
   9322  16990  16986  17002     1  180.0000771  5.6484000  1
   9322  16990  16986  17002     1  180.0000771  3.5564000  2
   9322  16990  16986  17002     1  0.0000000  0.4184000  3
   9325  17013  17009  17025     1  180.0000771  5.6484000  1
   9325  17013  17009  17025     1  180.0000771  3.5564000  2
   9325  17013  17009  17025     1  0.0000000  0.4184000  3
   9325  17013  17009  17008     1  180.0000771  0.4184000  2
   9325  17013  17009  17008     1  0.0000000  1.6024720  3
   9330   9331   9343   9355     1  0.0000000  0.6508444  3
   9330   9334   9346   9352     1  0.0000000  0.6508444  3
   9330   9337   9340   9349     1  0.0000000  0.6508444  3
   9331   9330   9334   9346     1  0.0000000  0.6508444  3
   9331   9330   9337   9340     1  0.0000000  0.6508444  3
   9331   9343   9355  17059     1  0.0000000  0.6508444  3
   9334   9330   9331   9343     1  0.0000000  0.6508444  3
   9334   9330   9337   9340     1  0.0000000  0.6508444  3
   9334   9346   9352  17036     1  0.0000000  0.6508444  3
   9337   9330   9331   9343     1  0.0000000  0.6508444  3
   9337   9330   9334   9346     1  0.0000000  0.6508444  3
   9337   9340   9349   9358     1  0.0000000  0.6508444  3
   9343   9355  17059  17055     1  180.0000771  0.4184000  2
   9343   9355  17059  17055     1  0.0000000  1.6024720  3
   9346   9352  17036  17032     1  180.0000771  0.4184000  2
   9346   9352  17036  17032     1  0.0000000  1.6024720  3
   9352  17036  17032  17031     1  180.0000771  0.4184000  2
   9352  17036  17032  17031     1  0.0000000  1.6024720  3
   9352  17036  17032  17048     1  180.0000771  5.6484000  1
   9352  17036  17032  17048     1  180.0000771  3.5564000  2
   9352  17036  17032  17048     1  0.0000000  0.4184000  3
   9355  17059  17055  17071     1  180.0000771  5.6484000  1
   9355  17059  17055  17071     1  180.0000771  3.5564000  2
   9355  17059  17055  17071     1  0.0000000  0.4184000  3
   9355  17059  17055  17054     1  180.0000771  0.4184000  2
   9355  17059  17055  17054     1  0.0000000  1.6024720  3
   9360   9361   9373   9385     1  0.0000000  0.6508444  3
   9360   9364   9376   9382     1  0.0000000  0.6508444  3
   9360   9367   9370   9379     1  0.0000000  0.6508444  3
   9361   9360   9364   9376     1  0.0000000  0.6508444  3
   9361   9360   9367   9370     1  0.0000000  0.6508444  3
   9361   9373   9385  17105     1  0.0000000  0.6508444  3
   9364   9360   9361   9373     1  0.0000000  0.6508444  3
   9364   9360   9367   9370     1  0.0000000  0.6508444  3
   9364   9376   9382  17082     1  0.0000000  0.6508444  3
   9367   9360   9361   9373     1  0.0000000  0.6508444  3
   9367   9360   9364   9376     1  0.0000000  0.6508444  3
   9367   9370   9379   9388     1  0.0000000  0.6508444  3
   9373   9385  17105  17101     1  180.0000771  0.4184000  2
   9373   9385  17105  17101     1  0.0000000  1.6024720  3
   9376   9382  17082  17078     1  180.0000771  0.4184000  2
   9376   9382  17082  17078     1  0.0000000  1.6024720  3
   9382  17082  17078  17077     1  180.0000771  0.4184000  2
   9382  17082  17078  17077     1  0.0000000  1.6024720  3
   9382  17082  17078  17094     1  180.0000771  5.6484000  1
   9382  17082  17078  17094     1  180.0000771  3.5564000  2
   9382  17082  17078  17094     1  0.0000000  0.4184000  3
   9385  17105  17101  17117     1  180.0000771  5.6484000  1
   9385  17105  17101  17117     1  180.0000771  3.5564000  2
   9385  17105  17101  17117     1  0.0000000  0.4184000  3
   9385  17105  17101  17100     1  180.0000771  0.4184000  2
   9385  17105  17101  17100     1  0.0000000  1.6024720  3
   9390   9391   9403   9415     1  0.0000000  0.6508444  3
   9390   9394   9406   9412     1  0.0000000  0.6508444  3
   9390   9397   9400   9409     1  0.0000000  0.6508444  3
   9391   9390   9394   9406     1  0.0000000  0.6508444  3
   9391   9390   9397   9400     1  0.0000000  0.6508444  3
   9391   9403   9415  17151     1  0.0000000  0.6508444  3
   9394   9390   9391   9403     1  0.0000000  0.6508444  3
   9394   9390   9397   9400     1  0.0000000  0.6508444  3
   9394   9406   9412  17128     1  0.0000000  0.6508444  3
   9397   9390   9391   9403     1  0.0000000  0.6508444  3
   9397   9390   9394   9406     1  0.0000000  0.6508444  3
   9397   9400   9409   9418     1  0.0000000  0.6508444  3
   9403   9415  17151  17147     1  180.0000771  0.4184000  2
   9403   9415  17151  17147     1  0.0000000  1.6024720  3
   9406   9412  17128  17124     1  180.0000771  0.4184000  2
   9406   9412  17128  17124     1  0.0000000  1.6024720  3
   9412  17128  17124  17123     1  180.0000771  0.4184000  2
   9412  17128  17124  17123     1  0.0000000  1.6024720  3
   9412  17128  17124  17140     1  180.0000771  5.6484000  1
   9412  17128  17124  17140     1  180.0000771  3.5564000  2
   9412  17128  17124  17140     1  0.0000000  0.4184000  3
   9415  17151  17147  17163     1  180.0000771  5.6484000  1
   9415  17151  17147  17163     1  180.0000771  3.5564000  2
   9415  17151  17147  17163     1  0.0000000  0.4184000  3
   9415  17151  17147  17146     1  180.0000771  0.4184000  2
   9415  17151  17147  17146     1  0.0000000  1.6024720  3
   9420   9421   9433   9445     1  0.0000000  0.6508444  3
   9420   9424   9436   9442     1  0.0000000  0.6508444  3
   9420   9427   9430   9439     1  0.0000000  0.6508444  3
   9421   9420   9424   9436     1  0.0000000  0.6508444  3
   9421   9420   9427   9430     1  0.0000000  0.6508444  3
   9421   9433   9445  17197     1  0.0000000  0.6508444  3
   9424   9420   9421   9433     1  0.0000000  0.6508444  3
   9424   9420   9427   9430     1  0.0000000  0.6508444  3
   9424   9436   9442  17174     1  0.0000000  0.6508444  3
   9427   9420   9421   9433     1  0.0000000  0.6508444  3
   9427   9420   9424   9436     1  0.0000000  0.6508444  3
   9427   9430   9439   9448     1  0.0000000  0.6508444  3
   9433   9445  17197  17193     1  180.0000771  0.4184000  2
   9433   9445  17197  17193     1  0.0000000  1.6024720  3
   9436   9442  17174  17170     1  180.0000771  0.4184000  2
   9436   9442  17174  17170     1  0.0000000  1.6024720  3
   9442  17174  17170  17169     1  180.0000771  0.4184000  2
   9442  17174  17170  17169     1  0.0000000  1.6024720  3
   9442  17174  17170  17186     1  180.0000771  5.6484000  1
   9442  17174  17170  17186     1  180.0000771  3.5564000  2
   9442  17174  17170  17186     1  0.0000000  0.4184000  3
   9445  17197  17193  17209     1  180.0000771  5.6484000  1
   9445  17197  17193  17209     1  180.0000771  3.5564000  2
   9445  17197  17193  17209     1  0.0000000  0.4184000  3
   9445  17197  17193  17192     1  180.0000771  0.4184000  2
   9445  17197  17193  17192     1  0.0000000  1.6024720  3
   9450   9451   9463   9475     1  0.0000000  0.6508444  3
   9450   9454   9466   9472     1  0.0000000  0.6508444  3
   9450   9457   9460   9469     1  0.0000000  0.6508444  3
   9451   9450   9454   9466     1  0.0000000  0.6508444  3
   9451   9450   9457   9460     1  0.0000000  0.6508444  3
   9451   9463   9475  17243     1  0.0000000  0.6508444  3
   9454   9450   9451   9463     1  0.0000000  0.6508444  3
   9454   9450   9457   9460     1  0.0000000  0.6508444  3
   9454   9466   9472  17220     1  0.0000000  0.6508444  3
   9457   9450   9451   9463     1  0.0000000  0.6508444  3
   9457   9450   9454   9466     1  0.0000000  0.6508444  3
   9457   9460   9469   9478     1  0.0000000  0.6508444  3
   9463   9475  17243  17239     1  180.0000771  0.4184000  2
   9463   9475  17243  17239     1  0.0000000  1.6024720  3
   9466   9472  17220  17216     1  180.0000771  0.4184000  2
   9466   9472  17220  17216     1  0.0000000  1.6024720  3
   9472  17220  17216  17215     1  180.0000771  0.4184000  2
   9472  17220  17216  17215     1  0.0000000  1.6024720  3
   9472  17220  17216  17232     1  180.0000771  5.6484000  1
   9472  17220  17216  17232     1  180.0000771  3.5564000  2
   9472  17220  17216  17232     1  0.0000000  0.4184000  3
   9475  17243  17239  17255     1  180.0000771  5.6484000  1
   9475  17243  17239  17255     1  180.0000771  3.5564000  2
   9475  17243  17239  17255     1  0.0000000  0.4184000  3
   9475  17243  17239  17238     1  180.0000771  0.4184000  2
   9475  17243  17239  17238     1  0.0000000  1.6024720  3
   9480   9481   9493   9505     1  0.0000000  0.6508444  3
   9480   9484   9496   9502     1  0.0000000  0.6508444  3
   9480   9487   9490   9499     1  0.0000000  0.6508444  3
   9481   9480   9484   9496     1  0.0000000  0.6508444  3
   9481   9480   9487   9490     1  0.0000000  0.6508444  3
   9481   9493   9505  17289     1  0.0000000  0.6508444  3
   9484   9480   9481   9493     1  0.0000000  0.6508444  3
   9484   9480   9487   9490     1  0.0000000  0.6508444  3
   9484   9496   9502  17266     1  0.0000000  0.6508444  3
   9487   9480   9481   9493     1  0.0000000  0.6508444  3
   9487   9480   9484   9496     1  0.0000000  0.6508444  3
   9487   9490   9499   9508     1  0.0000000  0.6508444  3
   9493   9505  17289  17285     1  180.0000771  0.4184000  2
   9493   9505  17289  17285     1  0.0000000  1.6024720  3
   9496   9502  17266  17262     1  180.0000771  0.4184000  2
   9496   9502  17266  17262     1  0.0000000  1.6024720  3
   9502  17266  17262  17261     1  180.0000771  0.4184000  2
   9502  17266  17262  17261     1  0.0000000  1.6024720  3
   9502  17266  17262  17278     1  180.0000771  5.6484000  1
   9502  17266  17262  17278     1  180.0000771  3.5564000  2
   9502  17266  17262  17278     1  0.0000000  0.4184000  3
   9505  17289  17285  17301     1  180.0000771  5.6484000  1
   9505  17289  17285  17301     1  180.0000771  3.5564000  2
   9505  17289  17285  17301     1  0.0000000  0.4184000  3
   9505  17289  17285  17284     1  180.0000771  0.4184000  2
   9505  17289  17285  17284     1  0.0000000  1.6024720  3
   9510   9511   9523   9535     1  0.0000000  0.6508444  3
   9510   9514   9526   9532     1  0.0000000  0.6508444  3
   9510   9517   9520   9529     1  0.0000000  0.6508444  3
   9511   9510   9514   9526     1  0.0000000  0.6508444  3
   9511   9510   9517   9520     1  0.0000000  0.6508444  3
   9511   9523   9535  17335     1  0.0000000  0.6508444  3
   9514   9510   9511   9523     1  0.0000000  0.6508444  3
   9514   9510   9517   9520     1  0.0000000  0.6508444  3
   9514   9526   9532  17312     1  0.0000000  0.6508444  3
   9517   9510   9511   9523     1  0.0000000  0.6508444  3
   9517   9510   9514   9526     1  0.0000000  0.6508444  3
   9517   9520   9529   9538     1  0.0000000  0.6508444  3
   9523   9535  17335  17331     1  180.0000771  0.4184000  2
   9523   9535  17335  17331     1  0.0000000  1.6024720  3
   9526   9532  17312  17308     1  180.0000771  0.4184000  2
   9526   9532  17312  17308     1  0.0000000  1.6024720  3
   9532  17312  17308  17307     1  180.0000771  0.4184000  2
   9532  17312  17308  17307     1  0.0000000  1.6024720  3
   9532  17312  17308  17324     1  180.0000771  5.6484000  1
   9532  17312  17308  17324     1  180.0000771  3.5564000  2
   9532  17312  17308  17324     1  0.0000000  0.4184000  3
   9535  17335  17331  17347     1  180.0000771  5.6484000  1
   9535  17335  17331  17347     1  180.0000771  3.5564000  2
   9535  17335  17331  17347     1  0.0000000  0.4184000  3
   9535  17335  17331  17330     1  180.0000771  0.4184000  2
   9535  17335  17331  17330     1  0.0000000  1.6024720  3
   9540   9541   9553   9565     1  0.0000000  0.6508444  3
   9540   9544   9556   9562     1  0.0000000  0.6508444  3
   9540   9547   9550   9559     1  0.0000000  0.6508444  3
   9541   9540   9544   9556     1  0.0000000  0.6508444  3
   9541   9540   9547   9550     1  0.0000000  0.6508444  3
   9541   9553   9565  17381     1  0.0000000  0.6508444  3
   9544   9540   9541   9553     1  0.0000000  0.6508444  3
   9544   9540   9547   9550     1  0.0000000  0.6508444  3
   9544   9556   9562  17358     1  0.0000000  0.6508444  3
   9547   9540   9541   9553     1  0.0000000  0.6508444  3
   9547   9540   9544   9556     1  0.0000000  0.6508444  3
   9547   9550   9559   9568     1  0.0000000  0.6508444  3
   9553   9565  17381  17377     1  180.0000771  0.4184000  2
   9553   9565  17381  17377     1  0.0000000  1.6024720  3
   9556   9562  17358  17354     1  180.0000771  0.4184000  2
   9556   9562  17358  17354     1  0.0000000  1.6024720  3
   9562  17358  17354  17353     1  180.0000771  0.4184000  2
   9562  17358  17354  17353     1  0.0000000  1.6024720  3
   9562  17358  17354  17370     1  180.0000771  5.6484000  1
   9562  17358  17354  17370     1  180.0000771  3.5564000  2
   9562  17358  17354  17370     1  0.0000000  0.4184000  3
   9565  17381  17377  17393     1  180.0000771  5.6484000  1
   9565  17381  17377  17393     1  180.0000771  3.5564000  2
   9565  17381  17377  17393     1  0.0000000  0.4184000  3
   9565  17381  17377  17376     1  180.0000771  0.4184000  2
   9565  17381  17377  17376     1  0.0000000  1.6024720  3
   9570   9571   9583   9595     1  0.0000000  0.6508444  3
   9570   9574   9586   9592     1  0.0000000  0.6508444  3
   9570   9577   9580   9589     1  0.0000000  0.6508444  3
   9571   9570   9574   9586     1  0.0000000  0.6508444  3
   9571   9570   9577   9580     1  0.0000000  0.6508444  3
   9571   9583   9595  17427     1  0.0000000  0.6508444  3
   9574   9570   9571   9583     1  0.0000000  0.6508444  3
   9574   9570   9577   9580     1  0.0000000  0.6508444  3
   9574   9586   9592  17404     1  0.0000000  0.6508444  3
   9577   9570   9571   9583     1  0.0000000  0.6508444  3
   9577   9570   9574   9586     1  0.0000000  0.6508444  3
   9577   9580   9589   9598     1  0.0000000  0.6508444  3
   9583   9595  17427  17423     1  180.0000771  0.4184000  2
   9583   9595  17427  17423     1  0.0000000  1.6024720  3
   9586   9592  17404  17400     1  180.0000771  0.4184000  2
   9586   9592  17404  17400     1  0.0000000  1.6024720  3
   9592  17404  17400  17399     1  180.0000771  0.4184000  2
   9592  17404  17400  17399     1  0.0000000  1.6024720  3
   9592  17404  17400  17416     1  180.0000771  5.6484000  1
   9592  17404  17400  17416     1  180.0000771  3.5564000  2
   9592  17404  17400  17416     1  0.0000000  0.4184000  3
   9595  17427  17423  17439     1  180.0000771  5.6484000  1
   9595  17427  17423  17439     1  180.0000771  3.5564000  2
   9595  17427  17423  17439     1  0.0000000  0.4184000  3
   9595  17427  17423  17422     1  180.0000771  0.4184000  2
   9595  17427  17423  17422     1  0.0000000  1.6024720  3
   9600   9601   9613   9625     1  0.0000000  0.6508444  3
   9600   9604   9616   9622     1  0.0000000  0.6508444  3
   9600   9607   9610   9619     1  0.0000000  0.6508444  3
   9601   9600   9604   9616     1  0.0000000  0.6508444  3
   9601   9600   9607   9610     1  0.0000000  0.6508444  3
   9601   9613   9625  17473     1  0.0000000  0.6508444  3
   9604   9600   9601   9613     1  0.0000000  0.6508444  3
   9604   9600   9607   9610     1  0.0000000  0.6508444  3
   9604   9616   9622  17450     1  0.0000000  0.6508444  3
   9607   9600   9601   9613     1  0.0000000  0.6508444  3
   9607   9600   9604   9616     1  0.0000000  0.6508444  3
   9607   9610   9619   9628     1  0.0000000  0.6508444  3
   9613   9625  17473  17469     1  180.0000771  0.4184000  2
   9613   9625  17473  17469     1  0.0000000  1.6024720  3
   9616   9622  17450  17446     1  180.0000771  0.4184000  2
   9616   9622  17450  17446     1  0.0000000  1.6024720  3
   9622  17450  17446  17445     1  180.0000771  0.4184000  2
   9622  17450  17446  17445     1  0.0000000  1.6024720  3
   9622  17450  17446  17462     1  180.0000771  5.6484000  1
   9622  17450  17446  17462     1  180.0000771  3.5564000  2
   9622  17450  17446  17462     1  0.0000000  0.4184000  3
   9625  17473  17469  17485     1  180.0000771  5.6484000  1
   9625  17473  17469  17485     1  180.0000771  3.5564000  2
   9625  17473  17469  17485     1  0.0000000  0.4184000  3
   9625  17473  17469  17468     1  180.0000771  0.4184000  2
   9625  17473  17469  17468     1  0.0000000  1.6024720  3
   9630   9631   9643   9655     1  0.0000000  0.6508444  3
   9630   9634   9646   9652     1  0.0000000  0.6508444  3
   9630   9637   9640   9649     1  0.0000000  0.6508444  3
   9631   9630   9634   9646     1  0.0000000  0.6508444  3
   9631   9630   9637   9640     1  0.0000000  0.6508444  3
   9631   9643   9655  17519     1  0.0000000  0.6508444  3
   9634   9630   9631   9643     1  0.0000000  0.6508444  3
   9634   9630   9637   9640     1  0.0000000  0.6508444  3
   9634   9646   9652  17496     1  0.0000000  0.6508444  3
   9637   9630   9631   9643     1  0.0000000  0.6508444  3
   9637   9630   9634   9646     1  0.0000000  0.6508444  3
   9637   9640   9649   9658     1  0.0000000  0.6508444  3
   9643   9655  17519  17515     1  180.0000771  0.4184000  2
   9643   9655  17519  17515     1  0.0000000  1.6024720  3
   9646   9652  17496  17492     1  180.0000771  0.4184000  2
   9646   9652  17496  17492     1  0.0000000  1.6024720  3
   9652  17496  17492  17491     1  180.0000771  0.4184000  2
   9652  17496  17492  17491     1  0.0000000  1.6024720  3
   9652  17496  17492  17508     1  180.0000771  5.6484000  1
   9652  17496  17492  17508     1  180.0000771  3.5564000  2
   9652  17496  17492  17508     1  0.0000000  0.4184000  3
   9655  17519  17515  17531     1  180.0000771  5.6484000  1
   9655  17519  17515  17531     1  180.0000771  3.5564000  2
   9655  17519  17515  17531     1  0.0000000  0.4184000  3
   9655  17519  17515  17514     1  180.0000771  0.4184000  2
   9655  17519  17515  17514     1  0.0000000  1.6024720  3
   9660   9661   9673   9685     1  0.0000000  0.6508444  3
   9660   9664   9676   9682     1  0.0000000  0.6508444  3
   9660   9667   9670   9679     1  0.0000000  0.6508444  3
   9661   9660   9664   9676     1  0.0000000  0.6508444  3
   9661   9660   9667   9670     1  0.0000000  0.6508444  3
   9661   9673   9685  17565     1  0.0000000  0.6508444  3
   9664   9660   9661   9673     1  0.0000000  0.6508444  3
   9664   9660   9667   9670     1  0.0000000  0.6508444  3
   9664   9676   9682  17542     1  0.0000000  0.6508444  3
   9667   9660   9661   9673     1  0.0000000  0.6508444  3
   9667   9660   9664   9676     1  0.0000000  0.6508444  3
   9667   9670   9679   9688     1  0.0000000  0.6508444  3
   9673   9685  17565  17561     1  180.0000771  0.4184000  2
   9673   9685  17565  17561     1  0.0000000  1.6024720  3
   9676   9682  17542  17538     1  180.0000771  0.4184000  2
   9676   9682  17542  17538     1  0.0000000  1.6024720  3
   9682  17542  17538  17537     1  180.0000771  0.4184000  2
   9682  17542  17538  17537     1  0.0000000  1.6024720  3
   9682  17542  17538  17554     1  180.0000771  5.6484000  1
   9682  17542  17538  17554     1  180.0000771  3.5564000  2
   9682  17542  17538  17554     1  0.0000000  0.4184000  3
   9685  17565  17561  17577     1  180.0000771  5.6484000  1
   9685  17565  17561  17577     1  180.0000771  3.5564000  2
   9685  17565  17561  17577     1  0.0000000  0.4184000  3
   9685  17565  17561  17560     1  180.0000771  0.4184000  2
   9685  17565  17561  17560     1  0.0000000  1.6024720  3
   9690   9691   9703   9715     1  0.0000000  0.6508444  3
   9690   9694   9706   9712     1  0.0000000  0.6508444  3
   9690   9697   9700   9709     1  0.0000000  0.6508444  3
   9691   9690   9694   9706     1  0.0000000  0.6508444  3
   9691   9690   9697   9700     1  0.0000000  0.6508444  3
   9691   9703   9715  17611     1  0.0000000  0.6508444  3
   9694   9690   9691   9703     1  0.0000000  0.6508444  3
   9694   9690   9697   9700     1  0.0000000  0.6508444  3
   9694   9706   9712  17588     1  0.0000000  0.6508444  3
   9697   9690   9691   9703     1  0.0000000  0.6508444  3
   9697   9690   9694   9706     1  0.0000000  0.6508444  3
   9697   9700   9709   9718     1  0.0000000  0.6508444  3
   9703   9715  17611  17607     1  180.0000771  0.4184000  2
   9703   9715  17611  17607     1  0.0000000  1.6024720  3
   9706   9712  17588  17584     1  180.0000771  0.4184000  2
   9706   9712  17588  17584     1  0.0000000  1.6024720  3
   9712  17588  17584  17583     1  180.0000771  0.4184000  2
   9712  17588  17584  17583     1  0.0000000  1.6024720  3
   9712  17588  17584  17600     1  180.0000771  5.6484000  1
   9712  17588  17584  17600     1  180.0000771  3.5564000  2
   9712  17588  17584  17600     1  0.0000000  0.4184000  3
   9715  17611  17607  17623     1  180.0000771  5.6484000  1
   9715  17611  17607  17623     1  180.0000771  3.5564000  2
   9715  17611  17607  17623     1  0.0000000  0.4184000  3
   9715  17611  17607  17606     1  180.0000771  0.4184000  2
   9715  17611  17607  17606     1  0.0000000  1.6024720  3
   9720   9721   9733   9745     1  0.0000000  0.6508444  3
   9720   9724   9736   9742     1  0.0000000  0.6508444  3
   9720   9727   9730   9739     1  0.0000000  0.6508444  3
   9721   9720   9724   9736     1  0.0000000  0.6508444  3
   9721   9720   9727   9730     1  0.0000000  0.6508444  3
   9721   9733   9745  17657     1  0.0000000  0.6508444  3
   9724   9720   9721   9733     1  0.0000000  0.6508444  3
   9724   9720   9727   9730     1  0.0000000  0.6508444  3
   9724   9736   9742  17634     1  0.0000000  0.6508444  3
   9727   9720   9721   9733     1  0.0000000  0.6508444  3
   9727   9720   9724   9736     1  0.0000000  0.6508444  3
   9727   9730   9739   9748     1  0.0000000  0.6508444  3
   9733   9745  17657  17653     1  180.0000771  0.4184000  2
   9733   9745  17657  17653     1  0.0000000  1.6024720  3
   9736   9742  17634  17630     1  180.0000771  0.4184000  2
   9736   9742  17634  17630     1  0.0000000  1.6024720  3
   9742  17634  17630  17629     1  180.0000771  0.4184000  2
   9742  17634  17630  17629     1  0.0000000  1.6024720  3
   9742  17634  17630  17646     1  180.0000771  5.6484000  1
   9742  17634  17630  17646     1  180.0000771  3.5564000  2
   9742  17634  17630  17646     1  0.0000000  0.4184000  3
   9745  17657  17653  17669     1  180.0000771  5.6484000  1
   9745  17657  17653  17669     1  180.0000771  3.5564000  2
   9745  17657  17653  17669     1  0.0000000  0.4184000  3
   9745  17657  17653  17652     1  180.0000771  0.4184000  2
   9745  17657  17653  17652     1  0.0000000  1.6024720  3
   9750   9751   9763   9775     1  0.0000000  0.6508444  3
   9750   9754   9766   9772     1  0.0000000  0.6508444  3
   9750   9757   9760   9769     1  0.0000000  0.6508444  3
   9751   9750   9754   9766     1  0.0000000  0.6508444  3
   9751   9750   9757   9760     1  0.0000000  0.6508444  3
   9751   9763   9775  17703     1  0.0000000  0.6508444  3
   9754   9750   9751   9763     1  0.0000000  0.6508444  3
   9754   9750   9757   9760     1  0.0000000  0.6508444  3
   9754   9766   9772  17680     1  0.0000000  0.6508444  3
   9757   9750   9751   9763     1  0.0000000  0.6508444  3
   9757   9750   9754   9766     1  0.0000000  0.6508444  3
   9757   9760   9769   9778     1  0.0000000  0.6508444  3
   9763   9775  17703  17699     1  180.0000771  0.4184000  2
   9763   9775  17703  17699     1  0.0000000  1.6024720  3
   9766   9772  17680  17676     1  180.0000771  0.4184000  2
   9766   9772  17680  17676     1  0.0000000  1.6024720  3
   9772  17680  17676  17675     1  180.0000771  0.4184000  2
   9772  17680  17676  17675     1  0.0000000  1.6024720  3
   9772  17680  17676  17692     1  180.0000771  5.6484000  1
   9772  17680  17676  17692     1  180.0000771  3.5564000  2
   9772  17680  17676  17692     1  0.0000000  0.4184000  3
   9775  17703  17699  17715     1  180.0000771  5.6484000  1
   9775  17703  17699  17715     1  180.0000771  3.5564000  2
   9775  17703  17699  17715     1  0.0000000  0.4184000  3
   9775  17703  17699  17698     1  180.0000771  0.4184000  2
   9775  17703  17699  17698     1  0.0000000  1.6024720  3
   9780   9781   9793   9805     1  0.0000000  0.6508444  3
   9780   9784   9796   9802     1  0.0000000  0.6508444  3
   9780   9787   9790   9799     1  0.0000000  0.6508444  3
   9781   9780   9784   9796     1  0.0000000  0.6508444  3
   9781   9780   9787   9790     1  0.0000000  0.6508444  3
   9781   9793   9805  17749     1  0.0000000  0.6508444  3
   9784   9780   9781   9793     1  0.0000000  0.6508444  3
   9784   9780   9787   9790     1  0.0000000  0.6508444  3
   9784   9796   9802  17726     1  0.0000000  0.6508444  3
   9787   9780   9781   9793     1  0.0000000  0.6508444  3
   9787   9780   9784   9796     1  0.0000000  0.6508444  3
   9787   9790   9799   9808     1  0.0000000  0.6508444  3
   9793   9805  17749  17745     1  180.0000771  0.4184000  2
   9793   9805  17749  17745     1  0.0000000  1.6024720  3
   9796   9802  17726  17722     1  180.0000771  0.4184000  2
   9796   9802  17726  17722     1  0.0000000  1.6024720  3
   9802  17726  17722  17721     1  180.0000771  0.4184000  2
   9802  17726  17722  17721     1  0.0000000  1.6024720  3
   9802  17726  17722  17738     1  180.0000771  5.6484000  1
   9802  17726  17722  17738     1  180.0000771  3.5564000  2
   9802  17726  17722  17738     1  0.0000000  0.4184000  3
   9805  17749  17745  17761     1  180.0000771  5.6484000  1
   9805  17749  17745  17761     1  180.0000771  3.5564000  2
   9805  17749  17745  17761     1  0.0000000  0.4184000  3
   9805  17749  17745  17744     1  180.0000771  0.4184000  2
   9805  17749  17745  17744     1  0.0000000  1.6024720  3
   9810   9811   9823   9835     1  0.0000000  0.6508444  3
   9810   9814   9826   9832     1  0.0000000  0.6508444  3
   9810   9817   9820   9829     1  0.0000000  0.6508444  3
   9811   9810   9814   9826     1  0.0000000  0.6508444  3
   9811   9810   9817   9820     1  0.0000000  0.6508444  3
   9811   9823   9835  17795     1  0.0000000  0.6508444  3
   9814   9810   9811   9823     1  0.0000000  0.6508444  3
   9814   9810   9817   9820     1  0.0000000  0.6508444  3
   9814   9826   9832  17772     1  0.0000000  0.6508444  3
   9817   9810   9811   9823     1  0.0000000  0.6508444  3
   9817   9810   9814   9826     1  0.0000000  0.6508444  3
   9817   9820   9829   9838     1  0.0000000  0.6508444  3
   9823   9835  17795  17791     1  180.0000771  0.4184000  2
   9823   9835  17795  17791     1  0.0000000  1.6024720  3
   9826   9832  17772  17768     1  180.0000771  0.4184000  2
   9826   9832  17772  17768     1  0.0000000  1.6024720  3
   9832  17772  17768  17767     1  180.0000771  0.4184000  2
   9832  17772  17768  17767     1  0.0000000  1.6024720  3
   9832  17772  17768  17784     1  180.0000771  5.6484000  1
   9832  17772  17768  17784     1  180.0000771  3.5564000  2
   9832  17772  17768  17784     1  0.0000000  0.4184000  3
   9835  17795  17791  17807     1  180.0000771  5.6484000  1
   9835  17795  17791  17807     1  180.0000771  3.5564000  2
   9835  17795  17791  17807     1  0.0000000  0.4184000  3
   9835  17795  17791  17790     1  180.0000771  0.4184000  2
   9835  17795  17791  17790     1  0.0000000  1.6024720  3
   9840   9841   9853   9865     1  0.0000000  0.6508444  3
   9840   9844   9856   9862     1  0.0000000  0.6508444  3
   9840   9847   9850   9859     1  0.0000000  0.6508444  3
   9841   9840   9844   9856     1  0.0000000  0.6508444  3
   9841   9840   9847   9850     1  0.0000000  0.6508444  3
   9841   9853   9865  17841     1  0.0000000  0.6508444  3
   9844   9840   9841   9853     1  0.0000000  0.6508444  3
   9844   9840   9847   9850     1  0.0000000  0.6508444  3
   9844   9856   9862  17818     1  0.0000000  0.6508444  3
   9847   9840   9841   9853     1  0.0000000  0.6508444  3
   9847   9840   9844   9856     1  0.0000000  0.6508444  3
   9847   9850   9859   9868     1  0.0000000  0.6508444  3
   9853   9865  17841  17837     1  180.0000771  0.4184000  2
   9853   9865  17841  17837     1  0.0000000  1.6024720  3
   9856   9862  17818  17814     1  180.0000771  0.4184000  2
   9856   9862  17818  17814     1  0.0000000  1.6024720  3
   9862  17818  17814  17813     1  180.0000771  0.4184000  2
   9862  17818  17814  17813     1  0.0000000  1.6024720  3
   9862  17818  17814  17830     1  180.0000771  5.6484000  1
   9862  17818  17814  17830     1  180.0000771  3.5564000  2
   9862  17818  17814  17830     1  0.0000000  0.4184000  3
   9865  17841  17837  17853     1  180.0000771  5.6484000  1
   9865  17841  17837  17853     1  180.0000771  3.5564000  2
   9865  17841  17837  17853     1  0.0000000  0.4184000  3
   9865  17841  17837  17836     1  180.0000771  0.4184000  2
   9865  17841  17837  17836     1  0.0000000  1.6024720  3
   9870   9871   9883   9895     1  0.0000000  0.6508444  3
   9870   9874   9886   9892     1  0.0000000  0.6508444  3
   9870   9877   9880   9889     1  0.0000000  0.6508444  3
   9871   9870   9874   9886     1  0.0000000  0.6508444  3
   9871   9870   9877   9880     1  0.0000000  0.6508444  3
   9871   9883   9895  17887     1  0.0000000  0.6508444  3
   9874   9870   9871   9883     1  0.0000000  0.6508444  3
   9874   9870   9877   9880     1  0.0000000  0.6508444  3
   9874   9886   9892  17864     1  0.0000000  0.6508444  3
   9877   9870   9871   9883     1  0.0000000  0.6508444  3
   9877   9870   9874   9886     1  0.0000000  0.6508444  3
   9877   9880   9889   9898     1  0.0000000  0.6508444  3
   9883   9895  17887  17883     1  180.0000771  0.4184000  2
   9883   9895  17887  17883     1  0.0000000  1.6024720  3
   9886   9892  17864  17860     1  180.0000771  0.4184000  2
   9886   9892  17864  17860     1  0.0000000  1.6024720  3
   9892  17864  17860  17859     1  180.0000771  0.4184000  2
   9892  17864  17860  17859     1  0.0000000  1.6024720  3
   9892  17864  17860  17876     1  180.0000771  5.6484000  1
   9892  17864  17860  17876     1  180.0000771  3.5564000  2
   9892  17864  17860  17876     1  0.0000000  0.4184000  3
   9895  17887  17883  17899     1  180.0000771  5.6484000  1
   9895  17887  17883  17899     1  180.0000771  3.5564000  2
   9895  17887  17883  17899     1  0.0000000  0.4184000  3
   9895  17887  17883  17882     1  180.0000771  0.4184000  2
   9895  17887  17883  17882     1  0.0000000  1.6024720  3
   9900   9901   9913   9925     1  0.0000000  0.6508444  3
   9900   9904   9916   9922     1  0.0000000  0.6508444  3
   9900   9907   9910   9919     1  0.0000000  0.6508444  3
   9901   9900   9904   9916     1  0.0000000  0.6508444  3
   9901   9900   9907   9910     1  0.0000000  0.6508444  3
   9901   9913   9925  17933     1  0.0000000  0.6508444  3
   9904   9900   9901   9913     1  0.0000000  0.6508444  3
   9904   9900   9907   9910     1  0.0000000  0.6508444  3
   9904   9916   9922  17910     1  0.0000000  0.6508444  3
   9907   9900   9901   9913     1  0.0000000  0.6508444  3
   9907   9900   9904   9916     1  0.0000000  0.6508444  3
   9907   9910   9919   9928     1  0.0000000  0.6508444  3
   9913   9925  17933  17929     1  180.0000771  0.4184000  2
   9913   9925  17933  17929     1  0.0000000  1.6024720  3
   9916   9922  17910  17906     1  180.0000771  0.4184000  2
   9916   9922  17910  17906     1  0.0000000  1.6024720  3
   9922  17910  17906  17905     1  180.0000771  0.4184000  2
   9922  17910  17906  17905     1  0.0000000  1.6024720  3
   9922  17910  17906  17922     1  180.0000771  5.6484000  1
   9922  17910  17906  17922     1  180.0000771  3.5564000  2
   9922  17910  17906  17922     1  0.0000000  0.4184000  3
   9925  17933  17929  17945     1  180.0000771  5.6484000  1
   9925  17933  17929  17945     1  180.0000771  3.5564000  2
   9925  17933  17929  17945     1  0.0000000  0.4184000  3
   9925  17933  17929  17928     1  180.0000771  0.4184000  2
   9925  17933  17929  17928     1  0.0000000  1.6024720  3
   9930   9931   9943   9955     1  0.0000000  0.6508444  3
   9930   9934   9946   9952     1  0.0000000  0.6508444  3
   9930   9937   9940   9949     1  0.0000000  0.6508444  3
   9931   9930   9934   9946     1  0.0000000  0.6508444  3
   9931   9930   9937   9940     1  0.0000000  0.6508444  3
   9931   9943   9955  17979     1  0.0000000  0.6508444  3
   9934   9930   9931   9943     1  0.0000000  0.6508444  3
   9934   9930   9937   9940     1  0.0000000  0.6508444  3
   9934   9946   9952  17956     1  0.0000000  0.6508444  3
   9937   9930   9931   9943     1  0.0000000  0.6508444  3
   9937   9930   9934   9946     1  0.0000000  0.6508444  3
   9937   9940   9949   9958     1  0.0000000  0.6508444  3
   9943   9955  17979  17975     1  180.0000771  0.4184000  2
   9943   9955  17979  17975     1  0.0000000  1.6024720  3
   9946   9952  17956  17952     1  180.0000771  0.4184000  2
   9946   9952  17956  17952     1  0.0000000  1.6024720  3
   9952  17956  17952  17951     1  180.0000771  0.4184000  2
   9952  17956  17952  17951     1  0.0000000  1.6024720  3
   9952  17956  17952  17968     1  180.0000771  5.6484000  1
   9952  17956  17952  17968     1  180.0000771  3.5564000  2
   9952  17956  17952  17968     1  0.0000000  0.4184000  3
   9955  17979  17975  17991     1  180.0000771  5.6484000  1
   9955  17979  17975  17991     1  180.0000771  3.5564000  2
   9955  17979  17975  17991     1  0.0000000  0.4184000  3
   9955  17979  17975  17974     1  180.0000771  0.4184000  2
   9955  17979  17975  17974     1  0.0000000  1.6024720  3
   9960   9961   9973   9985     1  0.0000000  0.6508444  3
   9960   9964   9976   9982     1  0.0000000  0.6508444  3
   9960   9967   9970   9979     1  0.0000000  0.6508444  3
   9961   9960   9964   9976     1  0.0000000  0.6508444  3
   9961   9960   9967   9970     1  0.0000000  0.6508444  3
   9961   9973   9985  18025     1  0.0000000  0.6508444  3
   9964   9960   9961   9973     1  0.0000000  0.6508444  3
   9964   9960   9967   9970     1  0.0000000  0.6508444  3
   9964   9976   9982  18002     1  0.0000000  0.6508444  3
   9967   9960   9961   9973     1  0.0000000  0.6508444  3
   9967   9960   9964   9976     1  0.0000000  0.6508444  3
   9967   9970   9979   9988     1  0.0000000  0.6508444  3
   9973   9985  18025  18021     1  180.0000771  0.4184000  2
   9973   9985  18025  18021     1  0.0000000  1.6024720  3
   9976   9982  18002  17998     1  180.0000771  0.4184000  2
   9976   9982  18002  17998     1  0.0000000  1.6024720  3
   9982  18002  17998  17997     1  180.0000771  0.4184000  2
   9982  18002  17998  17997     1  0.0000000  1.6024720  3
   9982  18002  17998  18014     1  180.0000771  5.6484000  1
   9982  18002  17998  18014     1  180.0000771  3.5564000  2
   9982  18002  17998  18014     1  0.0000000  0.4184000  3
   9985  18025  18021  18037     1  180.0000771  5.6484000  1
   9985  18025  18021  18037     1  180.0000771  3.5564000  2
   9985  18025  18021  18037     1  0.0000000  0.4184000  3
   9985  18025  18021  18020     1  180.0000771  0.4184000  2
   9985  18025  18021  18020     1  0.0000000  1.6024720  3
   9990   9991  10003  10015     1  0.0000000  0.6508444  3
   9990   9994  10006  10012     1  0.0000000  0.6508444  3
   9990   9997  10000  10009     1  0.0000000  0.6508444  3
   9991   9990   9994  10006     1  0.0000000  0.6508444  3
   9991   9990   9997  10000     1  0.0000000  0.6508444  3
   9991  10003  10015  18071     1  0.0000000  0.6508444  3
   9994   9990   9991  10003     1  0.0000000  0.6508444  3
   9994   9990   9997  10000     1  0.0000000  0.6508444  3
   9994  10006  10012  18048     1  0.0000000  0.6508444  3
   9997   9990   9991  10003     1  0.0000000  0.6508444  3
   9997   9990   9994  10006     1  0.0000000  0.6508444  3
   9997  10000  10009  10018     1  0.0000000  0.6508444  3
  10003  10015  18071  18067     1  180.0000771  0.4184000  2
  10003  10015  18071  18067     1  0.0000000  1.6024720  3
  10006  10012  18048  18044     1  180.0000771  0.4184000  2
  10006  10012  18048  18044     1  0.0000000  1.6024720  3
  10012  18048  18044  18043     1  180.0000771  0.4184000  2
  10012  18048  18044  18043     1  0.0000000  1.6024720  3
  10012  18048  18044  18060     1  180.0000771  5.6484000  1
  10012  18048  18044  18060     1  180.0000771  3.5564000  2
  10012  18048  18044  18060     1  0.0000000  0.4184000  3
  10015  18071  18067  18083     1  180.0000771  5.6484000  1
  10015  18071  18067  18083     1  180.0000771  3.5564000  2
  10015  18071  18067  18083     1  0.0000000  0.4184000  3
  10015  18071  18067  18066     1  180.0000771  0.4184000  2
  10015  18071  18067  18066     1  0.0000000  1.6024720  3
  10020  10021  10033  10045     1  0.0000000  0.6508444  3
  10020  10024  10036  10042     1  0.0000000  0.6508444  3
  10020  10027  10030  10039     1  0.0000000  0.6508444  3
  10021  10020  10024  10036     1  0.0000000  0.6508444  3
  10021  10020  10027  10030     1  0.0000000  0.6508444  3
  10021  10033  10045  18117     1  0.0000000  0.6508444  3
  10024  10020  10021  10033     1  0.0000000  0.6508444  3
  10024  10020  10027  10030     1  0.0000000  0.6508444  3
  10024  10036  10042  18094     1  0.0000000  0.6508444  3
  10027  10020  10021  10033     1  0.0000000  0.6508444  3
  10027  10020  10024  10036     1  0.0000000  0.6508444  3
  10027  10030  10039  10048     1  0.0000000  0.6508444  3
  10033  10045  18117  18113     1  180.0000771  0.4184000  2
  10033  10045  18117  18113     1  0.0000000  1.6024720  3
  10036  10042  18094  18090     1  180.0000771  0.4184000  2
  10036  10042  18094  18090     1  0.0000000  1.6024720  3
  10042  18094  18090  18089     1  180.0000771  0.4184000  2
  10042  18094  18090  18089     1  0.0000000  1.6024720  3
  10042  18094  18090  18106     1  180.0000771  5.6484000  1
  10042  18094  18090  18106     1  180.0000771  3.5564000  2
  10042  18094  18090  18106     1  0.0000000  0.4184000  3
  10045  18117  18113  18129     1  180.0000771  5.6484000  1
  10045  18117  18113  18129     1  180.0000771  3.5564000  2
  10045  18117  18113  18129     1  0.0000000  0.4184000  3
  10045  18117  18113  18112     1  180.0000771  0.4184000  2
  10045  18117  18113  18112     1  0.0000000  1.6024720  3
  10050  10051  10063  10075     1  0.0000000  0.6508444  3
  10050  10054  10066  10072     1  0.0000000  0.6508444  3
  10050  10057  10060  10069     1  0.0000000  0.6508444  3
  10051  10050  10054  10066     1  0.0000000  0.6508444  3
  10051  10050  10057  10060     1  0.0000000  0.6508444  3
  10051  10063  10075  18163     1  0.0000000  0.6508444  3
  10054  10050  10051  10063     1  0.0000000  0.6508444  3
  10054  10050  10057  10060     1  0.0000000  0.6508444  3
  10054  10066  10072  18140     1  0.0000000  0.6508444  3
  10057  10050  10051  10063     1  0.0000000  0.6508444  3
  10057  10050  10054  10066     1  0.0000000  0.6508444  3
  10057  10060  10069  10078     1  0.0000000  0.6508444  3
  10063  10075  18163  18159     1  180.0000771  0.4184000  2
  10063  10075  18163  18159     1  0.0000000  1.6024720  3
  10066  10072  18140  18136     1  180.0000771  0.4184000  2
  10066  10072  18140  18136     1  0.0000000  1.6024720  3
  10072  18140  18136  18135     1  180.0000771  0.4184000  2
  10072  18140  18136  18135     1  0.0000000  1.6024720  3
  10072  18140  18136  18152     1  180.0000771  5.6484000  1
  10072  18140  18136  18152     1  180.0000771  3.5564000  2
  10072  18140  18136  18152     1  0.0000000  0.4184000  3
  10075  18163  18159  18175     1  180.0000771  5.6484000  1
  10075  18163  18159  18175     1  180.0000771  3.5564000  2
  10075  18163  18159  18175     1  0.0000000  0.4184000  3
  10075  18163  18159  18158     1  180.0000771  0.4184000  2
  10075  18163  18159  18158     1  0.0000000  1.6024720  3
  10080  10081  10093  10105     1  0.0000000  0.6508444  3
  10080  10084  10096  10102     1  0.0000000  0.6508444  3
  10080  10087  10090  10099     1  0.0000000  0.6508444  3
  10081  10080  10084  10096     1  0.0000000  0.6508444  3
  10081  10080  10087  10090     1  0.0000000  0.6508444  3
  10081  10093  10105  18209     1  0.0000000  0.6508444  3
  10084  10080  10081  10093     1  0.0000000  0.6508444  3
  10084  10080  10087  10090     1  0.0000000  0.6508444  3
  10084  10096  10102  18186     1  0.0000000  0.6508444  3
  10087  10080  10081  10093     1  0.0000000  0.6508444  3
  10087  10080  10084  10096     1  0.0000000  0.6508444  3
  10087  10090  10099  10108     1  0.0000000  0.6508444  3
  10093  10105  18209  18205     1  180.0000771  0.4184000  2
  10093  10105  18209  18205     1  0.0000000  1.6024720  3
  10096  10102  18186  18182     1  180.0000771  0.4184000  2
  10096  10102  18186  18182     1  0.0000000  1.6024720  3
  10102  18186  18182  18181     1  180.0000771  0.4184000  2
  10102  18186  18182  18181     1  0.0000000  1.6024720  3
  10102  18186  18182  18198     1  180.0000771  5.6484000  1
  10102  18186  18182  18198     1  180.0000771  3.5564000  2
  10102  18186  18182  18198     1  0.0000000  0.4184000  3
  10105  18209  18205  18221     1  180.0000771  5.6484000  1
  10105  18209  18205  18221     1  180.0000771  3.5564000  2
  10105  18209  18205  18221     1  0.0000000  0.4184000  3
  10105  18209  18205  18204     1  180.0000771  0.4184000  2
  10105  18209  18205  18204     1  0.0000000  1.6024720  3
  10110  10111  10123  10135     1  0.0000000  0.6508444  3
  10110  10114  10126  10132     1  0.0000000  0.6508444  3
  10110  10117  10120  10129     1  0.0000000  0.6508444  3
  10111  10110  10114  10126     1  0.0000000  0.6508444  3
  10111  10110  10117  10120     1  0.0000000  0.6508444  3
  10111  10123  10135  18255     1  0.0000000  0.6508444  3
  10114  10110  10111  10123     1  0.0000000  0.6508444  3
  10114  10110  10117  10120     1  0.0000000  0.6508444  3
  10114  10126  10132  18232     1  0.0000000  0.6508444  3
  10117  10110  10111  10123     1  0.0000000  0.6508444  3
  10117  10110  10114  10126     1  0.0000000  0.6508444  3
  10117  10120  10129  10138     1  0.0000000  0.6508444  3
  10123  10135  18255  18251     1  180.0000771  0.4184000  2
  10123  10135  18255  18251     1  0.0000000  1.6024720  3
  10126  10132  18232  18228     1  180.0000771  0.4184000  2
  10126  10132  18232  18228     1  0.0000000  1.6024720  3
  10132  18232  18228  18227     1  180.0000771  0.4184000  2
  10132  18232  18228  18227     1  0.0000000  1.6024720  3
  10132  18232  18228  18244     1  180.0000771  5.6484000  1
  10132  18232  18228  18244     1  180.0000771  3.5564000  2
  10132  18232  18228  18244     1  0.0000000  0.4184000  3
  10135  18255  18251  18267     1  180.0000771  5.6484000  1
  10135  18255  18251  18267     1  180.0000771  3.5564000  2
  10135  18255  18251  18267     1  0.0000000  0.4184000  3
  10135  18255  18251  18250     1  180.0000771  0.4184000  2
  10135  18255  18251  18250     1  0.0000000  1.6024720  3
  10140  10141  10153  10165     1  0.0000000  0.6508444  3
  10140  10144  10156  10162     1  0.0000000  0.6508444  3
  10140  10147  10150  10159     1  0.0000000  0.6508444  3
  10141  10140  10144  10156     1  0.0000000  0.6508444  3
  10141  10140  10147  10150     1  0.0000000  0.6508444  3
  10141  10153  10165  18301     1  0.0000000  0.6508444  3
  10144  10140  10141  10153     1  0.0000000  0.6508444  3
  10144  10140  10147  10150     1  0.0000000  0.6508444  3
  10144  10156  10162  18278     1  0.0000000  0.6508444  3
  10147  10140  10141  10153     1  0.0000000  0.6508444  3
  10147  10140  10144  10156     1  0.0000000  0.6508444  3
  10147  10150  10159  10168     1  0.0000000  0.6508444  3
  10153  10165  18301  18297     1  180.0000771  0.4184000  2
  10153  10165  18301  18297     1  0.0000000  1.6024720  3
  10156  10162  18278  18274     1  180.0000771  0.4184000  2
  10156  10162  18278  18274     1  0.0000000  1.6024720  3
  10162  18278  18274  18273     1  180.0000771  0.4184000  2
  10162  18278  18274  18273     1  0.0000000  1.6024720  3
  10162  18278  18274  18290     1  180.0000771  5.6484000  1
  10162  18278  18274  18290     1  180.0000771  3.5564000  2
  10162  18278  18274  18290     1  0.0000000  0.4184000  3
  10165  18301  18297  18313     1  180.0000771  5.6484000  1
  10165  18301  18297  18313     1  180.0000771  3.5564000  2
  10165  18301  18297  18313     1  0.0000000  0.4184000  3
  10165  18301  18297  18296     1  180.0000771  0.4184000  2
  10165  18301  18297  18296     1  0.0000000  1.6024720  3
  10170  10171  10183  10195     1  0.0000000  0.6508444  3
  10170  10174  10186  10192     1  0.0000000  0.6508444  3
  10170  10177  10180  10189     1  0.0000000  0.6508444  3
  10171  10170  10174  10186     1  0.0000000  0.6508444  3
  10171  10170  10177  10180     1  0.0000000  0.6508444  3
  10171  10183  10195  18347     1  0.0000000  0.6508444  3
  10174  10170  10171  10183     1  0.0000000  0.6508444  3
  10174  10170  10177  10180     1  0.0000000  0.6508444  3
  10174  10186  10192  18324     1  0.0000000  0.6508444  3
  10177  10170  10171  10183     1  0.0000000  0.6508444  3
  10177  10170  10174  10186     1  0.0000000  0.6508444  3
  10177  10180  10189  10198     1  0.0000000  0.6508444  3
  10183  10195  18347  18343     1  180.0000771  0.4184000  2
  10183  10195  18347  18343     1  0.0000000  1.6024720  3
  10186  10192  18324  18320     1  180.0000771  0.4184000  2
  10186  10192  18324  18320     1  0.0000000  1.6024720  3
  10192  18324  18320  18319     1  180.0000771  0.4184000  2
  10192  18324  18320  18319     1  0.0000000  1.6024720  3
  10192  18324  18320  18336     1  180.0000771  5.6484000  1
  10192  18324  18320  18336     1  180.0000771  3.5564000  2
  10192  18324  18320  18336     1  0.0000000  0.4184000  3
  10195  18347  18343  18359     1  180.0000771  5.6484000  1
  10195  18347  18343  18359     1  180.0000771  3.5564000  2
  10195  18347  18343  18359     1  0.0000000  0.4184000  3
  10195  18347  18343  18342     1  180.0000771  0.4184000  2
  10195  18347  18343  18342     1  0.0000000  1.6024720  3
  10200  10201  10213  10225     1  0.0000000  0.6508444  3
  10200  10204  10216  10222     1  0.0000000  0.6508444  3
  10200  10207  10210  10219     1  0.0000000  0.6508444  3
  10201  10200  10204  10216     1  0.0000000  0.6508444  3
  10201  10200  10207  10210     1  0.0000000  0.6508444  3
  10201  10213  10225  18393     1  0.0000000  0.6508444  3
  10204  10200  10201  10213     1  0.0000000  0.6508444  3
  10204  10200  10207  10210     1  0.0000000  0.6508444  3
  10204  10216  10222  18370     1  0.0000000  0.6508444  3
  10207  10200  10201  10213     1  0.0000000  0.6508444  3
  10207  10200  10204  10216     1  0.0000000  0.6508444  3
  10207  10210  10219  10228     1  0.0000000  0.6508444  3
  10213  10225  18393  18389     1  180.0000771  0.4184000  2
  10213  10225  18393  18389     1  0.0000000  1.6024720  3
  10216  10222  18370  18366     1  180.0000771  0.4184000  2
  10216  10222  18370  18366     1  0.0000000  1.6024720  3
  10222  18370  18366  18365     1  180.0000771  0.4184000  2
  10222  18370  18366  18365     1  0.0000000  1.6024720  3
  10222  18370  18366  18382     1  180.0000771  5.6484000  1
  10222  18370  18366  18382     1  180.0000771  3.5564000  2
  10222  18370  18366  18382     1  0.0000000  0.4184000  3
  10225  18393  18389  18405     1  180.0000771  5.6484000  1
  10225  18393  18389  18405     1  180.0000771  3.5564000  2
  10225  18393  18389  18405     1  0.0000000  0.4184000  3
  10225  18393  18389  18388     1  180.0000771  0.4184000  2
  10225  18393  18389  18388     1  0.0000000  1.6024720  3
  10230  10231  10243  10255     1  0.0000000  0.6508444  3
  10230  10234  10246  10252     1  0.0000000  0.6508444  3
  10230  10237  10240  10249     1  0.0000000  0.6508444  3
  10231  10230  10234  10246     1  0.0000000  0.6508444  3
  10231  10230  10237  10240     1  0.0000000  0.6508444  3
  10231  10243  10255  18439     1  0.0000000  0.6508444  3
  10234  10230  10231  10243     1  0.0000000  0.6508444  3
  10234  10230  10237  10240     1  0.0000000  0.6508444  3
  10234  10246  10252  18416     1  0.0000000  0.6508444  3
  10237  10230  10231  10243     1  0.0000000  0.6508444  3
  10237  10230  10234  10246     1  0.0000000  0.6508444  3
  10237  10240  10249  10258     1  0.0000000  0.6508444  3
  10243  10255  18439  18435     1  180.0000771  0.4184000  2
  10243  10255  18439  18435     1  0.0000000  1.6024720  3
  10246  10252  18416  18412     1  180.0000771  0.4184000  2
  10246  10252  18416  18412     1  0.0000000  1.6024720  3
  10252  18416  18412  18411     1  180.0000771  0.4184000  2
  10252  18416  18412  18411     1  0.0000000  1.6024720  3
  10252  18416  18412  18428     1  180.0000771  5.6484000  1
  10252  18416  18412  18428     1  180.0000771  3.5564000  2
  10252  18416  18412  18428     1  0.0000000  0.4184000  3
  10255  18439  18435  18451     1  180.0000771  5.6484000  1
  10255  18439  18435  18451     1  180.0000771  3.5564000  2
  10255  18439  18435  18451     1  0.0000000  0.4184000  3
  10255  18439  18435  18434     1  180.0000771  0.4184000  2
  10255  18439  18435  18434     1  0.0000000  1.6024720  3
  10260  10261  10273  10285     1  0.0000000  0.6508444  3
  10260  10264  10276  10282     1  0.0000000  0.6508444  3
  10260  10267  10270  10279     1  0.0000000  0.6508444  3
  10261  10260  10264  10276     1  0.0000000  0.6508444  3
  10261  10260  10267  10270     1  0.0000000  0.6508444  3
  10261  10273  10285  18485     1  0.0000000  0.6508444  3
  10264  10260  10261  10273     1  0.0000000  0.6508444  3
  10264  10260  10267  10270     1  0.0000000  0.6508444  3
  10264  10276  10282  18462     1  0.0000000  0.6508444  3
  10267  10260  10261  10273     1  0.0000000  0.6508444  3
  10267  10260  10264  10276     1  0.0000000  0.6508444  3
  10267  10270  10279  10288     1  0.0000000  0.6508444  3
  10273  10285  18485  18481     1  180.0000771  0.4184000  2
  10273  10285  18485  18481     1  0.0000000  1.6024720  3
  10276  10282  18462  18458     1  180.0000771  0.4184000  2
  10276  10282  18462  18458     1  0.0000000  1.6024720  3
  10282  18462  18458  18457     1  180.0000771  0.4184000  2
  10282  18462  18458  18457     1  0.0000000  1.6024720  3
  10282  18462  18458  18474     1  180.0000771  5.6484000  1
  10282  18462  18458  18474     1  180.0000771  3.5564000  2
  10282  18462  18458  18474     1  0.0000000  0.4184000  3
  10285  18485  18481  18497     1  180.0000771  5.6484000  1
  10285  18485  18481  18497     1  180.0000771  3.5564000  2
  10285  18485  18481  18497     1  0.0000000  0.4184000  3
  10285  18485  18481  18480     1  180.0000771  0.4184000  2
  10285  18485  18481  18480     1  0.0000000  1.6024720  3
  10290  10291  10303  10315     1  0.0000000  0.6508444  3
  10290  10294  10306  10312     1  0.0000000  0.6508444  3
  10290  10297  10300  10309     1  0.0000000  0.6508444  3
  10291  10290  10294  10306     1  0.0000000  0.6508444  3
  10291  10290  10297  10300     1  0.0000000  0.6508444  3
  10291  10303  10315  18531     1  0.0000000  0.6508444  3
  10294  10290  10291  10303     1  0.0000000  0.6508444  3
  10294  10290  10297  10300     1  0.0000000  0.6508444  3
  10294  10306  10312  18508     1  0.0000000  0.6508444  3
  10297  10290  10291  10303     1  0.0000000  0.6508444  3
  10297  10290  10294  10306     1  0.0000000  0.6508444  3
  10297  10300  10309  10318     1  0.0000000  0.6508444  3
  10303  10315  18531  18527     1  180.0000771  0.4184000  2
  10303  10315  18531  18527     1  0.0000000  1.6024720  3
  10306  10312  18508  18504     1  180.0000771  0.4184000  2
  10306  10312  18508  18504     1  0.0000000  1.6024720  3
  10312  18508  18504  18503     1  180.0000771  0.4184000  2
  10312  18508  18504  18503     1  0.0000000  1.6024720  3
  10312  18508  18504  18520     1  180.0000771  5.6484000  1
  10312  18508  18504  18520     1  180.0000771  3.5564000  2
  10312  18508  18504  18520     1  0.0000000  0.4184000  3
  10315  18531  18527  18543     1  180.0000771  5.6484000  1
  10315  18531  18527  18543     1  180.0000771  3.5564000  2
  10315  18531  18527  18543     1  0.0000000  0.4184000  3
  10315  18531  18527  18526     1  180.0000771  0.4184000  2
  10315  18531  18527  18526     1  0.0000000  1.6024720  3
  10320  10321  10333  10345     1  0.0000000  0.6508444  3
  10320  10324  10336  10342     1  0.0000000  0.6508444  3
  10320  10327  10330  10339     1  0.0000000  0.6508444  3
  10321  10320  10324  10336     1  0.0000000  0.6508444  3
  10321  10320  10327  10330     1  0.0000000  0.6508444  3
  10321  10333  10345  18577     1  0.0000000  0.6508444  3
  10324  10320  10321  10333     1  0.0000000  0.6508444  3
  10324  10320  10327  10330     1  0.0000000  0.6508444  3
  10324  10336  10342  18554     1  0.0000000  0.6508444  3
  10327  10320  10321  10333     1  0.0000000  0.6508444  3
  10327  10320  10324  10336     1  0.0000000  0.6508444  3
  10327  10330  10339  10348     1  0.0000000  0.6508444  3
  10333  10345  18577  18573     1  180.0000771  0.4184000  2
  10333  10345  18577  18573     1  0.0000000  1.6024720  3
  10336  10342  18554  18550     1  180.0000771  0.4184000  2
  10336  10342  18554  18550     1  0.0000000  1.6024720  3
  10342  18554  18550  18549     1  180.0000771  0.4184000  2
  10342  18554  18550  18549     1  0.0000000  1.6024720  3
  10342  18554  18550  18566     1  180.0000771  5.6484000  1
  10342  18554  18550  18566     1  180.0000771  3.5564000  2
  10342  18554  18550  18566     1  0.0000000  0.4184000  3
  10345  18577  18573  18589     1  180.0000771  5.6484000  1
  10345  18577  18573  18589     1  180.0000771  3.5564000  2
  10345  18577  18573  18589     1  0.0000000  0.4184000  3
  10345  18577  18573  18572     1  180.0000771  0.4184000  2
  10345  18577  18573  18572     1  0.0000000  1.6024720  3
  10350  10351  10363  10375     1  0.0000000  0.6508444  3
  10350  10354  10366  10372     1  0.0000000  0.6508444  3
  10350  10357  10360  10369     1  0.0000000  0.6508444  3
  10351  10350  10354  10366     1  0.0000000  0.6508444  3
  10351  10350  10357  10360     1  0.0000000  0.6508444  3
  10351  10363  10375  18623     1  0.0000000  0.6508444  3
  10354  10350  10351  10363     1  0.0000000  0.6508444  3
  10354  10350  10357  10360     1  0.0000000  0.6508444  3
  10354  10366  10372  18600     1  0.0000000  0.6508444  3
  10357  10350  10351  10363     1  0.0000000  0.6508444  3
  10357  10350  10354  10366     1  0.0000000  0.6508444  3
  10357  10360  10369  10378     1  0.0000000  0.6508444  3
  10363  10375  18623  18619     1  180.0000771  0.4184000  2
  10363  10375  18623  18619     1  0.0000000  1.6024720  3
  10366  10372  18600  18596     1  180.0000771  0.4184000  2
  10366  10372  18600  18596     1  0.0000000  1.6024720  3
  10372  18600  18596  18595     1  180.0000771  0.4184000  2
  10372  18600  18596  18595     1  0.0000000  1.6024720  3
  10372  18600  18596  18612     1  180.0000771  5.6484000  1
  10372  18600  18596  18612     1  180.0000771  3.5564000  2
  10372  18600  18596  18612     1  0.0000000  0.4184000  3
  10375  18623  18619  18635     1  180.0000771  5.6484000  1
  10375  18623  18619  18635     1  180.0000771  3.5564000  2
  10375  18623  18619  18635     1  0.0000000  0.4184000  3
  10375  18623  18619  18618     1  180.0000771  0.4184000  2
  10375  18623  18619  18618     1  0.0000000  1.6024720  3
  10380  10381  10393  10405     1  0.0000000  0.6508444  3
  10380  10384  10396  10402     1  0.0000000  0.6508444  3
  10380  10387  10390  10399     1  0.0000000  0.6508444  3
  10381  10380  10384  10396     1  0.0000000  0.6508444  3
  10381  10380  10387  10390     1  0.0000000  0.6508444  3
  10381  10393  10405  18669     1  0.0000000  0.6508444  3
  10384  10380  10381  10393     1  0.0000000  0.6508444  3
  10384  10380  10387  10390     1  0.0000000  0.6508444  3
  10384  10396  10402  18646     1  0.0000000  0.6508444  3
  10387  10380  10381  10393     1  0.0000000  0.6508444  3
  10387  10380  10384  10396     1  0.0000000  0.6508444  3
  10387  10390  10399  10408     1  0.0000000  0.6508444  3
  10393  10405  18669  18665     1  180.0000771  0.4184000  2
  10393  10405  18669  18665     1  0.0000000  1.6024720  3
  10396  10402  18646  18642     1  180.0000771  0.4184000  2
  10396  10402  18646  18642     1  0.0000000  1.6024720  3
  10402  18646  18642  18641     1  180.0000771  0.4184000  2
  10402  18646  18642  18641     1  0.0000000  1.6024720  3
  10402  18646  18642  18658     1  180.0000771  5.6484000  1
  10402  18646  18642  18658     1  180.0000771  3.5564000  2
  10402  18646  18642  18658     1  0.0000000  0.4184000  3
  10405  18669  18665  18681     1  180.0000771  5.6484000  1
  10405  18669  18665  18681     1  180.0000771  3.5564000  2
  10405  18669  18665  18681     1  0.0000000  0.4184000  3
  10405  18669  18665  18664     1  180.0000771  0.4184000  2
  10405  18669  18665  18664     1  0.0000000  1.6024720  3
  10410  10411  10423  10435     1  0.0000000  0.6508444  3
  10410  10414  10426  10432     1  0.0000000  0.6508444  3
  10410  10417  10420  10429     1  0.0000000  0.6508444  3
  10411  10410  10414  10426     1  0.0000000  0.6508444  3
  10411  10410  10417  10420     1  0.0000000  0.6508444  3
  10411  10423  10435  18715     1  0.0000000  0.6508444  3
  10414  10410  10411  10423     1  0.0000000  0.6508444  3
  10414  10410  10417  10420     1  0.0000000  0.6508444  3
  10414  10426  10432  18692     1  0.0000000  0.6508444  3
  10417  10410  10411  10423     1  0.0000000  0.6508444  3
  10417  10410  10414  10426     1  0.0000000  0.6508444  3
  10417  10420  10429  10438     1  0.0000000  0.6508444  3
  10423  10435  18715  18711     1  180.0000771  0.4184000  2
  10423  10435  18715  18711     1  0.0000000  1.6024720  3
  10426  10432  18692  18688     1  180.0000771  0.4184000  2
  10426  10432  18692  18688     1  0.0000000  1.6024720  3
  10432  18692  18688  18687     1  180.0000771  0.4184000  2
  10432  18692  18688  18687     1  0.0000000  1.6024720  3
  10432  18692  18688  18704     1  180.0000771  5.6484000  1
  10432  18692  18688  18704     1  180.0000771  3.5564000  2
  10432  18692  18688  18704     1  0.0000000  0.4184000  3
  10435  18715  18711  18727     1  180.0000771  5.6484000  1
  10435  18715  18711  18727     1  180.0000771  3.5564000  2
  10435  18715  18711  18727     1  0.0000000  0.4184000  3
  10435  18715  18711  18710     1  180.0000771  0.4184000  2
  10435  18715  18711  18710     1  0.0000000  1.6024720  3
  10440  10441  10453  10465     1  0.0000000  0.6508444  3
  10440  10444  10456  10462     1  0.0000000  0.6508444  3
  10440  10447  10450  10459     1  0.0000000  0.6508444  3
  10441  10440  10444  10456     1  0.0000000  0.6508444  3
  10441  10440  10447  10450     1  0.0000000  0.6508444  3
  10441  10453  10465  18761     1  0.0000000  0.6508444  3
  10444  10440  10441  10453     1  0.0000000  0.6508444  3
  10444  10440  10447  10450     1  0.0000000  0.6508444  3
  10444  10456  10462  18738     1  0.0000000  0.6508444  3
  10447  10440  10441  10453     1  0.0000000  0.6508444  3
  10447  10440  10444  10456     1  0.0000000  0.6508444  3
  10447  10450  10459  10468     1  0.0000000  0.6508444  3
  10453  10465  18761  18757     1  180.0000771  0.4184000  2
  10453  10465  18761  18757     1  0.0000000  1.6024720  3
  10456  10462  18738  18734     1  180.0000771  0.4184000  2
  10456  10462  18738  18734     1  0.0000000  1.6024720  3
  10462  18738  18734  18733     1  180.0000771  0.4184000  2
  10462  18738  18734  18733     1  0.0000000  1.6024720  3
  10462  18738  18734  18750     1  180.0000771  5.6484000  1
  10462  18738  18734  18750     1  180.0000771  3.5564000  2
  10462  18738  18734  18750     1  0.0000000  0.4184000  3
  10465  18761  18757  18773     1  180.0000771  5.6484000  1
  10465  18761  18757  18773     1  180.0000771  3.5564000  2
  10465  18761  18757  18773     1  0.0000000  0.4184000  3
  10465  18761  18757  18756     1  180.0000771  0.4184000  2
  10465  18761  18757  18756     1  0.0000000  1.6024720  3
  10470  10471  10483  10495     1  0.0000000  0.6508444  3
  10470  10474  10486  10492     1  0.0000000  0.6508444  3
  10470  10477  10480  10489     1  0.0000000  0.6508444  3
  10471  10470  10474  10486     1  0.0000000  0.6508444  3
  10471  10470  10477  10480     1  0.0000000  0.6508444  3
  10471  10483  10495  18807     1  0.0000000  0.6508444  3
  10474  10470  10471  10483     1  0.0000000  0.6508444  3
  10474  10470  10477  10480     1  0.0000000  0.6508444  3
  10474  10486  10492  18784     1  0.0000000  0.6508444  3
  10477  10470  10471  10483     1  0.0000000  0.6508444  3
  10477  10470  10474  10486     1  0.0000000  0.6508444  3
  10477  10480  10489  10498     1  0.0000000  0.6508444  3
  10483  10495  18807  18803     1  180.0000771  0.4184000  2
  10483  10495  18807  18803     1  0.0000000  1.6024720  3
  10486  10492  18784  18780     1  180.0000771  0.4184000  2
  10486  10492  18784  18780     1  0.0000000  1.6024720  3
  10492  18784  18780  18779     1  180.0000771  0.4184000  2
  10492  18784  18780  18779     1  0.0000000  1.6024720  3
  10492  18784  18780  18796     1  180.0000771  5.6484000  1
  10492  18784  18780  18796     1  180.0000771  3.5564000  2
  10492  18784  18780  18796     1  0.0000000  0.4184000  3
  10495  18807  18803  18819     1  180.0000771  5.6484000  1
  10495  18807  18803  18819     1  180.0000771  3.5564000  2
  10495  18807  18803  18819     1  0.0000000  0.4184000  3
  10495  18807  18803  18802     1  180.0000771  0.4184000  2
  10495  18807  18803  18802     1  0.0000000  1.6024720  3
  10500  10501  10513  10525     1  0.0000000  0.6508444  3
  10500  10504  10516  10522     1  0.0000000  0.6508444  3
  10500  10507  10510  10519     1  0.0000000  0.6508444  3
  10501  10500  10504  10516     1  0.0000000  0.6508444  3
  10501  10500  10507  10510     1  0.0000000  0.6508444  3
  10501  10513  10525  18853     1  0.0000000  0.6508444  3
  10504  10500  10501  10513     1  0.0000000  0.6508444  3
  10504  10500  10507  10510     1  0.0000000  0.6508444  3
  10504  10516  10522  18830     1  0.0000000  0.6508444  3
  10507  10500  10501  10513     1  0.0000000  0.6508444  3
  10507  10500  10504  10516     1  0.0000000  0.6508444  3
  10507  10510  10519  10528     1  0.0000000  0.6508444  3
  10513  10525  18853  18849     1  180.0000771  0.4184000  2
  10513  10525  18853  18849     1  0.0000000  1.6024720  3
  10516  10522  18830  18826     1  180.0000771  0.4184000  2
  10516  10522  18830  18826     1  0.0000000  1.6024720  3
  10522  18830  18826  18825     1  180.0000771  0.4184000  2
  10522  18830  18826  18825     1  0.0000000  1.6024720  3
  10522  18830  18826  18842     1  180.0000771  5.6484000  1
  10522  18830  18826  18842     1  180.0000771  3.5564000  2
  10522  18830  18826  18842     1  0.0000000  0.4184000  3
  10525  18853  18849  18865     1  180.0000771  5.6484000  1
  10525  18853  18849  18865     1  180.0000771  3.5564000  2
  10525  18853  18849  18865     1  0.0000000  0.4184000  3
  10525  18853  18849  18848     1  180.0000771  0.4184000  2
  10525  18853  18849  18848     1  0.0000000  1.6024720  3
  10530  10531  10543  10555     1  0.0000000  0.6508444  3
  10530  10534  10546  10552     1  0.0000000  0.6508444  3
  10530  10537  10540  10549     1  0.0000000  0.6508444  3
  10531  10530  10534  10546     1  0.0000000  0.6508444  3
  10531  10530  10537  10540     1  0.0000000  0.6508444  3
  10531  10543  10555  18899     1  0.0000000  0.6508444  3
  10534  10530  10531  10543     1  0.0000000  0.6508444  3
  10534  10530  10537  10540     1  0.0000000  0.6508444  3
  10534  10546  10552  18876     1  0.0000000  0.6508444  3
  10537  10530  10531  10543     1  0.0000000  0.6508444  3
  10537  10530  10534  10546     1  0.0000000  0.6508444  3
  10537  10540  10549  10558     1  0.0000000  0.6508444  3
  10543  10555  18899  18895     1  180.0000771  0.4184000  2
  10543  10555  18899  18895     1  0.0000000  1.6024720  3
  10546  10552  18876  18872     1  180.0000771  0.4184000  2
  10546  10552  18876  18872     1  0.0000000  1.6024720  3
  10552  18876  18872  18871     1  180.0000771  0.4184000  2
  10552  18876  18872  18871     1  0.0000000  1.6024720  3
  10552  18876  18872  18888     1  180.0000771  5.6484000  1
  10552  18876  18872  18888     1  180.0000771  3.5564000  2
  10552  18876  18872  18888     1  0.0000000  0.4184000  3
  10555  18899  18895  18911     1  180.0000771  5.6484000  1
  10555  18899  18895  18911     1  180.0000771  3.5564000  2
  10555  18899  18895  18911     1  0.0000000  0.4184000  3
  10555  18899  18895  18894     1  180.0000771  0.4184000  2
  10555  18899  18895  18894     1  0.0000000  1.6024720  3
  10560  10561  10573  10585     1  0.0000000  0.6508444  3
  10560  10564  10576  10582     1  0.0000000  0.6508444  3
  10560  10567  10570  10579     1  0.0000000  0.6508444  3
  10561  10560  10564  10576     1  0.0000000  0.6508444  3
  10561  10560  10567  10570     1  0.0000000  0.6508444  3
  10561  10573  10585  18945     1  0.0000000  0.6508444  3
  10564  10560  10561  10573     1  0.0000000  0.6508444  3
  10564  10560  10567  10570     1  0.0000000  0.6508444  3
  10564  10576  10582  18922     1  0.0000000  0.6508444  3
  10567  10560  10561  10573     1  0.0000000  0.6508444  3
  10567  10560  10564  10576     1  0.0000000  0.6508444  3
  10567  10570  10579  10588     1  0.0000000  0.6508444  3
  10573  10585  18945  18941     1  180.0000771  0.4184000  2
  10573  10585  18945  18941     1  0.0000000  1.6024720  3
  10576  10582  18922  18918     1  180.0000771  0.4184000  2
  10576  10582  18922  18918     1  0.0000000  1.6024720  3
  10582  18922  18918  18917     1  180.0000771  0.4184000  2
  10582  18922  18918  18917     1  0.0000000  1.6024720  3
  10582  18922  18918  18934     1  180.0000771  5.6484000  1
  10582  18922  18918  18934     1  180.0000771  3.5564000  2
  10582  18922  18918  18934     1  0.0000000  0.4184000  3
  10585  18945  18941  18957     1  180.0000771  5.6484000  1
  10585  18945  18941  18957     1  180.0000771  3.5564000  2
  10585  18945  18941  18957     1  0.0000000  0.4184000  3
  10585  18945  18941  18940     1  180.0000771  0.4184000  2
  10585  18945  18941  18940     1  0.0000000  1.6024720  3
  10590  10591  10603  10615     1  0.0000000  0.6508444  3
  10590  10594  10606  10612     1  0.0000000  0.6508444  3
  10590  10597  10600  10609     1  0.0000000  0.6508444  3
  10591  10590  10594  10606     1  0.0000000  0.6508444  3
  10591  10590  10597  10600     1  0.0000000  0.6508444  3
  10591  10603  10615  18991     1  0.0000000  0.6508444  3
  10594  10590  10591  10603     1  0.0000000  0.6508444  3
  10594  10590  10597  10600     1  0.0000000  0.6508444  3
  10594  10606  10612  18968     1  0.0000000  0.6508444  3
  10597  10590  10591  10603     1  0.0000000  0.6508444  3
  10597  10590  10594  10606     1  0.0000000  0.6508444  3
  10597  10600  10609  10618     1  0.0000000  0.6508444  3
  10603  10615  18991  18987     1  180.0000771  0.4184000  2
  10603  10615  18991  18987     1  0.0000000  1.6024720  3
  10606  10612  18968  18964     1  180.0000771  0.4184000  2
  10606  10612  18968  18964     1  0.0000000  1.6024720  3
  10612  18968  18964  18963     1  180.0000771  0.4184000  2
  10612  18968  18964  18963     1  0.0000000  1.6024720  3
  10612  18968  18964  18980     1  180.0000771  5.6484000  1
  10612  18968  18964  18980     1  180.0000771  3.5564000  2
  10612  18968  18964  18980     1  0.0000000  0.4184000  3
  10615  18991  18987  19003     1  180.0000771  5.6484000  1
  10615  18991  18987  19003     1  180.0000771  3.5564000  2
  10615  18991  18987  19003     1  0.0000000  0.4184000  3
  10615  18991  18987  18986     1  180.0000771  0.4184000  2
  10615  18991  18987  18986     1  0.0000000  1.6024720  3
  10620  10621  10633  10645     1  0.0000000  0.6508444  3
  10620  10624  10636  10642     1  0.0000000  0.6508444  3
  10620  10627  10630  10639     1  0.0000000  0.6508444  3
  10621  10620  10624  10636     1  0.0000000  0.6508444  3
  10621  10620  10627  10630     1  0.0000000  0.6508444  3
  10621  10633  10645  19037     1  0.0000000  0.6508444  3
  10624  10620  10621  10633     1  0.0000000  0.6508444  3
  10624  10620  10627  10630     1  0.0000000  0.6508444  3
  10624  10636  10642  19014     1  0.0000000  0.6508444  3
  10627  10620  10621  10633     1  0.0000000  0.6508444  3
  10627  10620  10624  10636     1  0.0000000  0.6508444  3
  10627  10630  10639  10648     1  0.0000000  0.6508444  3
  10633  10645  19037  19033     1  180.0000771  0.4184000  2
  10633  10645  19037  19033     1  0.0000000  1.6024720  3
  10636  10642  19014  19010     1  180.0000771  0.4184000  2
  10636  10642  19014  19010     1  0.0000000  1.6024720  3
  10642  19014  19010  19009     1  180.0000771  0.4184000  2
  10642  19014  19010  19009     1  0.0000000  1.6024720  3
  10642  19014  19010  19026     1  180.0000771  5.6484000  1
  10642  19014  19010  19026     1  180.0000771  3.5564000  2
  10642  19014  19010  19026     1  0.0000000  0.4184000  3
  10645  19037  19033  19049     1  180.0000771  5.6484000  1
  10645  19037  19033  19049     1  180.0000771  3.5564000  2
  10645  19037  19033  19049     1  0.0000000  0.4184000  3
  10645  19037  19033  19032     1  180.0000771  0.4184000  2
  10645  19037  19033  19032     1  0.0000000  1.6024720  3
  10650  10651  10663  10675     1  0.0000000  0.6508444  3
  10650  10654  10666  10672     1  0.0000000  0.6508444  3
  10650  10657  10660  10669     1  0.0000000  0.6508444  3
  10651  10650  10654  10666     1  0.0000000  0.6508444  3
  10651  10650  10657  10660     1  0.0000000  0.6508444  3
  10651  10663  10675  19083     1  0.0000000  0.6508444  3
  10654  10650  10651  10663     1  0.0000000  0.6508444  3
  10654  10650  10657  10660     1  0.0000000  0.6508444  3
  10654  10666  10672  19060     1  0.0000000  0.6508444  3
  10657  10650  10651  10663     1  0.0000000  0.6508444  3
  10657  10650  10654  10666     1  0.0000000  0.6508444  3
  10657  10660  10669  10678     1  0.0000000  0.6508444  3
  10663  10675  19083  19079     1  180.0000771  0.4184000  2
  10663  10675  19083  19079     1  0.0000000  1.6024720  3
  10666  10672  19060  19056     1  180.0000771  0.4184000  2
  10666  10672  19060  19056     1  0.0000000  1.6024720  3
  10672  19060  19056  19055     1  180.0000771  0.4184000  2
  10672  19060  19056  19055     1  0.0000000  1.6024720  3
  10672  19060  19056  19072     1  180.0000771  5.6484000  1
  10672  19060  19056  19072     1  180.0000771  3.5564000  2
  10672  19060  19056  19072     1  0.0000000  0.4184000  3
  10675  19083  19079  19095     1  180.0000771  5.6484000  1
  10675  19083  19079  19095     1  180.0000771  3.5564000  2
  10675  19083  19079  19095     1  0.0000000  0.4184000  3
  10675  19083  19079  19078     1  180.0000771  0.4184000  2
  10675  19083  19079  19078     1  0.0000000  1.6024720  3
  10680  10681  10693  10705     1  0.0000000  0.6508444  3
  10680  10684  10696  10702     1  0.0000000  0.6508444  3
  10680  10687  10690  10699     1  0.0000000  0.6508444  3
  10681  10680  10684  10696     1  0.0000000  0.6508444  3
  10681  10680  10687  10690     1  0.0000000  0.6508444  3
  10681  10693  10705  19129     1  0.0000000  0.6508444  3
  10684  10680  10681  10693     1  0.0000000  0.6508444  3
  10684  10680  10687  10690     1  0.0000000  0.6508444  3
  10684  10696  10702  19106     1  0.0000000  0.6508444  3
  10687  10680  10681  10693     1  0.0000000  0.6508444  3
  10687  10680  10684  10696     1  0.0000000  0.6508444  3
  10687  10690  10699  10708     1  0.0000000  0.6508444  3
  10693  10705  19129  19125     1  180.0000771  0.4184000  2
  10693  10705  19129  19125     1  0.0000000  1.6024720  3
  10696  10702  19106  19102     1  180.0000771  0.4184000  2
  10696  10702  19106  19102     1  0.0000000  1.6024720  3
  10702  19106  19102  19101     1  180.0000771  0.4184000  2
  10702  19106  19102  19101     1  0.0000000  1.6024720  3
  10702  19106  19102  19118     1  180.0000771  5.6484000  1
  10702  19106  19102  19118     1  180.0000771  3.5564000  2
  10702  19106  19102  19118     1  0.0000000  0.4184000  3
  10705  19129  19125  19141     1  180.0000771  5.6484000  1
  10705  19129  19125  19141     1  180.0000771  3.5564000  2
  10705  19129  19125  19141     1  0.0000000  0.4184000  3
  10705  19129  19125  19124     1  180.0000771  0.4184000  2
  10705  19129  19125  19124     1  0.0000000  1.6024720  3
  10710  10711  10723  10735     1  0.0000000  0.6508444  3
  10710  10714  10726  10732     1  0.0000000  0.6508444  3
  10710  10717  10720  10729     1  0.0000000  0.6508444  3
  10711  10710  10714  10726     1  0.0000000  0.6508444  3
  10711  10710  10717  10720     1  0.0000000  0.6508444  3
  10711  10723  10735  19175     1  0.0000000  0.6508444  3
  10714  10710  10711  10723     1  0.0000000  0.6508444  3
  10714  10710  10717  10720     1  0.0000000  0.6508444  3
  10714  10726  10732  19152     1  0.0000000  0.6508444  3
  10717  10710  10711  10723     1  0.0000000  0.6508444  3
  10717  10710  10714  10726     1  0.0000000  0.6508444  3
  10717  10720  10729  10738     1  0.0000000  0.6508444  3
  10723  10735  19175  19171     1  180.0000771  0.4184000  2
  10723  10735  19175  19171     1  0.0000000  1.6024720  3
  10726  10732  19152  19148     1  180.0000771  0.4184000  2
  10726  10732  19152  19148     1  0.0000000  1.6024720  3
  10732  19152  19148  19147     1  180.0000771  0.4184000  2
  10732  19152  19148  19147     1  0.0000000  1.6024720  3
  10732  19152  19148  19164     1  180.0000771  5.6484000  1
  10732  19152  19148  19164     1  180.0000771  3.5564000  2
  10732  19152  19148  19164     1  0.0000000  0.4184000  3
  10735  19175  19171  19187     1  180.0000771  5.6484000  1
  10735  19175  19171  19187     1  180.0000771  3.5564000  2
  10735  19175  19171  19187     1  0.0000000  0.4184000  3
  10735  19175  19171  19170     1  180.0000771  0.4184000  2
  10735  19175  19171  19170     1  0.0000000  1.6024720  3
  10740  10741  10753  10765     1  0.0000000  0.6508444  3
  10740  10744  10756  10762     1  0.0000000  0.6508444  3
  10740  10747  10750  10759     1  0.0000000  0.6508444  3
  10741  10740  10744  10756     1  0.0000000  0.6508444  3
  10741  10740  10747  10750     1  0.0000000  0.6508444  3
  10741  10753  10765  19221     1  0.0000000  0.6508444  3
  10744  10740  10741  10753     1  0.0000000  0.6508444  3
  10744  10740  10747  10750     1  0.0000000  0.6508444  3
  10744  10756  10762  19198     1  0.0000000  0.6508444  3
  10747  10740  10741  10753     1  0.0000000  0.6508444  3
  10747  10740  10744  10756     1  0.0000000  0.6508444  3
  10747  10750  10759  10768     1  0.0000000  0.6508444  3
  10753  10765  19221  19217     1  180.0000771  0.4184000  2
  10753  10765  19221  19217     1  0.0000000  1.6024720  3
  10756  10762  19198  19194     1  180.0000771  0.4184000  2
  10756  10762  19198  19194     1  0.0000000  1.6024720  3
  10762  19198  19194  19193     1  180.0000771  0.4184000  2
  10762  19198  19194  19193     1  0.0000000  1.6024720  3
  10762  19198  19194  19210     1  180.0000771  5.6484000  1
  10762  19198  19194  19210     1  180.0000771  3.5564000  2
  10762  19198  19194  19210     1  0.0000000  0.4184000  3
  10765  19221  19217  19233     1  180.0000771  5.6484000  1
  10765  19221  19217  19233     1  180.0000771  3.5564000  2
  10765  19221  19217  19233     1  0.0000000  0.4184000  3
  10765  19221  19217  19216     1  180.0000771  0.4184000  2
  10765  19221  19217  19216     1  0.0000000  1.6024720  3
  10770  10771  10783  10795     1  0.0000000  0.6508444  3
  10770  10774  10786  10792     1  0.0000000  0.6508444  3
  10770  10777  10780  10789     1  0.0000000  0.6508444  3
  10771  10770  10774  10786     1  0.0000000  0.6508444  3
  10771  10770  10777  10780     1  0.0000000  0.6508444  3
  10771  10783  10795  19267     1  0.0000000  0.6508444  3
  10774  10770  10771  10783     1  0.0000000  0.6508444  3
  10774  10770  10777  10780     1  0.0000000  0.6508444  3
  10774  10786  10792  19244     1  0.0000000  0.6508444  3
  10777  10770  10771  10783     1  0.0000000  0.6508444  3
  10777  10770  10774  10786     1  0.0000000  0.6508444  3
  10777  10780  10789  10798     1  0.0000000  0.6508444  3
  10783  10795  19267  19263     1  180.0000771  0.4184000  2
  10783  10795  19267  19263     1  0.0000000  1.6024720  3
  10786  10792  19244  19240     1  180.0000771  0.4184000  2
  10786  10792  19244  19240     1  0.0000000  1.6024720  3
  10792  19244  19240  19239     1  180.0000771  0.4184000  2
  10792  19244  19240  19239     1  0.0000000  1.6024720  3
  10792  19244  19240  19256     1  180.0000771  5.6484000  1
  10792  19244  19240  19256     1  180.0000771  3.5564000  2
  10792  19244  19240  19256     1  0.0000000  0.4184000  3
  10795  19267  19263  19279     1  180.0000771  5.6484000  1
  10795  19267  19263  19279     1  180.0000771  3.5564000  2
  10795  19267  19263  19279     1  0.0000000  0.4184000  3
  10795  19267  19263  19262     1  180.0000771  0.4184000  2
  10795  19267  19263  19262     1  0.0000000  1.6024720  3
  10800  10801  10813  10825     1  0.0000000  0.6508444  3
  10800  10804  10816  10822     1  0.0000000  0.6508444  3
  10800  10807  10810  10819     1  0.0000000  0.6508444  3
  10801  10800  10804  10816     1  0.0000000  0.6508444  3
  10801  10800  10807  10810     1  0.0000000  0.6508444  3
  10801  10813  10825  19313     1  0.0000000  0.6508444  3
  10804  10800  10801  10813     1  0.0000000  0.6508444  3
  10804  10800  10807  10810     1  0.0000000  0.6508444  3
  10804  10816  10822  19290     1  0.0000000  0.6508444  3
  10807  10800  10801  10813     1  0.0000000  0.6508444  3
  10807  10800  10804  10816     1  0.0000000  0.6508444  3
  10807  10810  10819  10828     1  0.0000000  0.6508444  3
  10813  10825  19313  19309     1  180.0000771  0.4184000  2
  10813  10825  19313  19309     1  0.0000000  1.6024720  3
  10816  10822  19290  19286     1  180.0000771  0.4184000  2
  10816  10822  19290  19286     1  0.0000000  1.6024720  3
  10822  19290  19286  19285     1  180.0000771  0.4184000  2
  10822  19290  19286  19285     1  0.0000000  1.6024720  3
  10822  19290  19286  19302     1  180.0000771  5.6484000  1
  10822  19290  19286  19302     1  180.0000771  3.5564000  2
  10822  19290  19286  19302     1  0.0000000  0.4184000  3
  10825  19313  19309  19325     1  180.0000771  5.6484000  1
  10825  19313  19309  19325     1  180.0000771  3.5564000  2
  10825  19313  19309  19325     1  0.0000000  0.4184000  3
  10825  19313  19309  19308     1  180.0000771  0.4184000  2
  10825  19313  19309  19308     1  0.0000000  1.6024720  3
  10830  10831  10843  10855     1  0.0000000  0.6508444  3
  10830  10834  10846  10852     1  0.0000000  0.6508444  3
  10830  10837  10840  10849     1  0.0000000  0.6508444  3
  10831  10830  10834  10846     1  0.0000000  0.6508444  3
  10831  10830  10837  10840     1  0.0000000  0.6508444  3
  10831  10843  10855  19359     1  0.0000000  0.6508444  3
  10834  10830  10831  10843     1  0.0000000  0.6508444  3
  10834  10830  10837  10840     1  0.0000000  0.6508444  3
  10834  10846  10852  19336     1  0.0000000  0.6508444  3
  10837  10830  10831  10843     1  0.0000000  0.6508444  3
  10837  10830  10834  10846     1  0.0000000  0.6508444  3
  10837  10840  10849  10858     1  0.0000000  0.6508444  3
  10843  10855  19359  19355     1  180.0000771  0.4184000  2
  10843  10855  19359  19355     1  0.0000000  1.6024720  3
  10846  10852  19336  19332     1  180.0000771  0.4184000  2
  10846  10852  19336  19332     1  0.0000000  1.6024720  3
  10852  19336  19332  19331     1  180.0000771  0.4184000  2
  10852  19336  19332  19331     1  0.0000000  1.6024720  3
  10852  19336  19332  19348     1  180.0000771  5.6484000  1
  10852  19336  19332  19348     1  180.0000771  3.5564000  2
  10852  19336  19332  19348     1  0.0000000  0.4184000  3
  10855  19359  19355  19371     1  180.0000771  5.6484000  1
  10855  19359  19355  19371     1  180.0000771  3.5564000  2
  10855  19359  19355  19371     1  0.0000000  0.4184000  3
  10855  19359  19355  19354     1  180.0000771  0.4184000  2
  10855  19359  19355  19354     1  0.0000000  1.6024720  3
  10860  10861  10873  10885     1  0.0000000  0.6508444  3
  10860  10864  10876  10882     1  0.0000000  0.6508444  3
  10860  10867  10870  10879     1  0.0000000  0.6508444  3
  10861  10860  10864  10876     1  0.0000000  0.6508444  3
  10861  10860  10867  10870     1  0.0000000  0.6508444  3
  10861  10873  10885  19405     1  0.0000000  0.6508444  3
  10864  10860  10861  10873     1  0.0000000  0.6508444  3
  10864  10860  10867  10870     1  0.0000000  0.6508444  3
  10864  10876  10882  19382     1  0.0000000  0.6508444  3
  10867  10860  10861  10873     1  0.0000000  0.6508444  3
  10867  10860  10864  10876     1  0.0000000  0.6508444  3
  10867  10870  10879  10888     1  0.0000000  0.6508444  3
  10873  10885  19405  19401     1  180.0000771  0.4184000  2
  10873  10885  19405  19401     1  0.0000000  1.6024720  3
  10876  10882  19382  19378     1  180.0000771  0.4184000  2
  10876  10882  19382  19378     1  0.0000000  1.6024720  3
  10882  19382  19378  19377     1  180.0000771  0.4184000  2
  10882  19382  19378  19377     1  0.0000000  1.6024720  3
  10882  19382  19378  19394     1  180.0000771  5.6484000  1
  10882  19382  19378  19394     1  180.0000771  3.5564000  2
  10882  19382  19378  19394     1  0.0000000  0.4184000  3
  10885  19405  19401  19417     1  180.0000771  5.6484000  1
  10885  19405  19401  19417     1  180.0000771  3.5564000  2
  10885  19405  19401  19417     1  0.0000000  0.4184000  3
  10885  19405  19401  19400     1  180.0000771  0.4184000  2
  10885  19405  19401  19400     1  0.0000000  1.6024720  3
  10890  10891  10903  10915     1  0.0000000  0.6508444  3
  10890  10894  10906  10912     1  0.0000000  0.6508444  3
  10890  10897  10900  10909     1  0.0000000  0.6508444  3
  10891  10890  10894  10906     1  0.0000000  0.6508444  3
  10891  10890  10897  10900     1  0.0000000  0.6508444  3
  10891  10903  10915  19451     1  0.0000000  0.6508444  3
  10894  10890  10891  10903     1  0.0000000  0.6508444  3
  10894  10890  10897  10900     1  0.0000000  0.6508444  3
  10894  10906  10912  19428     1  0.0000000  0.6508444  3
  10897  10890  10891  10903     1  0.0000000  0.6508444  3
  10897  10890  10894  10906     1  0.0000000  0.6508444  3
  10897  10900  10909  10918     1  0.0000000  0.6508444  3
  10903  10915  19451  19447     1  180.0000771  0.4184000  2
  10903  10915  19451  19447     1  0.0000000  1.6024720  3
  10906  10912  19428  19424     1  180.0000771  0.4184000  2
  10906  10912  19428  19424     1  0.0000000  1.6024720  3
  10912  19428  19424  19423     1  180.0000771  0.4184000  2
  10912  19428  19424  19423     1  0.0000000  1.6024720  3
  10912  19428  19424  19440     1  180.0000771  5.6484000  1
  10912  19428  19424  19440     1  180.0000771  3.5564000  2
  10912  19428  19424  19440     1  0.0000000  0.4184000  3
  10915  19451  19447  19463     1  180.0000771  5.6484000  1
  10915  19451  19447  19463     1  180.0000771  3.5564000  2
  10915  19451  19447  19463     1  0.0000000  0.4184000  3
  10915  19451  19447  19446     1  180.0000771  0.4184000  2
  10915  19451  19447  19446     1  0.0000000  1.6024720  3
  10920  10921  10933  10945     1  0.0000000  0.6508444  3
  10920  10924  10936  10942     1  0.0000000  0.6508444  3
  10920  10927  10930  10939     1  0.0000000  0.6508444  3
  10921  10920  10924  10936     1  0.0000000  0.6508444  3
  10921  10920  10927  10930     1  0.0000000  0.6508444  3
  10921  10933  10945  19497     1  0.0000000  0.6508444  3
  10924  10920  10921  10933     1  0.0000000  0.6508444  3
  10924  10920  10927  10930     1  0.0000000  0.6508444  3
  10924  10936  10942  19474     1  0.0000000  0.6508444  3
  10927  10920  10921  10933     1  0.0000000  0.6508444  3
  10927  10920  10924  10936     1  0.0000000  0.6508444  3
  10927  10930  10939  10948     1  0.0000000  0.6508444  3
  10933  10945  19497  19493     1  180.0000771  0.4184000  2
  10933  10945  19497  19493     1  0.0000000  1.6024720  3
  10936  10942  19474  19470     1  180.0000771  0.4184000  2
  10936  10942  19474  19470     1  0.0000000  1.6024720  3
  10942  19474  19470  19469     1  180.0000771  0.4184000  2
  10942  19474  19470  19469     1  0.0000000  1.6024720  3
  10942  19474  19470  19486     1  180.0000771  5.6484000  1
  10942  19474  19470  19486     1  180.0000771  3.5564000  2
  10942  19474  19470  19486     1  0.0000000  0.4184000  3
  10945  19497  19493  19509     1  180.0000771  5.6484000  1
  10945  19497  19493  19509     1  180.0000771  3.5564000  2
  10945  19497  19493  19509     1  0.0000000  0.4184000  3
  10945  19497  19493  19492     1  180.0000771  0.4184000  2
  10945  19497  19493  19492     1  0.0000000  1.6024720  3
  10950  10951  10963  10975     1  0.0000000  0.6508444  3
  10950  10954  10966  10972     1  0.0000000  0.6508444  3
  10950  10957  10960  10969     1  0.0000000  0.6508444  3
  10951  10950  10954  10966     1  0.0000000  0.6508444  3
  10951  10950  10957  10960     1  0.0000000  0.6508444  3
  10951  10963  10975  19543     1  0.0000000  0.6508444  3
  10954  10950  10951  10963     1  0.0000000  0.6508444  3
  10954  10950  10957  10960     1  0.0000000  0.6508444  3
  10954  10966  10972  19520     1  0.0000000  0.6508444  3
  10957  10950  10951  10963     1  0.0000000  0.6508444  3
  10957  10950  10954  10966     1  0.0000000  0.6508444  3
  10957  10960  10969  10978     1  0.0000000  0.6508444  3
  10963  10975  19543  19539     1  180.0000771  0.4184000  2
  10963  10975  19543  19539     1  0.0000000  1.6024720  3
  10966  10972  19520  19516     1  180.0000771  0.4184000  2
  10966  10972  19520  19516     1  0.0000000  1.6024720  3
  10972  19520  19516  19515     1  180.0000771  0.4184000  2
  10972  19520  19516  19515     1  0.0000000  1.6024720  3
  10972  19520  19516  19532     1  180.0000771  5.6484000  1
  10972  19520  19516  19532     1  180.0000771  3.5564000  2
  10972  19520  19516  19532     1  0.0000000  0.4184000  3
  10975  19543  19539  19555     1  180.0000771  5.6484000  1
  10975  19543  19539  19555     1  180.0000771  3.5564000  2
  10975  19543  19539  19555     1  0.0000000  0.4184000  3
  10975  19543  19539  19538     1  180.0000771  0.4184000  2
  10975  19543  19539  19538     1  0.0000000  1.6024720  3
  10980  10981  10993  11005     1  0.0000000  0.6508444  3
  10980  10984  10996  11002     1  0.0000000  0.6508444  3
  10980  10987  10990  10999     1  0.0000000  0.6508444  3
  10981  10980  10984  10996     1  0.0000000  0.6508444  3
  10981  10980  10987  10990     1  0.0000000  0.6508444  3
  10981  10993  11005  19589     1  0.0000000  0.6508444  3
  10984  10980  10981  10993     1  0.0000000  0.6508444  3
  10984  10980  10987  10990     1  0.0000000  0.6508444  3
  10984  10996  11002  19566     1  0.0000000  0.6508444  3
  10987  10980  10981  10993     1  0.0000000  0.6508444  3
  10987  10980  10984  10996     1  0.0000000  0.6508444  3
  10987  10990  10999  11008     1  0.0000000  0.6508444  3
  10993  11005  19589  19585     1  180.0000771  0.4184000  2
  10993  11005  19589  19585     1  0.0000000  1.6024720  3
  10996  11002  19566  19562     1  180.0000771  0.4184000  2
  10996  11002  19566  19562     1  0.0000000  1.6024720  3
  11002  19566  19562  19561     1  180.0000771  0.4184000  2
  11002  19566  19562  19561     1  0.0000000  1.6024720  3
  11002  19566  19562  19578     1  180.0000771  5.6484000  1
  11002  19566  19562  19578     1  180.0000771  3.5564000  2
  11002  19566  19562  19578     1  0.0000000  0.4184000  3
  11005  19589  19585  19601     1  180.0000771  5.6484000  1
  11005  19589  19585  19601     1  180.0000771  3.5564000  2
  11005  19589  19585  19601     1  0.0000000  0.4184000  3
  11005  19589  19585  19584     1  180.0000771  0.4184000  2
  11005  19589  19585  19584     1  0.0000000  1.6024720  3
  11010  11011  11023  11035     1  0.0000000  0.6508444  3
  11010  11014  11026  11032     1  0.0000000  0.6508444  3
  11010  11017  11020  11029     1  0.0000000  0.6508444  3
  11011  11010  11014  11026     1  0.0000000  0.6508444  3
  11011  11010  11017  11020     1  0.0000000  0.6508444  3
  11011  11023  11035  19635     1  0.0000000  0.6508444  3
  11014  11010  11011  11023     1  0.0000000  0.6508444  3
  11014  11010  11017  11020     1  0.0000000  0.6508444  3
  11014  11026  11032  19612     1  0.0000000  0.6508444  3
  11017  11010  11011  11023     1  0.0000000  0.6508444  3
  11017  11010  11014  11026     1  0.0000000  0.6508444  3
  11017  11020  11029  11038     1  0.0000000  0.6508444  3
  11023  11035  19635  19631     1  180.0000771  0.4184000  2
  11023  11035  19635  19631     1  0.0000000  1.6024720  3
  11026  11032  19612  19608     1  180.0000771  0.4184000  2
  11026  11032  19612  19608     1  0.0000000  1.6024720  3
  11032  19612  19608  19607     1  180.0000771  0.4184000  2
  11032  19612  19608  19607     1  0.0000000  1.6024720  3
  11032  19612  19608  19624     1  180.0000771  5.6484000  1
  11032  19612  19608  19624     1  180.0000771  3.5564000  2
  11032  19612  19608  19624     1  0.0000000  0.4184000  3
  11035  19635  19631  19647     1  180.0000771  5.6484000  1
  11035  19635  19631  19647     1  180.0000771  3.5564000  2
  11035  19635  19631  19647     1  0.0000000  0.4184000  3
  11035  19635  19631  19630     1  180.0000771  0.4184000  2
  11035  19635  19631  19630     1  0.0000000  1.6024720  3
  11040  11041  11053  11065     1  0.0000000  0.6508444  3
  11040  11044  11056  11062     1  0.0000000  0.6508444  3
  11040  11047  11050  11059     1  0.0000000  0.6508444  3
  11041  11040  11044  11056     1  0.0000000  0.6508444  3
  11041  11040  11047  11050     1  0.0000000  0.6508444  3
  11041  11053  11065  19681     1  0.0000000  0.6508444  3
  11044  11040  11041  11053     1  0.0000000  0.6508444  3
  11044  11040  11047  11050     1  0.0000000  0.6508444  3
  11044  11056  11062  19658     1  0.0000000  0.6508444  3
  11047  11040  11041  11053     1  0.0000000  0.6508444  3
  11047  11040  11044  11056     1  0.0000000  0.6508444  3
  11047  11050  11059  11068     1  0.0000000  0.6508444  3
  11053  11065  19681  19677     1  180.0000771  0.4184000  2
  11053  11065  19681  19677     1  0.0000000  1.6024720  3
  11056  11062  19658  19654     1  180.0000771  0.4184000  2
  11056  11062  19658  19654     1  0.0000000  1.6024720  3
  11062  19658  19654  19653     1  180.0000771  0.4184000  2
  11062  19658  19654  19653     1  0.0000000  1.6024720  3
  11062  19658  19654  19670     1  180.0000771  5.6484000  1
  11062  19658  19654  19670     1  180.0000771  3.5564000  2
  11062  19658  19654  19670     1  0.0000000  0.4184000  3
  11065  19681  19677  19693     1  180.0000771  5.6484000  1
  11065  19681  19677  19693     1  180.0000771  3.5564000  2
  11065  19681  19677  19693     1  0.0000000  0.4184000  3
  11065  19681  19677  19676     1  180.0000771  0.4184000  2
  11065  19681  19677  19676     1  0.0000000  1.6024720  3
  11070  11071  11083  11095     1  0.0000000  0.6508444  3
  11070  11074  11086  11092     1  0.0000000  0.6508444  3
  11070  11077  11080  11089     1  0.0000000  0.6508444  3
  11071  11070  11074  11086     1  0.0000000  0.6508444  3
  11071  11070  11077  11080     1  0.0000000  0.6508444  3
  11071  11083  11095  19727     1  0.0000000  0.6508444  3
  11074  11070  11071  11083     1  0.0000000  0.6508444  3
  11074  11070  11077  11080     1  0.0000000  0.6508444  3
  11074  11086  11092  19704     1  0.0000000  0.6508444  3
  11077  11070  11071  11083     1  0.0000000  0.6508444  3
  11077  11070  11074  11086     1  0.0000000  0.6508444  3
  11077  11080  11089  11098     1  0.0000000  0.6508444  3
  11083  11095  19727  19723     1  180.0000771  0.4184000  2
  11083  11095  19727  19723     1  0.0000000  1.6024720  3
  11086  11092  19704  19700     1  180.0000771  0.4184000  2
  11086  11092  19704  19700     1  0.0000000  1.6024720  3
  11092  19704  19700  19699     1  180.0000771  0.4184000  2
  11092  19704  19700  19699     1  0.0000000  1.6024720  3
  11092  19704  19700  19716     1  180.0000771  5.6484000  1
  11092  19704  19700  19716     1  180.0000771  3.5564000  2
  11092  19704  19700  19716     1  0.0000000  0.4184000  3
  11095  19727  19723  19739     1  180.0000771  5.6484000  1
  11095  19727  19723  19739     1  180.0000771  3.5564000  2
  11095  19727  19723  19739     1  0.0000000  0.4184000  3
  11095  19727  19723  19722     1  180.0000771  0.4184000  2
  11095  19727  19723  19722     1  0.0000000  1.6024720  3
  11100  11101  11113  11125     1  0.0000000  0.6508444  3
  11100  11104  11116  11122     1  0.0000000  0.6508444  3
  11100  11107  11110  11119     1  0.0000000  0.6508444  3
  11101  11100  11104  11116     1  0.0000000  0.6508444  3
  11101  11100  11107  11110     1  0.0000000  0.6508444  3
  11101  11113  11125  19773     1  0.0000000  0.6508444  3
  11104  11100  11101  11113     1  0.0000000  0.6508444  3
  11104  11100  11107  11110     1  0.0000000  0.6508444  3
  11104  11116  11122  19750     1  0.0000000  0.6508444  3
  11107  11100  11101  11113     1  0.0000000  0.6508444  3
  11107  11100  11104  11116     1  0.0000000  0.6508444  3
  11107  11110  11119  11128     1  0.0000000  0.6508444  3
  11113  11125  19773  19769     1  180.0000771  0.4184000  2
  11113  11125  19773  19769     1  0.0000000  1.6024720  3
  11116  11122  19750  19746     1  180.0000771  0.4184000  2
  11116  11122  19750  19746     1  0.0000000  1.6024720  3
  11122  19750  19746  19745     1  180.0000771  0.4184000  2
  11122  19750  19746  19745     1  0.0000000  1.6024720  3
  11122  19750  19746  19762     1  180.0000771  5.6484000  1
  11122  19750  19746  19762     1  180.0000771  3.5564000  2
  11122  19750  19746  19762     1  0.0000000  0.4184000  3
  11125  19773  19769  19785     1  180.0000771  5.6484000  1
  11125  19773  19769  19785     1  180.0000771  3.5564000  2
  11125  19773  19769  19785     1  0.0000000  0.4184000  3
  11125  19773  19769  19768     1  180.0000771  0.4184000  2
  11125  19773  19769  19768     1  0.0000000  1.6024720  3
  11130  11131  11143  11155     1  0.0000000  0.6508444  3
  11130  11134  11146  11152     1  0.0000000  0.6508444  3
  11130  11137  11140  11149     1  0.0000000  0.6508444  3
  11131  11130  11134  11146     1  0.0000000  0.6508444  3
  11131  11130  11137  11140     1  0.0000000  0.6508444  3
  11131  11143  11155  19819     1  0.0000000  0.6508444  3
  11134  11130  11131  11143     1  0.0000000  0.6508444  3
  11134  11130  11137  11140     1  0.0000000  0.6508444  3
  11134  11146  11152  19796     1  0.0000000  0.6508444  3
  11137  11130  11131  11143     1  0.0000000  0.6508444  3
  11137  11130  11134  11146     1  0.0000000  0.6508444  3
  11137  11140  11149  11158     1  0.0000000  0.6508444  3
  11143  11155  19819  19815     1  180.0000771  0.4184000  2
  11143  11155  19819  19815     1  0.0000000  1.6024720  3
  11146  11152  19796  19792     1  180.0000771  0.4184000  2
  11146  11152  19796  19792     1  0.0000000  1.6024720  3
  11152  19796  19792  19791     1  180.0000771  0.4184000  2
  11152  19796  19792  19791     1  0.0000000  1.6024720  3
  11152  19796  19792  19808     1  180.0000771  5.6484000  1
  11152  19796  19792  19808     1  180.0000771  3.5564000  2
  11152  19796  19792  19808     1  0.0000000  0.4184000  3
  11155  19819  19815  19831     1  180.0000771  5.6484000  1
  11155  19819  19815  19831     1  180.0000771  3.5564000  2
  11155  19819  19815  19831     1  0.0000000  0.4184000  3
  11155  19819  19815  19814     1  180.0000771  0.4184000  2
  11155  19819  19815  19814     1  0.0000000  1.6024720  3
  11160  11161  11173  11185     1  0.0000000  0.6508444  3
  11160  11164  11176  11182     1  0.0000000  0.6508444  3
  11160  11167  11170  11179     1  0.0000000  0.6508444  3
  11161  11160  11164  11176     1  0.0000000  0.6508444  3
  11161  11160  11167  11170     1  0.0000000  0.6508444  3
  11161  11173  11185  19865     1  0.0000000  0.6508444  3
  11164  11160  11161  11173     1  0.0000000  0.6508444  3
  11164  11160  11167  11170     1  0.0000000  0.6508444  3
  11164  11176  11182  19842     1  0.0000000  0.6508444  3
  11167  11160  11161  11173     1  0.0000000  0.6508444  3
  11167  11160  11164  11176     1  0.0000000  0.6508444  3
  11167  11170  11179  11188     1  0.0000000  0.6508444  3
  11173  11185  19865  19861     1  180.0000771  0.4184000  2
  11173  11185  19865  19861     1  0.0000000  1.6024720  3
  11176  11182  19842  19838     1  180.0000771  0.4184000  2
  11176  11182  19842  19838     1  0.0000000  1.6024720  3
  11182  19842  19838  19837     1  180.0000771  0.4184000  2
  11182  19842  19838  19837     1  0.0000000  1.6024720  3
  11182  19842  19838  19854     1  180.0000771  5.6484000  1
  11182  19842  19838  19854     1  180.0000771  3.5564000  2
  11182  19842  19838  19854     1  0.0000000  0.4184000  3
  11185  19865  19861  19877     1  180.0000771  5.6484000  1
  11185  19865  19861  19877     1  180.0000771  3.5564000  2
  11185  19865  19861  19877     1  0.0000000  0.4184000  3
  11185  19865  19861  19860     1  180.0000771  0.4184000  2
  11185  19865  19861  19860     1  0.0000000  1.6024720  3
  11190  11191  11203  11215     1  0.0000000  0.6508444  3
  11190  11194  11206  11212     1  0.0000000  0.6508444  3
  11190  11197  11200  11209     1  0.0000000  0.6508444  3
  11191  11190  11194  11206     1  0.0000000  0.6508444  3
  11191  11190  11197  11200     1  0.0000000  0.6508444  3
  11191  11203  11215  19911     1  0.0000000  0.6508444  3
  11194  11190  11191  11203     1  0.0000000  0.6508444  3
  11194  11190  11197  11200     1  0.0000000  0.6508444  3
  11194  11206  11212  19888     1  0.0000000  0.6508444  3
  11197  11190  11191  11203     1  0.0000000  0.6508444  3
  11197  11190  11194  11206     1  0.0000000  0.6508444  3
  11197  11200  11209  11218     1  0.0000000  0.6508444  3
  11203  11215  19911  19907     1  180.0000771  0.4184000  2
  11203  11215  19911  19907     1  0.0000000  1.6024720  3
  11206  11212  19888  19884     1  180.0000771  0.4184000  2
  11206  11212  19888  19884     1  0.0000000  1.6024720  3
  11212  19888  19884  19883     1  180.0000771  0.4184000  2
  11212  19888  19884  19883     1  0.0000000  1.6024720  3
  11212  19888  19884  19900     1  180.0000771  5.6484000  1
  11212  19888  19884  19900     1  180.0000771  3.5564000  2
  11212  19888  19884  19900     1  0.0000000  0.4184000  3
  11215  19911  19907  19923     1  180.0000771  5.6484000  1
  11215  19911  19907  19923     1  180.0000771  3.5564000  2
  11215  19911  19907  19923     1  0.0000000  0.4184000  3
  11215  19911  19907  19906     1  180.0000771  0.4184000  2
  11215  19911  19907  19906     1  0.0000000  1.6024720  3
  11220  11221  11233  11245     1  0.0000000  0.6508444  3
  11220  11224  11236  11242     1  0.0000000  0.6508444  3
  11220  11227  11230  11239     1  0.0000000  0.6508444  3
  11221  11220  11224  11236     1  0.0000000  0.6508444  3
  11221  11220  11227  11230     1  0.0000000  0.6508444  3
  11221  11233  11245  19957     1  0.0000000  0.6508444  3
  11224  11220  11221  11233     1  0.0000000  0.6508444  3
  11224  11220  11227  11230     1  0.0000000  0.6508444  3
  11224  11236  11242  19934     1  0.0000000  0.6508444  3
  11227  11220  11221  11233     1  0.0000000  0.6508444  3
  11227  11220  11224  11236     1  0.0000000  0.6508444  3
  11227  11230  11239  11248     1  0.0000000  0.6508444  3
  11233  11245  19957  19953     1  180.0000771  0.4184000  2
  11233  11245  19957  19953     1  0.0000000  1.6024720  3
  11236  11242  19934  19930     1  180.0000771  0.4184000  2
  11236  11242  19934  19930     1  0.0000000  1.6024720  3
  11242  19934  19930  19929     1  180.0000771  0.4184000  2
  11242  19934  19930  19929     1  0.0000000  1.6024720  3
  11242  19934  19930  19946     1  180.0000771  5.6484000  1
  11242  19934  19930  19946     1  180.0000771  3.5564000  2
  11242  19934  19930  19946     1  0.0000000  0.4184000  3
  11245  19957  19953  19969     1  180.0000771  5.6484000  1
  11245  19957  19953  19969     1  180.0000771  3.5564000  2
  11245  19957  19953  19969     1  0.0000000  0.4184000  3
  11245  19957  19953  19952     1  180.0000771  0.4184000  2
  11245  19957  19953  19952     1  0.0000000  1.6024720  3
  11250  11251  11263  11275     1  0.0000000  0.6508444  3
  11250  11254  11266  11272     1  0.0000000  0.6508444  3
  11250  11257  11260  11269     1  0.0000000  0.6508444  3
  11251  11250  11254  11266     1  0.0000000  0.6508444  3
  11251  11250  11257  11260     1  0.0000000  0.6508444  3
  11251  11263  11275  20003     1  0.0000000  0.6508444  3
  11254  11250  11251  11263     1  0.0000000  0.6508444  3
  11254  11250  11257  11260     1  0.0000000  0.6508444  3
  11254  11266  11272  19980     1  0.0000000  0.6508444  3
  11257  11250  11251  11263     1  0.0000000  0.6508444  3
  11257  11250  11254  11266     1  0.0000000  0.6508444  3
  11257  11260  11269  11278     1  0.0000000  0.6508444  3
  11263  11275  20003  19999     1  180.0000771  0.4184000  2
  11263  11275  20003  19999     1  0.0000000  1.6024720  3
  11266  11272  19980  19976     1  180.0000771  0.4184000  2
  11266  11272  19980  19976     1  0.0000000  1.6024720  3
  11272  19980  19976  19975     1  180.0000771  0.4184000  2
  11272  19980  19976  19975     1  0.0000000  1.6024720  3
  11272  19980  19976  19992     1  180.0000771  5.6484000  1
  11272  19980  19976  19992     1  180.0000771  3.5564000  2
  11272  19980  19976  19992     1  0.0000000  0.4184000  3
  11275  20003  19999  20015     1  180.0000771  5.6484000  1
  11275  20003  19999  20015     1  180.0000771  3.5564000  2
  11275  20003  19999  20015     1  0.0000000  0.4184000  3
  11275  20003  19999  19998     1  180.0000771  0.4184000  2
  11275  20003  19999  19998     1  0.0000000  1.6024720  3
  11280  11281  11293  11305     1  0.0000000  0.6508444  3
  11280  11284  11296  11302     1  0.0000000  0.6508444  3
  11280  11287  11290  11299     1  0.0000000  0.6508444  3
  11281  11280  11284  11296     1  0.0000000  0.6508444  3
  11281  11280  11287  11290     1  0.0000000  0.6508444  3
  11281  11293  11305  20049     1  0.0000000  0.6508444  3
  11284  11280  11281  11293     1  0.0000000  0.6508444  3
  11284  11280  11287  11290     1  0.0000000  0.6508444  3
  11284  11296  11302  20026     1  0.0000000  0.6508444  3
  11287  11280  11281  11293     1  0.0000000  0.6508444  3
  11287  11280  11284  11296     1  0.0000000  0.6508444  3
  11287  11290  11299  11308     1  0.0000000  0.6508444  3
  11293  11305  20049  20045     1  180.0000771  0.4184000  2
  11293  11305  20049  20045     1  0.0000000  1.6024720  3
  11296  11302  20026  20022     1  180.0000771  0.4184000  2
  11296  11302  20026  20022     1  0.0000000  1.6024720  3
  11302  20026  20022  20021     1  180.0000771  0.4184000  2
  11302  20026  20022  20021     1  0.0000000  1.6024720  3
  11302  20026  20022  20038     1  180.0000771  5.6484000  1
  11302  20026  20022  20038     1  180.0000771  3.5564000  2
  11302  20026  20022  20038     1  0.0000000  0.4184000  3
  11305  20049  20045  20061     1  180.0000771  5.6484000  1
  11305  20049  20045  20061     1  180.0000771  3.5564000  2
  11305  20049  20045  20061     1  0.0000000  0.4184000  3
  11305  20049  20045  20044     1  180.0000771  0.4184000  2
  11305  20049  20045  20044     1  0.0000000  1.6024720  3
  11310  11311  11323  11335     1  0.0000000  0.6508444  3
  11310  11314  11326  11332     1  0.0000000  0.6508444  3
  11310  11317  11320  11329     1  0.0000000  0.6508444  3
  11311  11310  11314  11326     1  0.0000000  0.6508444  3
  11311  11310  11317  11320     1  0.0000000  0.6508444  3
  11311  11323  11335  20095     1  0.0000000  0.6508444  3
  11314  11310  11311  11323     1  0.0000000  0.6508444  3
  11314  11310  11317  11320     1  0.0000000  0.6508444  3
  11314  11326  11332  20072     1  0.0000000  0.6508444  3
  11317  11310  11311  11323     1  0.0000000  0.6508444  3
  11317  11310  11314  11326     1  0.0000000  0.6508444  3
  11317  11320  11329  11338     1  0.0000000  0.6508444  3
  11323  11335  20095  20091     1  180.0000771  0.4184000  2
  11323  11335  20095  20091     1  0.0000000  1.6024720  3
  11326  11332  20072  20068     1  180.0000771  0.4184000  2
  11326  11332  20072  20068     1  0.0000000  1.6024720  3
  11332  20072  20068  20067     1  180.0000771  0.4184000  2
  11332  20072  20068  20067     1  0.0000000  1.6024720  3
  11332  20072  20068  20084     1  180.0000771  5.6484000  1
  11332  20072  20068  20084     1  180.0000771  3.5564000  2
  11332  20072  20068  20084     1  0.0000000  0.4184000  3
  11335  20095  20091  20107     1  180.0000771  5.6484000  1
  11335  20095  20091  20107     1  180.0000771  3.5564000  2
  11335  20095  20091  20107     1  0.0000000  0.4184000  3
  11335  20095  20091  20090     1  180.0000771  0.4184000  2
  11335  20095  20091  20090     1  0.0000000  1.6024720  3
  11340  11341  11353  11365     1  0.0000000  0.6508444  3
  11340  11344  11356  11362     1  0.0000000  0.6508444  3
  11340  11347  11350  11359     1  0.0000000  0.6508444  3
  11341  11340  11344  11356     1  0.0000000  0.6508444  3
  11341  11340  11347  11350     1  0.0000000  0.6508444  3
  11341  11353  11365  20141     1  0.0000000  0.6508444  3
  11344  11340  11341  11353     1  0.0000000  0.6508444  3
  11344  11340  11347  11350     1  0.0000000  0.6508444  3
  11344  11356  11362  20118     1  0.0000000  0.6508444  3
  11347  11340  11341  11353     1  0.0000000  0.6508444  3
  11347  11340  11344  11356     1  0.0000000  0.6508444  3
  11347  11350  11359  11368     1  0.0000000  0.6508444  3
  11353  11365  20141  20137     1  180.0000771  0.4184000  2
  11353  11365  20141  20137     1  0.0000000  1.6024720  3
  11356  11362  20118  20114     1  180.0000771  0.4184000  2
  11356  11362  20118  20114     1  0.0000000  1.6024720  3
  11362  20118  20114  20113     1  180.0000771  0.4184000  2
  11362  20118  20114  20113     1  0.0000000  1.6024720  3
  11362  20118  20114  20130     1  180.0000771  5.6484000  1
  11362  20118  20114  20130     1  180.0000771  3.5564000  2
  11362  20118  20114  20130     1  0.0000000  0.4184000  3
  11365  20141  20137  20153     1  180.0000771  5.6484000  1
  11365  20141  20137  20153     1  180.0000771  3.5564000  2
  11365  20141  20137  20153     1  0.0000000  0.4184000  3
  11365  20141  20137  20136     1  180.0000771  0.4184000  2
  11365  20141  20137  20136     1  0.0000000  1.6024720  3
  11370  11371  11383  11395     1  0.0000000  0.6508444  3
  11370  11374  11386  11392     1  0.0000000  0.6508444  3
  11370  11377  11380  11389     1  0.0000000  0.6508444  3
  11371  11370  11374  11386     1  0.0000000  0.6508444  3
  11371  11370  11377  11380     1  0.0000000  0.6508444  3
  11371  11383  11395  20187     1  0.0000000  0.6508444  3
  11374  11370  11371  11383     1  0.0000000  0.6508444  3
  11374  11370  11377  11380     1  0.0000000  0.6508444  3
  11374  11386  11392  20164     1  0.0000000  0.6508444  3
  11377  11370  11371  11383     1  0.0000000  0.6508444  3
  11377  11370  11374  11386     1  0.0000000  0.6508444  3
  11377  11380  11389  11398     1  0.0000000  0.6508444  3
  11383  11395  20187  20183     1  180.0000771  0.4184000  2
  11383  11395  20187  20183     1  0.0000000  1.6024720  3
  11386  11392  20164  20160     1  180.0000771  0.4184000  2
  11386  11392  20164  20160     1  0.0000000  1.6024720  3
  11392  20164  20160  20159     1  180.0000771  0.4184000  2
  11392  20164  20160  20159     1  0.0000000  1.6024720  3
  11392  20164  20160  20176     1  180.0000771  5.6484000  1
  11392  20164  20160  20176     1  180.0000771  3.5564000  2
  11392  20164  20160  20176     1  0.0000000  0.4184000  3
  11395  20187  20183  20199     1  180.0000771  5.6484000  1
  11395  20187  20183  20199     1  180.0000771  3.5564000  2
  11395  20187  20183  20199     1  0.0000000  0.4184000  3
  11395  20187  20183  20182     1  180.0000771  0.4184000  2
  11395  20187  20183  20182     1  0.0000000  1.6024720  3
  11400  11401  11413  11425     1  0.0000000  0.6508444  3
  11400  11404  11416  11422     1  0.0000000  0.6508444  3
  11400  11407  11410  11419     1  0.0000000  0.6508444  3
  11401  11400  11404  11416     1  0.0000000  0.6508444  3
  11401  11400  11407  11410     1  0.0000000  0.6508444  3
  11401  11413  11425  20233     1  0.0000000  0.6508444  3
  11404  11400  11401  11413     1  0.0000000  0.6508444  3
  11404  11400  11407  11410     1  0.0000000  0.6508444  3
  11404  11416  11422  20210     1  0.0000000  0.6508444  3
  11407  11400  11401  11413     1  0.0000000  0.6508444  3
  11407  11400  11404  11416     1  0.0000000  0.6508444  3
  11407  11410  11419  11428     1  0.0000000  0.6508444  3
  11413  11425  20233  20229     1  180.0000771  0.4184000  2
  11413  11425  20233  20229     1  0.0000000  1.6024720  3
  11416  11422  20210  20206     1  180.0000771  0.4184000  2
  11416  11422  20210  20206     1  0.0000000  1.6024720  3
  11422  20210  20206  20205     1  180.0000771  0.4184000  2
  11422  20210  20206  20205     1  0.0000000  1.6024720  3
  11422  20210  20206  20222     1  180.0000771  5.6484000  1
  11422  20210  20206  20222     1  180.0000771  3.5564000  2
  11422  20210  20206  20222     1  0.0000000  0.4184000  3
  11425  20233  20229  20245     1  180.0000771  5.6484000  1
  11425  20233  20229  20245     1  180.0000771  3.5564000  2
  11425  20233  20229  20245     1  0.0000000  0.4184000  3
  11425  20233  20229  20228     1  180.0000771  0.4184000  2
  11425  20233  20229  20228     1  0.0000000  1.6024720  3
  11430  11431  11443  11455     1  0.0000000  0.6508444  3
  11430  11434  11446  11452     1  0.0000000  0.6508444  3
  11430  11437  11440  11449     1  0.0000000  0.6508444  3
  11431  11430  11434  11446     1  0.0000000  0.6508444  3
  11431  11430  11437  11440     1  0.0000000  0.6508444  3
  11431  11443  11455  20279     1  0.0000000  0.6508444  3
  11434  11430  11431  11443     1  0.0000000  0.6508444  3
  11434  11430  11437  11440     1  0.0000000  0.6508444  3
  11434  11446  11452  20256     1  0.0000000  0.6508444  3
  11437  11430  11431  11443     1  0.0000000  0.6508444  3
  11437  11430  11434  11446     1  0.0000000  0.6508444  3
  11437  11440  11449  11458     1  0.0000000  0.6508444  3
  11443  11455  20279  20275     1  180.0000771  0.4184000  2
  11443  11455  20279  20275     1  0.0000000  1.6024720  3
  11446  11452  20256  20252     1  180.0000771  0.4184000  2
  11446  11452  20256  20252     1  0.0000000  1.6024720  3
  11452  20256  20252  20251     1  180.0000771  0.4184000  2
  11452  20256  20252  20251     1  0.0000000  1.6024720  3
  11452  20256  20252  20268     1  180.0000771  5.6484000  1
  11452  20256  20252  20268     1  180.0000771  3.5564000  2
  11452  20256  20252  20268     1  0.0000000  0.4184000  3
  11455  20279  20275  20291     1  180.0000771  5.6484000  1
  11455  20279  20275  20291     1  180.0000771  3.5564000  2
  11455  20279  20275  20291     1  0.0000000  0.4184000  3
  11455  20279  20275  20274     1  180.0000771  0.4184000  2
  11455  20279  20275  20274     1  0.0000000  1.6024720  3
  11460  11461  11464  11465     1  180.0000771  0.8368000  1
  11460  11461  11464  11465     1  180.0000771  1.0460000  2
  11460  11461  11464  11465     1  0.0000000  0.7531200  3
  11460  11461  11464  11472     1  0.0000000  0.6508444  3
  11460  11482  11466  11465     1  180.0000771  0.4184000  2
  11460  11482  11466  11465     1  0.0000000  1.6024720  3
  11460  11482  11466  11470     1  180.0000771  5.6484000  1
  11460  11482  11466  11470     1  180.0000771  3.5564000  2
  11460  11482  11466  11470     1  0.0000000  0.4184000  3
  11461  11460  11474  11480     1  0.0000000  0.6508444  3
  11461  11460  11482  11466     1  180.0000771  0.4184000  2
  11461  11460  11482  11466     1  0.0000000  1.6024720  3
  11461  11464  11465  11466     1  180.0000771  0.8368000  1
  11461  11464  11465  11466     1  180.0000771  1.0460000  2
  11461  11464  11465  11466     1  0.0000000  0.7531200  3
  11461  11464  11465  11471     1  0.0000000  0.6508444  3
  11464  11461  11460  11474     1  180.0000771  0.8368000  1
  11464  11461  11460  11474     1  180.0000771  1.0460000  2
  11464  11461  11460  11474     1  0.0000000  0.7531200  3
  11464  11461  11460  11482     1  0.0000000  0.6508444  3
  11464  11465  11466  11470     1  0.0000000  0.6508444  3
  11464  11465  11466  11482     1  0.0000000  0.6508444  3
  11465  11464  11461  11473     1  0.0000000  0.6508444  3
  11466  11465  11464  11472     1  0.0000000  0.6508444  3
  11466  11482  11460  11474     1  180.0000771  0.4184000  2
  11466  11482  11460  11474     1  0.0000000  1.6024720  3
  11470  11466  11465  11471     1  0.0000000  4.9162000  2
  11470  11466  11465  11471     1  0.0000000  0.6024960  3
  11471  11465  11464  11472     1  0.0000000  4.9162000  2
  11471  11465  11464  11472     1  0.0000000  0.6024960  3
  11471  11465  11466  11482     1  0.0000000  4.9162000  2
  11471  11465  11466  11482     1  0.0000000  0.6024960  3
  11472  11464  11461  11473     1  0.0000000  4.9162000  2
  11472  11464  11461  11473     1  0.0000000  0.6024960  3
  11473  11461  11460  11474     1  0.0000000  0.6508444  3
  11473  11461  11460  11482     1  0.0000000  4.9162000  2
  11473  11461  11460  11482     1  0.0000000  0.6024960  3
  11480  11474  11460  11482     1  0.0000000  4.9162000  2
  11480  11474  11460  11482     1  0.0000000  0.6024960  3
  11483  11484  11487  11488     1  180.0000771  0.8368000  1
  11483  11484  11487  11488     1  180.0000771  1.0460000  2
  11483  11484  11487  11488     1  0.0000000  0.7531200  3
  11483  11484  11487  11495     1  0.0000000  0.6508444  3
  11483  11505  11489  11493     1  180.0000771  5.6484000  1
  11483  11505  11489  11493     1  180.0000771  3.5564000  2
  11483  11505  11489  11493     1  0.0000000  0.4184000  3
  11483  11505  11489  11488     1  180.0000771  0.4184000  2
  11483  11505  11489  11488     1  0.0000000  1.6024720  3
  11484  11487  11488  11489     1  180.0000771  0.8368000  1
  11484  11487  11488  11489     1  180.0000771  1.0460000  2
  11484  11487  11488  11489     1  0.0000000  0.7531200  3
  11484  11487  11488  11494     1  0.0000000  0.6508444  3
  11484  11483  11497  11503     1  0.0000000  0.6508444  3
  11484  11483  11505  11489     1  180.0000771  0.4184000  2
  11484  11483  11505  11489     1  0.0000000  1.6024720  3
  11487  11488  11489  11493     1  0.0000000  0.6508444  3
  11487  11488  11489  11505     1  0.0000000  0.6508444  3
  11487  11484  11483  11497     1  180.0000771  0.8368000  1
  11487  11484  11483  11497     1  180.0000771  1.0460000  2
  11487  11484  11483  11497     1  0.0000000  0.7531200  3
  11487  11484  11483  11505     1  0.0000000  0.6508444  3
  11488  11487  11484  11496     1  0.0000000  0.6508444  3
  11489  11505  11483  11497     1  180.0000771  0.4184000  2
  11489  11505  11483  11497     1  0.0000000  1.6024720  3
  11489  11488  11487  11495     1  0.0000000  0.6508444  3
  11493  11489  11488  11494     1  0.0000000  4.9162000  2
  11493  11489  11488  11494     1  0.0000000  0.6024960  3
  11494  11488  11489  11505     1  0.0000000  4.9162000  2
  11494  11488  11489  11505     1  0.0000000  0.6024960  3
  11494  11488  11487  11495     1  0.0000000  4.9162000  2
  11494  11488  11487  11495     1  0.0000000  0.6024960  3
  11495  11487  11484  11496     1  0.0000000  4.9162000  2
  11495  11487  11484  11496     1  0.0000000  0.6024960  3
  11496  11484  11483  11497     1  0.0000000  0.6508444  3
  11496  11484  11483  11505     1  0.0000000  4.9162000  2
  11496  11484  11483  11505     1  0.0000000  0.6024960  3
  11503  11497  11483  11505     1  0.0000000  4.9162000  2
  11503  11497  11483  11505     1  0.0000000  0.6024960  3
  11506  11507  11510  11511     1  180.0000771  0.8368000  1
  11506  11507  11510  11511     1  180.0000771  1.0460000  2
  11506  11507  11510  11511     1  0.0000000  0.7531200  3
  11506  11507  11510  11518     1  0.0000000  0.6508444  3
  11506  11528  11512  11511     1  180.0000771  0.4184000  2
  11506  11528  11512  11511     1  0.0000000  1.6024720  3
  11506  11528  11512  11516     1  180.0000771  5.6484000  1
  11506  11528  11512  11516     1  180.0000771  3.5564000  2
  11506  11528  11512  11516     1  0.0000000  0.4184000  3
  11507  11506  11520  11526     1  0.0000000  0.6508444  3
  11507  11506  11528  11512     1  180.0000771  0.4184000  2
  11507  11506  11528  11512     1  0.0000000  1.6024720  3
  11507  11510  11511  11512     1  180.0000771  0.8368000  1
  11507  11510  11511  11512     1  180.0000771  1.0460000  2
  11507  11510  11511  11512     1  0.0000000  0.7531200  3
  11507  11510  11511  11517     1  0.0000000  0.6508444  3
  11510  11507  11506  11520     1  180.0000771  0.8368000  1
  11510  11507  11506  11520     1  180.0000771  1.0460000  2
  11510  11507  11506  11520     1  0.0000000  0.7531200  3
  11510  11507  11506  11528     1  0.0000000  0.6508444  3
  11510  11511  11512  11516     1  0.0000000  0.6508444  3
  11510  11511  11512  11528     1  0.0000000  0.6508444  3
  11511  11510  11507  11519     1  0.0000000  0.6508444  3
  11512  11511  11510  11518     1  0.0000000  0.6508444  3
  11512  11528  11506  11520     1  180.0000771  0.4184000  2
  11512  11528  11506  11520     1  0.0000000  1.6024720  3
  11516  11512  11511  11517     1  0.0000000  4.9162000  2
  11516  11512  11511  11517     1  0.0000000  0.6024960  3
  11517  11511  11510  11518     1  0.0000000  4.9162000  2
  11517  11511  11510  11518     1  0.0000000  0.6024960  3
  11517  11511  11512  11528     1  0.0000000  4.9162000  2
  11517  11511  11512  11528     1  0.0000000  0.6024960  3
  11518  11510  11507  11519     1  0.0000000  4.9162000  2
  11518  11510  11507  11519     1  0.0000000  0.6024960  3
  11519  11507  11506  11520     1  0.0000000  0.6508444  3
  11519  11507  11506  11528     1  0.0000000  4.9162000  2
  11519  11507  11506  11528     1  0.0000000  0.6024960  3
  11526  11520  11506  11528     1  0.0000000  4.9162000  2
  11526  11520  11506  11528     1  0.0000000  0.6024960  3
  11529  11530  11533  11534     1  180.0000771  0.8368000  1
  11529  11530  11533  11534     1  180.0000771  1.0460000  2
  11529  11530  11533  11534     1  0.0000000  0.7531200  3
  11529  11530  11533  11541     1  0.0000000  0.6508444  3
  11529  11551  11535  11539     1  180.0000771  5.6484000  1
  11529  11551  11535  11539     1  180.0000771  3.5564000  2
  11529  11551  11535  11539     1  0.0000000  0.4184000  3
  11529  11551  11535  11534     1  180.0000771  0.4184000  2
  11529  11551  11535  11534     1  0.0000000  1.6024720  3
  11530  11533  11534  11535     1  180.0000771  0.8368000  1
  11530  11533  11534  11535     1  180.0000771  1.0460000  2
  11530  11533  11534  11535     1  0.0000000  0.7531200  3
  11530  11533  11534  11540     1  0.0000000  0.6508444  3
  11530  11529  11543  11549     1  0.0000000  0.6508444  3
  11530  11529  11551  11535     1  180.0000771  0.4184000  2
  11530  11529  11551  11535     1  0.0000000  1.6024720  3
  11533  11534  11535  11539     1  0.0000000  0.6508444  3
  11533  11534  11535  11551     1  0.0000000  0.6508444  3
  11533  11530  11529  11543     1  180.0000771  0.8368000  1
  11533  11530  11529  11543     1  180.0000771  1.0460000  2
  11533  11530  11529  11543     1  0.0000000  0.7531200  3
  11533  11530  11529  11551     1  0.0000000  0.6508444  3
  11534  11533  11530  11542     1  0.0000000  0.6508444  3
  11535  11551  11529  11543     1  180.0000771  0.4184000  2
  11535  11551  11529  11543     1  0.0000000  1.6024720  3
  11535  11534  11533  11541     1  0.0000000  0.6508444  3
  11539  11535  11534  11540     1  0.0000000  4.9162000  2
  11539  11535  11534  11540     1  0.0000000  0.6024960  3
  11540  11534  11535  11551     1  0.0000000  4.9162000  2
  11540  11534  11535  11551     1  0.0000000  0.6024960  3
  11540  11534  11533  11541     1  0.0000000  4.9162000  2
  11540  11534  11533  11541     1  0.0000000  0.6024960  3
  11541  11533  11530  11542     1  0.0000000  4.9162000  2
  11541  11533  11530  11542     1  0.0000000  0.6024960  3
  11542  11530  11529  11543     1  0.0000000  0.6508444  3
  11542  11530  11529  11551     1  0.0000000  4.9162000  2
  11542  11530  11529  11551     1  0.0000000  0.6024960  3
  11549  11543  11529  11551     1  0.0000000  4.9162000  2
  11549  11543  11529  11551     1  0.0000000  0.6024960  3
  11552  11553  11556  11557     1  180.0000771  0.8368000  1
  11552  11553  11556  11557     1  180.0000771  1.0460000  2
  11552  11553  11556  11557     1  0.0000000  0.7531200  3
  11552  11553  11556  11564     1  0.0000000  0.6508444  3
  11552  11574  11558  11557     1  180.0000771  0.4184000  2
  11552  11574  11558  11557     1  0.0000000  1.6024720  3
  11552  11574  11558  11562     1  180.0000771  5.6484000  1
  11552  11574  11558  11562     1  180.0000771  3.5564000  2
  11552  11574  11558  11562     1  0.0000000  0.4184000  3
  11553  11552  11566  11572     1  0.0000000  0.6508444  3
  11553  11552  11574  11558     1  180.0000771  0.4184000  2
  11553  11552  11574  11558     1  0.0000000  1.6024720  3
  11553  11556  11557  11558     1  180.0000771  0.8368000  1
  11553  11556  11557  11558     1  180.0000771  1.0460000  2
  11553  11556  11557  11558     1  0.0000000  0.7531200  3
  11553  11556  11557  11563     1  0.0000000  0.6508444  3
  11556  11553  11552  11566     1  180.0000771  0.8368000  1
  11556  11553  11552  11566     1  180.0000771  1.0460000  2
  11556  11553  11552  11566     1  0.0000000  0.7531200  3
  11556  11553  11552  11574     1  0.0000000  0.6508444  3
  11556  11557  11558  11562     1  0.0000000  0.6508444  3
  11556  11557  11558  11574     1  0.0000000  0.6508444  3
  11557  11556  11553  11565     1  0.0000000  0.6508444  3
  11558  11557  11556  11564     1  0.0000000  0.6508444  3
  11558  11574  11552  11566     1  180.0000771  0.4184000  2
  11558  11574  11552  11566     1  0.0000000  1.6024720  3
  11562  11558  11557  11563     1  0.0000000  4.9162000  2
  11562  11558  11557  11563     1  0.0000000  0.6024960  3
  11563  11557  11556  11564     1  0.0000000  4.9162000  2
  11563  11557  11556  11564     1  0.0000000  0.6024960  3
  11563  11557  11558  11574     1  0.0000000  4.9162000  2
  11563  11557  11558  11574     1  0.0000000  0.6024960  3
  11564  11556  11553  11565     1  0.0000000  4.9162000  2
  11564  11556  11553  11565     1  0.0000000  0.6024960  3
  11565  11553  11552  11566     1  0.0000000  0.6508444  3
  11565  11553  11552  11574     1  0.0000000  4.9162000  2
  11565  11553  11552  11574     1  0.0000000  0.6024960  3
  11572  11566  11552  11574     1  0.0000000  4.9162000  2
  11572  11566  11552  11574     1  0.0000000  0.6024960  3
  11575  11576  11579  11580     1  180.0000771  0.8368000  1
  11575  11576  11579  11580     1  180.0000771  1.0460000  2
  11575  11576  11579  11580     1  0.0000000  0.7531200  3
  11575  11576  11579  11587     1  0.0000000  0.6508444  3
  11575  11597  11581  11585     1  180.0000771  5.6484000  1
  11575  11597  11581  11585     1  180.0000771  3.5564000  2
  11575  11597  11581  11585     1  0.0000000  0.4184000  3
  11575  11597  11581  11580     1  180.0000771  0.4184000  2
  11575  11597  11581  11580     1  0.0000000  1.6024720  3
  11576  11579  11580  11581     1  180.0000771  0.8368000  1
  11576  11579  11580  11581     1  180.0000771  1.0460000  2
  11576  11579  11580  11581     1  0.0000000  0.7531200  3
  11576  11579  11580  11586     1  0.0000000  0.6508444  3
  11576  11575  11589  11595     1  0.0000000  0.6508444  3
  11576  11575  11597  11581     1  180.0000771  0.4184000  2
  11576  11575  11597  11581     1  0.0000000  1.6024720  3
  11579  11580  11581  11585     1  0.0000000  0.6508444  3
  11579  11580  11581  11597     1  0.0000000  0.6508444  3
  11579  11576  11575  11589     1  180.0000771  0.8368000  1
  11579  11576  11575  11589     1  180.0000771  1.0460000  2
  11579  11576  11575  11589     1  0.0000000  0.7531200  3
  11579  11576  11575  11597     1  0.0000000  0.6508444  3
  11580  11579  11576  11588     1  0.0000000  0.6508444  3
  11581  11597  11575  11589     1  180.0000771  0.4184000  2
  11581  11597  11575  11589     1  0.0000000  1.6024720  3
  11581  11580  11579  11587     1  0.0000000  0.6508444  3
  11585  11581  11580  11586     1  0.0000000  4.9162000  2
  11585  11581  11580  11586     1  0.0000000  0.6024960  3
  11586  11580  11581  11597     1  0.0000000  4.9162000  2
  11586  11580  11581  11597     1  0.0000000  0.6024960  3
  11586  11580  11579  11587     1  0.0000000  4.9162000  2
  11586  11580  11579  11587     1  0.0000000  0.6024960  3
  11587  11579  11576  11588     1  0.0000000  4.9162000  2
  11587  11579  11576  11588     1  0.0000000  0.6024960  3
  11588  11576  11575  11589     1  0.0000000  0.6508444  3
  11588  11576  11575  11597     1  0.0000000  4.9162000  2
  11588  11576  11575  11597     1  0.0000000  0.6024960  3
  11595  11589  11575  11597     1  0.0000000  4.9162000  2
  11595  11589  11575  11597     1  0.0000000  0.6024960  3
  11598  11599  11602  11603     1  180.0000771  0.8368000  1
  11598  11599  11602  11603     1  180.0000771  1.0460000  2
  11598  11599  11602  11603     1  0.0000000  0.7531200  3
  11598  11599  11602  11610     1  0.0000000  0.6508444  3
  11598  11620  11604  11603     1  180.0000771  0.4184000  2
  11598  11620  11604  11603     1  0.0000000  1.6024720  3
  11598  11620  11604  11608     1  180.0000771  5.6484000  1
  11598  11620  11604  11608     1  180.0000771  3.5564000  2
  11598  11620  11604  11608     1  0.0000000  0.4184000  3
  11599  11598  11612  11618     1  0.0000000  0.6508444  3
  11599  11598  11620  11604     1  180.0000771  0.4184000  2
  11599  11598  11620  11604     1  0.0000000  1.6024720  3
  11599  11602  11603  11604     1  180.0000771  0.8368000  1
  11599  11602  11603  11604     1  180.0000771  1.0460000  2
  11599  11602  11603  11604     1  0.0000000  0.7531200  3
  11599  11602  11603  11609     1  0.0000000  0.6508444  3
  11602  11599  11598  11612     1  180.0000771  0.8368000  1
  11602  11599  11598  11612     1  180.0000771  1.0460000  2
  11602  11599  11598  11612     1  0.0000000  0.7531200  3
  11602  11599  11598  11620     1  0.0000000  0.6508444  3
  11602  11603  11604  11608     1  0.0000000  0.6508444  3
  11602  11603  11604  11620     1  0.0000000  0.6508444  3
  11603  11602  11599  11611     1  0.0000000  0.6508444  3
  11604  11603  11602  11610     1  0.0000000  0.6508444  3
  11604  11620  11598  11612     1  180.0000771  0.4184000  2
  11604  11620  11598  11612     1  0.0000000  1.6024720  3
  11608  11604  11603  11609     1  0.0000000  4.9162000  2
  11608  11604  11603  11609     1  0.0000000  0.6024960  3
  11609  11603  11602  11610     1  0.0000000  4.9162000  2
  11609  11603  11602  11610     1  0.0000000  0.6024960  3
  11609  11603  11604  11620     1  0.0000000  4.9162000  2
  11609  11603  11604  11620     1  0.0000000  0.6024960  3
  11610  11602  11599  11611     1  0.0000000  4.9162000  2
  11610  11602  11599  11611     1  0.0000000  0.6024960  3
  11611  11599  11598  11612     1  0.0000000  0.6508444  3
  11611  11599  11598  11620     1  0.0000000  4.9162000  2
  11611  11599  11598  11620     1  0.0000000  0.6024960  3
  11618  11612  11598  11620     1  0.0000000  4.9162000  2
  11618  11612  11598  11620     1  0.0000000  0.6024960  3
  11621  11622  11625  11626     1  180.0000771  0.8368000  1
  11621  11622  11625  11626     1  180.0000771  1.0460000  2
  11621  11622  11625  11626     1  0.0000000  0.7531200  3
  11621  11622  11625  11633     1  0.0000000  0.6508444  3
  11621  11643  11627  11631     1  180.0000771  5.6484000  1
  11621  11643  11627  11631     1  180.0000771  3.5564000  2
  11621  11643  11627  11631     1  0.0000000  0.4184000  3
  11621  11643  11627  11626     1  180.0000771  0.4184000  2
  11621  11643  11627  11626     1  0.0000000  1.6024720  3
  11622  11625  11626  11627     1  180.0000771  0.8368000  1
  11622  11625  11626  11627     1  180.0000771  1.0460000  2
  11622  11625  11626  11627     1  0.0000000  0.7531200  3
  11622  11625  11626  11632     1  0.0000000  0.6508444  3
  11622  11621  11635  11641     1  0.0000000  0.6508444  3
  11622  11621  11643  11627     1  180.0000771  0.4184000  2
  11622  11621  11643  11627     1  0.0000000  1.6024720  3
  11625  11626  11627  11631     1  0.0000000  0.6508444  3
  11625  11626  11627  11643     1  0.0000000  0.6508444  3
  11625  11622  11621  11635     1  180.0000771  0.8368000  1
  11625  11622  11621  11635     1  180.0000771  1.0460000  2
  11625  11622  11621  11635     1  0.0000000  0.7531200  3
  11625  11622  11621  11643     1  0.0000000  0.6508444  3
  11626  11625  11622  11634     1  0.0000000  0.6508444  3
  11627  11643  11621  11635     1  180.0000771  0.4184000  2
  11627  11643  11621  11635     1  0.0000000  1.6024720  3
  11627  11626  11625  11633     1  0.0000000  0.6508444  3
  11631  11627  11626  11632     1  0.0000000  4.9162000  2
  11631  11627  11626  11632     1  0.0000000  0.6024960  3
  11632  11626  11627  11643     1  0.0000000  4.9162000  2
  11632  11626  11627  11643     1  0.0000000  0.6024960  3
  11632  11626  11625  11633     1  0.0000000  4.9162000  2
  11632  11626  11625  11633     1  0.0000000  0.6024960  3
  11633  11625  11622  11634     1  0.0000000  4.9162000  2
  11633  11625  11622  11634     1  0.0000000  0.6024960  3
  11634  11622  11621  11635     1  0.0000000  0.6508444  3
  11634  11622  11621  11643     1  0.0000000  4.9162000  2
  11634  11622  11621  11643     1  0.0000000  0.6024960  3
  11641  11635  11621  11643     1  0.0000000  4.9162000  2
  11641  11635  11621  11643     1  0.0000000  0.6024960  3
  11644  11645  11648  11649     1  180.0000771  0.8368000  1
  11644  11645  11648  11649     1  180.0000771  1.0460000  2
  11644  11645  11648  11649     1  0.0000000  0.7531200  3
  11644  11645  11648  11656     1  0.0000000  0.6508444  3
  11644  11666  11650  11649     1  180.0000771  0.4184000  2
  11644  11666  11650  11649     1  0.0000000  1.6024720  3
  11644  11666  11650  11654     1  180.0000771  5.6484000  1
  11644  11666  11650  11654     1  180.0000771  3.5564000  2
  11644  11666  11650  11654     1  0.0000000  0.4184000  3
  11645  11644  11658  11664     1  0.0000000  0.6508444  3
  11645  11644  11666  11650     1  180.0000771  0.4184000  2
  11645  11644  11666  11650     1  0.0000000  1.6024720  3
  11645  11648  11649  11650     1  180.0000771  0.8368000  1
  11645  11648  11649  11650     1  180.0000771  1.0460000  2
  11645  11648  11649  11650     1  0.0000000  0.7531200  3
  11645  11648  11649  11655     1  0.0000000  0.6508444  3
  11648  11645  11644  11658     1  180.0000771  0.8368000  1
  11648  11645  11644  11658     1  180.0000771  1.0460000  2
  11648  11645  11644  11658     1  0.0000000  0.7531200  3
  11648  11645  11644  11666     1  0.0000000  0.6508444  3
  11648  11649  11650  11654     1  0.0000000  0.6508444  3
  11648  11649  11650  11666     1  0.0000000  0.6508444  3
  11649  11648  11645  11657     1  0.0000000  0.6508444  3
  11650  11649  11648  11656     1  0.0000000  0.6508444  3
  11650  11666  11644  11658     1  180.0000771  0.4184000  2
  11650  11666  11644  11658     1  0.0000000  1.6024720  3
  11654  11650  11649  11655     1  0.0000000  4.9162000  2
  11654  11650  11649  11655     1  0.0000000  0.6024960  3
  11655  11649  11648  11656     1  0.0000000  4.9162000  2
  11655  11649  11648  11656     1  0.0000000  0.6024960  3
  11655  11649  11650  11666     1  0.0000000  4.9162000  2
  11655  11649  11650  11666     1  0.0000000  0.6024960  3
  11656  11648  11645  11657     1  0.0000000  4.9162000  2
  11656  11648  11645  11657     1  0.0000000  0.6024960  3
  11657  11645  11644  11658     1  0.0000000  0.6508444  3
  11657  11645  11644  11666     1  0.0000000  4.9162000  2
  11657  11645  11644  11666     1  0.0000000  0.6024960  3
  11664  11658  11644  11666     1  0.0000000  4.9162000  2
  11664  11658  11644  11666     1  0.0000000  0.6024960  3
  11667  11668  11671  11672     1  180.0000771  0.8368000  1
  11667  11668  11671  11672     1  180.0000771  1.0460000  2
  11667  11668  11671  11672     1  0.0000000  0.7531200  3
  11667  11668  11671  11679     1  0.0000000  0.6508444  3
  11667  11689  11673  11677     1  180.0000771  5.6484000  1
  11667  11689  11673  11677     1  180.0000771  3.5564000  2
  11667  11689  11673  11677     1  0.0000000  0.4184000  3
  11667  11689  11673  11672     1  180.0000771  0.4184000  2
  11667  11689  11673  11672     1  0.0000000  1.6024720  3
  11668  11671  11672  11673     1  180.0000771  0.8368000  1
  11668  11671  11672  11673     1  180.0000771  1.0460000  2
  11668  11671  11672  11673     1  0.0000000  0.7531200  3
  11668  11671  11672  11678     1  0.0000000  0.6508444  3
  11668  11667  11681  11687     1  0.0000000  0.6508444  3
  11668  11667  11689  11673     1  180.0000771  0.4184000  2
  11668  11667  11689  11673     1  0.0000000  1.6024720  3
  11671  11672  11673  11677     1  0.0000000  0.6508444  3
  11671  11672  11673  11689     1  0.0000000  0.6508444  3
  11671  11668  11667  11681     1  180.0000771  0.8368000  1
  11671  11668  11667  11681     1  180.0000771  1.0460000  2
  11671  11668  11667  11681     1  0.0000000  0.7531200  3
  11671  11668  11667  11689     1  0.0000000  0.6508444  3
  11672  11671  11668  11680     1  0.0000000  0.6508444  3
  11673  11689  11667  11681     1  180.0000771  0.4184000  2
  11673  11689  11667  11681     1  0.0000000  1.6024720  3
  11673  11672  11671  11679     1  0.0000000  0.6508444  3
  11677  11673  11672  11678     1  0.0000000  4.9162000  2
  11677  11673  11672  11678     1  0.0000000  0.6024960  3
  11678  11672  11673  11689     1  0.0000000  4.9162000  2
  11678  11672  11673  11689     1  0.0000000  0.6024960  3
  11678  11672  11671  11679     1  0.0000000  4.9162000  2
  11678  11672  11671  11679     1  0.0000000  0.6024960  3
  11679  11671  11668  11680     1  0.0000000  4.9162000  2
  11679  11671  11668  11680     1  0.0000000  0.6024960  3
  11680  11668  11667  11681     1  0.0000000  0.6508444  3
  11680  11668  11667  11689     1  0.0000000  4.9162000  2
  11680  11668  11667  11689     1  0.0000000  0.6024960  3
  11687  11681  11667  11689     1  0.0000000  4.9162000  2
  11687  11681  11667  11689     1  0.0000000  0.6024960  3
  11690  11691  11694  11695     1  180.0000771  0.8368000  1
  11690  11691  11694  11695     1  180.0000771  1.0460000  2
  11690  11691  11694  11695     1  0.0000000  0.7531200  3
  11690  11691  11694  11702     1  0.0000000  0.6508444  3
  11690  11712  11696  11695     1  180.0000771  0.4184000  2
  11690  11712  11696  11695     1  0.0000000  1.6024720  3
  11690  11712  11696  11700     1  180.0000771  5.6484000  1
  11690  11712  11696  11700     1  180.0000771  3.5564000  2
  11690  11712  11696  11700     1  0.0000000  0.4184000  3
  11691  11690  11704  11710     1  0.0000000  0.6508444  3
  11691  11690  11712  11696     1  180.0000771  0.4184000  2
  11691  11690  11712  11696     1  0.0000000  1.6024720  3
  11691  11694  11695  11696     1  180.0000771  0.8368000  1
  11691  11694  11695  11696     1  180.0000771  1.0460000  2
  11691  11694  11695  11696     1  0.0000000  0.7531200  3
  11691  11694  11695  11701     1  0.0000000  0.6508444  3
  11694  11691  11690  11704     1  180.0000771  0.8368000  1
  11694  11691  11690  11704     1  180.0000771  1.0460000  2
  11694  11691  11690  11704     1  0.0000000  0.7531200  3
  11694  11691  11690  11712     1  0.0000000  0.6508444  3
  11694  11695  11696  11700     1  0.0000000  0.6508444  3
  11694  11695  11696  11712     1  0.0000000  0.6508444  3
  11695  11694  11691  11703     1  0.0000000  0.6508444  3
  11696  11695  11694  11702     1  0.0000000  0.6508444  3
  11696  11712  11690  11704     1  180.0000771  0.4184000  2
  11696  11712  11690  11704     1  0.0000000  1.6024720  3
  11700  11696  11695  11701     1  0.0000000  4.9162000  2
  11700  11696  11695  11701     1  0.0000000  0.6024960  3
  11701  11695  11694  11702     1  0.0000000  4.9162000  2
  11701  11695  11694  11702     1  0.0000000  0.6024960  3
  11701  11695  11696  11712     1  0.0000000  4.9162000  2
  11701  11695  11696  11712     1  0.0000000  0.6024960  3
  11702  11694  11691  11703     1  0.0000000  4.9162000  2
  11702  11694  11691  11703     1  0.0000000  0.6024960  3
  11703  11691  11690  11704     1  0.0000000  0.6508444  3
  11703  11691  11690  11712     1  0.0000000  4.9162000  2
  11703  11691  11690  11712     1  0.0000000  0.6024960  3
  11710  11704  11690  11712     1  0.0000000  4.9162000  2
  11710  11704  11690  11712     1  0.0000000  0.6024960  3
  11713  11714  11717  11718     1  180.0000771  0.8368000  1
  11713  11714  11717  11718     1  180.0000771  1.0460000  2
  11713  11714  11717  11718     1  0.0000000  0.7531200  3
  11713  11714  11717  11725     1  0.0000000  0.6508444  3
  11713  11735  11719  11723     1  180.0000771  5.6484000  1
  11713  11735  11719  11723     1  180.0000771  3.5564000  2
  11713  11735  11719  11723     1  0.0000000  0.4184000  3
  11713  11735  11719  11718     1  180.0000771  0.4184000  2
  11713  11735  11719  11718     1  0.0000000  1.6024720  3
  11714  11717  11718  11719     1  180.0000771  0.8368000  1
  11714  11717  11718  11719     1  180.0000771  1.0460000  2
  11714  11717  11718  11719     1  0.0000000  0.7531200  3
  11714  11717  11718  11724     1  0.0000000  0.6508444  3
  11714  11713  11727  11733     1  0.0000000  0.6508444  3
  11714  11713  11735  11719     1  180.0000771  0.4184000  2
  11714  11713  11735  11719     1  0.0000000  1.6024720  3
  11717  11718  11719  11723     1  0.0000000  0.6508444  3
  11717  11718  11719  11735     1  0.0000000  0.6508444  3
  11717  11714  11713  11727     1  180.0000771  0.8368000  1
  11717  11714  11713  11727     1  180.0000771  1.0460000  2
  11717  11714  11713  11727     1  0.0000000  0.7531200  3
  11717  11714  11713  11735     1  0.0000000  0.6508444  3
  11718  11717  11714  11726     1  0.0000000  0.6508444  3
  11719  11735  11713  11727     1  180.0000771  0.4184000  2
  11719  11735  11713  11727     1  0.0000000  1.6024720  3
  11719  11718  11717  11725     1  0.0000000  0.6508444  3
  11723  11719  11718  11724     1  0.0000000  4.9162000  2
  11723  11719  11718  11724     1  0.0000000  0.6024960  3
  11724  11718  11719  11735     1  0.0000000  4.9162000  2
  11724  11718  11719  11735     1  0.0000000  0.6024960  3
  11724  11718  11717  11725     1  0.0000000  4.9162000  2
  11724  11718  11717  11725     1  0.0000000  0.6024960  3
  11725  11717  11714  11726     1  0.0000000  4.9162000  2
  11725  11717  11714  11726     1  0.0000000  0.6024960  3
  11726  11714  11713  11727     1  0.0000000  0.6508444  3
  11726  11714  11713  11735     1  0.0000000  4.9162000  2
  11726  11714  11713  11735     1  0.0000000  0.6024960  3
  11733  11727  11713  11735     1  0.0000000  4.9162000  2
  11733  11727  11713  11735     1  0.0000000  0.6024960  3
  11736  11737  11740  11741     1  180.0000771  0.8368000  1
  11736  11737  11740  11741     1  180.0000771  1.0460000  2
  11736  11737  11740  11741     1  0.0000000  0.7531200  3
  11736  11737  11740  11748     1  0.0000000  0.6508444  3
  11736  11758  11742  11741     1  180.0000771  0.4184000  2
  11736  11758  11742  11741     1  0.0000000  1.6024720  3
  11736  11758  11742  11746     1  180.0000771  5.6484000  1
  11736  11758  11742  11746     1  180.0000771  3.5564000  2
  11736  11758  11742  11746     1  0.0000000  0.4184000  3
  11737  11736  11750  11756     1  0.0000000  0.6508444  3
  11737  11736  11758  11742     1  180.0000771  0.4184000  2
  11737  11736  11758  11742     1  0.0000000  1.6024720  3
  11737  11740  11741  11742     1  180.0000771  0.8368000  1
  11737  11740  11741  11742     1  180.0000771  1.0460000  2
  11737  11740  11741  11742     1  0.0000000  0.7531200  3
  11737  11740  11741  11747     1  0.0000000  0.6508444  3
  11740  11737  11736  11750     1  180.0000771  0.8368000  1
  11740  11737  11736  11750     1  180.0000771  1.0460000  2
  11740  11737  11736  11750     1  0.0000000  0.7531200  3
  11740  11737  11736  11758     1  0.0000000  0.6508444  3
  11740  11741  11742  11746     1  0.0000000  0.6508444  3
  11740  11741  11742  11758     1  0.0000000  0.6508444  3
  11741  11740  11737  11749     1  0.0000000  0.6508444  3
  11742  11741  11740  11748     1  0.0000000  0.6508444  3
  11742  11758  11736  11750     1  180.0000771  0.4184000  2
  11742  11758  11736  11750     1  0.0000000  1.6024720  3
  11746  11742  11741  11747     1  0.0000000  4.9162000  2
  11746  11742  11741  11747     1  0.0000000  0.6024960  3
  11747  11741  11740  11748     1  0.0000000  4.9162000  2
  11747  11741  11740  11748     1  0.0000000  0.6024960  3
  11747  11741  11742  11758     1  0.0000000  4.9162000  2
  11747  11741  11742  11758     1  0.0000000  0.6024960  3
  11748  11740  11737  11749     1  0.0000000  4.9162000  2
  11748  11740  11737  11749     1  0.0000000  0.6024960  3
  11749  11737  11736  11750     1  0.0000000  0.6508444  3
  11749  11737  11736  11758     1  0.0000000  4.9162000  2
  11749  11737  11736  11758     1  0.0000000  0.6024960  3
  11756  11750  11736  11758     1  0.0000000  4.9162000  2
  11756  11750  11736  11758     1  0.0000000  0.6024960  3
  11759  11760  11763  11764     1  180.0000771  0.8368000  1
  11759  11760  11763  11764     1  180.0000771  1.0460000  2
  11759  11760  11763  11764     1  0.0000000  0.7531200  3
  11759  11760  11763  11771     1  0.0000000  0.6508444  3
  11759  11781  11765  11769     1  180.0000771  5.6484000  1
  11759  11781  11765  11769     1  180.0000771  3.5564000  2
  11759  11781  11765  11769     1  0.0000000  0.4184000  3
  11759  11781  11765  11764     1  180.0000771  0.4184000  2
  11759  11781  11765  11764     1  0.0000000  1.6024720  3
  11760  11763  11764  11765     1  180.0000771  0.8368000  1
  11760  11763  11764  11765     1  180.0000771  1.0460000  2
  11760  11763  11764  11765     1  0.0000000  0.7531200  3
  11760  11763  11764  11770     1  0.0000000  0.6508444  3
  11760  11759  11773  11779     1  0.0000000  0.6508444  3
  11760  11759  11781  11765     1  180.0000771  0.4184000  2
  11760  11759  11781  11765     1  0.0000000  1.6024720  3
  11763  11764  11765  11769     1  0.0000000  0.6508444  3
  11763  11764  11765  11781     1  0.0000000  0.6508444  3
  11763  11760  11759  11773     1  180.0000771  0.8368000  1
  11763  11760  11759  11773     1  180.0000771  1.0460000  2
  11763  11760  11759  11773     1  0.0000000  0.7531200  3
  11763  11760  11759  11781     1  0.0000000  0.6508444  3
  11764  11763  11760  11772     1  0.0000000  0.6508444  3
  11765  11781  11759  11773     1  180.0000771  0.4184000  2
  11765  11781  11759  11773     1  0.0000000  1.6024720  3
  11765  11764  11763  11771     1  0.0000000  0.6508444  3
  11769  11765  11764  11770     1  0.0000000  4.9162000  2
  11769  11765  11764  11770     1  0.0000000  0.6024960  3
  11770  11764  11765  11781     1  0.0000000  4.9162000  2
  11770  11764  11765  11781     1  0.0000000  0.6024960  3
  11770  11764  11763  11771     1  0.0000000  4.9162000  2
  11770  11764  11763  11771     1  0.0000000  0.6024960  3
  11771  11763  11760  11772     1  0.0000000  4.9162000  2
  11771  11763  11760  11772     1  0.0000000  0.6024960  3
  11772  11760  11759  11773     1  0.0000000  0.6508444  3
  11772  11760  11759  11781     1  0.0000000  4.9162000  2
  11772  11760  11759  11781     1  0.0000000  0.6024960  3
  11779  11773  11759  11781     1  0.0000000  4.9162000  2
  11779  11773  11759  11781     1  0.0000000  0.6024960  3
  11782  11783  11786  11787     1  180.0000771  0.8368000  1
  11782  11783  11786  11787     1  180.0000771  1.0460000  2
  11782  11783  11786  11787     1  0.0000000  0.7531200  3
  11782  11783  11786  11794     1  0.0000000  0.6508444  3
  11782  11804  11788  11787     1  180.0000771  0.4184000  2
  11782  11804  11788  11787     1  0.0000000  1.6024720  3
  11782  11804  11788  11792     1  180.0000771  5.6484000  1
  11782  11804  11788  11792     1  180.0000771  3.5564000  2
  11782  11804  11788  11792     1  0.0000000  0.4184000  3
  11783  11782  11796  11802     1  0.0000000  0.6508444  3
  11783  11782  11804  11788     1  180.0000771  0.4184000  2
  11783  11782  11804  11788     1  0.0000000  1.6024720  3
  11783  11786  11787  11788     1  180.0000771  0.8368000  1
  11783  11786  11787  11788     1  180.0000771  1.0460000  2
  11783  11786  11787  11788     1  0.0000000  0.7531200  3
  11783  11786  11787  11793     1  0.0000000  0.6508444  3
  11786  11783  11782  11796     1  180.0000771  0.8368000  1
  11786  11783  11782  11796     1  180.0000771  1.0460000  2
  11786  11783  11782  11796     1  0.0000000  0.7531200  3
  11786  11783  11782  11804     1  0.0000000  0.6508444  3
  11786  11787  11788  11792     1  0.0000000  0.6508444  3
  11786  11787  11788  11804     1  0.0000000  0.6508444  3
  11787  11786  11783  11795     1  0.0000000  0.6508444  3
  11788  11787  11786  11794     1  0.0000000  0.6508444  3
  11788  11804  11782  11796     1  180.0000771  0.4184000  2
  11788  11804  11782  11796     1  0.0000000  1.6024720  3
  11792  11788  11787  11793     1  0.0000000  4.9162000  2
  11792  11788  11787  11793     1  0.0000000  0.6024960  3
  11793  11787  11786  11794     1  0.0000000  4.9162000  2
  11793  11787  11786  11794     1  0.0000000  0.6024960  3
  11793  11787  11788  11804     1  0.0000000  4.9162000  2
  11793  11787  11788  11804     1  0.0000000  0.6024960  3
  11794  11786  11783  11795     1  0.0000000  4.9162000  2
  11794  11786  11783  11795     1  0.0000000  0.6024960  3
  11795  11783  11782  11796     1  0.0000000  0.6508444  3
  11795  11783  11782  11804     1  0.0000000  4.9162000  2
  11795  11783  11782  11804     1  0.0000000  0.6024960  3
  11802  11796  11782  11804     1  0.0000000  4.9162000  2
  11802  11796  11782  11804     1  0.0000000  0.6024960  3
  11805  11806  11809  11810     1  180.0000771  0.8368000  1
  11805  11806  11809  11810     1  180.0000771  1.0460000  2
  11805  11806  11809  11810     1  0.0000000  0.7531200  3
  11805  11806  11809  11817     1  0.0000000  0.6508444  3
  11805  11827  11811  11815     1  180.0000771  5.6484000  1
  11805  11827  11811  11815     1  180.0000771  3.5564000  2
  11805  11827  11811  11815     1  0.0000000  0.4184000  3
  11805  11827  11811  11810     1  180.0000771  0.4184000  2
  11805  11827  11811  11810     1  0.0000000  1.6024720  3
  11806  11809  11810  11811     1  180.0000771  0.8368000  1
  11806  11809  11810  11811     1  180.0000771  1.0460000  2
  11806  11809  11810  11811     1  0.0000000  0.7531200  3
  11806  11809  11810  11816     1  0.0000000  0.6508444  3
  11806  11805  11819  11825     1  0.0000000  0.6508444  3
  11806  11805  11827  11811     1  180.0000771  0.4184000  2
  11806  11805  11827  11811     1  0.0000000  1.6024720  3
  11809  11810  11811  11815     1  0.0000000  0.6508444  3
  11809  11810  11811  11827     1  0.0000000  0.6508444  3
  11809  11806  11805  11819     1  180.0000771  0.8368000  1
  11809  11806  11805  11819     1  180.0000771  1.0460000  2
  11809  11806  11805  11819     1  0.0000000  0.7531200  3
  11809  11806  11805  11827     1  0.0000000  0.6508444  3
  11810  11809  11806  11818     1  0.0000000  0.6508444  3
  11811  11827  11805  11819     1  180.0000771  0.4184000  2
  11811  11827  11805  11819     1  0.0000000  1.6024720  3
  11811  11810  11809  11817     1  0.0000000  0.6508444  3
  11815  11811  11810  11816     1  0.0000000  4.9162000  2
  11815  11811  11810  11816     1  0.0000000  0.6024960  3
  11816  11810  11811  11827     1  0.0000000  4.9162000  2
  11816  11810  11811  11827     1  0.0000000  0.6024960  3
  11816  11810  11809  11817     1  0.0000000  4.9162000  2
  11816  11810  11809  11817     1  0.0000000  0.6024960  3
  11817  11809  11806  11818     1  0.0000000  4.9162000  2
  11817  11809  11806  11818     1  0.0000000  0.6024960  3
  11818  11806  11805  11819     1  0.0000000  0.6508444  3
  11818  11806  11805  11827     1  0.0000000  4.9162000  2
  11818  11806  11805  11827     1  0.0000000  0.6024960  3
  11825  11819  11805  11827     1  0.0000000  4.9162000  2
  11825  11819  11805  11827     1  0.0000000  0.6024960  3
  11828  11829  11832  11833     1  180.0000771  0.8368000  1
  11828  11829  11832  11833     1  180.0000771  1.0460000  2
  11828  11829  11832  11833     1  0.0000000  0.7531200  3
  11828  11829  11832  11840     1  0.0000000  0.6508444  3
  11828  11850  11834  11833     1  180.0000771  0.4184000  2
  11828  11850  11834  11833     1  0.0000000  1.6024720  3
  11828  11850  11834  11838     1  180.0000771  5.6484000  1
  11828  11850  11834  11838     1  180.0000771  3.5564000  2
  11828  11850  11834  11838     1  0.0000000  0.4184000  3
  11829  11828  11842  11848     1  0.0000000  0.6508444  3
  11829  11828  11850  11834     1  180.0000771  0.4184000  2
  11829  11828  11850  11834     1  0.0000000  1.6024720  3
  11829  11832  11833  11834     1  180.0000771  0.8368000  1
  11829  11832  11833  11834     1  180.0000771  1.0460000  2
  11829  11832  11833  11834     1  0.0000000  0.7531200  3
  11829  11832  11833  11839     1  0.0000000  0.6508444  3
  11832  11829  11828  11842     1  180.0000771  0.8368000  1
  11832  11829  11828  11842     1  180.0000771  1.0460000  2
  11832  11829  11828  11842     1  0.0000000  0.7531200  3
  11832  11829  11828  11850     1  0.0000000  0.6508444  3
  11832  11833  11834  11838     1  0.0000000  0.6508444  3
  11832  11833  11834  11850     1  0.0000000  0.6508444  3
  11833  11832  11829  11841     1  0.0000000  0.6508444  3
  11834  11833  11832  11840     1  0.0000000  0.6508444  3
  11834  11850  11828  11842     1  180.0000771  0.4184000  2
  11834  11850  11828  11842     1  0.0000000  1.6024720  3
  11838  11834  11833  11839     1  0.0000000  4.9162000  2
  11838  11834  11833  11839     1  0.0000000  0.6024960  3
  11839  11833  11832  11840     1  0.0000000  4.9162000  2
  11839  11833  11832  11840     1  0.0000000  0.6024960  3
  11839  11833  11834  11850     1  0.0000000  4.9162000  2
  11839  11833  11834  11850     1  0.0000000  0.6024960  3
  11840  11832  11829  11841     1  0.0000000  4.9162000  2
  11840  11832  11829  11841     1  0.0000000  0.6024960  3
  11841  11829  11828  11842     1  0.0000000  0.6508444  3
  11841  11829  11828  11850     1  0.0000000  4.9162000  2
  11841  11829  11828  11850     1  0.0000000  0.6024960  3
  11848  11842  11828  11850     1  0.0000000  4.9162000  2
  11848  11842  11828  11850     1  0.0000000  0.6024960  3
  11851  11852  11855  11856     1  180.0000771  0.8368000  1
  11851  11852  11855  11856     1  180.0000771  1.0460000  2
  11851  11852  11855  11856     1  0.0000000  0.7531200  3
  11851  11852  11855  11863     1  0.0000000  0.6508444  3
  11851  11873  11857  11861     1  180.0000771  5.6484000  1
  11851  11873  11857  11861     1  180.0000771  3.5564000  2
  11851  11873  11857  11861     1  0.0000000  0.4184000  3
  11851  11873  11857  11856     1  180.0000771  0.4184000  2
  11851  11873  11857  11856     1  0.0000000  1.6024720  3
  11852  11855  11856  11857     1  180.0000771  0.8368000  1
  11852  11855  11856  11857     1  180.0000771  1.0460000  2
  11852  11855  11856  11857     1  0.0000000  0.7531200  3
  11852  11855  11856  11862     1  0.0000000  0.6508444  3
  11852  11851  11865  11871     1  0.0000000  0.6508444  3
  11852  11851  11873  11857     1  180.0000771  0.4184000  2
  11852  11851  11873  11857     1  0.0000000  1.6024720  3
  11855  11856  11857  11861     1  0.0000000  0.6508444  3
  11855  11856  11857  11873     1  0.0000000  0.6508444  3
  11855  11852  11851  11865     1  180.0000771  0.8368000  1
  11855  11852  11851  11865     1  180.0000771  1.0460000  2
  11855  11852  11851  11865     1  0.0000000  0.7531200  3
  11855  11852  11851  11873     1  0.0000000  0.6508444  3
  11856  11855  11852  11864     1  0.0000000  0.6508444  3
  11857  11873  11851  11865     1  180.0000771  0.4184000  2
  11857  11873  11851  11865     1  0.0000000  1.6024720  3
  11857  11856  11855  11863     1  0.0000000  0.6508444  3
  11861  11857  11856  11862     1  0.0000000  4.9162000  2
  11861  11857  11856  11862     1  0.0000000  0.6024960  3
  11862  11856  11857  11873     1  0.0000000  4.9162000  2
  11862  11856  11857  11873     1  0.0000000  0.6024960  3
  11862  11856  11855  11863     1  0.0000000  4.9162000  2
  11862  11856  11855  11863     1  0.0000000  0.6024960  3
  11863  11855  11852  11864     1  0.0000000  4.9162000  2
  11863  11855  11852  11864     1  0.0000000  0.6024960  3
  11864  11852  11851  11865     1  0.0000000  0.6508444  3
  11864  11852  11851  11873     1  0.0000000  4.9162000  2
  11864  11852  11851  11873     1  0.0000000  0.6024960  3
  11871  11865  11851  11873     1  0.0000000  4.9162000  2
  11871  11865  11851  11873     1  0.0000000  0.6024960  3
  11874  11875  11878  11879     1  180.0000771  0.8368000  1
  11874  11875  11878  11879     1  180.0000771  1.0460000  2
  11874  11875  11878  11879     1  0.0000000  0.7531200  3
  11874  11875  11878  11886     1  0.0000000  0.6508444  3
  11874  11896  11880  11879     1  180.0000771  0.4184000  2
  11874  11896  11880  11879     1  0.0000000  1.6024720  3
  11874  11896  11880  11884     1  180.0000771  5.6484000  1
  11874  11896  11880  11884     1  180.0000771  3.5564000  2
  11874  11896  11880  11884     1  0.0000000  0.4184000  3
  11875  11874  11888  11894     1  0.0000000  0.6508444  3
  11875  11874  11896  11880     1  180.0000771  0.4184000  2
  11875  11874  11896  11880     1  0.0000000  1.6024720  3
  11875  11878  11879  11880     1  180.0000771  0.8368000  1
  11875  11878  11879  11880     1  180.0000771  1.0460000  2
  11875  11878  11879  11880     1  0.0000000  0.7531200  3
  11875  11878  11879  11885     1  0.0000000  0.6508444  3
  11878  11875  11874  11888     1  180.0000771  0.8368000  1
  11878  11875  11874  11888     1  180.0000771  1.0460000  2
  11878  11875  11874  11888     1  0.0000000  0.7531200  3
  11878  11875  11874  11896     1  0.0000000  0.6508444  3
  11878  11879  11880  11884     1  0.0000000  0.6508444  3
  11878  11879  11880  11896     1  0.0000000  0.6508444  3
  11879  11878  11875  11887     1  0.0000000  0.6508444  3
  11880  11879  11878  11886     1  0.0000000  0.6508444  3
  11880  11896  11874  11888     1  180.0000771  0.4184000  2
  11880  11896  11874  11888     1  0.0000000  1.6024720  3
  11884  11880  11879  11885     1  0.0000000  4.9162000  2
  11884  11880  11879  11885     1  0.0000000  0.6024960  3
  11885  11879  11878  11886     1  0.0000000  4.9162000  2
  11885  11879  11878  11886     1  0.0000000  0.6024960  3
  11885  11879  11880  11896     1  0.0000000  4.9162000  2
  11885  11879  11880  11896     1  0.0000000  0.6024960  3
  11886  11878  11875  11887     1  0.0000000  4.9162000  2
  11886  11878  11875  11887     1  0.0000000  0.6024960  3
  11887  11875  11874  11888     1  0.0000000  0.6508444  3
  11887  11875  11874  11896     1  0.0000000  4.9162000  2
  11887  11875  11874  11896     1  0.0000000  0.6024960  3
  11894  11888  11874  11896     1  0.0000000  4.9162000  2
  11894  11888  11874  11896     1  0.0000000  0.6024960  3
  11897  11898  11901  11902     1  180.0000771  0.8368000  1
  11897  11898  11901  11902     1  180.0000771  1.0460000  2
  11897  11898  11901  11902     1  0.0000000  0.7531200  3
  11897  11898  11901  11909     1  0.0000000  0.6508444  3
  11897  11919  11903  11907     1  180.0000771  5.6484000  1
  11897  11919  11903  11907     1  180.0000771  3.5564000  2
  11897  11919  11903  11907     1  0.0000000  0.4184000  3
  11897  11919  11903  11902     1  180.0000771  0.4184000  2
  11897  11919  11903  11902     1  0.0000000  1.6024720  3
  11898  11901  11902  11903     1  180.0000771  0.8368000  1
  11898  11901  11902  11903     1  180.0000771  1.0460000  2
  11898  11901  11902  11903     1  0.0000000  0.7531200  3
  11898  11901  11902  11908     1  0.0000000  0.6508444  3
  11898  11897  11911  11917     1  0.0000000  0.6508444  3
  11898  11897  11919  11903     1  180.0000771  0.4184000  2
  11898  11897  11919  11903     1  0.0000000  1.6024720  3
  11901  11902  11903  11907     1  0.0000000  0.6508444  3
  11901  11902  11903  11919     1  0.0000000  0.6508444  3
  11901  11898  11897  11911     1  180.0000771  0.8368000  1
  11901  11898  11897  11911     1  180.0000771  1.0460000  2
  11901  11898  11897  11911     1  0.0000000  0.7531200  3
  11901  11898  11897  11919     1  0.0000000  0.6508444  3
  11902  11901  11898  11910     1  0.0000000  0.6508444  3
  11903  11919  11897  11911     1  180.0000771  0.4184000  2
  11903  11919  11897  11911     1  0.0000000  1.6024720  3
  11903  11902  11901  11909     1  0.0000000  0.6508444  3
  11907  11903  11902  11908     1  0.0000000  4.9162000  2
  11907  11903  11902  11908     1  0.0000000  0.6024960  3
  11908  11902  11903  11919     1  0.0000000  4.9162000  2
  11908  11902  11903  11919     1  0.0000000  0.6024960  3
  11908  11902  11901  11909     1  0.0000000  4.9162000  2
  11908  11902  11901  11909     1  0.0000000  0.6024960  3
  11909  11901  11898  11910     1  0.0000000  4.9162000  2
  11909  11901  11898  11910     1  0.0000000  0.6024960  3
  11910  11898  11897  11911     1  0.0000000  0.6508444  3
  11910  11898  11897  11919     1  0.0000000  4.9162000  2
  11910  11898  11897  11919     1  0.0000000  0.6024960  3
  11917  11911  11897  11919     1  0.0000000  4.9162000  2
  11917  11911  11897  11919     1  0.0000000  0.6024960  3
  11920  11921  11924  11925     1  180.0000771  0.8368000  1
  11920  11921  11924  11925     1  180.0000771  1.0460000  2
  11920  11921  11924  11925     1  0.0000000  0.7531200  3
  11920  11921  11924  11932     1  0.0000000  0.6508444  3
  11920  11942  11926  11925     1  180.0000771  0.4184000  2
  11920  11942  11926  11925     1  0.0000000  1.6024720  3
  11920  11942  11926  11930     1  180.0000771  5.6484000  1
  11920  11942  11926  11930     1  180.0000771  3.5564000  2
  11920  11942  11926  11930     1  0.0000000  0.4184000  3
  11921  11920  11934  11940     1  0.0000000  0.6508444  3
  11921  11920  11942  11926     1  180.0000771  0.4184000  2
  11921  11920  11942  11926     1  0.0000000  1.6024720  3
  11921  11924  11925  11926     1  180.0000771  0.8368000  1
  11921  11924  11925  11926     1  180.0000771  1.0460000  2
  11921  11924  11925  11926     1  0.0000000  0.7531200  3
  11921  11924  11925  11931     1  0.0000000  0.6508444  3
  11924  11921  11920  11934     1  180.0000771  0.8368000  1
  11924  11921  11920  11934     1  180.0000771  1.0460000  2
  11924  11921  11920  11934     1  0.0000000  0.7531200  3
  11924  11921  11920  11942     1  0.0000000  0.6508444  3
  11924  11925  11926  11930     1  0.0000000  0.6508444  3
  11924  11925  11926  11942     1  0.0000000  0.6508444  3
  11925  11924  11921  11933     1  0.0000000  0.6508444  3
  11926  11925  11924  11932     1  0.0000000  0.6508444  3
  11926  11942  11920  11934     1  180.0000771  0.4184000  2
  11926  11942  11920  11934     1  0.0000000  1.6024720  3
  11930  11926  11925  11931     1  0.0000000  4.9162000  2
  11930  11926  11925  11931     1  0.0000000  0.6024960  3
  11931  11925  11924  11932     1  0.0000000  4.9162000  2
  11931  11925  11924  11932     1  0.0000000  0.6024960  3
  11931  11925  11926  11942     1  0.0000000  4.9162000  2
  11931  11925  11926  11942     1  0.0000000  0.6024960  3
  11932  11924  11921  11933     1  0.0000000  4.9162000  2
  11932  11924  11921  11933     1  0.0000000  0.6024960  3
  11933  11921  11920  11934     1  0.0000000  0.6508444  3
  11933  11921  11920  11942     1  0.0000000  4.9162000  2
  11933  11921  11920  11942     1  0.0000000  0.6024960  3
  11940  11934  11920  11942     1  0.0000000  4.9162000  2
  11940  11934  11920  11942     1  0.0000000  0.6024960  3
  11943  11944  11947  11948     1  180.0000771  0.8368000  1
  11943  11944  11947  11948     1  180.0000771  1.0460000  2
  11943  11944  11947  11948     1  0.0000000  0.7531200  3
  11943  11944  11947  11955     1  0.0000000  0.6508444  3
  11943  11965  11949  11953     1  180.0000771  5.6484000  1
  11943  11965  11949  11953     1  180.0000771  3.5564000  2
  11943  11965  11949  11953     1  0.0000000  0.4184000  3
  11943  11965  11949  11948     1  180.0000771  0.4184000  2
  11943  11965  11949  11948     1  0.0000000  1.6024720  3
  11944  11947  11948  11949     1  180.0000771  0.8368000  1
  11944  11947  11948  11949     1  180.0000771  1.0460000  2
  11944  11947  11948  11949     1  0.0000000  0.7531200  3
  11944  11947  11948  11954     1  0.0000000  0.6508444  3
  11944  11943  11957  11963     1  0.0000000  0.6508444  3
  11944  11943  11965  11949     1  180.0000771  0.4184000  2
  11944  11943  11965  11949     1  0.0000000  1.6024720  3
  11947  11948  11949  11953     1  0.0000000  0.6508444  3
  11947  11948  11949  11965     1  0.0000000  0.6508444  3
  11947  11944  11943  11957     1  180.0000771  0.8368000  1
  11947  11944  11943  11957     1  180.0000771  1.0460000  2
  11947  11944  11943  11957     1  0.0000000  0.7531200  3
  11947  11944  11943  11965     1  0.0000000  0.6508444  3
  11948  11947  11944  11956     1  0.0000000  0.6508444  3
  11949  11965  11943  11957     1  180.0000771  0.4184000  2
  11949  11965  11943  11957     1  0.0000000  1.6024720  3
  11949  11948  11947  11955     1  0.0000000  0.6508444  3
  11953  11949  11948  11954     1  0.0000000  4.9162000  2
  11953  11949  11948  11954     1  0.0000000  0.6024960  3
  11954  11948  11949  11965     1  0.0000000  4.9162000  2
  11954  11948  11949  11965     1  0.0000000  0.6024960  3
  11954  11948  11947  11955     1  0.0000000  4.9162000  2
  11954  11948  11947  11955     1  0.0000000  0.6024960  3
  11955  11947  11944  11956     1  0.0000000  4.9162000  2
  11955  11947  11944  11956     1  0.0000000  0.6024960  3
  11956  11944  11943  11957     1  0.0000000  0.6508444  3
  11956  11944  11943  11965     1  0.0000000  4.9162000  2
  11956  11944  11943  11965     1  0.0000000  0.6024960  3
  11963  11957  11943  11965     1  0.0000000  4.9162000  2
  11963  11957  11943  11965     1  0.0000000  0.6024960  3
  11966  11967  11970  11971     1  180.0000771  0.8368000  1
  11966  11967  11970  11971     1  180.0000771  1.0460000  2
  11966  11967  11970  11971     1  0.0000000  0.7531200  3
  11966  11967  11970  11978     1  0.0000000  0.6508444  3
  11966  11988  11972  11971     1  180.0000771  0.4184000  2
  11966  11988  11972  11971     1  0.0000000  1.6024720  3
  11966  11988  11972  11976     1  180.0000771  5.6484000  1
  11966  11988  11972  11976     1  180.0000771  3.5564000  2
  11966  11988  11972  11976     1  0.0000000  0.4184000  3
  11967  11966  11980  11986     1  0.0000000  0.6508444  3
  11967  11966  11988  11972     1  180.0000771  0.4184000  2
  11967  11966  11988  11972     1  0.0000000  1.6024720  3
  11967  11970  11971  11972     1  180.0000771  0.8368000  1
  11967  11970  11971  11972     1  180.0000771  1.0460000  2
  11967  11970  11971  11972     1  0.0000000  0.7531200  3
  11967  11970  11971  11977     1  0.0000000  0.6508444  3
  11970  11967  11966  11980     1  180.0000771  0.8368000  1
  11970  11967  11966  11980     1  180.0000771  1.0460000  2
  11970  11967  11966  11980     1  0.0000000  0.7531200  3
  11970  11967  11966  11988     1  0.0000000  0.6508444  3
  11970  11971  11972  11976     1  0.0000000  0.6508444  3
  11970  11971  11972  11988     1  0.0000000  0.6508444  3
  11971  11970  11967  11979     1  0.0000000  0.6508444  3
  11972  11971  11970  11978     1  0.0000000  0.6508444  3
  11972  11988  11966  11980     1  180.0000771  0.4184000  2
  11972  11988  11966  11980     1  0.0000000  1.6024720  3
  11976  11972  11971  11977     1  0.0000000  4.9162000  2
  11976  11972  11971  11977     1  0.0000000  0.6024960  3
  11977  11971  11970  11978     1  0.0000000  4.9162000  2
  11977  11971  11970  11978     1  0.0000000  0.6024960  3
  11977  11971  11972  11988     1  0.0000000  4.9162000  2
  11977  11971  11972  11988     1  0.0000000  0.6024960  3
  11978  11970  11967  11979     1  0.0000000  4.9162000  2
  11978  11970  11967  11979     1  0.0000000  0.6024960  3
  11979  11967  11966  11980     1  0.0000000  0.6508444  3
  11979  11967  11966  11988     1  0.0000000  4.9162000  2
  11979  11967  11966  11988     1  0.0000000  0.6024960  3
  11986  11980  11966  11988     1  0.0000000  4.9162000  2
  11986  11980  11966  11988     1  0.0000000  0.6024960  3
  11989  11990  11993  11994     1  180.0000771  0.8368000  1
  11989  11990  11993  11994     1  180.0000771  1.0460000  2
  11989  11990  11993  11994     1  0.0000000  0.7531200  3
  11989  11990  11993  12001     1  0.0000000  0.6508444  3
  11989  12011  11995  11999     1  180.0000771  5.6484000  1
  11989  12011  11995  11999     1  180.0000771  3.5564000  2
  11989  12011  11995  11999     1  0.0000000  0.4184000  3
  11989  12011  11995  11994     1  180.0000771  0.4184000  2
  11989  12011  11995  11994     1  0.0000000  1.6024720  3
  11990  11993  11994  11995     1  180.0000771  0.8368000  1
  11990  11993  11994  11995     1  180.0000771  1.0460000  2
  11990  11993  11994  11995     1  0.0000000  0.7531200  3
  11990  11993  11994  12000     1  0.0000000  0.6508444  3
  11990  11989  12003  12009     1  0.0000000  0.6508444  3
  11990  11989  12011  11995     1  180.0000771  0.4184000  2
  11990  11989  12011  11995     1  0.0000000  1.6024720  3
  11993  11994  11995  11999     1  0.0000000  0.6508444  3
  11993  11994  11995  12011     1  0.0000000  0.6508444  3
  11993  11990  11989  12003     1  180.0000771  0.8368000  1
  11993  11990  11989  12003     1  180.0000771  1.0460000  2
  11993  11990  11989  12003     1  0.0000000  0.7531200  3
  11993  11990  11989  12011     1  0.0000000  0.6508444  3
  11994  11993  11990  12002     1  0.0000000  0.6508444  3
  11995  12011  11989  12003     1  180.0000771  0.4184000  2
  11995  12011  11989  12003     1  0.0000000  1.6024720  3
  11995  11994  11993  12001     1  0.0000000  0.6508444  3
  11999  11995  11994  12000     1  0.0000000  4.9162000  2
  11999  11995  11994  12000     1  0.0000000  0.6024960  3
  12000  11994  11995  12011     1  0.0000000  4.9162000  2
  12000  11994  11995  12011     1  0.0000000  0.6024960  3
  12000  11994  11993  12001     1  0.0000000  4.9162000  2
  12000  11994  11993  12001     1  0.0000000  0.6024960  3
  12001  11993  11990  12002     1  0.0000000  4.9162000  2
  12001  11993  11990  12002     1  0.0000000  0.6024960  3
  12002  11990  11989  12003     1  0.0000000  0.6508444  3
  12002  11990  11989  12011     1  0.0000000  4.9162000  2
  12002  11990  11989  12011     1  0.0000000  0.6024960  3
  12009  12003  11989  12011     1  0.0000000  4.9162000  2
  12009  12003  11989  12011     1  0.0000000  0.6024960  3
  12012  12013  12016  12017     1  180.0000771  0.8368000  1
  12012  12013  12016  12017     1  180.0000771  1.0460000  2
  12012  12013  12016  12017     1  0.0000000  0.7531200  3
  12012  12013  12016  12024     1  0.0000000  0.6508444  3
  12012  12034  12018  12017     1  180.0000771  0.4184000  2
  12012  12034  12018  12017     1  0.0000000  1.6024720  3
  12012  12034  12018  12022     1  180.0000771  5.6484000  1
  12012  12034  12018  12022     1  180.0000771  3.5564000  2
  12012  12034  12018  12022     1  0.0000000  0.4184000  3
  12013  12012  12026  12032     1  0.0000000  0.6508444  3
  12013  12012  12034  12018     1  180.0000771  0.4184000  2
  12013  12012  12034  12018     1  0.0000000  1.6024720  3
  12013  12016  12017  12018     1  180.0000771  0.8368000  1
  12013  12016  12017  12018     1  180.0000771  1.0460000  2
  12013  12016  12017  12018     1  0.0000000  0.7531200  3
  12013  12016  12017  12023     1  0.0000000  0.6508444  3
  12016  12013  12012  12026     1  180.0000771  0.8368000  1
  12016  12013  12012  12026     1  180.0000771  1.0460000  2
  12016  12013  12012  12026     1  0.0000000  0.7531200  3
  12016  12013  12012  12034     1  0.0000000  0.6508444  3
  12016  12017  12018  12022     1  0.0000000  0.6508444  3
  12016  12017  12018  12034     1  0.0000000  0.6508444  3
  12017  12016  12013  12025     1  0.0000000  0.6508444  3
  12018  12017  12016  12024     1  0.0000000  0.6508444  3
  12018  12034  12012  12026     1  180.0000771  0.4184000  2
  12018  12034  12012  12026     1  0.0000000  1.6024720  3
  12022  12018  12017  12023     1  0.0000000  4.9162000  2
  12022  12018  12017  12023     1  0.0000000  0.6024960  3
  12023  12017  12016  12024     1  0.0000000  4.9162000  2
  12023  12017  12016  12024     1  0.0000000  0.6024960  3
  12023  12017  12018  12034     1  0.0000000  4.9162000  2
  12023  12017  12018  12034     1  0.0000000  0.6024960  3
  12024  12016  12013  12025     1  0.0000000  4.9162000  2
  12024  12016  12013  12025     1  0.0000000  0.6024960  3
  12025  12013  12012  12026     1  0.0000000  0.6508444  3
  12025  12013  12012  12034     1  0.0000000  4.9162000  2
  12025  12013  12012  12034     1  0.0000000  0.6024960  3
  12032  12026  12012  12034     1  0.0000000  4.9162000  2
  12032  12026  12012  12034     1  0.0000000  0.6024960  3
  12035  12036  12039  12040     1  180.0000771  0.8368000  1
  12035  12036  12039  12040     1  180.0000771  1.0460000  2
  12035  12036  12039  12040     1  0.0000000  0.7531200  3
  12035  12036  12039  12047     1  0.0000000  0.6508444  3
  12035  12057  12041  12045     1  180.0000771  5.6484000  1
  12035  12057  12041  12045     1  180.0000771  3.5564000  2
  12035  12057  12041  12045     1  0.0000000  0.4184000  3
  12035  12057  12041  12040     1  180.0000771  0.4184000  2
  12035  12057  12041  12040     1  0.0000000  1.6024720  3
  12036  12039  12040  12041     1  180.0000771  0.8368000  1
  12036  12039  12040  12041     1  180.0000771  1.0460000  2
  12036  12039  12040  12041     1  0.0000000  0.7531200  3
  12036  12039  12040  12046     1  0.0000000  0.6508444  3
  12036  12035  12049  12055     1  0.0000000  0.6508444  3
  12036  12035  12057  12041     1  180.0000771  0.4184000  2
  12036  12035  12057  12041     1  0.0000000  1.6024720  3
  12039  12040  12041  12045     1  0.0000000  0.6508444  3
  12039  12040  12041  12057     1  0.0000000  0.6508444  3
  12039  12036  12035  12049     1  180.0000771  0.8368000  1
  12039  12036  12035  12049     1  180.0000771  1.0460000  2
  12039  12036  12035  12049     1  0.0000000  0.7531200  3
  12039  12036  12035  12057     1  0.0000000  0.6508444  3
  12040  12039  12036  12048     1  0.0000000  0.6508444  3
  12041  12057  12035  12049     1  180.0000771  0.4184000  2
  12041  12057  12035  12049     1  0.0000000  1.6024720  3
  12041  12040  12039  12047     1  0.0000000  0.6508444  3
  12045  12041  12040  12046     1  0.0000000  4.9162000  2
  12045  12041  12040  12046     1  0.0000000  0.6024960  3
  12046  12040  12041  12057     1  0.0000000  4.9162000  2
  12046  12040  12041  12057     1  0.0000000  0.6024960  3
  12046  12040  12039  12047     1  0.0000000  4.9162000  2
  12046  12040  12039  12047     1  0.0000000  0.6024960  3
  12047  12039  12036  12048     1  0.0000000  4.9162000  2
  12047  12039  12036  12048     1  0.0000000  0.6024960  3
  12048  12036  12035  12049     1  0.0000000  0.6508444  3
  12048  12036  12035  12057     1  0.0000000  4.9162000  2
  12048  12036  12035  12057     1  0.0000000  0.6024960  3
  12055  12049  12035  12057     1  0.0000000  4.9162000  2
  12055  12049  12035  12057     1  0.0000000  0.6024960  3
  12058  12059  12062  12063     1  180.0000771  0.8368000  1
  12058  12059  12062  12063     1  180.0000771  1.0460000  2
  12058  12059  12062  12063     1  0.0000000  0.7531200  3
  12058  12059  12062  12070     1  0.0000000  0.6508444  3
  12058  12080  12064  12063     1  180.0000771  0.4184000  2
  12058  12080  12064  12063     1  0.0000000  1.6024720  3
  12058  12080  12064  12068     1  180.0000771  5.6484000  1
  12058  12080  12064  12068     1  180.0000771  3.5564000  2
  12058  12080  12064  12068     1  0.0000000  0.4184000  3
  12059  12058  12072  12078     1  0.0000000  0.6508444  3
  12059  12058  12080  12064     1  180.0000771  0.4184000  2
  12059  12058  12080  12064     1  0.0000000  1.6024720  3
  12059  12062  12063  12064     1  180.0000771  0.8368000  1
  12059  12062  12063  12064     1  180.0000771  1.0460000  2
  12059  12062  12063  12064     1  0.0000000  0.7531200  3
  12059  12062  12063  12069     1  0.0000000  0.6508444  3
  12062  12059  12058  12072     1  180.0000771  0.8368000  1
  12062  12059  12058  12072     1  180.0000771  1.0460000  2
  12062  12059  12058  12072     1  0.0000000  0.7531200  3
  12062  12059  12058  12080     1  0.0000000  0.6508444  3
  12062  12063  12064  12068     1  0.0000000  0.6508444  3
  12062  12063  12064  12080     1  0.0000000  0.6508444  3
  12063  12062  12059  12071     1  0.0000000  0.6508444  3
  12064  12063  12062  12070     1  0.0000000  0.6508444  3
  12064  12080  12058  12072     1  180.0000771  0.4184000  2
  12064  12080  12058  12072     1  0.0000000  1.6024720  3
  12068  12064  12063  12069     1  0.0000000  4.9162000  2
  12068  12064  12063  12069     1  0.0000000  0.6024960  3
  12069  12063  12062  12070     1  0.0000000  4.9162000  2
  12069  12063  12062  12070     1  0.0000000  0.6024960  3
  12069  12063  12064  12080     1  0.0000000  4.9162000  2
  12069  12063  12064  12080     1  0.0000000  0.6024960  3
  12070  12062  12059  12071     1  0.0000000  4.9162000  2
  12070  12062  12059  12071     1  0.0000000  0.6024960  3
  12071  12059  12058  12072     1  0.0000000  0.6508444  3
  12071  12059  12058  12080     1  0.0000000  4.9162000  2
  12071  12059  12058  12080     1  0.0000000  0.6024960  3
  12078  12072  12058  12080     1  0.0000000  4.9162000  2
  12078  12072  12058  12080     1  0.0000000  0.6024960  3
  12081  12082  12085  12086     1  180.0000771  0.8368000  1
  12081  12082  12085  12086     1  180.0000771  1.0460000  2
  12081  12082  12085  12086     1  0.0000000  0.7531200  3
  12081  12082  12085  12093     1  0.0000000  0.6508444  3
  12081  12103  12087  12091     1  180.0000771  5.6484000  1
  12081  12103  12087  12091     1  180.0000771  3.5564000  2
  12081  12103  12087  12091     1  0.0000000  0.4184000  3
  12081  12103  12087  12086     1  180.0000771  0.4184000  2
  12081  12103  12087  12086     1  0.0000000  1.6024720  3
  12082  12085  12086  12087     1  180.0000771  0.8368000  1
  12082  12085  12086  12087     1  180.0000771  1.0460000  2
  12082  12085  12086  12087     1  0.0000000  0.7531200  3
  12082  12085  12086  12092     1  0.0000000  0.6508444  3
  12082  12081  12095  12101     1  0.0000000  0.6508444  3
  12082  12081  12103  12087     1  180.0000771  0.4184000  2
  12082  12081  12103  12087     1  0.0000000  1.6024720  3
  12085  12086  12087  12091     1  0.0000000  0.6508444  3
  12085  12086  12087  12103     1  0.0000000  0.6508444  3
  12085  12082  12081  12095     1  180.0000771  0.8368000  1
  12085  12082  12081  12095     1  180.0000771  1.0460000  2
  12085  12082  12081  12095     1  0.0000000  0.7531200  3
  12085  12082  12081  12103     1  0.0000000  0.6508444  3
  12086  12085  12082  12094     1  0.0000000  0.6508444  3
  12087  12103  12081  12095     1  180.0000771  0.4184000  2
  12087  12103  12081  12095     1  0.0000000  1.6024720  3
  12087  12086  12085  12093     1  0.0000000  0.6508444  3
  12091  12087  12086  12092     1  0.0000000  4.9162000  2
  12091  12087  12086  12092     1  0.0000000  0.6024960  3
  12092  12086  12087  12103     1  0.0000000  4.9162000  2
  12092  12086  12087  12103     1  0.0000000  0.6024960  3
  12092  12086  12085  12093     1  0.0000000  4.9162000  2
  12092  12086  12085  12093     1  0.0000000  0.6024960  3
  12093  12085  12082  12094     1  0.0000000  4.9162000  2
  12093  12085  12082  12094     1  0.0000000  0.6024960  3
  12094  12082  12081  12095     1  0.0000000  0.6508444  3
  12094  12082  12081  12103     1  0.0000000  4.9162000  2
  12094  12082  12081  12103     1  0.0000000  0.6024960  3
  12101  12095  12081  12103     1  0.0000000  4.9162000  2
  12101  12095  12081  12103     1  0.0000000  0.6024960  3
  12104  12105  12108  12109     1  180.0000771  0.8368000  1
  12104  12105  12108  12109     1  180.0000771  1.0460000  2
  12104  12105  12108  12109     1  0.0000000  0.7531200  3
  12104  12105  12108  12116     1  0.0000000  0.6508444  3
  12104  12126  12110  12109     1  180.0000771  0.4184000  2
  12104  12126  12110  12109     1  0.0000000  1.6024720  3
  12104  12126  12110  12114     1  180.0000771  5.6484000  1
  12104  12126  12110  12114     1  180.0000771  3.5564000  2
  12104  12126  12110  12114     1  0.0000000  0.4184000  3
  12105  12104  12118  12124     1  0.0000000  0.6508444  3
  12105  12104  12126  12110     1  180.0000771  0.4184000  2
  12105  12104  12126  12110     1  0.0000000  1.6024720  3
  12105  12108  12109  12110     1  180.0000771  0.8368000  1
  12105  12108  12109  12110     1  180.0000771  1.0460000  2
  12105  12108  12109  12110     1  0.0000000  0.7531200  3
  12105  12108  12109  12115     1  0.0000000  0.6508444  3
  12108  12105  12104  12118     1  180.0000771  0.8368000  1
  12108  12105  12104  12118     1  180.0000771  1.0460000  2
  12108  12105  12104  12118     1  0.0000000  0.7531200  3
  12108  12105  12104  12126     1  0.0000000  0.6508444  3
  12108  12109  12110  12114     1  0.0000000  0.6508444  3
  12108  12109  12110  12126     1  0.0000000  0.6508444  3
  12109  12108  12105  12117     1  0.0000000  0.6508444  3
  12110  12109  12108  12116     1  0.0000000  0.6508444  3
  12110  12126  12104  12118     1  180.0000771  0.4184000  2
  12110  12126  12104  12118     1  0.0000000  1.6024720  3
  12114  12110  12109  12115     1  0.0000000  4.9162000  2
  12114  12110  12109  12115     1  0.0000000  0.6024960  3
  12115  12109  12108  12116     1  0.0000000  4.9162000  2
  12115  12109  12108  12116     1  0.0000000  0.6024960  3
  12115  12109  12110  12126     1  0.0000000  4.9162000  2
  12115  12109  12110  12126     1  0.0000000  0.6024960  3
  12116  12108  12105  12117     1  0.0000000  4.9162000  2
  12116  12108  12105  12117     1  0.0000000  0.6024960  3
  12117  12105  12104  12118     1  0.0000000  0.6508444  3
  12117  12105  12104  12126     1  0.0000000  4.9162000  2
  12117  12105  12104  12126     1  0.0000000  0.6024960  3
  12124  12118  12104  12126     1  0.0000000  4.9162000  2
  12124  12118  12104  12126     1  0.0000000  0.6024960  3
  12127  12128  12131  12132     1  180.0000771  0.8368000  1
  12127  12128  12131  12132     1  180.0000771  1.0460000  2
  12127  12128  12131  12132     1  0.0000000  0.7531200  3
  12127  12128  12131  12139     1  0.0000000  0.6508444  3
  12127  12149  12133  12137     1  180.0000771  5.6484000  1
  12127  12149  12133  12137     1  180.0000771  3.5564000  2
  12127  12149  12133  12137     1  0.0000000  0.4184000  3
  12127  12149  12133  12132     1  180.0000771  0.4184000  2
  12127  12149  12133  12132     1  0.0000000  1.6024720  3
  12128  12131  12132  12133     1  180.0000771  0.8368000  1
  12128  12131  12132  12133     1  180.0000771  1.0460000  2
  12128  12131  12132  12133     1  0.0000000  0.7531200  3
  12128  12131  12132  12138     1  0.0000000  0.6508444  3
  12128  12127  12141  12147     1  0.0000000  0.6508444  3
  12128  12127  12149  12133     1  180.0000771  0.4184000  2
  12128  12127  12149  12133     1  0.0000000  1.6024720  3
  12131  12132  12133  12137     1  0.0000000  0.6508444  3
  12131  12132  12133  12149     1  0.0000000  0.6508444  3
  12131  12128  12127  12141     1  180.0000771  0.8368000  1
  12131  12128  12127  12141     1  180.0000771  1.0460000  2
  12131  12128  12127  12141     1  0.0000000  0.7531200  3
  12131  12128  12127  12149     1  0.0000000  0.6508444  3
  12132  12131  12128  12140     1  0.0000000  0.6508444  3
  12133  12149  12127  12141     1  180.0000771  0.4184000  2
  12133  12149  12127  12141     1  0.0000000  1.6024720  3
  12133  12132  12131  12139     1  0.0000000  0.6508444  3
  12137  12133  12132  12138     1  0.0000000  4.9162000  2
  12137  12133  12132  12138     1  0.0000000  0.6024960  3
  12138  12132  12133  12149     1  0.0000000  4.9162000  2
  12138  12132  12133  12149     1  0.0000000  0.6024960  3
  12138  12132  12131  12139     1  0.0000000  4.9162000  2
  12138  12132  12131  12139     1  0.0000000  0.6024960  3
  12139  12131  12128  12140     1  0.0000000  4.9162000  2
  12139  12131  12128  12140     1  0.0000000  0.6024960  3
  12140  12128  12127  12141     1  0.0000000  0.6508444  3
  12140  12128  12127  12149     1  0.0000000  4.9162000  2
  12140  12128  12127  12149     1  0.0000000  0.6024960  3
  12147  12141  12127  12149     1  0.0000000  4.9162000  2
  12147  12141  12127  12149     1  0.0000000  0.6024960  3
  12150  12151  12154  12155     1  180.0000771  0.8368000  1
  12150  12151  12154  12155     1  180.0000771  1.0460000  2
  12150  12151  12154  12155     1  0.0000000  0.7531200  3
  12150  12151  12154  12162     1  0.0000000  0.6508444  3
  12150  12172  12156  12155     1  180.0000771  0.4184000  2
  12150  12172  12156  12155     1  0.0000000  1.6024720  3
  12150  12172  12156  12160     1  180.0000771  5.6484000  1
  12150  12172  12156  12160     1  180.0000771  3.5564000  2
  12150  12172  12156  12160     1  0.0000000  0.4184000  3
  12151  12150  12164  12170     1  0.0000000  0.6508444  3
  12151  12150  12172  12156     1  180.0000771  0.4184000  2
  12151  12150  12172  12156     1  0.0000000  1.6024720  3
  12151  12154  12155  12156     1  180.0000771  0.8368000  1
  12151  12154  12155  12156     1  180.0000771  1.0460000  2
  12151  12154  12155  12156     1  0.0000000  0.7531200  3
  12151  12154  12155  12161     1  0.0000000  0.6508444  3
  12154  12151  12150  12164     1  180.0000771  0.8368000  1
  12154  12151  12150  12164     1  180.0000771  1.0460000  2
  12154  12151  12150  12164     1  0.0000000  0.7531200  3
  12154  12151  12150  12172     1  0.0000000  0.6508444  3
  12154  12155  12156  12160     1  0.0000000  0.6508444  3
  12154  12155  12156  12172     1  0.0000000  0.6508444  3
  12155  12154  12151  12163     1  0.0000000  0.6508444  3
  12156  12155  12154  12162     1  0.0000000  0.6508444  3
  12156  12172  12150  12164     1  180.0000771  0.4184000  2
  12156  12172  12150  12164     1  0.0000000  1.6024720  3
  12160  12156  12155  12161     1  0.0000000  4.9162000  2
  12160  12156  12155  12161     1  0.0000000  0.6024960  3
  12161  12155  12154  12162     1  0.0000000  4.9162000  2
  12161  12155  12154  12162     1  0.0000000  0.6024960  3
  12161  12155  12156  12172     1  0.0000000  4.9162000  2
  12161  12155  12156  12172     1  0.0000000  0.6024960  3
  12162  12154  12151  12163     1  0.0000000  4.9162000  2
  12162  12154  12151  12163     1  0.0000000  0.6024960  3
  12163  12151  12150  12164     1  0.0000000  0.6508444  3
  12163  12151  12150  12172     1  0.0000000  4.9162000  2
  12163  12151  12150  12172     1  0.0000000  0.6024960  3
  12170  12164  12150  12172     1  0.0000000  4.9162000  2
  12170  12164  12150  12172     1  0.0000000  0.6024960  3
  12173  12174  12177  12178     1  180.0000771  0.8368000  1
  12173  12174  12177  12178     1  180.0000771  1.0460000  2
  12173  12174  12177  12178     1  0.0000000  0.7531200  3
  12173  12174  12177  12185     1  0.0000000  0.6508444  3
  12173  12195  12179  12183     1  180.0000771  5.6484000  1
  12173  12195  12179  12183     1  180.0000771  3.5564000  2
  12173  12195  12179  12183     1  0.0000000  0.4184000  3
  12173  12195  12179  12178     1  180.0000771  0.4184000  2
  12173  12195  12179  12178     1  0.0000000  1.6024720  3
  12174  12177  12178  12179     1  180.0000771  0.8368000  1
  12174  12177  12178  12179     1  180.0000771  1.0460000  2
  12174  12177  12178  12179     1  0.0000000  0.7531200  3
  12174  12177  12178  12184     1  0.0000000  0.6508444  3
  12174  12173  12187  12193     1  0.0000000  0.6508444  3
  12174  12173  12195  12179     1  180.0000771  0.4184000  2
  12174  12173  12195  12179     1  0.0000000  1.6024720  3
  12177  12178  12179  12183     1  0.0000000  0.6508444  3
  12177  12178  12179  12195     1  0.0000000  0.6508444  3
  12177  12174  12173  12187     1  180.0000771  0.8368000  1
  12177  12174  12173  12187     1  180.0000771  1.0460000  2
  12177  12174  12173  12187     1  0.0000000  0.7531200  3
  12177  12174  12173  12195     1  0.0000000  0.6508444  3
  12178  12177  12174  12186     1  0.0000000  0.6508444  3
  12179  12195  12173  12187     1  180.0000771  0.4184000  2
  12179  12195  12173  12187     1  0.0000000  1.6024720  3
  12179  12178  12177  12185     1  0.0000000  0.6508444  3
  12183  12179  12178  12184     1  0.0000000  4.9162000  2
  12183  12179  12178  12184     1  0.0000000  0.6024960  3
  12184  12178  12179  12195     1  0.0000000  4.9162000  2
  12184  12178  12179  12195     1  0.0000000  0.6024960  3
  12184  12178  12177  12185     1  0.0000000  4.9162000  2
  12184  12178  12177  12185     1  0.0000000  0.6024960  3
  12185  12177  12174  12186     1  0.0000000  4.9162000  2
  12185  12177  12174  12186     1  0.0000000  0.6024960  3
  12186  12174  12173  12187     1  0.0000000  0.6508444  3
  12186  12174  12173  12195     1  0.0000000  4.9162000  2
  12186  12174  12173  12195     1  0.0000000  0.6024960  3
  12193  12187  12173  12195     1  0.0000000  4.9162000  2
  12193  12187  12173  12195     1  0.0000000  0.6024960  3
  12196  12197  12200  12201     1  180.0000771  0.8368000  1
  12196  12197  12200  12201     1  180.0000771  1.0460000  2
  12196  12197  12200  12201     1  0.0000000  0.7531200  3
  12196  12197  12200  12208     1  0.0000000  0.6508444  3
  12196  12218  12202  12201     1  180.0000771  0.4184000  2
  12196  12218  12202  12201     1  0.0000000  1.6024720  3
  12196  12218  12202  12206     1  180.0000771  5.6484000  1
  12196  12218  12202  12206     1  180.0000771  3.5564000  2
  12196  12218  12202  12206     1  0.0000000  0.4184000  3
  12197  12196  12210  12216     1  0.0000000  0.6508444  3
  12197  12196  12218  12202     1  180.0000771  0.4184000  2
  12197  12196  12218  12202     1  0.0000000  1.6024720  3
  12197  12200  12201  12202     1  180.0000771  0.8368000  1
  12197  12200  12201  12202     1  180.0000771  1.0460000  2
  12197  12200  12201  12202     1  0.0000000  0.7531200  3
  12197  12200  12201  12207     1  0.0000000  0.6508444  3
  12200  12197  12196  12210     1  180.0000771  0.8368000  1
  12200  12197  12196  12210     1  180.0000771  1.0460000  2
  12200  12197  12196  12210     1  0.0000000  0.7531200  3
  12200  12197  12196  12218     1  0.0000000  0.6508444  3
  12200  12201  12202  12206     1  0.0000000  0.6508444  3
  12200  12201  12202  12218     1  0.0000000  0.6508444  3
  12201  12200  12197  12209     1  0.0000000  0.6508444  3
  12202  12201  12200  12208     1  0.0000000  0.6508444  3
  12202  12218  12196  12210     1  180.0000771  0.4184000  2
  12202  12218  12196  12210     1  0.0000000  1.6024720  3
  12206  12202  12201  12207     1  0.0000000  4.9162000  2
  12206  12202  12201  12207     1  0.0000000  0.6024960  3
  12207  12201  12200  12208     1  0.0000000  4.9162000  2
  12207  12201  12200  12208     1  0.0000000  0.6024960  3
  12207  12201  12202  12218     1  0.0000000  4.9162000  2
  12207  12201  12202  12218     1  0.0000000  0.6024960  3
  12208  12200  12197  12209     1  0.0000000  4.9162000  2
  12208  12200  12197  12209     1  0.0000000  0.6024960  3
  12209  12197  12196  12210     1  0.0000000  0.6508444  3
  12209  12197  12196  12218     1  0.0000000  4.9162000  2
  12209  12197  12196  12218     1  0.0000000  0.6024960  3
  12216  12210  12196  12218     1  0.0000000  4.9162000  2
  12216  12210  12196  12218     1  0.0000000  0.6024960  3
  12219  12220  12223  12224     1  180.0000771  0.8368000  1
  12219  12220  12223  12224     1  180.0000771  1.0460000  2
  12219  12220  12223  12224     1  0.0000000  0.7531200  3
  12219  12220  12223  12231     1  0.0000000  0.6508444  3
  12219  12241  12225  12229     1  180.0000771  5.6484000  1
  12219  12241  12225  12229     1  180.0000771  3.5564000  2
  12219  12241  12225  12229     1  0.0000000  0.4184000  3
  12219  12241  12225  12224     1  180.0000771  0.4184000  2
  12219  12241  12225  12224     1  0.0000000  1.6024720  3
  12220  12223  12224  12225     1  180.0000771  0.8368000  1
  12220  12223  12224  12225     1  180.0000771  1.0460000  2
  12220  12223  12224  12225     1  0.0000000  0.7531200  3
  12220  12223  12224  12230     1  0.0000000  0.6508444  3
  12220  12219  12233  12239     1  0.0000000  0.6508444  3
  12220  12219  12241  12225     1  180.0000771  0.4184000  2
  12220  12219  12241  12225     1  0.0000000  1.6024720  3
  12223  12224  12225  12229     1  0.0000000  0.6508444  3
  12223  12224  12225  12241     1  0.0000000  0.6508444  3
  12223  12220  12219  12233     1  180.0000771  0.8368000  1
  12223  12220  12219  12233     1  180.0000771  1.0460000  2
  12223  12220  12219  12233     1  0.0000000  0.7531200  3
  12223  12220  12219  12241     1  0.0000000  0.6508444  3
  12224  12223  12220  12232     1  0.0000000  0.6508444  3
  12225  12241  12219  12233     1  180.0000771  0.4184000  2
  12225  12241  12219  12233     1  0.0000000  1.6024720  3
  12225  12224  12223  12231     1  0.0000000  0.6508444  3
  12229  12225  12224  12230     1  0.0000000  4.9162000  2
  12229  12225  12224  12230     1  0.0000000  0.6024960  3
  12230  12224  12225  12241     1  0.0000000  4.9162000  2
  12230  12224  12225  12241     1  0.0000000  0.6024960  3
  12230  12224  12223  12231     1  0.0000000  4.9162000  2
  12230  12224  12223  12231     1  0.0000000  0.6024960  3
  12231  12223  12220  12232     1  0.0000000  4.9162000  2
  12231  12223  12220  12232     1  0.0000000  0.6024960  3
  12232  12220  12219  12233     1  0.0000000  0.6508444  3
  12232  12220  12219  12241     1  0.0000000  4.9162000  2
  12232  12220  12219  12241     1  0.0000000  0.6024960  3
  12239  12233  12219  12241     1  0.0000000  4.9162000  2
  12239  12233  12219  12241     1  0.0000000  0.6024960  3
  12242  12243  12246  12247     1  180.0000771  0.8368000  1
  12242  12243  12246  12247     1  180.0000771  1.0460000  2
  12242  12243  12246  12247     1  0.0000000  0.7531200  3
  12242  12243  12246  12254     1  0.0000000  0.6508444  3
  12242  12264  12248  12247     1  180.0000771  0.4184000  2
  12242  12264  12248  12247     1  0.0000000  1.6024720  3
  12242  12264  12248  12252     1  180.0000771  5.6484000  1
  12242  12264  12248  12252     1  180.0000771  3.5564000  2
  12242  12264  12248  12252     1  0.0000000  0.4184000  3
  12243  12242  12256  12262     1  0.0000000  0.6508444  3
  12243  12242  12264  12248     1  180.0000771  0.4184000  2
  12243  12242  12264  12248     1  0.0000000  1.6024720  3
  12243  12246  12247  12248     1  180.0000771  0.8368000  1
  12243  12246  12247  12248     1  180.0000771  1.0460000  2
  12243  12246  12247  12248     1  0.0000000  0.7531200  3
  12243  12246  12247  12253     1  0.0000000  0.6508444  3
  12246  12243  12242  12256     1  180.0000771  0.8368000  1
  12246  12243  12242  12256     1  180.0000771  1.0460000  2
  12246  12243  12242  12256     1  0.0000000  0.7531200  3
  12246  12243  12242  12264     1  0.0000000  0.6508444  3
  12246  12247  12248  12252     1  0.0000000  0.6508444  3
  12246  12247  12248  12264     1  0.0000000  0.6508444  3
  12247  12246  12243  12255     1  0.0000000  0.6508444  3
  12248  12247  12246  12254     1  0.0000000  0.6508444  3
  12248  12264  12242  12256     1  180.0000771  0.4184000  2
  12248  12264  12242  12256     1  0.0000000  1.6024720  3
  12252  12248  12247  12253     1  0.0000000  4.9162000  2
  12252  12248  12247  12253     1  0.0000000  0.6024960  3
  12253  12247  12246  12254     1  0.0000000  4.9162000  2
  12253  12247  12246  12254     1  0.0000000  0.6024960  3
  12253  12247  12248  12264     1  0.0000000  4.9162000  2
  12253  12247  12248  12264     1  0.0000000  0.6024960  3
  12254  12246  12243  12255     1  0.0000000  4.9162000  2
  12254  12246  12243  12255     1  0.0000000  0.6024960  3
  12255  12243  12242  12256     1  0.0000000  0.6508444  3
  12255  12243  12242  12264     1  0.0000000  4.9162000  2
  12255  12243  12242  12264     1  0.0000000  0.6024960  3
  12262  12256  12242  12264     1  0.0000000  4.9162000  2
  12262  12256  12242  12264     1  0.0000000  0.6024960  3
  12265  12266  12269  12270     1  180.0000771  0.8368000  1
  12265  12266  12269  12270     1  180.0000771  1.0460000  2
  12265  12266  12269  12270     1  0.0000000  0.7531200  3
  12265  12266  12269  12277     1  0.0000000  0.6508444  3
  12265  12287  12271  12275     1  180.0000771  5.6484000  1
  12265  12287  12271  12275     1  180.0000771  3.5564000  2
  12265  12287  12271  12275     1  0.0000000  0.4184000  3
  12265  12287  12271  12270     1  180.0000771  0.4184000  2
  12265  12287  12271  12270     1  0.0000000  1.6024720  3
  12266  12269  12270  12271     1  180.0000771  0.8368000  1
  12266  12269  12270  12271     1  180.0000771  1.0460000  2
  12266  12269  12270  12271     1  0.0000000  0.7531200  3
  12266  12269  12270  12276     1  0.0000000  0.6508444  3
  12266  12265  12279  12285     1  0.0000000  0.6508444  3
  12266  12265  12287  12271     1  180.0000771  0.4184000  2
  12266  12265  12287  12271     1  0.0000000  1.6024720  3
  12269  12270  12271  12275     1  0.0000000  0.6508444  3
  12269  12270  12271  12287     1  0.0000000  0.6508444  3
  12269  12266  12265  12279     1  180.0000771  0.8368000  1
  12269  12266  12265  12279     1  180.0000771  1.0460000  2
  12269  12266  12265  12279     1  0.0000000  0.7531200  3
  12269  12266  12265  12287     1  0.0000000  0.6508444  3
  12270  12269  12266  12278     1  0.0000000  0.6508444  3
  12271  12287  12265  12279     1  180.0000771  0.4184000  2
  12271  12287  12265  12279     1  0.0000000  1.6024720  3
  12271  12270  12269  12277     1  0.0000000  0.6508444  3
  12275  12271  12270  12276     1  0.0000000  4.9162000  2
  12275  12271  12270  12276     1  0.0000000  0.6024960  3
  12276  12270  12271  12287     1  0.0000000  4.9162000  2
  12276  12270  12271  12287     1  0.0000000  0.6024960  3
  12276  12270  12269  12277     1  0.0000000  4.9162000  2
  12276  12270  12269  12277     1  0.0000000  0.6024960  3
  12277  12269  12266  12278     1  0.0000000  4.9162000  2
  12277  12269  12266  12278     1  0.0000000  0.6024960  3
  12278  12266  12265  12279     1  0.0000000  0.6508444  3
  12278  12266  12265  12287     1  0.0000000  4.9162000  2
  12278  12266  12265  12287     1  0.0000000  0.6024960  3
  12285  12279  12265  12287     1  0.0000000  4.9162000  2
  12285  12279  12265  12287     1  0.0000000  0.6024960  3
  12288  12289  12292  12293     1  180.0000771  0.8368000  1
  12288  12289  12292  12293     1  180.0000771  1.0460000  2
  12288  12289  12292  12293     1  0.0000000  0.7531200  3
  12288  12289  12292  12300     1  0.0000000  0.6508444  3
  12288  12310  12294  12293     1  180.0000771  0.4184000  2
  12288  12310  12294  12293     1  0.0000000  1.6024720  3
  12288  12310  12294  12298     1  180.0000771  5.6484000  1
  12288  12310  12294  12298     1  180.0000771  3.5564000  2
  12288  12310  12294  12298     1  0.0000000  0.4184000  3
  12289  12288  12302  12308     1  0.0000000  0.6508444  3
  12289  12288  12310  12294     1  180.0000771  0.4184000  2
  12289  12288  12310  12294     1  0.0000000  1.6024720  3
  12289  12292  12293  12294     1  180.0000771  0.8368000  1
  12289  12292  12293  12294     1  180.0000771  1.0460000  2
  12289  12292  12293  12294     1  0.0000000  0.7531200  3
  12289  12292  12293  12299     1  0.0000000  0.6508444  3
  12292  12289  12288  12302     1  180.0000771  0.8368000  1
  12292  12289  12288  12302     1  180.0000771  1.0460000  2
  12292  12289  12288  12302     1  0.0000000  0.7531200  3
  12292  12289  12288  12310     1  0.0000000  0.6508444  3
  12292  12293  12294  12298     1  0.0000000  0.6508444  3
  12292  12293  12294  12310     1  0.0000000  0.6508444  3
  12293  12292  12289  12301     1  0.0000000  0.6508444  3
  12294  12293  12292  12300     1  0.0000000  0.6508444  3
  12294  12310  12288  12302     1  180.0000771  0.4184000  2
  12294  12310  12288  12302     1  0.0000000  1.6024720  3
  12298  12294  12293  12299     1  0.0000000  4.9162000  2
  12298  12294  12293  12299     1  0.0000000  0.6024960  3
  12299  12293  12292  12300     1  0.0000000  4.9162000  2
  12299  12293  12292  12300     1  0.0000000  0.6024960  3
  12299  12293  12294  12310     1  0.0000000  4.9162000  2
  12299  12293  12294  12310     1  0.0000000  0.6024960  3
  12300  12292  12289  12301     1  0.0000000  4.9162000  2
  12300  12292  12289  12301     1  0.0000000  0.6024960  3
  12301  12289  12288  12302     1  0.0000000  0.6508444  3
  12301  12289  12288  12310     1  0.0000000  4.9162000  2
  12301  12289  12288  12310     1  0.0000000  0.6024960  3
  12308  12302  12288  12310     1  0.0000000  4.9162000  2
  12308  12302  12288  12310     1  0.0000000  0.6024960  3
  12311  12312  12315  12316     1  180.0000771  0.8368000  1
  12311  12312  12315  12316     1  180.0000771  1.0460000  2
  12311  12312  12315  12316     1  0.0000000  0.7531200  3
  12311  12312  12315  12323     1  0.0000000  0.6508444  3
  12311  12333  12317  12321     1  180.0000771  5.6484000  1
  12311  12333  12317  12321     1  180.0000771  3.5564000  2
  12311  12333  12317  12321     1  0.0000000  0.4184000  3
  12311  12333  12317  12316     1  180.0000771  0.4184000  2
  12311  12333  12317  12316     1  0.0000000  1.6024720  3
  12312  12315  12316  12317     1  180.0000771  0.8368000  1
  12312  12315  12316  12317     1  180.0000771  1.0460000  2
  12312  12315  12316  12317     1  0.0000000  0.7531200  3
  12312  12315  12316  12322     1  0.0000000  0.6508444  3
  12312  12311  12325  12331     1  0.0000000  0.6508444  3
  12312  12311  12333  12317     1  180.0000771  0.4184000  2
  12312  12311  12333  12317     1  0.0000000  1.6024720  3
  12315  12316  12317  12321     1  0.0000000  0.6508444  3
  12315  12316  12317  12333     1  0.0000000  0.6508444  3
  12315  12312  12311  12325     1  180.0000771  0.8368000  1
  12315  12312  12311  12325     1  180.0000771  1.0460000  2
  12315  12312  12311  12325     1  0.0000000  0.7531200  3
  12315  12312  12311  12333     1  0.0000000  0.6508444  3
  12316  12315  12312  12324     1  0.0000000  0.6508444  3
  12317  12333  12311  12325     1  180.0000771  0.4184000  2
  12317  12333  12311  12325     1  0.0000000  1.6024720  3
  12317  12316  12315  12323     1  0.0000000  0.6508444  3
  12321  12317  12316  12322     1  0.0000000  4.9162000  2
  12321  12317  12316  12322     1  0.0000000  0.6024960  3
  12322  12316  12317  12333     1  0.0000000  4.9162000  2
  12322  12316  12317  12333     1  0.0000000  0.6024960  3
  12322  12316  12315  12323     1  0.0000000  4.9162000  2
  12322  12316  12315  12323     1  0.0000000  0.6024960  3
  12323  12315  12312  12324     1  0.0000000  4.9162000  2
  12323  12315  12312  12324     1  0.0000000  0.6024960  3
  12324  12312  12311  12325     1  0.0000000  0.6508444  3
  12324  12312  12311  12333     1  0.0000000  4.9162000  2
  12324  12312  12311  12333     1  0.0000000  0.6024960  3
  12331  12325  12311  12333     1  0.0000000  4.9162000  2
  12331  12325  12311  12333     1  0.0000000  0.6024960  3
  12334  12335  12338  12339     1  180.0000771  0.8368000  1
  12334  12335  12338  12339     1  180.0000771  1.0460000  2
  12334  12335  12338  12339     1  0.0000000  0.7531200  3
  12334  12335  12338  12346     1  0.0000000  0.6508444  3
  12334  12356  12340  12339     1  180.0000771  0.4184000  2
  12334  12356  12340  12339     1  0.0000000  1.6024720  3
  12334  12356  12340  12344     1  180.0000771  5.6484000  1
  12334  12356  12340  12344     1  180.0000771  3.5564000  2
  12334  12356  12340  12344     1  0.0000000  0.4184000  3
  12335  12334  12348  12354     1  0.0000000  0.6508444  3
  12335  12334  12356  12340     1  180.0000771  0.4184000  2
  12335  12334  12356  12340     1  0.0000000  1.6024720  3
  12335  12338  12339  12340     1  180.0000771  0.8368000  1
  12335  12338  12339  12340     1  180.0000771  1.0460000  2
  12335  12338  12339  12340     1  0.0000000  0.7531200  3
  12335  12338  12339  12345     1  0.0000000  0.6508444  3
  12338  12335  12334  12348     1  180.0000771  0.8368000  1
  12338  12335  12334  12348     1  180.0000771  1.0460000  2
  12338  12335  12334  12348     1  0.0000000  0.7531200  3
  12338  12335  12334  12356     1  0.0000000  0.6508444  3
  12338  12339  12340  12344     1  0.0000000  0.6508444  3
  12338  12339  12340  12356     1  0.0000000  0.6508444  3
  12339  12338  12335  12347     1  0.0000000  0.6508444  3
  12340  12339  12338  12346     1  0.0000000  0.6508444  3
  12340  12356  12334  12348     1  180.0000771  0.4184000  2
  12340  12356  12334  12348     1  0.0000000  1.6024720  3
  12344  12340  12339  12345     1  0.0000000  4.9162000  2
  12344  12340  12339  12345     1  0.0000000  0.6024960  3
  12345  12339  12338  12346     1  0.0000000  4.9162000  2
  12345  12339  12338  12346     1  0.0000000  0.6024960  3
  12345  12339  12340  12356     1  0.0000000  4.9162000  2
  12345  12339  12340  12356     1  0.0000000  0.6024960  3
  12346  12338  12335  12347     1  0.0000000  4.9162000  2
  12346  12338  12335  12347     1  0.0000000  0.6024960  3
  12347  12335  12334  12348     1  0.0000000  0.6508444  3
  12347  12335  12334  12356     1  0.0000000  4.9162000  2
  12347  12335  12334  12356     1  0.0000000  0.6024960  3
  12354  12348  12334  12356     1  0.0000000  4.9162000  2
  12354  12348  12334  12356     1  0.0000000  0.6024960  3
  12357  12358  12361  12362     1  180.0000771  0.8368000  1
  12357  12358  12361  12362     1  180.0000771  1.0460000  2
  12357  12358  12361  12362     1  0.0000000  0.7531200  3
  12357  12358  12361  12369     1  0.0000000  0.6508444  3
  12357  12379  12363  12367     1  180.0000771  5.6484000  1
  12357  12379  12363  12367     1  180.0000771  3.5564000  2
  12357  12379  12363  12367     1  0.0000000  0.4184000  3
  12357  12379  12363  12362     1  180.0000771  0.4184000  2
  12357  12379  12363  12362     1  0.0000000  1.6024720  3
  12358  12361  12362  12363     1  180.0000771  0.8368000  1
  12358  12361  12362  12363     1  180.0000771  1.0460000  2
  12358  12361  12362  12363     1  0.0000000  0.7531200  3
  12358  12361  12362  12368     1  0.0000000  0.6508444  3
  12358  12357  12371  12377     1  0.0000000  0.6508444  3
  12358  12357  12379  12363     1  180.0000771  0.4184000  2
  12358  12357  12379  12363     1  0.0000000  1.6024720  3
  12361  12362  12363  12367     1  0.0000000  0.6508444  3
  12361  12362  12363  12379     1  0.0000000  0.6508444  3
  12361  12358  12357  12371     1  180.0000771  0.8368000  1
  12361  12358  12357  12371     1  180.0000771  1.0460000  2
  12361  12358  12357  12371     1  0.0000000  0.7531200  3
  12361  12358  12357  12379     1  0.0000000  0.6508444  3
  12362  12361  12358  12370     1  0.0000000  0.6508444  3
  12363  12379  12357  12371     1  180.0000771  0.4184000  2
  12363  12379  12357  12371     1  0.0000000  1.6024720  3
  12363  12362  12361  12369     1  0.0000000  0.6508444  3
  12367  12363  12362  12368     1  0.0000000  4.9162000  2
  12367  12363  12362  12368     1  0.0000000  0.6024960  3
  12368  12362  12363  12379     1  0.0000000  4.9162000  2
  12368  12362  12363  12379     1  0.0000000  0.6024960  3
  12368  12362  12361  12369     1  0.0000000  4.9162000  2
  12368  12362  12361  12369     1  0.0000000  0.6024960  3
  12369  12361  12358  12370     1  0.0000000  4.9162000  2
  12369  12361  12358  12370     1  0.0000000  0.6024960  3
  12370  12358  12357  12371     1  0.0000000  0.6508444  3
  12370  12358  12357  12379     1  0.0000000  4.9162000  2
  12370  12358  12357  12379     1  0.0000000  0.6024960  3
  12377  12371  12357  12379     1  0.0000000  4.9162000  2
  12377  12371  12357  12379     1  0.0000000  0.6024960  3
  12380  12381  12384  12385     1  180.0000771  0.8368000  1
  12380  12381  12384  12385     1  180.0000771  1.0460000  2
  12380  12381  12384  12385     1  0.0000000  0.7531200  3
  12380  12381  12384  12392     1  0.0000000  0.6508444  3
  12380  12402  12386  12385     1  180.0000771  0.4184000  2
  12380  12402  12386  12385     1  0.0000000  1.6024720  3
  12380  12402  12386  12390     1  180.0000771  5.6484000  1
  12380  12402  12386  12390     1  180.0000771  3.5564000  2
  12380  12402  12386  12390     1  0.0000000  0.4184000  3
  12381  12380  12394  12400     1  0.0000000  0.6508444  3
  12381  12380  12402  12386     1  180.0000771  0.4184000  2
  12381  12380  12402  12386     1  0.0000000  1.6024720  3
  12381  12384  12385  12386     1  180.0000771  0.8368000  1
  12381  12384  12385  12386     1  180.0000771  1.0460000  2
  12381  12384  12385  12386     1  0.0000000  0.7531200  3
  12381  12384  12385  12391     1  0.0000000  0.6508444  3
  12384  12381  12380  12394     1  180.0000771  0.8368000  1
  12384  12381  12380  12394     1  180.0000771  1.0460000  2
  12384  12381  12380  12394     1  0.0000000  0.7531200  3
  12384  12381  12380  12402     1  0.0000000  0.6508444  3
  12384  12385  12386  12390     1  0.0000000  0.6508444  3
  12384  12385  12386  12402     1  0.0000000  0.6508444  3
  12385  12384  12381  12393     1  0.0000000  0.6508444  3
  12386  12385  12384  12392     1  0.0000000  0.6508444  3
  12386  12402  12380  12394     1  180.0000771  0.4184000  2
  12386  12402  12380  12394     1  0.0000000  1.6024720  3
  12390  12386  12385  12391     1  0.0000000  4.9162000  2
  12390  12386  12385  12391     1  0.0000000  0.6024960  3
  12391  12385  12384  12392     1  0.0000000  4.9162000  2
  12391  12385  12384  12392     1  0.0000000  0.6024960  3
  12391  12385  12386  12402     1  0.0000000  4.9162000  2
  12391  12385  12386  12402     1  0.0000000  0.6024960  3
  12392  12384  12381  12393     1  0.0000000  4.9162000  2
  12392  12384  12381  12393     1  0.0000000  0.6024960  3
  12393  12381  12380  12394     1  0.0000000  0.6508444  3
  12393  12381  12380  12402     1  0.0000000  4.9162000  2
  12393  12381  12380  12402     1  0.0000000  0.6024960  3
  12400  12394  12380  12402     1  0.0000000  4.9162000  2
  12400  12394  12380  12402     1  0.0000000  0.6024960  3
  12403  12404  12407  12408     1  180.0000771  0.8368000  1
  12403  12404  12407  12408     1  180.0000771  1.0460000  2
  12403  12404  12407  12408     1  0.0000000  0.7531200  3
  12403  12404  12407  12415     1  0.0000000  0.6508444  3
  12403  12425  12409  12413     1  180.0000771  5.6484000  1
  12403  12425  12409  12413     1  180.0000771  3.5564000  2
  12403  12425  12409  12413     1  0.0000000  0.4184000  3
  12403  12425  12409  12408     1  180.0000771  0.4184000  2
  12403  12425  12409  12408     1  0.0000000  1.6024720  3
  12404  12407  12408  12409     1  180.0000771  0.8368000  1
  12404  12407  12408  12409     1  180.0000771  1.0460000  2
  12404  12407  12408  12409     1  0.0000000  0.7531200  3
  12404  12407  12408  12414     1  0.0000000  0.6508444  3
  12404  12403  12417  12423     1  0.0000000  0.6508444  3
  12404  12403  12425  12409     1  180.0000771  0.4184000  2
  12404  12403  12425  12409     1  0.0000000  1.6024720  3
  12407  12408  12409  12413     1  0.0000000  0.6508444  3
  12407  12408  12409  12425     1  0.0000000  0.6508444  3
  12407  12404  12403  12417     1  180.0000771  0.8368000  1
  12407  12404  12403  12417     1  180.0000771  1.0460000  2
  12407  12404  12403  12417     1  0.0000000  0.7531200  3
  12407  12404  12403  12425     1  0.0000000  0.6508444  3
  12408  12407  12404  12416     1  0.0000000  0.6508444  3
  12409  12425  12403  12417     1  180.0000771  0.4184000  2
  12409  12425  12403  12417     1  0.0000000  1.6024720  3
  12409  12408  12407  12415     1  0.0000000  0.6508444  3
  12413  12409  12408  12414     1  0.0000000  4.9162000  2
  12413  12409  12408  12414     1  0.0000000  0.6024960  3
  12414  12408  12409  12425     1  0.0000000  4.9162000  2
  12414  12408  12409  12425     1  0.0000000  0.6024960  3
  12414  12408  12407  12415     1  0.0000000  4.9162000  2
  12414  12408  12407  12415     1  0.0000000  0.6024960  3
  12415  12407  12404  12416     1  0.0000000  4.9162000  2
  12415  12407  12404  12416     1  0.0000000  0.6024960  3
  12416  12404  12403  12417     1  0.0000000  0.6508444  3
  12416  12404  12403  12425     1  0.0000000  4.9162000  2
  12416  12404  12403  12425     1  0.0000000  0.6024960  3
  12423  12417  12403  12425     1  0.0000000  4.9162000  2
  12423  12417  12403  12425     1  0.0000000  0.6024960  3
  12426  12427  12430  12431     1  180.0000771  0.8368000  1
  12426  12427  12430  12431     1  180.0000771  1.0460000  2
  12426  12427  12430  12431     1  0.0000000  0.7531200  3
  12426  12427  12430  12438     1  0.0000000  0.6508444  3
  12426  12448  12432  12431     1  180.0000771  0.4184000  2
  12426  12448  12432  12431     1  0.0000000  1.6024720  3
  12426  12448  12432  12436     1  180.0000771  5.6484000  1
  12426  12448  12432  12436     1  180.0000771  3.5564000  2
  12426  12448  12432  12436     1  0.0000000  0.4184000  3
  12427  12426  12440  12446     1  0.0000000  0.6508444  3
  12427  12426  12448  12432     1  180.0000771  0.4184000  2
  12427  12426  12448  12432     1  0.0000000  1.6024720  3
  12427  12430  12431  12432     1  180.0000771  0.8368000  1
  12427  12430  12431  12432     1  180.0000771  1.0460000  2
  12427  12430  12431  12432     1  0.0000000  0.7531200  3
  12427  12430  12431  12437     1  0.0000000  0.6508444  3
  12430  12427  12426  12440     1  180.0000771  0.8368000  1
  12430  12427  12426  12440     1  180.0000771  1.0460000  2
  12430  12427  12426  12440     1  0.0000000  0.7531200  3
  12430  12427  12426  12448     1  0.0000000  0.6508444  3
  12430  12431  12432  12436     1  0.0000000  0.6508444  3
  12430  12431  12432  12448     1  0.0000000  0.6508444  3
  12431  12430  12427  12439     1  0.0000000  0.6508444  3
  12432  12431  12430  12438     1  0.0000000  0.6508444  3
  12432  12448  12426  12440     1  180.0000771  0.4184000  2
  12432  12448  12426  12440     1  0.0000000  1.6024720  3
  12436  12432  12431  12437     1  0.0000000  4.9162000  2
  12436  12432  12431  12437     1  0.0000000  0.6024960  3
  12437  12431  12430  12438     1  0.0000000  4.9162000  2
  12437  12431  12430  12438     1  0.0000000  0.6024960  3
  12437  12431  12432  12448     1  0.0000000  4.9162000  2
  12437  12431  12432  12448     1  0.0000000  0.6024960  3
  12438  12430  12427  12439     1  0.0000000  4.9162000  2
  12438  12430  12427  12439     1  0.0000000  0.6024960  3
  12439  12427  12426  12440     1  0.0000000  0.6508444  3
  12439  12427  12426  12448     1  0.0000000  4.9162000  2
  12439  12427  12426  12448     1  0.0000000  0.6024960  3
  12446  12440  12426  12448     1  0.0000000  4.9162000  2
  12446  12440  12426  12448     1  0.0000000  0.6024960  3
  12449  12450  12453  12454     1  180.0000771  0.8368000  1
  12449  12450  12453  12454     1  180.0000771  1.0460000  2
  12449  12450  12453  12454     1  0.0000000  0.7531200  3
  12449  12450  12453  12461     1  0.0000000  0.6508444  3
  12449  12471  12455  12459     1  180.0000771  5.6484000  1
  12449  12471  12455  12459     1  180.0000771  3.5564000  2
  12449  12471  12455  12459     1  0.0000000  0.4184000  3
  12449  12471  12455  12454     1  180.0000771  0.4184000  2
  12449  12471  12455  12454     1  0.0000000  1.6024720  3
  12450  12453  12454  12455     1  180.0000771  0.8368000  1
  12450  12453  12454  12455     1  180.0000771  1.0460000  2
  12450  12453  12454  12455     1  0.0000000  0.7531200  3
  12450  12453  12454  12460     1  0.0000000  0.6508444  3
  12450  12449  12463  12469     1  0.0000000  0.6508444  3
  12450  12449  12471  12455     1  180.0000771  0.4184000  2
  12450  12449  12471  12455     1  0.0000000  1.6024720  3
  12453  12454  12455  12459     1  0.0000000  0.6508444  3
  12453  12454  12455  12471     1  0.0000000  0.6508444  3
  12453  12450  12449  12463     1  180.0000771  0.8368000  1
  12453  12450  12449  12463     1  180.0000771  1.0460000  2
  12453  12450  12449  12463     1  0.0000000  0.7531200  3
  12453  12450  12449  12471     1  0.0000000  0.6508444  3
  12454  12453  12450  12462     1  0.0000000  0.6508444  3
  12455  12471  12449  12463     1  180.0000771  0.4184000  2
  12455  12471  12449  12463     1  0.0000000  1.6024720  3
  12455  12454  12453  12461     1  0.0000000  0.6508444  3
  12459  12455  12454  12460     1  0.0000000  4.9162000  2
  12459  12455  12454  12460     1  0.0000000  0.6024960  3
  12460  12454  12455  12471     1  0.0000000  4.9162000  2
  12460  12454  12455  12471     1  0.0000000  0.6024960  3
  12460  12454  12453  12461     1  0.0000000  4.9162000  2
  12460  12454  12453  12461     1  0.0000000  0.6024960  3
  12461  12453  12450  12462     1  0.0000000  4.9162000  2
  12461  12453  12450  12462     1  0.0000000  0.6024960  3
  12462  12450  12449  12463     1  0.0000000  0.6508444  3
  12462  12450  12449  12471     1  0.0000000  4.9162000  2
  12462  12450  12449  12471     1  0.0000000  0.6024960  3
  12469  12463  12449  12471     1  0.0000000  4.9162000  2
  12469  12463  12449  12471     1  0.0000000  0.6024960  3
  12472  12473  12476  12477     1  180.0000771  0.8368000  1
  12472  12473  12476  12477     1  180.0000771  1.0460000  2
  12472  12473  12476  12477     1  0.0000000  0.7531200  3
  12472  12473  12476  12484     1  0.0000000  0.6508444  3
  12472  12494  12478  12477     1  180.0000771  0.4184000  2
  12472  12494  12478  12477     1  0.0000000  1.6024720  3
  12472  12494  12478  12482     1  180.0000771  5.6484000  1
  12472  12494  12478  12482     1  180.0000771  3.5564000  2
  12472  12494  12478  12482     1  0.0000000  0.4184000  3
  12473  12472  12486  12492     1  0.0000000  0.6508444  3
  12473  12472  12494  12478     1  180.0000771  0.4184000  2
  12473  12472  12494  12478     1  0.0000000  1.6024720  3
  12473  12476  12477  12478     1  180.0000771  0.8368000  1
  12473  12476  12477  12478     1  180.0000771  1.0460000  2
  12473  12476  12477  12478     1  0.0000000  0.7531200  3
  12473  12476  12477  12483     1  0.0000000  0.6508444  3
  12476  12473  12472  12486     1  180.0000771  0.8368000  1
  12476  12473  12472  12486     1  180.0000771  1.0460000  2
  12476  12473  12472  12486     1  0.0000000  0.7531200  3
  12476  12473  12472  12494     1  0.0000000  0.6508444  3
  12476  12477  12478  12482     1  0.0000000  0.6508444  3
  12476  12477  12478  12494     1  0.0000000  0.6508444  3
  12477  12476  12473  12485     1  0.0000000  0.6508444  3
  12478  12477  12476  12484     1  0.0000000  0.6508444  3
  12478  12494  12472  12486     1  180.0000771  0.4184000  2
  12478  12494  12472  12486     1  0.0000000  1.6024720  3
  12482  12478  12477  12483     1  0.0000000  4.9162000  2
  12482  12478  12477  12483     1  0.0000000  0.6024960  3
  12483  12477  12476  12484     1  0.0000000  4.9162000  2
  12483  12477  12476  12484     1  0.0000000  0.6024960  3
  12483  12477  12478  12494     1  0.0000000  4.9162000  2
  12483  12477  12478  12494     1  0.0000000  0.6024960  3
  12484  12476  12473  12485     1  0.0000000  4.9162000  2
  12484  12476  12473  12485     1  0.0000000  0.6024960  3
  12485  12473  12472  12486     1  0.0000000  0.6508444  3
  12485  12473  12472  12494     1  0.0000000  4.9162000  2
  12485  12473  12472  12494     1  0.0000000  0.6024960  3
  12492  12486  12472  12494     1  0.0000000  4.9162000  2
  12492  12486  12472  12494     1  0.0000000  0.6024960  3
  12495  12496  12499  12500     1  180.0000771  0.8368000  1
  12495  12496  12499  12500     1  180.0000771  1.0460000  2
  12495  12496  12499  12500     1  0.0000000  0.7531200  3
  12495  12496  12499  12507     1  0.0000000  0.6508444  3
  12495  12517  12501  12505     1  180.0000771  5.6484000  1
  12495  12517  12501  12505     1  180.0000771  3.5564000  2
  12495  12517  12501  12505     1  0.0000000  0.4184000  3
  12495  12517  12501  12500     1  180.0000771  0.4184000  2
  12495  12517  12501  12500     1  0.0000000  1.6024720  3
  12496  12499  12500  12501     1  180.0000771  0.8368000  1
  12496  12499  12500  12501     1  180.0000771  1.0460000  2
  12496  12499  12500  12501     1  0.0000000  0.7531200  3
  12496  12499  12500  12506     1  0.0000000  0.6508444  3
  12496  12495  12509  12515     1  0.0000000  0.6508444  3
  12496  12495  12517  12501     1  180.0000771  0.4184000  2
  12496  12495  12517  12501     1  0.0000000  1.6024720  3
  12499  12500  12501  12505     1  0.0000000  0.6508444  3
  12499  12500  12501  12517     1  0.0000000  0.6508444  3
  12499  12496  12495  12509     1  180.0000771  0.8368000  1
  12499  12496  12495  12509     1  180.0000771  1.0460000  2
  12499  12496  12495  12509     1  0.0000000  0.7531200  3
  12499  12496  12495  12517     1  0.0000000  0.6508444  3
  12500  12499  12496  12508     1  0.0000000  0.6508444  3
  12501  12517  12495  12509     1  180.0000771  0.4184000  2
  12501  12517  12495  12509     1  0.0000000  1.6024720  3
  12501  12500  12499  12507     1  0.0000000  0.6508444  3
  12505  12501  12500  12506     1  0.0000000  4.9162000  2
  12505  12501  12500  12506     1  0.0000000  0.6024960  3
  12506  12500  12501  12517     1  0.0000000  4.9162000  2
  12506  12500  12501  12517     1  0.0000000  0.6024960  3
  12506  12500  12499  12507     1  0.0000000  4.9162000  2
  12506  12500  12499  12507     1  0.0000000  0.6024960  3
  12507  12499  12496  12508     1  0.0000000  4.9162000  2
  12507  12499  12496  12508     1  0.0000000  0.6024960  3
  12508  12496  12495  12509     1  0.0000000  0.6508444  3
  12508  12496  12495  12517     1  0.0000000  4.9162000  2
  12508  12496  12495  12517     1  0.0000000  0.6024960  3
  12515  12509  12495  12517     1  0.0000000  4.9162000  2
  12515  12509  12495  12517     1  0.0000000  0.6024960  3
  12518  12519  12522  12523     1  180.0000771  0.8368000  1
  12518  12519  12522  12523     1  180.0000771  1.0460000  2
  12518  12519  12522  12523     1  0.0000000  0.7531200  3
  12518  12519  12522  12530     1  0.0000000  0.6508444  3
  12518  12540  12524  12523     1  180.0000771  0.4184000  2
  12518  12540  12524  12523     1  0.0000000  1.6024720  3
  12518  12540  12524  12528     1  180.0000771  5.6484000  1
  12518  12540  12524  12528     1  180.0000771  3.5564000  2
  12518  12540  12524  12528     1  0.0000000  0.4184000  3
  12519  12518  12532  12538     1  0.0000000  0.6508444  3
  12519  12518  12540  12524     1  180.0000771  0.4184000  2
  12519  12518  12540  12524     1  0.0000000  1.6024720  3
  12519  12522  12523  12524     1  180.0000771  0.8368000  1
  12519  12522  12523  12524     1  180.0000771  1.0460000  2
  12519  12522  12523  12524     1  0.0000000  0.7531200  3
  12519  12522  12523  12529     1  0.0000000  0.6508444  3
  12522  12519  12518  12532     1  180.0000771  0.8368000  1
  12522  12519  12518  12532     1  180.0000771  1.0460000  2
  12522  12519  12518  12532     1  0.0000000  0.7531200  3
  12522  12519  12518  12540     1  0.0000000  0.6508444  3
  12522  12523  12524  12528     1  0.0000000  0.6508444  3
  12522  12523  12524  12540     1  0.0000000  0.6508444  3
  12523  12522  12519  12531     1  0.0000000  0.6508444  3
  12524  12523  12522  12530     1  0.0000000  0.6508444  3
  12524  12540  12518  12532     1  180.0000771  0.4184000  2
  12524  12540  12518  12532     1  0.0000000  1.6024720  3
  12528  12524  12523  12529     1  0.0000000  4.9162000  2
  12528  12524  12523  12529     1  0.0000000  0.6024960  3
  12529  12523  12522  12530     1  0.0000000  4.9162000  2
  12529  12523  12522  12530     1  0.0000000  0.6024960  3
  12529  12523  12524  12540     1  0.0000000  4.9162000  2
  12529  12523  12524  12540     1  0.0000000  0.6024960  3
  12530  12522  12519  12531     1  0.0000000  4.9162000  2
  12530  12522  12519  12531     1  0.0000000  0.6024960  3
  12531  12519  12518  12532     1  0.0000000  0.6508444  3
  12531  12519  12518  12540     1  0.0000000  4.9162000  2
  12531  12519  12518  12540     1  0.0000000  0.6024960  3
  12538  12532  12518  12540     1  0.0000000  4.9162000  2
  12538  12532  12518  12540     1  0.0000000  0.6024960  3
  12541  12542  12545  12546     1  180.0000771  0.8368000  1
  12541  12542  12545  12546     1  180.0000771  1.0460000  2
  12541  12542  12545  12546     1  0.0000000  0.7531200  3
  12541  12542  12545  12553     1  0.0000000  0.6508444  3
  12541  12563  12547  12551     1  180.0000771  5.6484000  1
  12541  12563  12547  12551     1  180.0000771  3.5564000  2
  12541  12563  12547  12551     1  0.0000000  0.4184000  3
  12541  12563  12547  12546     1  180.0000771  0.4184000  2
  12541  12563  12547  12546     1  0.0000000  1.6024720  3
  12542  12545  12546  12547     1  180.0000771  0.8368000  1
  12542  12545  12546  12547     1  180.0000771  1.0460000  2
  12542  12545  12546  12547     1  0.0000000  0.7531200  3
  12542  12545  12546  12552     1  0.0000000  0.6508444  3
  12542  12541  12555  12561     1  0.0000000  0.6508444  3
  12542  12541  12563  12547     1  180.0000771  0.4184000  2
  12542  12541  12563  12547     1  0.0000000  1.6024720  3
  12545  12546  12547  12551     1  0.0000000  0.6508444  3
  12545  12546  12547  12563     1  0.0000000  0.6508444  3
  12545  12542  12541  12555     1  180.0000771  0.8368000  1
  12545  12542  12541  12555     1  180.0000771  1.0460000  2
  12545  12542  12541  12555     1  0.0000000  0.7531200  3
  12545  12542  12541  12563     1  0.0000000  0.6508444  3
  12546  12545  12542  12554     1  0.0000000  0.6508444  3
  12547  12563  12541  12555     1  180.0000771  0.4184000  2
  12547  12563  12541  12555     1  0.0000000  1.6024720  3
  12547  12546  12545  12553     1  0.0000000  0.6508444  3
  12551  12547  12546  12552     1  0.0000000  4.9162000  2
  12551  12547  12546  12552     1  0.0000000  0.6024960  3
  12552  12546  12547  12563     1  0.0000000  4.9162000  2
  12552  12546  12547  12563     1  0.0000000  0.6024960  3
  12552  12546  12545  12553     1  0.0000000  4.9162000  2
  12552  12546  12545  12553     1  0.0000000  0.6024960  3
  12553  12545  12542  12554     1  0.0000000  4.9162000  2
  12553  12545  12542  12554     1  0.0000000  0.6024960  3
  12554  12542  12541  12555     1  0.0000000  0.6508444  3
  12554  12542  12541  12563     1  0.0000000  4.9162000  2
  12554  12542  12541  12563     1  0.0000000  0.6024960  3
  12561  12555  12541  12563     1  0.0000000  4.9162000  2
  12561  12555  12541  12563     1  0.0000000  0.6024960  3
  12564  12565  12568  12569     1  180.0000771  0.8368000  1
  12564  12565  12568  12569     1  180.0000771  1.0460000  2
  12564  12565  12568  12569     1  0.0000000  0.7531200  3
  12564  12565  12568  12576     1  0.0000000  0.6508444  3
  12564  12586  12570  12569     1  180.0000771  0.4184000  2
  12564  12586  12570  12569     1  0.0000000  1.6024720  3
  12564  12586  12570  12574     1  180.0000771  5.6484000  1
  12564  12586  12570  12574     1  180.0000771  3.5564000  2
  12564  12586  12570  12574     1  0.0000000  0.4184000  3
  12565  12564  12578  12584     1  0.0000000  0.6508444  3
  12565  12564  12586  12570     1  180.0000771  0.4184000  2
  12565  12564  12586  12570     1  0.0000000  1.6024720  3
  12565  12568  12569  12570     1  180.0000771  0.8368000  1
  12565  12568  12569  12570     1  180.0000771  1.0460000  2
  12565  12568  12569  12570     1  0.0000000  0.7531200  3
  12565  12568  12569  12575     1  0.0000000  0.6508444  3
  12568  12565  12564  12578     1  180.0000771  0.8368000  1
  12568  12565  12564  12578     1  180.0000771  1.0460000  2
  12568  12565  12564  12578     1  0.0000000  0.7531200  3
  12568  12565  12564  12586     1  0.0000000  0.6508444  3
  12568  12569  12570  12574     1  0.0000000  0.6508444  3
  12568  12569  12570  12586     1  0.0000000  0.6508444  3
  12569  12568  12565  12577     1  0.0000000  0.6508444  3
  12570  12569  12568  12576     1  0.0000000  0.6508444  3
  12570  12586  12564  12578     1  180.0000771  0.4184000  2
  12570  12586  12564  12578     1  0.0000000  1.6024720  3
  12574  12570  12569  12575     1  0.0000000  4.9162000  2
  12574  12570  12569  12575     1  0.0000000  0.6024960  3
  12575  12569  12568  12576     1  0.0000000  4.9162000  2
  12575  12569  12568  12576     1  0.0000000  0.6024960  3
  12575  12569  12570  12586     1  0.0000000  4.9162000  2
  12575  12569  12570  12586     1  0.0000000  0.6024960  3
  12576  12568  12565  12577     1  0.0000000  4.9162000  2
  12576  12568  12565  12577     1  0.0000000  0.6024960  3
  12577  12565  12564  12578     1  0.0000000  0.6508444  3
  12577  12565  12564  12586     1  0.0000000  4.9162000  2
  12577  12565  12564  12586     1  0.0000000  0.6024960  3
  12584  12578  12564  12586     1  0.0000000  4.9162000  2
  12584  12578  12564  12586     1  0.0000000  0.6024960  3
  12587  12588  12591  12592     1  180.0000771  0.8368000  1
  12587  12588  12591  12592     1  180.0000771  1.0460000  2
  12587  12588  12591  12592     1  0.0000000  0.7531200  3
  12587  12588  12591  12599     1  0.0000000  0.6508444  3
  12587  12609  12593  12597     1  180.0000771  5.6484000  1
  12587  12609  12593  12597     1  180.0000771  3.5564000  2
  12587  12609  12593  12597     1  0.0000000  0.4184000  3
  12587  12609  12593  12592     1  180.0000771  0.4184000  2
  12587  12609  12593  12592     1  0.0000000  1.6024720  3
  12588  12591  12592  12593     1  180.0000771  0.8368000  1
  12588  12591  12592  12593     1  180.0000771  1.0460000  2
  12588  12591  12592  12593     1  0.0000000  0.7531200  3
  12588  12591  12592  12598     1  0.0000000  0.6508444  3
  12588  12587  12601  12607     1  0.0000000  0.6508444  3
  12588  12587  12609  12593     1  180.0000771  0.4184000  2
  12588  12587  12609  12593     1  0.0000000  1.6024720  3
  12591  12592  12593  12597     1  0.0000000  0.6508444  3
  12591  12592  12593  12609     1  0.0000000  0.6508444  3
  12591  12588  12587  12601     1  180.0000771  0.8368000  1
  12591  12588  12587  12601     1  180.0000771  1.0460000  2
  12591  12588  12587  12601     1  0.0000000  0.7531200  3
  12591  12588  12587  12609     1  0.0000000  0.6508444  3
  12592  12591  12588  12600     1  0.0000000  0.6508444  3
  12593  12609  12587  12601     1  180.0000771  0.4184000  2
  12593  12609  12587  12601     1  0.0000000  1.6024720  3
  12593  12592  12591  12599     1  0.0000000  0.6508444  3
  12597  12593  12592  12598     1  0.0000000  4.9162000  2
  12597  12593  12592  12598     1  0.0000000  0.6024960  3
  12598  12592  12593  12609     1  0.0000000  4.9162000  2
  12598  12592  12593  12609     1  0.0000000  0.6024960  3
  12598  12592  12591  12599     1  0.0000000  4.9162000  2
  12598  12592  12591  12599     1  0.0000000  0.6024960  3
  12599  12591  12588  12600     1  0.0000000  4.9162000  2
  12599  12591  12588  12600     1  0.0000000  0.6024960  3
  12600  12588  12587  12601     1  0.0000000  0.6508444  3
  12600  12588  12587  12609     1  0.0000000  4.9162000  2
  12600  12588  12587  12609     1  0.0000000  0.6024960  3
  12607  12601  12587  12609     1  0.0000000  4.9162000  2
  12607  12601  12587  12609     1  0.0000000  0.6024960  3
  12610  12611  12614  12615     1  180.0000771  0.8368000  1
  12610  12611  12614  12615     1  180.0000771  1.0460000  2
  12610  12611  12614  12615     1  0.0000000  0.7531200  3
  12610  12611  12614  12622     1  0.0000000  0.6508444  3
  12610  12632  12616  12615     1  180.0000771  0.4184000  2
  12610  12632  12616  12615     1  0.0000000  1.6024720  3
  12610  12632  12616  12620     1  180.0000771  5.6484000  1
  12610  12632  12616  12620     1  180.0000771  3.5564000  2
  12610  12632  12616  12620     1  0.0000000  0.4184000  3
  12611  12610  12624  12630     1  0.0000000  0.6508444  3
  12611  12610  12632  12616     1  180.0000771  0.4184000  2
  12611  12610  12632  12616     1  0.0000000  1.6024720  3
  12611  12614  12615  12616     1  180.0000771  0.8368000  1
  12611  12614  12615  12616     1  180.0000771  1.0460000  2
  12611  12614  12615  12616     1  0.0000000  0.7531200  3
  12611  12614  12615  12621     1  0.0000000  0.6508444  3
  12614  12611  12610  12624     1  180.0000771  0.8368000  1
  12614  12611  12610  12624     1  180.0000771  1.0460000  2
  12614  12611  12610  12624     1  0.0000000  0.7531200  3
  12614  12611  12610  12632     1  0.0000000  0.6508444  3
  12614  12615  12616  12620     1  0.0000000  0.6508444  3
  12614  12615  12616  12632     1  0.0000000  0.6508444  3
  12615  12614  12611  12623     1  0.0000000  0.6508444  3
  12616  12615  12614  12622     1  0.0000000  0.6508444  3
  12616  12632  12610  12624     1  180.0000771  0.4184000  2
  12616  12632  12610  12624     1  0.0000000  1.6024720  3
  12620  12616  12615  12621     1  0.0000000  4.9162000  2
  12620  12616  12615  12621     1  0.0000000  0.6024960  3
  12621  12615  12614  12622     1  0.0000000  4.9162000  2
  12621  12615  12614  12622     1  0.0000000  0.6024960  3
  12621  12615  12616  12632     1  0.0000000  4.9162000  2
  12621  12615  12616  12632     1  0.0000000  0.6024960  3
  12622  12614  12611  12623     1  0.0000000  4.9162000  2
  12622  12614  12611  12623     1  0.0000000  0.6024960  3
  12623  12611  12610  12624     1  0.0000000  0.6508444  3
  12623  12611  12610  12632     1  0.0000000  4.9162000  2
  12623  12611  12610  12632     1  0.0000000  0.6024960  3
  12630  12624  12610  12632     1  0.0000000  4.9162000  2
  12630  12624  12610  12632     1  0.0000000  0.6024960  3
  12633  12634  12637  12638     1  180.0000771  0.8368000  1
  12633  12634  12637  12638     1  180.0000771  1.0460000  2
  12633  12634  12637  12638     1  0.0000000  0.7531200  3
  12633  12634  12637  12645     1  0.0000000  0.6508444  3
  12633  12655  12639  12643     1  180.0000771  5.6484000  1
  12633  12655  12639  12643     1  180.0000771  3.5564000  2
  12633  12655  12639  12643     1  0.0000000  0.4184000  3
  12633  12655  12639  12638     1  180.0000771  0.4184000  2
  12633  12655  12639  12638     1  0.0000000  1.6024720  3
  12634  12637  12638  12639     1  180.0000771  0.8368000  1
  12634  12637  12638  12639     1  180.0000771  1.0460000  2
  12634  12637  12638  12639     1  0.0000000  0.7531200  3
  12634  12637  12638  12644     1  0.0000000  0.6508444  3
  12634  12633  12647  12653     1  0.0000000  0.6508444  3
  12634  12633  12655  12639     1  180.0000771  0.4184000  2
  12634  12633  12655  12639     1  0.0000000  1.6024720  3
  12637  12638  12639  12643     1  0.0000000  0.6508444  3
  12637  12638  12639  12655     1  0.0000000  0.6508444  3
  12637  12634  12633  12647     1  180.0000771  0.8368000  1
  12637  12634  12633  12647     1  180.0000771  1.0460000  2
  12637  12634  12633  12647     1  0.0000000  0.7531200  3
  12637  12634  12633  12655     1  0.0000000  0.6508444  3
  12638  12637  12634  12646     1  0.0000000  0.6508444  3
  12639  12655  12633  12647     1  180.0000771  0.4184000  2
  12639  12655  12633  12647     1  0.0000000  1.6024720  3
  12639  12638  12637  12645     1  0.0000000  0.6508444  3
  12643  12639  12638  12644     1  0.0000000  4.9162000  2
  12643  12639  12638  12644     1  0.0000000  0.6024960  3
  12644  12638  12639  12655     1  0.0000000  4.9162000  2
  12644  12638  12639  12655     1  0.0000000  0.6024960  3
  12644  12638  12637  12645     1  0.0000000  4.9162000  2
  12644  12638  12637  12645     1  0.0000000  0.6024960  3
  12645  12637  12634  12646     1  0.0000000  4.9162000  2
  12645  12637  12634  12646     1  0.0000000  0.6024960  3
  12646  12634  12633  12647     1  0.0000000  0.6508444  3
  12646  12634  12633  12655     1  0.0000000  4.9162000  2
  12646  12634  12633  12655     1  0.0000000  0.6024960  3
  12653  12647  12633  12655     1  0.0000000  4.9162000  2
  12653  12647  12633  12655     1  0.0000000  0.6024960  3
  12656  12657  12660  12661     1  180.0000771  0.8368000  1
  12656  12657  12660  12661     1  180.0000771  1.0460000  2
  12656  12657  12660  12661     1  0.0000000  0.7531200  3
  12656  12657  12660  12668     1  0.0000000  0.6508444  3
  12656  12678  12662  12661     1  180.0000771  0.4184000  2
  12656  12678  12662  12661     1  0.0000000  1.6024720  3
  12656  12678  12662  12666     1  180.0000771  5.6484000  1
  12656  12678  12662  12666     1  180.0000771  3.5564000  2
  12656  12678  12662  12666     1  0.0000000  0.4184000  3
  12657  12656  12670  12676     1  0.0000000  0.6508444  3
  12657  12656  12678  12662     1  180.0000771  0.4184000  2
  12657  12656  12678  12662     1  0.0000000  1.6024720  3
  12657  12660  12661  12662     1  180.0000771  0.8368000  1
  12657  12660  12661  12662     1  180.0000771  1.0460000  2
  12657  12660  12661  12662     1  0.0000000  0.7531200  3
  12657  12660  12661  12667     1  0.0000000  0.6508444  3
  12660  12657  12656  12670     1  180.0000771  0.8368000  1
  12660  12657  12656  12670     1  180.0000771  1.0460000  2
  12660  12657  12656  12670     1  0.0000000  0.7531200  3
  12660  12657  12656  12678     1  0.0000000  0.6508444  3
  12660  12661  12662  12666     1  0.0000000  0.6508444  3
  12660  12661  12662  12678     1  0.0000000  0.6508444  3
  12661  12660  12657  12669     1  0.0000000  0.6508444  3
  12662  12661  12660  12668     1  0.0000000  0.6508444  3
  12662  12678  12656  12670     1  180.0000771  0.4184000  2
  12662  12678  12656  12670     1  0.0000000  1.6024720  3
  12666  12662  12661  12667     1  0.0000000  4.9162000  2
  12666  12662  12661  12667     1  0.0000000  0.6024960  3
  12667  12661  12660  12668     1  0.0000000  4.9162000  2
  12667  12661  12660  12668     1  0.0000000  0.6024960  3
  12667  12661  12662  12678     1  0.0000000  4.9162000  2
  12667  12661  12662  12678     1  0.0000000  0.6024960  3
  12668  12660  12657  12669     1  0.0000000  4.9162000  2
  12668  12660  12657  12669     1  0.0000000  0.6024960  3
  12669  12657  12656  12670     1  0.0000000  0.6508444  3
  12669  12657  12656  12678     1  0.0000000  4.9162000  2
  12669  12657  12656  12678     1  0.0000000  0.6024960  3
  12676  12670  12656  12678     1  0.0000000  4.9162000  2
  12676  12670  12656  12678     1  0.0000000  0.6024960  3
  12679  12680  12683  12684     1  180.0000771  0.8368000  1
  12679  12680  12683  12684     1  180.0000771  1.0460000  2
  12679  12680  12683  12684     1  0.0000000  0.7531200  3
  12679  12680  12683  12691     1  0.0000000  0.6508444  3
  12679  12701  12685  12689     1  180.0000771  5.6484000  1
  12679  12701  12685  12689     1  180.0000771  3.5564000  2
  12679  12701  12685  12689     1  0.0000000  0.4184000  3
  12679  12701  12685  12684     1  180.0000771  0.4184000  2
  12679  12701  12685  12684     1  0.0000000  1.6024720  3
  12680  12683  12684  12685     1  180.0000771  0.8368000  1
  12680  12683  12684  12685     1  180.0000771  1.0460000  2
  12680  12683  12684  12685     1  0.0000000  0.7531200  3
  12680  12683  12684  12690     1  0.0000000  0.6508444  3
  12680  12679  12693  12699     1  0.0000000  0.6508444  3
  12680  12679  12701  12685     1  180.0000771  0.4184000  2
  12680  12679  12701  12685     1  0.0000000  1.6024720  3
  12683  12684  12685  12689     1  0.0000000  0.6508444  3
  12683  12684  12685  12701     1  0.0000000  0.6508444  3
  12683  12680  12679  12693     1  180.0000771  0.8368000  1
  12683  12680  12679  12693     1  180.0000771  1.0460000  2
  12683  12680  12679  12693     1  0.0000000  0.7531200  3
  12683  12680  12679  12701     1  0.0000000  0.6508444  3
  12684  12683  12680  12692     1  0.0000000  0.6508444  3
  12685  12701  12679  12693     1  180.0000771  0.4184000  2
  12685  12701  12679  12693     1  0.0000000  1.6024720  3
  12685  12684  12683  12691     1  0.0000000  0.6508444  3
  12689  12685  12684  12690     1  0.0000000  4.9162000  2
  12689  12685  12684  12690     1  0.0000000  0.6024960  3
  12690  12684  12685  12701     1  0.0000000  4.9162000  2
  12690  12684  12685  12701     1  0.0000000  0.6024960  3
  12690  12684  12683  12691     1  0.0000000  4.9162000  2
  12690  12684  12683  12691     1  0.0000000  0.6024960  3
  12691  12683  12680  12692     1  0.0000000  4.9162000  2
  12691  12683  12680  12692     1  0.0000000  0.6024960  3
  12692  12680  12679  12693     1  0.0000000  0.6508444  3
  12692  12680  12679  12701     1  0.0000000  4.9162000  2
  12692  12680  12679  12701     1  0.0000000  0.6024960  3
  12699  12693  12679  12701     1  0.0000000  4.9162000  2
  12699  12693  12679  12701     1  0.0000000  0.6024960  3
  12702  12703  12706  12707     1  180.0000771  0.8368000  1
  12702  12703  12706  12707     1  180.0000771  1.0460000  2
  12702  12703  12706  12707     1  0.0000000  0.7531200  3
  12702  12703  12706  12714     1  0.0000000  0.6508444  3
  12702  12724  12708  12707     1  180.0000771  0.4184000  2
  12702  12724  12708  12707     1  0.0000000  1.6024720  3
  12702  12724  12708  12712     1  180.0000771  5.6484000  1
  12702  12724  12708  12712     1  180.0000771  3.5564000  2
  12702  12724  12708  12712     1  0.0000000  0.4184000  3
  12703  12702  12716  12722     1  0.0000000  0.6508444  3
  12703  12702  12724  12708     1  180.0000771  0.4184000  2
  12703  12702  12724  12708     1  0.0000000  1.6024720  3
  12703  12706  12707  12708     1  180.0000771  0.8368000  1
  12703  12706  12707  12708     1  180.0000771  1.0460000  2
  12703  12706  12707  12708     1  0.0000000  0.7531200  3
  12703  12706  12707  12713     1  0.0000000  0.6508444  3
  12706  12703  12702  12716     1  180.0000771  0.8368000  1
  12706  12703  12702  12716     1  180.0000771  1.0460000  2
  12706  12703  12702  12716     1  0.0000000  0.7531200  3
  12706  12703  12702  12724     1  0.0000000  0.6508444  3
  12706  12707  12708  12712     1  0.0000000  0.6508444  3
  12706  12707  12708  12724     1  0.0000000  0.6508444  3
  12707  12706  12703  12715     1  0.0000000  0.6508444  3
  12708  12707  12706  12714     1  0.0000000  0.6508444  3
  12708  12724  12702  12716     1  180.0000771  0.4184000  2
  12708  12724  12702  12716     1  0.0000000  1.6024720  3
  12712  12708  12707  12713     1  0.0000000  4.9162000  2
  12712  12708  12707  12713     1  0.0000000  0.6024960  3
  12713  12707  12706  12714     1  0.0000000  4.9162000  2
  12713  12707  12706  12714     1  0.0000000  0.6024960  3
  12713  12707  12708  12724     1  0.0000000  4.9162000  2
  12713  12707  12708  12724     1  0.0000000  0.6024960  3
  12714  12706  12703  12715     1  0.0000000  4.9162000  2
  12714  12706  12703  12715     1  0.0000000  0.6024960  3
  12715  12703  12702  12716     1  0.0000000  0.6508444  3
  12715  12703  12702  12724     1  0.0000000  4.9162000  2
  12715  12703  12702  12724     1  0.0000000  0.6024960  3
  12722  12716  12702  12724     1  0.0000000  4.9162000  2
  12722  12716  12702  12724     1  0.0000000  0.6024960  3
  12725  12726  12729  12730     1  180.0000771  0.8368000  1
  12725  12726  12729  12730     1  180.0000771  1.0460000  2
  12725  12726  12729  12730     1  0.0000000  0.7531200  3
  12725  12726  12729  12737     1  0.0000000  0.6508444  3
  12725  12747  12731  12735     1  180.0000771  5.6484000  1
  12725  12747  12731  12735     1  180.0000771  3.5564000  2
  12725  12747  12731  12735     1  0.0000000  0.4184000  3
  12725  12747  12731  12730     1  180.0000771  0.4184000  2
  12725  12747  12731  12730     1  0.0000000  1.6024720  3
  12726  12729  12730  12731     1  180.0000771  0.8368000  1
  12726  12729  12730  12731     1  180.0000771  1.0460000  2
  12726  12729  12730  12731     1  0.0000000  0.7531200  3
  12726  12729  12730  12736     1  0.0000000  0.6508444  3
  12726  12725  12739  12745     1  0.0000000  0.6508444  3
  12726  12725  12747  12731     1  180.0000771  0.4184000  2
  12726  12725  12747  12731     1  0.0000000  1.6024720  3
  12729  12730  12731  12735     1  0.0000000  0.6508444  3
  12729  12730  12731  12747     1  0.0000000  0.6508444  3
  12729  12726  12725  12739     1  180.0000771  0.8368000  1
  12729  12726  12725  12739     1  180.0000771  1.0460000  2
  12729  12726  12725  12739     1  0.0000000  0.7531200  3
  12729  12726  12725  12747     1  0.0000000  0.6508444  3
  12730  12729  12726  12738     1  0.0000000  0.6508444  3
  12731  12747  12725  12739     1  180.0000771  0.4184000  2
  12731  12747  12725  12739     1  0.0000000  1.6024720  3
  12731  12730  12729  12737     1  0.0000000  0.6508444  3
  12735  12731  12730  12736     1  0.0000000  4.9162000  2
  12735  12731  12730  12736     1  0.0000000  0.6024960  3
  12736  12730  12731  12747     1  0.0000000  4.9162000  2
  12736  12730  12731  12747     1  0.0000000  0.6024960  3
  12736  12730  12729  12737     1  0.0000000  4.9162000  2
  12736  12730  12729  12737     1  0.0000000  0.6024960  3
  12737  12729  12726  12738     1  0.0000000  4.9162000  2
  12737  12729  12726  12738     1  0.0000000  0.6024960  3
  12738  12726  12725  12739     1  0.0000000  0.6508444  3
  12738  12726  12725  12747     1  0.0000000  4.9162000  2
  12738  12726  12725  12747     1  0.0000000  0.6024960  3
  12745  12739  12725  12747     1  0.0000000  4.9162000  2
  12745  12739  12725  12747     1  0.0000000  0.6024960  3
  12748  12749  12752  12753     1  180.0000771  0.8368000  1
  12748  12749  12752  12753     1  180.0000771  1.0460000  2
  12748  12749  12752  12753     1  0.0000000  0.7531200  3
  12748  12749  12752  12760     1  0.0000000  0.6508444  3
  12748  12770  12754  12753     1  180.0000771  0.4184000  2
  12748  12770  12754  12753     1  0.0000000  1.6024720  3
  12748  12770  12754  12758     1  180.0000771  5.6484000  1
  12748  12770  12754  12758     1  180.0000771  3.5564000  2
  12748  12770  12754  12758     1  0.0000000  0.4184000  3
  12749  12748  12762  12768     1  0.0000000  0.6508444  3
  12749  12748  12770  12754     1  180.0000771  0.4184000  2
  12749  12748  12770  12754     1  0.0000000  1.6024720  3
  12749  12752  12753  12754     1  180.0000771  0.8368000  1
  12749  12752  12753  12754     1  180.0000771  1.0460000  2
  12749  12752  12753  12754     1  0.0000000  0.7531200  3
  12749  12752  12753  12759     1  0.0000000  0.6508444  3
  12752  12749  12748  12762     1  180.0000771  0.8368000  1
  12752  12749  12748  12762     1  180.0000771  1.0460000  2
  12752  12749  12748  12762     1  0.0000000  0.7531200  3
  12752  12749  12748  12770     1  0.0000000  0.6508444  3
  12752  12753  12754  12758     1  0.0000000  0.6508444  3
  12752  12753  12754  12770     1  0.0000000  0.6508444  3
  12753  12752  12749  12761     1  0.0000000  0.6508444  3
  12754  12753  12752  12760     1  0.0000000  0.6508444  3
  12754  12770  12748  12762     1  180.0000771  0.4184000  2
  12754  12770  12748  12762     1  0.0000000  1.6024720  3
  12758  12754  12753  12759     1  0.0000000  4.9162000  2
  12758  12754  12753  12759     1  0.0000000  0.6024960  3
  12759  12753  12752  12760     1  0.0000000  4.9162000  2
  12759  12753  12752  12760     1  0.0000000  0.6024960  3
  12759  12753  12754  12770     1  0.0000000  4.9162000  2
  12759  12753  12754  12770     1  0.0000000  0.6024960  3
  12760  12752  12749  12761     1  0.0000000  4.9162000  2
  12760  12752  12749  12761     1  0.0000000  0.6024960  3
  12761  12749  12748  12762     1  0.0000000  0.6508444  3
  12761  12749  12748  12770     1  0.0000000  4.9162000  2
  12761  12749  12748  12770     1  0.0000000  0.6024960  3
  12768  12762  12748  12770     1  0.0000000  4.9162000  2
  12768  12762  12748  12770     1  0.0000000  0.6024960  3
  12771  12772  12775  12776     1  180.0000771  0.8368000  1
  12771  12772  12775  12776     1  180.0000771  1.0460000  2
  12771  12772  12775  12776     1  0.0000000  0.7531200  3
  12771  12772  12775  12783     1  0.0000000  0.6508444  3
  12771  12793  12777  12781     1  180.0000771  5.6484000  1
  12771  12793  12777  12781     1  180.0000771  3.5564000  2
  12771  12793  12777  12781     1  0.0000000  0.4184000  3
  12771  12793  12777  12776     1  180.0000771  0.4184000  2
  12771  12793  12777  12776     1  0.0000000  1.6024720  3
  12772  12775  12776  12777     1  180.0000771  0.8368000  1
  12772  12775  12776  12777     1  180.0000771  1.0460000  2
  12772  12775  12776  12777     1  0.0000000  0.7531200  3
  12772  12775  12776  12782     1  0.0000000  0.6508444  3
  12772  12771  12785  12791     1  0.0000000  0.6508444  3
  12772  12771  12793  12777     1  180.0000771  0.4184000  2
  12772  12771  12793  12777     1  0.0000000  1.6024720  3
  12775  12776  12777  12781     1  0.0000000  0.6508444  3
  12775  12776  12777  12793     1  0.0000000  0.6508444  3
  12775  12772  12771  12785     1  180.0000771  0.8368000  1
  12775  12772  12771  12785     1  180.0000771  1.0460000  2
  12775  12772  12771  12785     1  0.0000000  0.7531200  3
  12775  12772  12771  12793     1  0.0000000  0.6508444  3
  12776  12775  12772  12784     1  0.0000000  0.6508444  3
  12777  12793  12771  12785     1  180.0000771  0.4184000  2
  12777  12793  12771  12785     1  0.0000000  1.6024720  3
  12777  12776  12775  12783     1  0.0000000  0.6508444  3
  12781  12777  12776  12782     1  0.0000000  4.9162000  2
  12781  12777  12776  12782     1  0.0000000  0.6024960  3
  12782  12776  12777  12793     1  0.0000000  4.9162000  2
  12782  12776  12777  12793     1  0.0000000  0.6024960  3
  12782  12776  12775  12783     1  0.0000000  4.9162000  2
  12782  12776  12775  12783     1  0.0000000  0.6024960  3
  12783  12775  12772  12784     1  0.0000000  4.9162000  2
  12783  12775  12772  12784     1  0.0000000  0.6024960  3
  12784  12772  12771  12785     1  0.0000000  0.6508444  3
  12784  12772  12771  12793     1  0.0000000  4.9162000  2
  12784  12772  12771  12793     1  0.0000000  0.6024960  3
  12791  12785  12771  12793     1  0.0000000  4.9162000  2
  12791  12785  12771  12793     1  0.0000000  0.6024960  3
  12794  12795  12798  12799     1  180.0000771  0.8368000  1
  12794  12795  12798  12799     1  180.0000771  1.0460000  2
  12794  12795  12798  12799     1  0.0000000  0.7531200  3
  12794  12795  12798  12806     1  0.0000000  0.6508444  3
  12794  12816  12800  12799     1  180.0000771  0.4184000  2
  12794  12816  12800  12799     1  0.0000000  1.6024720  3
  12794  12816  12800  12804     1  180.0000771  5.6484000  1
  12794  12816  12800  12804     1  180.0000771  3.5564000  2
  12794  12816  12800  12804     1  0.0000000  0.4184000  3
  12795  12794  12808  12814     1  0.0000000  0.6508444  3
  12795  12794  12816  12800     1  180.0000771  0.4184000  2
  12795  12794  12816  12800     1  0.0000000  1.6024720  3
  12795  12798  12799  12800     1  180.0000771  0.8368000  1
  12795  12798  12799  12800     1  180.0000771  1.0460000  2
  12795  12798  12799  12800     1  0.0000000  0.7531200  3
  12795  12798  12799  12805     1  0.0000000  0.6508444  3
  12798  12795  12794  12808     1  180.0000771  0.8368000  1
  12798  12795  12794  12808     1  180.0000771  1.0460000  2
  12798  12795  12794  12808     1  0.0000000  0.7531200  3
  12798  12795  12794  12816     1  0.0000000  0.6508444  3
  12798  12799  12800  12804     1  0.0000000  0.6508444  3
  12798  12799  12800  12816     1  0.0000000  0.6508444  3
  12799  12798  12795  12807     1  0.0000000  0.6508444  3
  12800  12799  12798  12806     1  0.0000000  0.6508444  3
  12800  12816  12794  12808     1  180.0000771  0.4184000  2
  12800  12816  12794  12808     1  0.0000000  1.6024720  3
  12804  12800  12799  12805     1  0.0000000  4.9162000  2
  12804  12800  12799  12805     1  0.0000000  0.6024960  3
  12805  12799  12798  12806     1  0.0000000  4.9162000  2
  12805  12799  12798  12806     1  0.0000000  0.6024960  3
  12805  12799  12800  12816     1  0.0000000  4.9162000  2
  12805  12799  12800  12816     1  0.0000000  0.6024960  3
  12806  12798  12795  12807     1  0.0000000  4.9162000  2
  12806  12798  12795  12807     1  0.0000000  0.6024960  3
  12807  12795  12794  12808     1  0.0000000  0.6508444  3
  12807  12795  12794  12816     1  0.0000000  4.9162000  2
  12807  12795  12794  12816     1  0.0000000  0.6024960  3
  12814  12808  12794  12816     1  0.0000000  4.9162000  2
  12814  12808  12794  12816     1  0.0000000  0.6024960  3
  12817  12818  12821  12822     1  180.0000771  0.8368000  1
  12817  12818  12821  12822     1  180.0000771  1.0460000  2
  12817  12818  12821  12822     1  0.0000000  0.7531200  3
  12817  12818  12821  12829     1  0.0000000  0.6508444  3
  12817  12839  12823  12827     1  180.0000771  5.6484000  1
  12817  12839  12823  12827     1  180.0000771  3.5564000  2
  12817  12839  12823  12827     1  0.0000000  0.4184000  3
  12817  12839  12823  12822     1  180.0000771  0.4184000  2
  12817  12839  12823  12822     1  0.0000000  1.6024720  3
  12818  12821  12822  12823     1  180.0000771  0.8368000  1
  12818  12821  12822  12823     1  180.0000771  1.0460000  2
  12818  12821  12822  12823     1  0.0000000  0.7531200  3
  12818  12821  12822  12828     1  0.0000000  0.6508444  3
  12818  12817  12831  12837     1  0.0000000  0.6508444  3
  12818  12817  12839  12823     1  180.0000771  0.4184000  2
  12818  12817  12839  12823     1  0.0000000  1.6024720  3
  12821  12822  12823  12827     1  0.0000000  0.6508444  3
  12821  12822  12823  12839     1  0.0000000  0.6508444  3
  12821  12818  12817  12831     1  180.0000771  0.8368000  1
  12821  12818  12817  12831     1  180.0000771  1.0460000  2
  12821  12818  12817  12831     1  0.0000000  0.7531200  3
  12821  12818  12817  12839     1  0.0000000  0.6508444  3
  12822  12821  12818  12830     1  0.0000000  0.6508444  3
  12823  12839  12817  12831     1  180.0000771  0.4184000  2
  12823  12839  12817  12831     1  0.0000000  1.6024720  3
  12823  12822  12821  12829     1  0.0000000  0.6508444  3
  12827  12823  12822  12828     1  0.0000000  4.9162000  2
  12827  12823  12822  12828     1  0.0000000  0.6024960  3
  12828  12822  12823  12839     1  0.0000000  4.9162000  2
  12828  12822  12823  12839     1  0.0000000  0.6024960  3
  12828  12822  12821  12829     1  0.0000000  4.9162000  2
  12828  12822  12821  12829     1  0.0000000  0.6024960  3
  12829  12821  12818  12830     1  0.0000000  4.9162000  2
  12829  12821  12818  12830     1  0.0000000  0.6024960  3
  12830  12818  12817  12831     1  0.0000000  0.6508444  3
  12830  12818  12817  12839     1  0.0000000  4.9162000  2
  12830  12818  12817  12839     1  0.0000000  0.6024960  3
  12837  12831  12817  12839     1  0.0000000  4.9162000  2
  12837  12831  12817  12839     1  0.0000000  0.6024960  3
  12840  12841  12844  12845     1  180.0000771  0.8368000  1
  12840  12841  12844  12845     1  180.0000771  1.0460000  2
  12840  12841  12844  12845     1  0.0000000  0.7531200  3
  12840  12841  12844  12852     1  0.0000000  0.6508444  3
  12840  12862  12846  12845     1  180.0000771  0.4184000  2
  12840  12862  12846  12845     1  0.0000000  1.6024720  3
  12840  12862  12846  12850     1  180.0000771  5.6484000  1
  12840  12862  12846  12850     1  180.0000771  3.5564000  2
  12840  12862  12846  12850     1  0.0000000  0.4184000  3
  12841  12840  12854  12860     1  0.0000000  0.6508444  3
  12841  12840  12862  12846     1  180.0000771  0.4184000  2
  12841  12840  12862  12846     1  0.0000000  1.6024720  3
  12841  12844  12845  12846     1  180.0000771  0.8368000  1
  12841  12844  12845  12846     1  180.0000771  1.0460000  2
  12841  12844  12845  12846     1  0.0000000  0.7531200  3
  12841  12844  12845  12851     1  0.0000000  0.6508444  3
  12844  12841  12840  12854     1  180.0000771  0.8368000  1
  12844  12841  12840  12854     1  180.0000771  1.0460000  2
  12844  12841  12840  12854     1  0.0000000  0.7531200  3
  12844  12841  12840  12862     1  0.0000000  0.6508444  3
  12844  12845  12846  12850     1  0.0000000  0.6508444  3
  12844  12845  12846  12862     1  0.0000000  0.6508444  3
  12845  12844  12841  12853     1  0.0000000  0.6508444  3
  12846  12845  12844  12852     1  0.0000000  0.6508444  3
  12846  12862  12840  12854     1  180.0000771  0.4184000  2
  12846  12862  12840  12854     1  0.0000000  1.6024720  3
  12850  12846  12845  12851     1  0.0000000  4.9162000  2
  12850  12846  12845  12851     1  0.0000000  0.6024960  3
  12851  12845  12844  12852     1  0.0000000  4.9162000  2
  12851  12845  12844  12852     1  0.0000000  0.6024960  3
  12851  12845  12846  12862     1  0.0000000  4.9162000  2
  12851  12845  12846  12862     1  0.0000000  0.6024960  3
  12852  12844  12841  12853     1  0.0000000  4.9162000  2
  12852  12844  12841  12853     1  0.0000000  0.6024960  3
  12853  12841  12840  12854     1  0.0000000  0.6508444  3
  12853  12841  12840  12862     1  0.0000000  4.9162000  2
  12853  12841  12840  12862     1  0.0000000  0.6024960  3
  12860  12854  12840  12862     1  0.0000000  4.9162000  2
  12860  12854  12840  12862     1  0.0000000  0.6024960  3
  12863  12864  12867  12868     1  180.0000771  0.8368000  1
  12863  12864  12867  12868     1  180.0000771  1.0460000  2
  12863  12864  12867  12868     1  0.0000000  0.7531200  3
  12863  12864  12867  12875     1  0.0000000  0.6508444  3
  12863  12885  12869  12873     1  180.0000771  5.6484000  1
  12863  12885  12869  12873     1  180.0000771  3.5564000  2
  12863  12885  12869  12873     1  0.0000000  0.4184000  3
  12863  12885  12869  12868     1  180.0000771  0.4184000  2
  12863  12885  12869  12868     1  0.0000000  1.6024720  3
  12864  12867  12868  12869     1  180.0000771  0.8368000  1
  12864  12867  12868  12869     1  180.0000771  1.0460000  2
  12864  12867  12868  12869     1  0.0000000  0.7531200  3
  12864  12867  12868  12874     1  0.0000000  0.6508444  3
  12864  12863  12877  12883     1  0.0000000  0.6508444  3
  12864  12863  12885  12869     1  180.0000771  0.4184000  2
  12864  12863  12885  12869     1  0.0000000  1.6024720  3
  12867  12868  12869  12873     1  0.0000000  0.6508444  3
  12867  12868  12869  12885     1  0.0000000  0.6508444  3
  12867  12864  12863  12877     1  180.0000771  0.8368000  1
  12867  12864  12863  12877     1  180.0000771  1.0460000  2
  12867  12864  12863  12877     1  0.0000000  0.7531200  3
  12867  12864  12863  12885     1  0.0000000  0.6508444  3
  12868  12867  12864  12876     1  0.0000000  0.6508444  3
  12869  12885  12863  12877     1  180.0000771  0.4184000  2
  12869  12885  12863  12877     1  0.0000000  1.6024720  3
  12869  12868  12867  12875     1  0.0000000  0.6508444  3
  12873  12869  12868  12874     1  0.0000000  4.9162000  2
  12873  12869  12868  12874     1  0.0000000  0.6024960  3
  12874  12868  12869  12885     1  0.0000000  4.9162000  2
  12874  12868  12869  12885     1  0.0000000  0.6024960  3
  12874  12868  12867  12875     1  0.0000000  4.9162000  2
  12874  12868  12867  12875     1  0.0000000  0.6024960  3
  12875  12867  12864  12876     1  0.0000000  4.9162000  2
  12875  12867  12864  12876     1  0.0000000  0.6024960  3
  12876  12864  12863  12877     1  0.0000000  0.6508444  3
  12876  12864  12863  12885     1  0.0000000  4.9162000  2
  12876  12864  12863  12885     1  0.0000000  0.6024960  3
  12883  12877  12863  12885     1  0.0000000  4.9162000  2
  12883  12877  12863  12885     1  0.0000000  0.6024960  3
  12886  12887  12890  12891     1  180.0000771  0.8368000  1
  12886  12887  12890  12891     1  180.0000771  1.0460000  2
  12886  12887  12890  12891     1  0.0000000  0.7531200  3
  12886  12887  12890  12898     1  0.0000000  0.6508444  3
  12886  12908  12892  12891     1  180.0000771  0.4184000  2
  12886  12908  12892  12891     1  0.0000000  1.6024720  3
  12886  12908  12892  12896     1  180.0000771  5.6484000  1
  12886  12908  12892  12896     1  180.0000771  3.5564000  2
  12886  12908  12892  12896     1  0.0000000  0.4184000  3
  12887  12886  12900  12906     1  0.0000000  0.6508444  3
  12887  12886  12908  12892     1  180.0000771  0.4184000  2
  12887  12886  12908  12892     1  0.0000000  1.6024720  3
  12887  12890  12891  12892     1  180.0000771  0.8368000  1
  12887  12890  12891  12892     1  180.0000771  1.0460000  2
  12887  12890  12891  12892     1  0.0000000  0.7531200  3
  12887  12890  12891  12897     1  0.0000000  0.6508444  3
  12890  12887  12886  12900     1  180.0000771  0.8368000  1
  12890  12887  12886  12900     1  180.0000771  1.0460000  2
  12890  12887  12886  12900     1  0.0000000  0.7531200  3
  12890  12887  12886  12908     1  0.0000000  0.6508444  3
  12890  12891  12892  12896     1  0.0000000  0.6508444  3
  12890  12891  12892  12908     1  0.0000000  0.6508444  3
  12891  12890  12887  12899     1  0.0000000  0.6508444  3
  12892  12891  12890  12898     1  0.0000000  0.6508444  3
  12892  12908  12886  12900     1  180.0000771  0.4184000  2
  12892  12908  12886  12900     1  0.0000000  1.6024720  3
  12896  12892  12891  12897     1  0.0000000  4.9162000  2
  12896  12892  12891  12897     1  0.0000000  0.6024960  3
  12897  12891  12890  12898     1  0.0000000  4.9162000  2
  12897  12891  12890  12898     1  0.0000000  0.6024960  3
  12897  12891  12892  12908     1  0.0000000  4.9162000  2
  12897  12891  12892  12908     1  0.0000000  0.6024960  3
  12898  12890  12887  12899     1  0.0000000  4.9162000  2
  12898  12890  12887  12899     1  0.0000000  0.6024960  3
  12899  12887  12886  12900     1  0.0000000  0.6508444  3
  12899  12887  12886  12908     1  0.0000000  4.9162000  2
  12899  12887  12886  12908     1  0.0000000  0.6024960  3
  12906  12900  12886  12908     1  0.0000000  4.9162000  2
  12906  12900  12886  12908     1  0.0000000  0.6024960  3
  12909  12910  12913  12914     1  180.0000771  0.8368000  1
  12909  12910  12913  12914     1  180.0000771  1.0460000  2
  12909  12910  12913  12914     1  0.0000000  0.7531200  3
  12909  12910  12913  12921     1  0.0000000  0.6508444  3
  12909  12931  12915  12919     1  180.0000771  5.6484000  1
  12909  12931  12915  12919     1  180.0000771  3.5564000  2
  12909  12931  12915  12919     1  0.0000000  0.4184000  3
  12909  12931  12915  12914     1  180.0000771  0.4184000  2
  12909  12931  12915  12914     1  0.0000000  1.6024720  3
  12910  12913  12914  12915     1  180.0000771  0.8368000  1
  12910  12913  12914  12915     1  180.0000771  1.0460000  2
  12910  12913  12914  12915     1  0.0000000  0.7531200  3
  12910  12913  12914  12920     1  0.0000000  0.6508444  3
  12910  12909  12923  12929     1  0.0000000  0.6508444  3
  12910  12909  12931  12915     1  180.0000771  0.4184000  2
  12910  12909  12931  12915     1  0.0000000  1.6024720  3
  12913  12914  12915  12919     1  0.0000000  0.6508444  3
  12913  12914  12915  12931     1  0.0000000  0.6508444  3
  12913  12910  12909  12923     1  180.0000771  0.8368000  1
  12913  12910  12909  12923     1  180.0000771  1.0460000  2
  12913  12910  12909  12923     1  0.0000000  0.7531200  3
  12913  12910  12909  12931     1  0.0000000  0.6508444  3
  12914  12913  12910  12922     1  0.0000000  0.6508444  3
  12915  12931  12909  12923     1  180.0000771  0.4184000  2
  12915  12931  12909  12923     1  0.0000000  1.6024720  3
  12915  12914  12913  12921     1  0.0000000  0.6508444  3
  12919  12915  12914  12920     1  0.0000000  4.9162000  2
  12919  12915  12914  12920     1  0.0000000  0.6024960  3
  12920  12914  12915  12931     1  0.0000000  4.9162000  2
  12920  12914  12915  12931     1  0.0000000  0.6024960  3
  12920  12914  12913  12921     1  0.0000000  4.9162000  2
  12920  12914  12913  12921     1  0.0000000  0.6024960  3
  12921  12913  12910  12922     1  0.0000000  4.9162000  2
  12921  12913  12910  12922     1  0.0000000  0.6024960  3
  12922  12910  12909  12923     1  0.0000000  0.6508444  3
  12922  12910  12909  12931     1  0.0000000  4.9162000  2
  12922  12910  12909  12931     1  0.0000000  0.6024960  3
  12929  12923  12909  12931     1  0.0000000  4.9162000  2
  12929  12923  12909  12931     1  0.0000000  0.6024960  3
  12932  12933  12936  12937     1  180.0000771  0.8368000  1
  12932  12933  12936  12937     1  180.0000771  1.0460000  2
  12932  12933  12936  12937     1  0.0000000  0.7531200  3
  12932  12933  12936  12944     1  0.0000000  0.6508444  3
  12932  12954  12938  12937     1  180.0000771  0.4184000  2
  12932  12954  12938  12937     1  0.0000000  1.6024720  3
  12932  12954  12938  12942     1  180.0000771  5.6484000  1
  12932  12954  12938  12942     1  180.0000771  3.5564000  2
  12932  12954  12938  12942     1  0.0000000  0.4184000  3
  12933  12932  12946  12952     1  0.0000000  0.6508444  3
  12933  12932  12954  12938     1  180.0000771  0.4184000  2
  12933  12932  12954  12938     1  0.0000000  1.6024720  3
  12933  12936  12937  12938     1  180.0000771  0.8368000  1
  12933  12936  12937  12938     1  180.0000771  1.0460000  2
  12933  12936  12937  12938     1  0.0000000  0.7531200  3
  12933  12936  12937  12943     1  0.0000000  0.6508444  3
  12936  12933  12932  12946     1  180.0000771  0.8368000  1
  12936  12933  12932  12946     1  180.0000771  1.0460000  2
  12936  12933  12932  12946     1  0.0000000  0.7531200  3
  12936  12933  12932  12954     1  0.0000000  0.6508444  3
  12936  12937  12938  12942     1  0.0000000  0.6508444  3
  12936  12937  12938  12954     1  0.0000000  0.6508444  3
  12937  12936  12933  12945     1  0.0000000  0.6508444  3
  12938  12937  12936  12944     1  0.0000000  0.6508444  3
  12938  12954  12932  12946     1  180.0000771  0.4184000  2
  12938  12954  12932  12946     1  0.0000000  1.6024720  3
  12942  12938  12937  12943     1  0.0000000  4.9162000  2
  12942  12938  12937  12943     1  0.0000000  0.6024960  3
  12943  12937  12936  12944     1  0.0000000  4.9162000  2
  12943  12937  12936  12944     1  0.0000000  0.6024960  3
  12943  12937  12938  12954     1  0.0000000  4.9162000  2
  12943  12937  12938  12954     1  0.0000000  0.6024960  3
  12944  12936  12933  12945     1  0.0000000  4.9162000  2
  12944  12936  12933  12945     1  0.0000000  0.6024960  3
  12945  12933  12932  12946     1  0.0000000  0.6508444  3
  12945  12933  12932  12954     1  0.0000000  4.9162000  2
  12945  12933  12932  12954     1  0.0000000  0.6024960  3
  12952  12946  12932  12954     1  0.0000000  4.9162000  2
  12952  12946  12932  12954     1  0.0000000  0.6024960  3
  12955  12956  12959  12960     1  180.0000771  0.8368000  1
  12955  12956  12959  12960     1  180.0000771  1.0460000  2
  12955  12956  12959  12960     1  0.0000000  0.7531200  3
  12955  12956  12959  12967     1  0.0000000  0.6508444  3
  12955  12977  12961  12965     1  180.0000771  5.6484000  1
  12955  12977  12961  12965     1  180.0000771  3.5564000  2
  12955  12977  12961  12965     1  0.0000000  0.4184000  3
  12955  12977  12961  12960     1  180.0000771  0.4184000  2
  12955  12977  12961  12960     1  0.0000000  1.6024720  3
  12956  12959  12960  12961     1  180.0000771  0.8368000  1
  12956  12959  12960  12961     1  180.0000771  1.0460000  2
  12956  12959  12960  12961     1  0.0000000  0.7531200  3
  12956  12959  12960  12966     1  0.0000000  0.6508444  3
  12956  12955  12969  12975     1  0.0000000  0.6508444  3
  12956  12955  12977  12961     1  180.0000771  0.4184000  2
  12956  12955  12977  12961     1  0.0000000  1.6024720  3
  12959  12960  12961  12965     1  0.0000000  0.6508444  3
  12959  12960  12961  12977     1  0.0000000  0.6508444  3
  12959  12956  12955  12969     1  180.0000771  0.8368000  1
  12959  12956  12955  12969     1  180.0000771  1.0460000  2
  12959  12956  12955  12969     1  0.0000000  0.7531200  3
  12959  12956  12955  12977     1  0.0000000  0.6508444  3
  12960  12959  12956  12968     1  0.0000000  0.6508444  3
  12961  12977  12955  12969     1  180.0000771  0.4184000  2
  12961  12977  12955  12969     1  0.0000000  1.6024720  3
  12961  12960  12959  12967     1  0.0000000  0.6508444  3
  12965  12961  12960  12966     1  0.0000000  4.9162000  2
  12965  12961  12960  12966     1  0.0000000  0.6024960  3
  12966  12960  12961  12977     1  0.0000000  4.9162000  2
  12966  12960  12961  12977     1  0.0000000  0.6024960  3
  12966  12960  12959  12967     1  0.0000000  4.9162000  2
  12966  12960  12959  12967     1  0.0000000  0.6024960  3
  12967  12959  12956  12968     1  0.0000000  4.9162000  2
  12967  12959  12956  12968     1  0.0000000  0.6024960  3
  12968  12956  12955  12969     1  0.0000000  0.6508444  3
  12968  12956  12955  12977     1  0.0000000  4.9162000  2
  12968  12956  12955  12977     1  0.0000000  0.6024960  3
  12975  12969  12955  12977     1  0.0000000  4.9162000  2
  12975  12969  12955  12977     1  0.0000000  0.6024960  3
  12978  12979  12982  12983     1  180.0000771  0.8368000  1
  12978  12979  12982  12983     1  180.0000771  1.0460000  2
  12978  12979  12982  12983     1  0.0000000  0.7531200  3
  12978  12979  12982  12990     1  0.0000000  0.6508444  3
  12978  13000  12984  12983     1  180.0000771  0.4184000  2
  12978  13000  12984  12983     1  0.0000000  1.6024720  3
  12978  13000  12984  12988     1  180.0000771  5.6484000  1
  12978  13000  12984  12988     1  180.0000771  3.5564000  2
  12978  13000  12984  12988     1  0.0000000  0.4184000  3
  12979  12978  12992  12998     1  0.0000000  0.6508444  3
  12979  12978  13000  12984     1  180.0000771  0.4184000  2
  12979  12978  13000  12984     1  0.0000000  1.6024720  3
  12979  12982  12983  12984     1  180.0000771  0.8368000  1
  12979  12982  12983  12984     1  180.0000771  1.0460000  2
  12979  12982  12983  12984     1  0.0000000  0.7531200  3
  12979  12982  12983  12989     1  0.0000000  0.6508444  3
  12982  12979  12978  12992     1  180.0000771  0.8368000  1
  12982  12979  12978  12992     1  180.0000771  1.0460000  2
  12982  12979  12978  12992     1  0.0000000  0.7531200  3
  12982  12979  12978  13000     1  0.0000000  0.6508444  3
  12982  12983  12984  12988     1  0.0000000  0.6508444  3
  12982  12983  12984  13000     1  0.0000000  0.6508444  3
  12983  12982  12979  12991     1  0.0000000  0.6508444  3
  12984  12983  12982  12990     1  0.0000000  0.6508444  3
  12984  13000  12978  12992     1  180.0000771  0.4184000  2
  12984  13000  12978  12992     1  0.0000000  1.6024720  3
  12988  12984  12983  12989     1  0.0000000  4.9162000  2
  12988  12984  12983  12989     1  0.0000000  0.6024960  3
  12989  12983  12982  12990     1  0.0000000  4.9162000  2
  12989  12983  12982  12990     1  0.0000000  0.6024960  3
  12989  12983  12984  13000     1  0.0000000  4.9162000  2
  12989  12983  12984  13000     1  0.0000000  0.6024960  3
  12990  12982  12979  12991     1  0.0000000  4.9162000  2
  12990  12982  12979  12991     1  0.0000000  0.6024960  3
  12991  12979  12978  12992     1  0.0000000  0.6508444  3
  12991  12979  12978  13000     1  0.0000000  4.9162000  2
  12991  12979  12978  13000     1  0.0000000  0.6024960  3
  12998  12992  12978  13000     1  0.0000000  4.9162000  2
  12998  12992  12978  13000     1  0.0000000  0.6024960  3
  13001  13002  13005  13006     1  180.0000771  0.8368000  1
  13001  13002  13005  13006     1  180.0000771  1.0460000  2
  13001  13002  13005  13006     1  0.0000000  0.7531200  3
  13001  13002  13005  13013     1  0.0000000  0.6508444  3
  13001  13023  13007  13011     1  180.0000771  5.6484000  1
  13001  13023  13007  13011     1  180.0000771  3.5564000  2
  13001  13023  13007  13011     1  0.0000000  0.4184000  3
  13001  13023  13007  13006     1  180.0000771  0.4184000  2
  13001  13023  13007  13006     1  0.0000000  1.6024720  3
  13002  13005  13006  13007     1  180.0000771  0.8368000  1
  13002  13005  13006  13007     1  180.0000771  1.0460000  2
  13002  13005  13006  13007     1  0.0000000  0.7531200  3
  13002  13005  13006  13012     1  0.0000000  0.6508444  3
  13002  13001  13015  13021     1  0.0000000  0.6508444  3
  13002  13001  13023  13007     1  180.0000771  0.4184000  2
  13002  13001  13023  13007     1  0.0000000  1.6024720  3
  13005  13006  13007  13011     1  0.0000000  0.6508444  3
  13005  13006  13007  13023     1  0.0000000  0.6508444  3
  13005  13002  13001  13015     1  180.0000771  0.8368000  1
  13005  13002  13001  13015     1  180.0000771  1.0460000  2
  13005  13002  13001  13015     1  0.0000000  0.7531200  3
  13005  13002  13001  13023     1  0.0000000  0.6508444  3
  13006  13005  13002  13014     1  0.0000000  0.6508444  3
  13007  13023  13001  13015     1  180.0000771  0.4184000  2
  13007  13023  13001  13015     1  0.0000000  1.6024720  3
  13007  13006  13005  13013     1  0.0000000  0.6508444  3
  13011  13007  13006  13012     1  0.0000000  4.9162000  2
  13011  13007  13006  13012     1  0.0000000  0.6024960  3
  13012  13006  13007  13023     1  0.0000000  4.9162000  2
  13012  13006  13007  13023     1  0.0000000  0.6024960  3
  13012  13006  13005  13013     1  0.0000000  4.9162000  2
  13012  13006  13005  13013     1  0.0000000  0.6024960  3
  13013  13005  13002  13014     1  0.0000000  4.9162000  2
  13013  13005  13002  13014     1  0.0000000  0.6024960  3
  13014  13002  13001  13015     1  0.0000000  0.6508444  3
  13014  13002  13001  13023     1  0.0000000  4.9162000  2
  13014  13002  13001  13023     1  0.0000000  0.6024960  3
  13021  13015  13001  13023     1  0.0000000  4.9162000  2
  13021  13015  13001  13023     1  0.0000000  0.6024960  3
  13024  13025  13028  13029     1  180.0000771  0.8368000  1
  13024  13025  13028  13029     1  180.0000771  1.0460000  2
  13024  13025  13028  13029     1  0.0000000  0.7531200  3
  13024  13025  13028  13036     1  0.0000000  0.6508444  3
  13024  13046  13030  13029     1  180.0000771  0.4184000  2
  13024  13046  13030  13029     1  0.0000000  1.6024720  3
  13024  13046  13030  13034     1  180.0000771  5.6484000  1
  13024  13046  13030  13034     1  180.0000771  3.5564000  2
  13024  13046  13030  13034     1  0.0000000  0.4184000  3
  13025  13024  13038  13044     1  0.0000000  0.6508444  3
  13025  13024  13046  13030     1  180.0000771  0.4184000  2
  13025  13024  13046  13030     1  0.0000000  1.6024720  3
  13025  13028  13029  13030     1  180.0000771  0.8368000  1
  13025  13028  13029  13030     1  180.0000771  1.0460000  2
  13025  13028  13029  13030     1  0.0000000  0.7531200  3
  13025  13028  13029  13035     1  0.0000000  0.6508444  3
  13028  13025  13024  13038     1  180.0000771  0.8368000  1
  13028  13025  13024  13038     1  180.0000771  1.0460000  2
  13028  13025  13024  13038     1  0.0000000  0.7531200  3
  13028  13025  13024  13046     1  0.0000000  0.6508444  3
  13028  13029  13030  13034     1  0.0000000  0.6508444  3
  13028  13029  13030  13046     1  0.0000000  0.6508444  3
  13029  13028  13025  13037     1  0.0000000  0.6508444  3
  13030  13029  13028  13036     1  0.0000000  0.6508444  3
  13030  13046  13024  13038     1  180.0000771  0.4184000  2
  13030  13046  13024  13038     1  0.0000000  1.6024720  3
  13034  13030  13029  13035     1  0.0000000  4.9162000  2
  13034  13030  13029  13035     1  0.0000000  0.6024960  3
  13035  13029  13028  13036     1  0.0000000  4.9162000  2
  13035  13029  13028  13036     1  0.0000000  0.6024960  3
  13035  13029  13030  13046     1  0.0000000  4.9162000  2
  13035  13029  13030  13046     1  0.0000000  0.6024960  3
  13036  13028  13025  13037     1  0.0000000  4.9162000  2
  13036  13028  13025  13037     1  0.0000000  0.6024960  3
  13037  13025  13024  13038     1  0.0000000  0.6508444  3
  13037  13025  13024  13046     1  0.0000000  4.9162000  2
  13037  13025  13024  13046     1  0.0000000  0.6024960  3
  13044  13038  13024  13046     1  0.0000000  4.9162000  2
  13044  13038  13024  13046     1  0.0000000  0.6024960  3
  13047  13048  13051  13052     1  180.0000771  0.8368000  1
  13047  13048  13051  13052     1  180.0000771  1.0460000  2
  13047  13048  13051  13052     1  0.0000000  0.7531200  3
  13047  13048  13051  13059     1  0.0000000  0.6508444  3
  13047  13069  13053  13057     1  180.0000771  5.6484000  1
  13047  13069  13053  13057     1  180.0000771  3.5564000  2
  13047  13069  13053  13057     1  0.0000000  0.4184000  3
  13047  13069  13053  13052     1  180.0000771  0.4184000  2
  13047  13069  13053  13052     1  0.0000000  1.6024720  3
  13048  13051  13052  13053     1  180.0000771  0.8368000  1
  13048  13051  13052  13053     1  180.0000771  1.0460000  2
  13048  13051  13052  13053     1  0.0000000  0.7531200  3
  13048  13051  13052  13058     1  0.0000000  0.6508444  3
  13048  13047  13061  13067     1  0.0000000  0.6508444  3
  13048  13047  13069  13053     1  180.0000771  0.4184000  2
  13048  13047  13069  13053     1  0.0000000  1.6024720  3
  13051  13052  13053  13057     1  0.0000000  0.6508444  3
  13051  13052  13053  13069     1  0.0000000  0.6508444  3
  13051  13048  13047  13061     1  180.0000771  0.8368000  1
  13051  13048  13047  13061     1  180.0000771  1.0460000  2
  13051  13048  13047  13061     1  0.0000000  0.7531200  3
  13051  13048  13047  13069     1  0.0000000  0.6508444  3
  13052  13051  13048  13060     1  0.0000000  0.6508444  3
  13053  13069  13047  13061     1  180.0000771  0.4184000  2
  13053  13069  13047  13061     1  0.0000000  1.6024720  3
  13053  13052  13051  13059     1  0.0000000  0.6508444  3
  13057  13053  13052  13058     1  0.0000000  4.9162000  2
  13057  13053  13052  13058     1  0.0000000  0.6024960  3
  13058  13052  13053  13069     1  0.0000000  4.9162000  2
  13058  13052  13053  13069     1  0.0000000  0.6024960  3
  13058  13052  13051  13059     1  0.0000000  4.9162000  2
  13058  13052  13051  13059     1  0.0000000  0.6024960  3
  13059  13051  13048  13060     1  0.0000000  4.9162000  2
  13059  13051  13048  13060     1  0.0000000  0.6024960  3
  13060  13048  13047  13061     1  0.0000000  0.6508444  3
  13060  13048  13047  13069     1  0.0000000  4.9162000  2
  13060  13048  13047  13069     1  0.0000000  0.6024960  3
  13067  13061  13047  13069     1  0.0000000  4.9162000  2
  13067  13061  13047  13069     1  0.0000000  0.6024960  3
  13070  13071  13074  13075     1  180.0000771  0.8368000  1
  13070  13071  13074  13075     1  180.0000771  1.0460000  2
  13070  13071  13074  13075     1  0.0000000  0.7531200  3
  13070  13071  13074  13082     1  0.0000000  0.6508444  3
  13070  13092  13076  13075     1  180.0000771  0.4184000  2
  13070  13092  13076  13075     1  0.0000000  1.6024720  3
  13070  13092  13076  13080     1  180.0000771  5.6484000  1
  13070  13092  13076  13080     1  180.0000771  3.5564000  2
  13070  13092  13076  13080     1  0.0000000  0.4184000  3
  13071  13070  13084  13090     1  0.0000000  0.6508444  3
  13071  13070  13092  13076     1  180.0000771  0.4184000  2
  13071  13070  13092  13076     1  0.0000000  1.6024720  3
  13071  13074  13075  13076     1  180.0000771  0.8368000  1
  13071  13074  13075  13076     1  180.0000771  1.0460000  2
  13071  13074  13075  13076     1  0.0000000  0.7531200  3
  13071  13074  13075  13081     1  0.0000000  0.6508444  3
  13074  13071  13070  13084     1  180.0000771  0.8368000  1
  13074  13071  13070  13084     1  180.0000771  1.0460000  2
  13074  13071  13070  13084     1  0.0000000  0.7531200  3
  13074  13071  13070  13092     1  0.0000000  0.6508444  3
  13074  13075  13076  13080     1  0.0000000  0.6508444  3
  13074  13075  13076  13092     1  0.0000000  0.6508444  3
  13075  13074  13071  13083     1  0.0000000  0.6508444  3
  13076  13075  13074  13082     1  0.0000000  0.6508444  3
  13076  13092  13070  13084     1  180.0000771  0.4184000  2
  13076  13092  13070  13084     1  0.0000000  1.6024720  3
  13080  13076  13075  13081     1  0.0000000  4.9162000  2
  13080  13076  13075  13081     1  0.0000000  0.6024960  3
  13081  13075  13074  13082     1  0.0000000  4.9162000  2
  13081  13075  13074  13082     1  0.0000000  0.6024960  3
  13081  13075  13076  13092     1  0.0000000  4.9162000  2
  13081  13075  13076  13092     1  0.0000000  0.6024960  3
  13082  13074  13071  13083     1  0.0000000  4.9162000  2
  13082  13074  13071  13083     1  0.0000000  0.6024960  3
  13083  13071  13070  13084     1  0.0000000  0.6508444  3
  13083  13071  13070  13092     1  0.0000000  4.9162000  2
  13083  13071  13070  13092     1  0.0000000  0.6024960  3
  13090  13084  13070  13092     1  0.0000000  4.9162000  2
  13090  13084  13070  13092     1  0.0000000  0.6024960  3
  13093  13094  13097  13098     1  180.0000771  0.8368000  1
  13093  13094  13097  13098     1  180.0000771  1.0460000  2
  13093  13094  13097  13098     1  0.0000000  0.7531200  3
  13093  13094  13097  13105     1  0.0000000  0.6508444  3
  13093  13115  13099  13103     1  180.0000771  5.6484000  1
  13093  13115  13099  13103     1  180.0000771  3.5564000  2
  13093  13115  13099  13103     1  0.0000000  0.4184000  3
  13093  13115  13099  13098     1  180.0000771  0.4184000  2
  13093  13115  13099  13098     1  0.0000000  1.6024720  3
  13094  13097  13098  13099     1  180.0000771  0.8368000  1
  13094  13097  13098  13099     1  180.0000771  1.0460000  2
  13094  13097  13098  13099     1  0.0000000  0.7531200  3
  13094  13097  13098  13104     1  0.0000000  0.6508444  3
  13094  13093  13107  13113     1  0.0000000  0.6508444  3
  13094  13093  13115  13099     1  180.0000771  0.4184000  2
  13094  13093  13115  13099     1  0.0000000  1.6024720  3
  13097  13098  13099  13103     1  0.0000000  0.6508444  3
  13097  13098  13099  13115     1  0.0000000  0.6508444  3
  13097  13094  13093  13107     1  180.0000771  0.8368000  1
  13097  13094  13093  13107     1  180.0000771  1.0460000  2
  13097  13094  13093  13107     1  0.0000000  0.7531200  3
  13097  13094  13093  13115     1  0.0000000  0.6508444  3
  13098  13097  13094  13106     1  0.0000000  0.6508444  3
  13099  13115  13093  13107     1  180.0000771  0.4184000  2
  13099  13115  13093  13107     1  0.0000000  1.6024720  3
  13099  13098  13097  13105     1  0.0000000  0.6508444  3
  13103  13099  13098  13104     1  0.0000000  4.9162000  2
  13103  13099  13098  13104     1  0.0000000  0.6024960  3
  13104  13098  13099  13115     1  0.0000000  4.9162000  2
  13104  13098  13099  13115     1  0.0000000  0.6024960  3
  13104  13098  13097  13105     1  0.0000000  4.9162000  2
  13104  13098  13097  13105     1  0.0000000  0.6024960  3
  13105  13097  13094  13106     1  0.0000000  4.9162000  2
  13105  13097  13094  13106     1  0.0000000  0.6024960  3
  13106  13094  13093  13107     1  0.0000000  0.6508444  3
  13106  13094  13093  13115     1  0.0000000  4.9162000  2
  13106  13094  13093  13115     1  0.0000000  0.6024960  3
  13113  13107  13093  13115     1  0.0000000  4.9162000  2
  13113  13107  13093  13115     1  0.0000000  0.6024960  3
  13116  13117  13120  13121     1  180.0000771  0.8368000  1
  13116  13117  13120  13121     1  180.0000771  1.0460000  2
  13116  13117  13120  13121     1  0.0000000  0.7531200  3
  13116  13117  13120  13128     1  0.0000000  0.6508444  3
  13116  13138  13122  13121     1  180.0000771  0.4184000  2
  13116  13138  13122  13121     1  0.0000000  1.6024720  3
  13116  13138  13122  13126     1  180.0000771  5.6484000  1
  13116  13138  13122  13126     1  180.0000771  3.5564000  2
  13116  13138  13122  13126     1  0.0000000  0.4184000  3
  13117  13116  13130  13136     1  0.0000000  0.6508444  3
  13117  13116  13138  13122     1  180.0000771  0.4184000  2
  13117  13116  13138  13122     1  0.0000000  1.6024720  3
  13117  13120  13121  13122     1  180.0000771  0.8368000  1
  13117  13120  13121  13122     1  180.0000771  1.0460000  2
  13117  13120  13121  13122     1  0.0000000  0.7531200  3
  13117  13120  13121  13127     1  0.0000000  0.6508444  3
  13120  13117  13116  13130     1  180.0000771  0.8368000  1
  13120  13117  13116  13130     1  180.0000771  1.0460000  2
  13120  13117  13116  13130     1  0.0000000  0.7531200  3
  13120  13117  13116  13138     1  0.0000000  0.6508444  3
  13120  13121  13122  13126     1  0.0000000  0.6508444  3
  13120  13121  13122  13138     1  0.0000000  0.6508444  3
  13121  13120  13117  13129     1  0.0000000  0.6508444  3
  13122  13121  13120  13128     1  0.0000000  0.6508444  3
  13122  13138  13116  13130     1  180.0000771  0.4184000  2
  13122  13138  13116  13130     1  0.0000000  1.6024720  3
  13126  13122  13121  13127     1  0.0000000  4.9162000  2
  13126  13122  13121  13127     1  0.0000000  0.6024960  3
  13127  13121  13120  13128     1  0.0000000  4.9162000  2
  13127  13121  13120  13128     1  0.0000000  0.6024960  3
  13127  13121  13122  13138     1  0.0000000  4.9162000  2
  13127  13121  13122  13138     1  0.0000000  0.6024960  3
  13128  13120  13117  13129     1  0.0000000  4.9162000  2
  13128  13120  13117  13129     1  0.0000000  0.6024960  3
  13129  13117  13116  13130     1  0.0000000  0.6508444  3
  13129  13117  13116  13138     1  0.0000000  4.9162000  2
  13129  13117  13116  13138     1  0.0000000  0.6024960  3
  13136  13130  13116  13138     1  0.0000000  4.9162000  2
  13136  13130  13116  13138     1  0.0000000  0.6024960  3
  13139  13140  13143  13144     1  180.0000771  0.8368000  1
  13139  13140  13143  13144     1  180.0000771  1.0460000  2
  13139  13140  13143  13144     1  0.0000000  0.7531200  3
  13139  13140  13143  13151     1  0.0000000  0.6508444  3
  13139  13161  13145  13149     1  180.0000771  5.6484000  1
  13139  13161  13145  13149     1  180.0000771  3.5564000  2
  13139  13161  13145  13149     1  0.0000000  0.4184000  3
  13139  13161  13145  13144     1  180.0000771  0.4184000  2
  13139  13161  13145  13144     1  0.0000000  1.6024720  3
  13140  13143  13144  13145     1  180.0000771  0.8368000  1
  13140  13143  13144  13145     1  180.0000771  1.0460000  2
  13140  13143  13144  13145     1  0.0000000  0.7531200  3
  13140  13143  13144  13150     1  0.0000000  0.6508444  3
  13140  13139  13153  13159     1  0.0000000  0.6508444  3
  13140  13139  13161  13145     1  180.0000771  0.4184000  2
  13140  13139  13161  13145     1  0.0000000  1.6024720  3
  13143  13144  13145  13149     1  0.0000000  0.6508444  3
  13143  13144  13145  13161     1  0.0000000  0.6508444  3
  13143  13140  13139  13153     1  180.0000771  0.8368000  1
  13143  13140  13139  13153     1  180.0000771  1.0460000  2
  13143  13140  13139  13153     1  0.0000000  0.7531200  3
  13143  13140  13139  13161     1  0.0000000  0.6508444  3
  13144  13143  13140  13152     1  0.0000000  0.6508444  3
  13145  13161  13139  13153     1  180.0000771  0.4184000  2
  13145  13161  13139  13153     1  0.0000000  1.6024720  3
  13145  13144  13143  13151     1  0.0000000  0.6508444  3
  13149  13145  13144  13150     1  0.0000000  4.9162000  2
  13149  13145  13144  13150     1  0.0000000  0.6024960  3
  13150  13144  13145  13161     1  0.0000000  4.9162000  2
  13150  13144  13145  13161     1  0.0000000  0.6024960  3
  13150  13144  13143  13151     1  0.0000000  4.9162000  2
  13150  13144  13143  13151     1  0.0000000  0.6024960  3
  13151  13143  13140  13152     1  0.0000000  4.9162000  2
  13151  13143  13140  13152     1  0.0000000  0.6024960  3
  13152  13140  13139  13153     1  0.0000000  0.6508444  3
  13152  13140  13139  13161     1  0.0000000  4.9162000  2
  13152  13140  13139  13161     1  0.0000000  0.6024960  3
  13159  13153  13139  13161     1  0.0000000  4.9162000  2
  13159  13153  13139  13161     1  0.0000000  0.6024960  3
  13162  13163  13166  13167     1  180.0000771  0.8368000  1
  13162  13163  13166  13167     1  180.0000771  1.0460000  2
  13162  13163  13166  13167     1  0.0000000  0.7531200  3
  13162  13163  13166  13174     1  0.0000000  0.6508444  3
  13162  13184  13168  13167     1  180.0000771  0.4184000  2
  13162  13184  13168  13167     1  0.0000000  1.6024720  3
  13162  13184  13168  13172     1  180.0000771  5.6484000  1
  13162  13184  13168  13172     1  180.0000771  3.5564000  2
  13162  13184  13168  13172     1  0.0000000  0.4184000  3
  13163  13162  13176  13182     1  0.0000000  0.6508444  3
  13163  13162  13184  13168     1  180.0000771  0.4184000  2
  13163  13162  13184  13168     1  0.0000000  1.6024720  3
  13163  13166  13167  13168     1  180.0000771  0.8368000  1
  13163  13166  13167  13168     1  180.0000771  1.0460000  2
  13163  13166  13167  13168     1  0.0000000  0.7531200  3
  13163  13166  13167  13173     1  0.0000000  0.6508444  3
  13166  13163  13162  13176     1  180.0000771  0.8368000  1
  13166  13163  13162  13176     1  180.0000771  1.0460000  2
  13166  13163  13162  13176     1  0.0000000  0.7531200  3
  13166  13163  13162  13184     1  0.0000000  0.6508444  3
  13166  13167  13168  13172     1  0.0000000  0.6508444  3
  13166  13167  13168  13184     1  0.0000000  0.6508444  3
  13167  13166  13163  13175     1  0.0000000  0.6508444  3
  13168  13167  13166  13174     1  0.0000000  0.6508444  3
  13168  13184  13162  13176     1  180.0000771  0.4184000  2
  13168  13184  13162  13176     1  0.0000000  1.6024720  3
  13172  13168  13167  13173     1  0.0000000  4.9162000  2
  13172  13168  13167  13173     1  0.0000000  0.6024960  3
  13173  13167  13166  13174     1  0.0000000  4.9162000  2
  13173  13167  13166  13174     1  0.0000000  0.6024960  3
  13173  13167  13168  13184     1  0.0000000  4.9162000  2
  13173  13167  13168  13184     1  0.0000000  0.6024960  3
  13174  13166  13163  13175     1  0.0000000  4.9162000  2
  13174  13166  13163  13175     1  0.0000000  0.6024960  3
  13175  13163  13162  13176     1  0.0000000  0.6508444  3
  13175  13163  13162  13184     1  0.0000000  4.9162000  2
  13175  13163  13162  13184     1  0.0000000  0.6024960  3
  13182  13176  13162  13184     1  0.0000000  4.9162000  2
  13182  13176  13162  13184     1  0.0000000  0.6024960  3
  13185  13186  13189  13190     1  180.0000771  0.8368000  1
  13185  13186  13189  13190     1  180.0000771  1.0460000  2
  13185  13186  13189  13190     1  0.0000000  0.7531200  3
  13185  13186  13189  13197     1  0.0000000  0.6508444  3
  13185  13207  13191  13195     1  180.0000771  5.6484000  1
  13185  13207  13191  13195     1  180.0000771  3.5564000  2
  13185  13207  13191  13195     1  0.0000000  0.4184000  3
  13185  13207  13191  13190     1  180.0000771  0.4184000  2
  13185  13207  13191  13190     1  0.0000000  1.6024720  3
  13186  13189  13190  13191     1  180.0000771  0.8368000  1
  13186  13189  13190  13191     1  180.0000771  1.0460000  2
  13186  13189  13190  13191     1  0.0000000  0.7531200  3
  13186  13189  13190  13196     1  0.0000000  0.6508444  3
  13186  13185  13199  13205     1  0.0000000  0.6508444  3
  13186  13185  13207  13191     1  180.0000771  0.4184000  2
  13186  13185  13207  13191     1  0.0000000  1.6024720  3
  13189  13190  13191  13195     1  0.0000000  0.6508444  3
  13189  13190  13191  13207     1  0.0000000  0.6508444  3
  13189  13186  13185  13199     1  180.0000771  0.8368000  1
  13189  13186  13185  13199     1  180.0000771  1.0460000  2
  13189  13186  13185  13199     1  0.0000000  0.7531200  3
  13189  13186  13185  13207     1  0.0000000  0.6508444  3
  13190  13189  13186  13198     1  0.0000000  0.6508444  3
  13191  13207  13185  13199     1  180.0000771  0.4184000  2
  13191  13207  13185  13199     1  0.0000000  1.6024720  3
  13191  13190  13189  13197     1  0.0000000  0.6508444  3
  13195  13191  13190  13196     1  0.0000000  4.9162000  2
  13195  13191  13190  13196     1  0.0000000  0.6024960  3
  13196  13190  13191  13207     1  0.0000000  4.9162000  2
  13196  13190  13191  13207     1  0.0000000  0.6024960  3
  13196  13190  13189  13197     1  0.0000000  4.9162000  2
  13196  13190  13189  13197     1  0.0000000  0.6024960  3
  13197  13189  13186  13198     1  0.0000000  4.9162000  2
  13197  13189  13186  13198     1  0.0000000  0.6024960  3
  13198  13186  13185  13199     1  0.0000000  0.6508444  3
  13198  13186  13185  13207     1  0.0000000  4.9162000  2
  13198  13186  13185  13207     1  0.0000000  0.6024960  3
  13205  13199  13185  13207     1  0.0000000  4.9162000  2
  13205  13199  13185  13207     1  0.0000000  0.6024960  3
  13208  13209  13212  13213     1  180.0000771  0.8368000  1
  13208  13209  13212  13213     1  180.0000771  1.0460000  2
  13208  13209  13212  13213     1  0.0000000  0.7531200  3
  13208  13209  13212  13220     1  0.0000000  0.6508444  3
  13208  13230  13214  13213     1  180.0000771  0.4184000  2
  13208  13230  13214  13213     1  0.0000000  1.6024720  3
  13208  13230  13214  13218     1  180.0000771  5.6484000  1
  13208  13230  13214  13218     1  180.0000771  3.5564000  2
  13208  13230  13214  13218     1  0.0000000  0.4184000  3
  13209  13208  13222  13228     1  0.0000000  0.6508444  3
  13209  13208  13230  13214     1  180.0000771  0.4184000  2
  13209  13208  13230  13214     1  0.0000000  1.6024720  3
  13209  13212  13213  13214     1  180.0000771  0.8368000  1
  13209  13212  13213  13214     1  180.0000771  1.0460000  2
  13209  13212  13213  13214     1  0.0000000  0.7531200  3
  13209  13212  13213  13219     1  0.0000000  0.6508444  3
  13212  13209  13208  13222     1  180.0000771  0.8368000  1
  13212  13209  13208  13222     1  180.0000771  1.0460000  2
  13212  13209  13208  13222     1  0.0000000  0.7531200  3
  13212  13209  13208  13230     1  0.0000000  0.6508444  3
  13212  13213  13214  13218     1  0.0000000  0.6508444  3
  13212  13213  13214  13230     1  0.0000000  0.6508444  3
  13213  13212  13209  13221     1  0.0000000  0.6508444  3
  13214  13213  13212  13220     1  0.0000000  0.6508444  3
  13214  13230  13208  13222     1  180.0000771  0.4184000  2
  13214  13230  13208  13222     1  0.0000000  1.6024720  3
  13218  13214  13213  13219     1  0.0000000  4.9162000  2
  13218  13214  13213  13219     1  0.0000000  0.6024960  3
  13219  13213  13212  13220     1  0.0000000  4.9162000  2
  13219  13213  13212  13220     1  0.0000000  0.6024960  3
  13219  13213  13214  13230     1  0.0000000  4.9162000  2
  13219  13213  13214  13230     1  0.0000000  0.6024960  3
  13220  13212  13209  13221     1  0.0000000  4.9162000  2
  13220  13212  13209  13221     1  0.0000000  0.6024960  3
  13221  13209  13208  13222     1  0.0000000  0.6508444  3
  13221  13209  13208  13230     1  0.0000000  4.9162000  2
  13221  13209  13208  13230     1  0.0000000  0.6024960  3
  13228  13222  13208  13230     1  0.0000000  4.9162000  2
  13228  13222  13208  13230     1  0.0000000  0.6024960  3
  13231  13232  13235  13236     1  180.0000771  0.8368000  1
  13231  13232  13235  13236     1  180.0000771  1.0460000  2
  13231  13232  13235  13236     1  0.0000000  0.7531200  3
  13231  13232  13235  13243     1  0.0000000  0.6508444  3
  13231  13253  13237  13241     1  180.0000771  5.6484000  1
  13231  13253  13237  13241     1  180.0000771  3.5564000  2
  13231  13253  13237  13241     1  0.0000000  0.4184000  3
  13231  13253  13237  13236     1  180.0000771  0.4184000  2
  13231  13253  13237  13236     1  0.0000000  1.6024720  3
  13232  13235  13236  13237     1  180.0000771  0.8368000  1
  13232  13235  13236  13237     1  180.0000771  1.0460000  2
  13232  13235  13236  13237     1  0.0000000  0.7531200  3
  13232  13235  13236  13242     1  0.0000000  0.6508444  3
  13232  13231  13245  13251     1  0.0000000  0.6508444  3
  13232  13231  13253  13237     1  180.0000771  0.4184000  2
  13232  13231  13253  13237     1  0.0000000  1.6024720  3
  13235  13236  13237  13241     1  0.0000000  0.6508444  3
  13235  13236  13237  13253     1  0.0000000  0.6508444  3
  13235  13232  13231  13245     1  180.0000771  0.8368000  1
  13235  13232  13231  13245     1  180.0000771  1.0460000  2
  13235  13232  13231  13245     1  0.0000000  0.7531200  3
  13235  13232  13231  13253     1  0.0000000  0.6508444  3
  13236  13235  13232  13244     1  0.0000000  0.6508444  3
  13237  13253  13231  13245     1  180.0000771  0.4184000  2
  13237  13253  13231  13245     1  0.0000000  1.6024720  3
  13237  13236  13235  13243     1  0.0000000  0.6508444  3
  13241  13237  13236  13242     1  0.0000000  4.9162000  2
  13241  13237  13236  13242     1  0.0000000  0.6024960  3
  13242  13236  13237  13253     1  0.0000000  4.9162000  2
  13242  13236  13237  13253     1  0.0000000  0.6024960  3
  13242  13236  13235  13243     1  0.0000000  4.9162000  2
  13242  13236  13235  13243     1  0.0000000  0.6024960  3
  13243  13235  13232  13244     1  0.0000000  4.9162000  2
  13243  13235  13232  13244     1  0.0000000  0.6024960  3
  13244  13232  13231  13245     1  0.0000000  0.6508444  3
  13244  13232  13231  13253     1  0.0000000  4.9162000  2
  13244  13232  13231  13253     1  0.0000000  0.6024960  3
  13251  13245  13231  13253     1  0.0000000  4.9162000  2
  13251  13245  13231  13253     1  0.0000000  0.6024960  3
  13254  13255  13258  13259     1  180.0000771  0.8368000  1
  13254  13255  13258  13259     1  180.0000771  1.0460000  2
  13254  13255  13258  13259     1  0.0000000  0.7531200  3
  13254  13255  13258  13266     1  0.0000000  0.6508444  3
  13254  13276  13260  13259     1  180.0000771  0.4184000  2
  13254  13276  13260  13259     1  0.0000000  1.6024720  3
  13254  13276  13260  13264     1  180.0000771  5.6484000  1
  13254  13276  13260  13264     1  180.0000771  3.5564000  2
  13254  13276  13260  13264     1  0.0000000  0.4184000  3
  13255  13254  13268  13274     1  0.0000000  0.6508444  3
  13255  13254  13276  13260     1  180.0000771  0.4184000  2
  13255  13254  13276  13260     1  0.0000000  1.6024720  3
  13255  13258  13259  13260     1  180.0000771  0.8368000  1
  13255  13258  13259  13260     1  180.0000771  1.0460000  2
  13255  13258  13259  13260     1  0.0000000  0.7531200  3
  13255  13258  13259  13265     1  0.0000000  0.6508444  3
  13258  13255  13254  13268     1  180.0000771  0.8368000  1
  13258  13255  13254  13268     1  180.0000771  1.0460000  2
  13258  13255  13254  13268     1  0.0000000  0.7531200  3
  13258  13255  13254  13276     1  0.0000000  0.6508444  3
  13258  13259  13260  13264     1  0.0000000  0.6508444  3
  13258  13259  13260  13276     1  0.0000000  0.6508444  3
  13259  13258  13255  13267     1  0.0000000  0.6508444  3
  13260  13259  13258  13266     1  0.0000000  0.6508444  3
  13260  13276  13254  13268     1  180.0000771  0.4184000  2
  13260  13276  13254  13268     1  0.0000000  1.6024720  3
  13264  13260  13259  13265     1  0.0000000  4.9162000  2
  13264  13260  13259  13265     1  0.0000000  0.6024960  3
  13265  13259  13258  13266     1  0.0000000  4.9162000  2
  13265  13259  13258  13266     1  0.0000000  0.6024960  3
  13265  13259  13260  13276     1  0.0000000  4.9162000  2
  13265  13259  13260  13276     1  0.0000000  0.6024960  3
  13266  13258  13255  13267     1  0.0000000  4.9162000  2
  13266  13258  13255  13267     1  0.0000000  0.6024960  3
  13267  13255  13254  13268     1  0.0000000  0.6508444  3
  13267  13255  13254  13276     1  0.0000000  4.9162000  2
  13267  13255  13254  13276     1  0.0000000  0.6024960  3
  13274  13268  13254  13276     1  0.0000000  4.9162000  2
  13274  13268  13254  13276     1  0.0000000  0.6024960  3
  13277  13278  13281  13282     1  180.0000771  0.8368000  1
  13277  13278  13281  13282     1  180.0000771  1.0460000  2
  13277  13278  13281  13282     1  0.0000000  0.7531200  3
  13277  13278  13281  13289     1  0.0000000  0.6508444  3
  13277  13299  13283  13287     1  180.0000771  5.6484000  1
  13277  13299  13283  13287     1  180.0000771  3.5564000  2
  13277  13299  13283  13287     1  0.0000000  0.4184000  3
  13277  13299  13283  13282     1  180.0000771  0.4184000  2
  13277  13299  13283  13282     1  0.0000000  1.6024720  3
  13278  13281  13282  13283     1  180.0000771  0.8368000  1
  13278  13281  13282  13283     1  180.0000771  1.0460000  2
  13278  13281  13282  13283     1  0.0000000  0.7531200  3
  13278  13281  13282  13288     1  0.0000000  0.6508444  3
  13278  13277  13291  13297     1  0.0000000  0.6508444  3
  13278  13277  13299  13283     1  180.0000771  0.4184000  2
  13278  13277  13299  13283     1  0.0000000  1.6024720  3
  13281  13282  13283  13287     1  0.0000000  0.6508444  3
  13281  13282  13283  13299     1  0.0000000  0.6508444  3
  13281  13278  13277  13291     1  180.0000771  0.8368000  1
  13281  13278  13277  13291     1  180.0000771  1.0460000  2
  13281  13278  13277  13291     1  0.0000000  0.7531200  3
  13281  13278  13277  13299     1  0.0000000  0.6508444  3
  13282  13281  13278  13290     1  0.0000000  0.6508444  3
  13283  13299  13277  13291     1  180.0000771  0.4184000  2
  13283  13299  13277  13291     1  0.0000000  1.6024720  3
  13283  13282  13281  13289     1  0.0000000  0.6508444  3
  13287  13283  13282  13288     1  0.0000000  4.9162000  2
  13287  13283  13282  13288     1  0.0000000  0.6024960  3
  13288  13282  13283  13299     1  0.0000000  4.9162000  2
  13288  13282  13283  13299     1  0.0000000  0.6024960  3
  13288  13282  13281  13289     1  0.0000000  4.9162000  2
  13288  13282  13281  13289     1  0.0000000  0.6024960  3
  13289  13281  13278  13290     1  0.0000000  4.9162000  2
  13289  13281  13278  13290     1  0.0000000  0.6024960  3
  13290  13278  13277  13291     1  0.0000000  0.6508444  3
  13290  13278  13277  13299     1  0.0000000  4.9162000  2
  13290  13278  13277  13299     1  0.0000000  0.6024960  3
  13297  13291  13277  13299     1  0.0000000  4.9162000  2
  13297  13291  13277  13299     1  0.0000000  0.6024960  3
  13300  13301  13304  13305     1  180.0000771  0.8368000  1
  13300  13301  13304  13305     1  180.0000771  1.0460000  2
  13300  13301  13304  13305     1  0.0000000  0.7531200  3
  13300  13301  13304  13312     1  0.0000000  0.6508444  3
  13300  13322  13306  13305     1  180.0000771  0.4184000  2
  13300  13322  13306  13305     1  0.0000000  1.6024720  3
  13300  13322  13306  13310     1  180.0000771  5.6484000  1
  13300  13322  13306  13310     1  180.0000771  3.5564000  2
  13300  13322  13306  13310     1  0.0000000  0.4184000  3
  13301  13300  13314  13320     1  0.0000000  0.6508444  3
  13301  13300  13322  13306     1  180.0000771  0.4184000  2
  13301  13300  13322  13306     1  0.0000000  1.6024720  3
  13301  13304  13305  13306     1  180.0000771  0.8368000  1
  13301  13304  13305  13306     1  180.0000771  1.0460000  2
  13301  13304  13305  13306     1  0.0000000  0.7531200  3
  13301  13304  13305  13311     1  0.0000000  0.6508444  3
  13304  13301  13300  13314     1  180.0000771  0.8368000  1
  13304  13301  13300  13314     1  180.0000771  1.0460000  2
  13304  13301  13300  13314     1  0.0000000  0.7531200  3
  13304  13301  13300  13322     1  0.0000000  0.6508444  3
  13304  13305  13306  13310     1  0.0000000  0.6508444  3
  13304  13305  13306  13322     1  0.0000000  0.6508444  3
  13305  13304  13301  13313     1  0.0000000  0.6508444  3
  13306  13305  13304  13312     1  0.0000000  0.6508444  3
  13306  13322  13300  13314     1  180.0000771  0.4184000  2
  13306  13322  13300  13314     1  0.0000000  1.6024720  3
  13310  13306  13305  13311     1  0.0000000  4.9162000  2
  13310  13306  13305  13311     1  0.0000000  0.6024960  3
  13311  13305  13304  13312     1  0.0000000  4.9162000  2
  13311  13305  13304  13312     1  0.0000000  0.6024960  3
  13311  13305  13306  13322     1  0.0000000  4.9162000  2
  13311  13305  13306  13322     1  0.0000000  0.6024960  3
  13312  13304  13301  13313     1  0.0000000  4.9162000  2
  13312  13304  13301  13313     1  0.0000000  0.6024960  3
  13313  13301  13300  13314     1  0.0000000  0.6508444  3
  13313  13301  13300  13322     1  0.0000000  4.9162000  2
  13313  13301  13300  13322     1  0.0000000  0.6024960  3
  13320  13314  13300  13322     1  0.0000000  4.9162000  2
  13320  13314  13300  13322     1  0.0000000  0.6024960  3
  13323  13324  13327  13328     1  180.0000771  0.8368000  1
  13323  13324  13327  13328     1  180.0000771  1.0460000  2
  13323  13324  13327  13328     1  0.0000000  0.7531200  3
  13323  13324  13327  13335     1  0.0000000  0.6508444  3
  13323  13345  13329  13333     1  180.0000771  5.6484000  1
  13323  13345  13329  13333     1  180.0000771  3.5564000  2
  13323  13345  13329  13333     1  0.0000000  0.4184000  3
  13323  13345  13329  13328     1  180.0000771  0.4184000  2
  13323  13345  13329  13328     1  0.0000000  1.6024720  3
  13324  13327  13328  13329     1  180.0000771  0.8368000  1
  13324  13327  13328  13329     1  180.0000771  1.0460000  2
  13324  13327  13328  13329     1  0.0000000  0.7531200  3
  13324  13327  13328  13334     1  0.0000000  0.6508444  3
  13324  13323  13337  13343     1  0.0000000  0.6508444  3
  13324  13323  13345  13329     1  180.0000771  0.4184000  2
  13324  13323  13345  13329     1  0.0000000  1.6024720  3
  13327  13328  13329  13333     1  0.0000000  0.6508444  3
  13327  13328  13329  13345     1  0.0000000  0.6508444  3
  13327  13324  13323  13337     1  180.0000771  0.8368000  1
  13327  13324  13323  13337     1  180.0000771  1.0460000  2
  13327  13324  13323  13337     1  0.0000000  0.7531200  3
  13327  13324  13323  13345     1  0.0000000  0.6508444  3
  13328  13327  13324  13336     1  0.0000000  0.6508444  3
  13329  13345  13323  13337     1  180.0000771  0.4184000  2
  13329  13345  13323  13337     1  0.0000000  1.6024720  3
  13329  13328  13327  13335     1  0.0000000  0.6508444  3
  13333  13329  13328  13334     1  0.0000000  4.9162000  2
  13333  13329  13328  13334     1  0.0000000  0.6024960  3
  13334  13328  13329  13345     1  0.0000000  4.9162000  2
  13334  13328  13329  13345     1  0.0000000  0.6024960  3
  13334  13328  13327  13335     1  0.0000000  4.9162000  2
  13334  13328  13327  13335     1  0.0000000  0.6024960  3
  13335  13327  13324  13336     1  0.0000000  4.9162000  2
  13335  13327  13324  13336     1  0.0000000  0.6024960  3
  13336  13324  13323  13337     1  0.0000000  0.6508444  3
  13336  13324  13323  13345     1  0.0000000  4.9162000  2
  13336  13324  13323  13345     1  0.0000000  0.6024960  3
  13343  13337  13323  13345     1  0.0000000  4.9162000  2
  13343  13337  13323  13345     1  0.0000000  0.6024960  3
  13346  13347  13350  13351     1  180.0000771  0.8368000  1
  13346  13347  13350  13351     1  180.0000771  1.0460000  2
  13346  13347  13350  13351     1  0.0000000  0.7531200  3
  13346  13347  13350  13358     1  0.0000000  0.6508444  3
  13346  13368  13352  13351     1  180.0000771  0.4184000  2
  13346  13368  13352  13351     1  0.0000000  1.6024720  3
  13346  13368  13352  13356     1  180.0000771  5.6484000  1
  13346  13368  13352  13356     1  180.0000771  3.5564000  2
  13346  13368  13352  13356     1  0.0000000  0.4184000  3
  13347  13346  13360  13366     1  0.0000000  0.6508444  3
  13347  13346  13368  13352     1  180.0000771  0.4184000  2
  13347  13346  13368  13352     1  0.0000000  1.6024720  3
  13347  13350  13351  13352     1  180.0000771  0.8368000  1
  13347  13350  13351  13352     1  180.0000771  1.0460000  2
  13347  13350  13351  13352     1  0.0000000  0.7531200  3
  13347  13350  13351  13357     1  0.0000000  0.6508444  3
  13350  13347  13346  13360     1  180.0000771  0.8368000  1
  13350  13347  13346  13360     1  180.0000771  1.0460000  2
  13350  13347  13346  13360     1  0.0000000  0.7531200  3
  13350  13347  13346  13368     1  0.0000000  0.6508444  3
  13350  13351  13352  13356     1  0.0000000  0.6508444  3
  13350  13351  13352  13368     1  0.0000000  0.6508444  3
  13351  13350  13347  13359     1  0.0000000  0.6508444  3
  13352  13351  13350  13358     1  0.0000000  0.6508444  3
  13352  13368  13346  13360     1  180.0000771  0.4184000  2
  13352  13368  13346  13360     1  0.0000000  1.6024720  3
  13356  13352  13351  13357     1  0.0000000  4.9162000  2
  13356  13352  13351  13357     1  0.0000000  0.6024960  3
  13357  13351  13350  13358     1  0.0000000  4.9162000  2
  13357  13351  13350  13358     1  0.0000000  0.6024960  3
  13357  13351  13352  13368     1  0.0000000  4.9162000  2
  13357  13351  13352  13368     1  0.0000000  0.6024960  3
  13358  13350  13347  13359     1  0.0000000  4.9162000  2
  13358  13350  13347  13359     1  0.0000000  0.6024960  3
  13359  13347  13346  13360     1  0.0000000  0.6508444  3
  13359  13347  13346  13368     1  0.0000000  4.9162000  2
  13359  13347  13346  13368     1  0.0000000  0.6024960  3
  13366  13360  13346  13368     1  0.0000000  4.9162000  2
  13366  13360  13346  13368     1  0.0000000  0.6024960  3
  13369  13370  13373  13374     1  180.0000771  0.8368000  1
  13369  13370  13373  13374     1  180.0000771  1.0460000  2
  13369  13370  13373  13374     1  0.0000000  0.7531200  3
  13369  13370  13373  13381     1  0.0000000  0.6508444  3
  13369  13391  13375  13379     1  180.0000771  5.6484000  1
  13369  13391  13375  13379     1  180.0000771  3.5564000  2
  13369  13391  13375  13379     1  0.0000000  0.4184000  3
  13369  13391  13375  13374     1  180.0000771  0.4184000  2
  13369  13391  13375  13374     1  0.0000000  1.6024720  3
  13370  13373  13374  13375     1  180.0000771  0.8368000  1
  13370  13373  13374  13375     1  180.0000771  1.0460000  2
  13370  13373  13374  13375     1  0.0000000  0.7531200  3
  13370  13373  13374  13380     1  0.0000000  0.6508444  3
  13370  13369  13383  13389     1  0.0000000  0.6508444  3
  13370  13369  13391  13375     1  180.0000771  0.4184000  2
  13370  13369  13391  13375     1  0.0000000  1.6024720  3
  13373  13374  13375  13379     1  0.0000000  0.6508444  3
  13373  13374  13375  13391     1  0.0000000  0.6508444  3
  13373  13370  13369  13383     1  180.0000771  0.8368000  1
  13373  13370  13369  13383     1  180.0000771  1.0460000  2
  13373  13370  13369  13383     1  0.0000000  0.7531200  3
  13373  13370  13369  13391     1  0.0000000  0.6508444  3
  13374  13373  13370  13382     1  0.0000000  0.6508444  3
  13375  13391  13369  13383     1  180.0000771  0.4184000  2
  13375  13391  13369  13383     1  0.0000000  1.6024720  3
  13375  13374  13373  13381     1  0.0000000  0.6508444  3
  13379  13375  13374  13380     1  0.0000000  4.9162000  2
  13379  13375  13374  13380     1  0.0000000  0.6024960  3
  13380  13374  13375  13391     1  0.0000000  4.9162000  2
  13380  13374  13375  13391     1  0.0000000  0.6024960  3
  13380  13374  13373  13381     1  0.0000000  4.9162000  2
  13380  13374  13373  13381     1  0.0000000  0.6024960  3
  13381  13373  13370  13382     1  0.0000000  4.9162000  2
  13381  13373  13370  13382     1  0.0000000  0.6024960  3
  13382  13370  13369  13383     1  0.0000000  0.6508444  3
  13382  13370  13369  13391     1  0.0000000  4.9162000  2
  13382  13370  13369  13391     1  0.0000000  0.6024960  3
  13389  13383  13369  13391     1  0.0000000  4.9162000  2
  13389  13383  13369  13391     1  0.0000000  0.6024960  3
  13392  13393  13396  13397     1  180.0000771  0.8368000  1
  13392  13393  13396  13397     1  180.0000771  1.0460000  2
  13392  13393  13396  13397     1  0.0000000  0.7531200  3
  13392  13393  13396  13404     1  0.0000000  0.6508444  3
  13392  13414  13398  13397     1  180.0000771  0.4184000  2
  13392  13414  13398  13397     1  0.0000000  1.6024720  3
  13392  13414  13398  13402     1  180.0000771  5.6484000  1
  13392  13414  13398  13402     1  180.0000771  3.5564000  2
  13392  13414  13398  13402     1  0.0000000  0.4184000  3
  13393  13392  13406  13412     1  0.0000000  0.6508444  3
  13393  13392  13414  13398     1  180.0000771  0.4184000  2
  13393  13392  13414  13398     1  0.0000000  1.6024720  3
  13393  13396  13397  13398     1  180.0000771  0.8368000  1
  13393  13396  13397  13398     1  180.0000771  1.0460000  2
  13393  13396  13397  13398     1  0.0000000  0.7531200  3
  13393  13396  13397  13403     1  0.0000000  0.6508444  3
  13396  13393  13392  13406     1  180.0000771  0.8368000  1
  13396  13393  13392  13406     1  180.0000771  1.0460000  2
  13396  13393  13392  13406     1  0.0000000  0.7531200  3
  13396  13393  13392  13414     1  0.0000000  0.6508444  3
  13396  13397  13398  13402     1  0.0000000  0.6508444  3
  13396  13397  13398  13414     1  0.0000000  0.6508444  3
  13397  13396  13393  13405     1  0.0000000  0.6508444  3
  13398  13397  13396  13404     1  0.0000000  0.6508444  3
  13398  13414  13392  13406     1  180.0000771  0.4184000  2
  13398  13414  13392  13406     1  0.0000000  1.6024720  3
  13402  13398  13397  13403     1  0.0000000  4.9162000  2
  13402  13398  13397  13403     1  0.0000000  0.6024960  3
  13403  13397  13396  13404     1  0.0000000  4.9162000  2
  13403  13397  13396  13404     1  0.0000000  0.6024960  3
  13403  13397  13398  13414     1  0.0000000  4.9162000  2
  13403  13397  13398  13414     1  0.0000000  0.6024960  3
  13404  13396  13393  13405     1  0.0000000  4.9162000  2
  13404  13396  13393  13405     1  0.0000000  0.6024960  3
  13405  13393  13392  13406     1  0.0000000  0.6508444  3
  13405  13393  13392  13414     1  0.0000000  4.9162000  2
  13405  13393  13392  13414     1  0.0000000  0.6024960  3
  13412  13406  13392  13414     1  0.0000000  4.9162000  2
  13412  13406  13392  13414     1  0.0000000  0.6024960  3
  13415  13416  13419  13420     1  180.0000771  0.8368000  1
  13415  13416  13419  13420     1  180.0000771  1.0460000  2
  13415  13416  13419  13420     1  0.0000000  0.7531200  3
  13415  13416  13419  13427     1  0.0000000  0.6508444  3
  13415  13437  13421  13425     1  180.0000771  5.6484000  1
  13415  13437  13421  13425     1  180.0000771  3.5564000  2
  13415  13437  13421  13425     1  0.0000000  0.4184000  3
  13415  13437  13421  13420     1  180.0000771  0.4184000  2
  13415  13437  13421  13420     1  0.0000000  1.6024720  3
  13416  13419  13420  13421     1  180.0000771  0.8368000  1
  13416  13419  13420  13421     1  180.0000771  1.0460000  2
  13416  13419  13420  13421     1  0.0000000  0.7531200  3
  13416  13419  13420  13426     1  0.0000000  0.6508444  3
  13416  13415  13429  13435     1  0.0000000  0.6508444  3
  13416  13415  13437  13421     1  180.0000771  0.4184000  2
  13416  13415  13437  13421     1  0.0000000  1.6024720  3
  13419  13420  13421  13425     1  0.0000000  0.6508444  3
  13419  13420  13421  13437     1  0.0000000  0.6508444  3
  13419  13416  13415  13429     1  180.0000771  0.8368000  1
  13419  13416  13415  13429     1  180.0000771  1.0460000  2
  13419  13416  13415  13429     1  0.0000000  0.7531200  3
  13419  13416  13415  13437     1  0.0000000  0.6508444  3
  13420  13419  13416  13428     1  0.0000000  0.6508444  3
  13421  13437  13415  13429     1  180.0000771  0.4184000  2
  13421  13437  13415  13429     1  0.0000000  1.6024720  3
  13421  13420  13419  13427     1  0.0000000  0.6508444  3
  13425  13421  13420  13426     1  0.0000000  4.9162000  2
  13425  13421  13420  13426     1  0.0000000  0.6024960  3
  13426  13420  13421  13437     1  0.0000000  4.9162000  2
  13426  13420  13421  13437     1  0.0000000  0.6024960  3
  13426  13420  13419  13427     1  0.0000000  4.9162000  2
  13426  13420  13419  13427     1  0.0000000  0.6024960  3
  13427  13419  13416  13428     1  0.0000000  4.9162000  2
  13427  13419  13416  13428     1  0.0000000  0.6024960  3
  13428  13416  13415  13429     1  0.0000000  0.6508444  3
  13428  13416  13415  13437     1  0.0000000  4.9162000  2
  13428  13416  13415  13437     1  0.0000000  0.6024960  3
  13435  13429  13415  13437     1  0.0000000  4.9162000  2
  13435  13429  13415  13437     1  0.0000000  0.6024960  3
  13438  13439  13442  13443     1  180.0000771  0.8368000  1
  13438  13439  13442  13443     1  180.0000771  1.0460000  2
  13438  13439  13442  13443     1  0.0000000  0.7531200  3
  13438  13439  13442  13450     1  0.0000000  0.6508444  3
  13438  13460  13444  13443     1  180.0000771  0.4184000  2
  13438  13460  13444  13443     1  0.0000000  1.6024720  3
  13438  13460  13444  13448     1  180.0000771  5.6484000  1
  13438  13460  13444  13448     1  180.0000771  3.5564000  2
  13438  13460  13444  13448     1  0.0000000  0.4184000  3
  13439  13438  13452  13458     1  0.0000000  0.6508444  3
  13439  13438  13460  13444     1  180.0000771  0.4184000  2
  13439  13438  13460  13444     1  0.0000000  1.6024720  3
  13439  13442  13443  13444     1  180.0000771  0.8368000  1
  13439  13442  13443  13444     1  180.0000771  1.0460000  2
  13439  13442  13443  13444     1  0.0000000  0.7531200  3
  13439  13442  13443  13449     1  0.0000000  0.6508444  3
  13442  13439  13438  13452     1  180.0000771  0.8368000  1
  13442  13439  13438  13452     1  180.0000771  1.0460000  2
  13442  13439  13438  13452     1  0.0000000  0.7531200  3
  13442  13439  13438  13460     1  0.0000000  0.6508444  3
  13442  13443  13444  13448     1  0.0000000  0.6508444  3
  13442  13443  13444  13460     1  0.0000000  0.6508444  3
  13443  13442  13439  13451     1  0.0000000  0.6508444  3
  13444  13443  13442  13450     1  0.0000000  0.6508444  3
  13444  13460  13438  13452     1  180.0000771  0.4184000  2
  13444  13460  13438  13452     1  0.0000000  1.6024720  3
  13448  13444  13443  13449     1  0.0000000  4.9162000  2
  13448  13444  13443  13449     1  0.0000000  0.6024960  3
  13449  13443  13442  13450     1  0.0000000  4.9162000  2
  13449  13443  13442  13450     1  0.0000000  0.6024960  3
  13449  13443  13444  13460     1  0.0000000  4.9162000  2
  13449  13443  13444  13460     1  0.0000000  0.6024960  3
  13450  13442  13439  13451     1  0.0000000  4.9162000  2
  13450  13442  13439  13451     1  0.0000000  0.6024960  3
  13451  13439  13438  13452     1  0.0000000  0.6508444  3
  13451  13439  13438  13460     1  0.0000000  4.9162000  2
  13451  13439  13438  13460     1  0.0000000  0.6024960  3
  13458  13452  13438  13460     1  0.0000000  4.9162000  2
  13458  13452  13438  13460     1  0.0000000  0.6024960  3
  13461  13462  13465  13466     1  180.0000771  0.8368000  1
  13461  13462  13465  13466     1  180.0000771  1.0460000  2
  13461  13462  13465  13466     1  0.0000000  0.7531200  3
  13461  13462  13465  13473     1  0.0000000  0.6508444  3
  13461  13483  13467  13471     1  180.0000771  5.6484000  1
  13461  13483  13467  13471     1  180.0000771  3.5564000  2
  13461  13483  13467  13471     1  0.0000000  0.4184000  3
  13461  13483  13467  13466     1  180.0000771  0.4184000  2
  13461  13483  13467  13466     1  0.0000000  1.6024720  3
  13462  13465  13466  13467     1  180.0000771  0.8368000  1
  13462  13465  13466  13467     1  180.0000771  1.0460000  2
  13462  13465  13466  13467     1  0.0000000  0.7531200  3
  13462  13465  13466  13472     1  0.0000000  0.6508444  3
  13462  13461  13475  13481     1  0.0000000  0.6508444  3
  13462  13461  13483  13467     1  180.0000771  0.4184000  2
  13462  13461  13483  13467     1  0.0000000  1.6024720  3
  13465  13466  13467  13471     1  0.0000000  0.6508444  3
  13465  13466  13467  13483     1  0.0000000  0.6508444  3
  13465  13462  13461  13475     1  180.0000771  0.8368000  1
  13465  13462  13461  13475     1  180.0000771  1.0460000  2
  13465  13462  13461  13475     1  0.0000000  0.7531200  3
  13465  13462  13461  13483     1  0.0000000  0.6508444  3
  13466  13465  13462  13474     1  0.0000000  0.6508444  3
  13467  13483  13461  13475     1  180.0000771  0.4184000  2
  13467  13483  13461  13475     1  0.0000000  1.6024720  3
  13467  13466  13465  13473     1  0.0000000  0.6508444  3
  13471  13467  13466  13472     1  0.0000000  4.9162000  2
  13471  13467  13466  13472     1  0.0000000  0.6024960  3
  13472  13466  13467  13483     1  0.0000000  4.9162000  2
  13472  13466  13467  13483     1  0.0000000  0.6024960  3
  13472  13466  13465  13473     1  0.0000000  4.9162000  2
  13472  13466  13465  13473     1  0.0000000  0.6024960  3
  13473  13465  13462  13474     1  0.0000000  4.9162000  2
  13473  13465  13462  13474     1  0.0000000  0.6024960  3
  13474  13462  13461  13475     1  0.0000000  0.6508444  3
  13474  13462  13461  13483     1  0.0000000  4.9162000  2
  13474  13462  13461  13483     1  0.0000000  0.6024960  3
  13481  13475  13461  13483     1  0.0000000  4.9162000  2
  13481  13475  13461  13483     1  0.0000000  0.6024960  3
  13484  13485  13488  13489     1  180.0000771  0.8368000  1
  13484  13485  13488  13489     1  180.0000771  1.0460000  2
  13484  13485  13488  13489     1  0.0000000  0.7531200  3
  13484  13485  13488  13496     1  0.0000000  0.6508444  3
  13484  13506  13490  13489     1  180.0000771  0.4184000  2
  13484  13506  13490  13489     1  0.0000000  1.6024720  3
  13484  13506  13490  13494     1  180.0000771  5.6484000  1
  13484  13506  13490  13494     1  180.0000771  3.5564000  2
  13484  13506  13490  13494     1  0.0000000  0.4184000  3
  13485  13484  13498  13504     1  0.0000000  0.6508444  3
  13485  13484  13506  13490     1  180.0000771  0.4184000  2
  13485  13484  13506  13490     1  0.0000000  1.6024720  3
  13485  13488  13489  13490     1  180.0000771  0.8368000  1
  13485  13488  13489  13490     1  180.0000771  1.0460000  2
  13485  13488  13489  13490     1  0.0000000  0.7531200  3
  13485  13488  13489  13495     1  0.0000000  0.6508444  3
  13488  13485  13484  13498     1  180.0000771  0.8368000  1
  13488  13485  13484  13498     1  180.0000771  1.0460000  2
  13488  13485  13484  13498     1  0.0000000  0.7531200  3
  13488  13485  13484  13506     1  0.0000000  0.6508444  3
  13488  13489  13490  13494     1  0.0000000  0.6508444  3
  13488  13489  13490  13506     1  0.0000000  0.6508444  3
  13489  13488  13485  13497     1  0.0000000  0.6508444  3
  13490  13489  13488  13496     1  0.0000000  0.6508444  3
  13490  13506  13484  13498     1  180.0000771  0.4184000  2
  13490  13506  13484  13498     1  0.0000000  1.6024720  3
  13494  13490  13489  13495     1  0.0000000  4.9162000  2
  13494  13490  13489  13495     1  0.0000000  0.6024960  3
  13495  13489  13488  13496     1  0.0000000  4.9162000  2
  13495  13489  13488  13496     1  0.0000000  0.6024960  3
  13495  13489  13490  13506     1  0.0000000  4.9162000  2
  13495  13489  13490  13506     1  0.0000000  0.6024960  3
  13496  13488  13485  13497     1  0.0000000  4.9162000  2
  13496  13488  13485  13497     1  0.0000000  0.6024960  3
  13497  13485  13484  13498     1  0.0000000  0.6508444  3
  13497  13485  13484  13506     1  0.0000000  4.9162000  2
  13497  13485  13484  13506     1  0.0000000  0.6024960  3
  13504  13498  13484  13506     1  0.0000000  4.9162000  2
  13504  13498  13484  13506     1  0.0000000  0.6024960  3
  13507  13508  13511  13512     1  180.0000771  0.8368000  1
  13507  13508  13511  13512     1  180.0000771  1.0460000  2
  13507  13508  13511  13512     1  0.0000000  0.7531200  3
  13507  13508  13511  13519     1  0.0000000  0.6508444  3
  13507  13529  13513  13517     1  180.0000771  5.6484000  1
  13507  13529  13513  13517     1  180.0000771  3.5564000  2
  13507  13529  13513  13517     1  0.0000000  0.4184000  3
  13507  13529  13513  13512     1  180.0000771  0.4184000  2
  13507  13529  13513  13512     1  0.0000000  1.6024720  3
  13508  13511  13512  13513     1  180.0000771  0.8368000  1
  13508  13511  13512  13513     1  180.0000771  1.0460000  2
  13508  13511  13512  13513     1  0.0000000  0.7531200  3
  13508  13511  13512  13518     1  0.0000000  0.6508444  3
  13508  13507  13521  13527     1  0.0000000  0.6508444  3
  13508  13507  13529  13513     1  180.0000771  0.4184000  2
  13508  13507  13529  13513     1  0.0000000  1.6024720  3
  13511  13512  13513  13517     1  0.0000000  0.6508444  3
  13511  13512  13513  13529     1  0.0000000  0.6508444  3
  13511  13508  13507  13521     1  180.0000771  0.8368000  1
  13511  13508  13507  13521     1  180.0000771  1.0460000  2
  13511  13508  13507  13521     1  0.0000000  0.7531200  3
  13511  13508  13507  13529     1  0.0000000  0.6508444  3
  13512  13511  13508  13520     1  0.0000000  0.6508444  3
  13513  13529  13507  13521     1  180.0000771  0.4184000  2
  13513  13529  13507  13521     1  0.0000000  1.6024720  3
  13513  13512  13511  13519     1  0.0000000  0.6508444  3
  13517  13513  13512  13518     1  0.0000000  4.9162000  2
  13517  13513  13512  13518     1  0.0000000  0.6024960  3
  13518  13512  13513  13529     1  0.0000000  4.9162000  2
  13518  13512  13513  13529     1  0.0000000  0.6024960  3
  13518  13512  13511  13519     1  0.0000000  4.9162000  2
  13518  13512  13511  13519     1  0.0000000  0.6024960  3
  13519  13511  13508  13520     1  0.0000000  4.9162000  2
  13519  13511  13508  13520     1  0.0000000  0.6024960  3
  13520  13508  13507  13521     1  0.0000000  0.6508444  3
  13520  13508  13507  13529     1  0.0000000  4.9162000  2
  13520  13508  13507  13529     1  0.0000000  0.6024960  3
  13527  13521  13507  13529     1  0.0000000  4.9162000  2
  13527  13521  13507  13529     1  0.0000000  0.6024960  3
  13530  13531  13534  13535     1  180.0000771  0.8368000  1
  13530  13531  13534  13535     1  180.0000771  1.0460000  2
  13530  13531  13534  13535     1  0.0000000  0.7531200  3
  13530  13531  13534  13542     1  0.0000000  0.6508444  3
  13530  13552  13536  13535     1  180.0000771  0.4184000  2
  13530  13552  13536  13535     1  0.0000000  1.6024720  3
  13530  13552  13536  13540     1  180.0000771  5.6484000  1
  13530  13552  13536  13540     1  180.0000771  3.5564000  2
  13530  13552  13536  13540     1  0.0000000  0.4184000  3
  13531  13530  13544  13550     1  0.0000000  0.6508444  3
  13531  13530  13552  13536     1  180.0000771  0.4184000  2
  13531  13530  13552  13536     1  0.0000000  1.6024720  3
  13531  13534  13535  13536     1  180.0000771  0.8368000  1
  13531  13534  13535  13536     1  180.0000771  1.0460000  2
  13531  13534  13535  13536     1  0.0000000  0.7531200  3
  13531  13534  13535  13541     1  0.0000000  0.6508444  3
  13534  13531  13530  13544     1  180.0000771  0.8368000  1
  13534  13531  13530  13544     1  180.0000771  1.0460000  2
  13534  13531  13530  13544     1  0.0000000  0.7531200  3
  13534  13531  13530  13552     1  0.0000000  0.6508444  3
  13534  13535  13536  13540     1  0.0000000  0.6508444  3
  13534  13535  13536  13552     1  0.0000000  0.6508444  3
  13535  13534  13531  13543     1  0.0000000  0.6508444  3
  13536  13535  13534  13542     1  0.0000000  0.6508444  3
  13536  13552  13530  13544     1  180.0000771  0.4184000  2
  13536  13552  13530  13544     1  0.0000000  1.6024720  3
  13540  13536  13535  13541     1  0.0000000  4.9162000  2
  13540  13536  13535  13541     1  0.0000000  0.6024960  3
  13541  13535  13534  13542     1  0.0000000  4.9162000  2
  13541  13535  13534  13542     1  0.0000000  0.6024960  3
  13541  13535  13536  13552     1  0.0000000  4.9162000  2
  13541  13535  13536  13552     1  0.0000000  0.6024960  3
  13542  13534  13531  13543     1  0.0000000  4.9162000  2
  13542  13534  13531  13543     1  0.0000000  0.6024960  3
  13543  13531  13530  13544     1  0.0000000  0.6508444  3
  13543  13531  13530  13552     1  0.0000000  4.9162000  2
  13543  13531  13530  13552     1  0.0000000  0.6024960  3
  13550  13544  13530  13552     1  0.0000000  4.9162000  2
  13550  13544  13530  13552     1  0.0000000  0.6024960  3
  13553  13554  13557  13558     1  180.0000771  0.8368000  1
  13553  13554  13557  13558     1  180.0000771  1.0460000  2
  13553  13554  13557  13558     1  0.0000000  0.7531200  3
  13553  13554  13557  13565     1  0.0000000  0.6508444  3
  13553  13575  13559  13563     1  180.0000771  5.6484000  1
  13553  13575  13559  13563     1  180.0000771  3.5564000  2
  13553  13575  13559  13563     1  0.0000000  0.4184000  3
  13553  13575  13559  13558     1  180.0000771  0.4184000  2
  13553  13575  13559  13558     1  0.0000000  1.6024720  3
  13554  13557  13558  13559     1  180.0000771  0.8368000  1
  13554  13557  13558  13559     1  180.0000771  1.0460000  2
  13554  13557  13558  13559     1  0.0000000  0.7531200  3
  13554  13557  13558  13564     1  0.0000000  0.6508444  3
  13554  13553  13567  13573     1  0.0000000  0.6508444  3
  13554  13553  13575  13559     1  180.0000771  0.4184000  2
  13554  13553  13575  13559     1  0.0000000  1.6024720  3
  13557  13558  13559  13563     1  0.0000000  0.6508444  3
  13557  13558  13559  13575     1  0.0000000  0.6508444  3
  13557  13554  13553  13567     1  180.0000771  0.8368000  1
  13557  13554  13553  13567     1  180.0000771  1.0460000  2
  13557  13554  13553  13567     1  0.0000000  0.7531200  3
  13557  13554  13553  13575     1  0.0000000  0.6508444  3
  13558  13557  13554  13566     1  0.0000000  0.6508444  3
  13559  13575  13553  13567     1  180.0000771  0.4184000  2
  13559  13575  13553  13567     1  0.0000000  1.6024720  3
  13559  13558  13557  13565     1  0.0000000  0.6508444  3
  13563  13559  13558  13564     1  0.0000000  4.9162000  2
  13563  13559  13558  13564     1  0.0000000  0.6024960  3
  13564  13558  13559  13575     1  0.0000000  4.9162000  2
  13564  13558  13559  13575     1  0.0000000  0.6024960  3
  13564  13558  13557  13565     1  0.0000000  4.9162000  2
  13564  13558  13557  13565     1  0.0000000  0.6024960  3
  13565  13557  13554  13566     1  0.0000000  4.9162000  2
  13565  13557  13554  13566     1  0.0000000  0.6024960  3
  13566  13554  13553  13567     1  0.0000000  0.6508444  3
  13566  13554  13553  13575     1  0.0000000  4.9162000  2
  13566  13554  13553  13575     1  0.0000000  0.6024960  3
  13573  13567  13553  13575     1  0.0000000  4.9162000  2
  13573  13567  13553  13575     1  0.0000000  0.6024960  3
  13576  13577  13580  13581     1  180.0000771  0.8368000  1
  13576  13577  13580  13581     1  180.0000771  1.0460000  2
  13576  13577  13580  13581     1  0.0000000  0.7531200  3
  13576  13577  13580  13588     1  0.0000000  0.6508444  3
  13576  13598  13582  13581     1  180.0000771  0.4184000  2
  13576  13598  13582  13581     1  0.0000000  1.6024720  3
  13576  13598  13582  13586     1  180.0000771  5.6484000  1
  13576  13598  13582  13586     1  180.0000771  3.5564000  2
  13576  13598  13582  13586     1  0.0000000  0.4184000  3
  13577  13576  13590  13596     1  0.0000000  0.6508444  3
  13577  13576  13598  13582     1  180.0000771  0.4184000  2
  13577  13576  13598  13582     1  0.0000000  1.6024720  3
  13577  13580  13581  13582     1  180.0000771  0.8368000  1
  13577  13580  13581  13582     1  180.0000771  1.0460000  2
  13577  13580  13581  13582     1  0.0000000  0.7531200  3
  13577  13580  13581  13587     1  0.0000000  0.6508444  3
  13580  13577  13576  13590     1  180.0000771  0.8368000  1
  13580  13577  13576  13590     1  180.0000771  1.0460000  2
  13580  13577  13576  13590     1  0.0000000  0.7531200  3
  13580  13577  13576  13598     1  0.0000000  0.6508444  3
  13580  13581  13582  13586     1  0.0000000  0.6508444  3
  13580  13581  13582  13598     1  0.0000000  0.6508444  3
  13581  13580  13577  13589     1  0.0000000  0.6508444  3
  13582  13581  13580  13588     1  0.0000000  0.6508444  3
  13582  13598  13576  13590     1  180.0000771  0.4184000  2
  13582  13598  13576  13590     1  0.0000000  1.6024720  3
  13586  13582  13581  13587     1  0.0000000  4.9162000  2
  13586  13582  13581  13587     1  0.0000000  0.6024960  3
  13587  13581  13580  13588     1  0.0000000  4.9162000  2
  13587  13581  13580  13588     1  0.0000000  0.6024960  3
  13587  13581  13582  13598     1  0.0000000  4.9162000  2
  13587  13581  13582  13598     1  0.0000000  0.6024960  3
  13588  13580  13577  13589     1  0.0000000  4.9162000  2
  13588  13580  13577  13589     1  0.0000000  0.6024960  3
  13589  13577  13576  13590     1  0.0000000  0.6508444  3
  13589  13577  13576  13598     1  0.0000000  4.9162000  2
  13589  13577  13576  13598     1  0.0000000  0.6024960  3
  13596  13590  13576  13598     1  0.0000000  4.9162000  2
  13596  13590  13576  13598     1  0.0000000  0.6024960  3
  13599  13600  13603  13604     1  180.0000771  0.8368000  1
  13599  13600  13603  13604     1  180.0000771  1.0460000  2
  13599  13600  13603  13604     1  0.0000000  0.7531200  3
  13599  13600  13603  13611     1  0.0000000  0.6508444  3
  13599  13621  13605  13609     1  180.0000771  5.6484000  1
  13599  13621  13605  13609     1  180.0000771  3.5564000  2
  13599  13621  13605  13609     1  0.0000000  0.4184000  3
  13599  13621  13605  13604     1  180.0000771  0.4184000  2
  13599  13621  13605  13604     1  0.0000000  1.6024720  3
  13600  13603  13604  13605     1  180.0000771  0.8368000  1
  13600  13603  13604  13605     1  180.0000771  1.0460000  2
  13600  13603  13604  13605     1  0.0000000  0.7531200  3
  13600  13603  13604  13610     1  0.0000000  0.6508444  3
  13600  13599  13613  13619     1  0.0000000  0.6508444  3
  13600  13599  13621  13605     1  180.0000771  0.4184000  2
  13600  13599  13621  13605     1  0.0000000  1.6024720  3
  13603  13604  13605  13609     1  0.0000000  0.6508444  3
  13603  13604  13605  13621     1  0.0000000  0.6508444  3
  13603  13600  13599  13613     1  180.0000771  0.8368000  1
  13603  13600  13599  13613     1  180.0000771  1.0460000  2
  13603  13600  13599  13613     1  0.0000000  0.7531200  3
  13603  13600  13599  13621     1  0.0000000  0.6508444  3
  13604  13603  13600  13612     1  0.0000000  0.6508444  3
  13605  13621  13599  13613     1  180.0000771  0.4184000  2
  13605  13621  13599  13613     1  0.0000000  1.6024720  3
  13605  13604  13603  13611     1  0.0000000  0.6508444  3
  13609  13605  13604  13610     1  0.0000000  4.9162000  2
  13609  13605  13604  13610     1  0.0000000  0.6024960  3
  13610  13604  13605  13621     1  0.0000000  4.9162000  2
  13610  13604  13605  13621     1  0.0000000  0.6024960  3
  13610  13604  13603  13611     1  0.0000000  4.9162000  2
  13610  13604  13603  13611     1  0.0000000  0.6024960  3
  13611  13603  13600  13612     1  0.0000000  4.9162000  2
  13611  13603  13600  13612     1  0.0000000  0.6024960  3
  13612  13600  13599  13613     1  0.0000000  0.6508444  3
  13612  13600  13599  13621     1  0.0000000  4.9162000  2
  13612  13600  13599  13621     1  0.0000000  0.6024960  3
  13619  13613  13599  13621     1  0.0000000  4.9162000  2
  13619  13613  13599  13621     1  0.0000000  0.6024960  3
  13622  13623  13626  13627     1  180.0000771  0.8368000  1
  13622  13623  13626  13627     1  180.0000771  1.0460000  2
  13622  13623  13626  13627     1  0.0000000  0.7531200  3
  13622  13623  13626  13634     1  0.0000000  0.6508444  3
  13622  13644  13628  13627     1  180.0000771  0.4184000  2
  13622  13644  13628  13627     1  0.0000000  1.6024720  3
  13622  13644  13628  13632     1  180.0000771  5.6484000  1
  13622  13644  13628  13632     1  180.0000771  3.5564000  2
  13622  13644  13628  13632     1  0.0000000  0.4184000  3
  13623  13622  13636  13642     1  0.0000000  0.6508444  3
  13623  13622  13644  13628     1  180.0000771  0.4184000  2
  13623  13622  13644  13628     1  0.0000000  1.6024720  3
  13623  13626  13627  13628     1  180.0000771  0.8368000  1
  13623  13626  13627  13628     1  180.0000771  1.0460000  2
  13623  13626  13627  13628     1  0.0000000  0.7531200  3
  13623  13626  13627  13633     1  0.0000000  0.6508444  3
  13626  13623  13622  13636     1  180.0000771  0.8368000  1
  13626  13623  13622  13636     1  180.0000771  1.0460000  2
  13626  13623  13622  13636     1  0.0000000  0.7531200  3
  13626  13623  13622  13644     1  0.0000000  0.6508444  3
  13626  13627  13628  13632     1  0.0000000  0.6508444  3
  13626  13627  13628  13644     1  0.0000000  0.6508444  3
  13627  13626  13623  13635     1  0.0000000  0.6508444  3
  13628  13627  13626  13634     1  0.0000000  0.6508444  3
  13628  13644  13622  13636     1  180.0000771  0.4184000  2
  13628  13644  13622  13636     1  0.0000000  1.6024720  3
  13632  13628  13627  13633     1  0.0000000  4.9162000  2
  13632  13628  13627  13633     1  0.0000000  0.6024960  3
  13633  13627  13626  13634     1  0.0000000  4.9162000  2
  13633  13627  13626  13634     1  0.0000000  0.6024960  3
  13633  13627  13628  13644     1  0.0000000  4.9162000  2
  13633  13627  13628  13644     1  0.0000000  0.6024960  3
  13634  13626  13623  13635     1  0.0000000  4.9162000  2
  13634  13626  13623  13635     1  0.0000000  0.6024960  3
  13635  13623  13622  13636     1  0.0000000  0.6508444  3
  13635  13623  13622  13644     1  0.0000000  4.9162000  2
  13635  13623  13622  13644     1  0.0000000  0.6024960  3
  13642  13636  13622  13644     1  0.0000000  4.9162000  2
  13642  13636  13622  13644     1  0.0000000  0.6024960  3
  13645  13646  13649  13650     1  180.0000771  0.8368000  1
  13645  13646  13649  13650     1  180.0000771  1.0460000  2
  13645  13646  13649  13650     1  0.0000000  0.7531200  3
  13645  13646  13649  13657     1  0.0000000  0.6508444  3
  13645  13667  13651  13655     1  180.0000771  5.6484000  1
  13645  13667  13651  13655     1  180.0000771  3.5564000  2
  13645  13667  13651  13655     1  0.0000000  0.4184000  3
  13645  13667  13651  13650     1  180.0000771  0.4184000  2
  13645  13667  13651  13650     1  0.0000000  1.6024720  3
  13646  13649  13650  13651     1  180.0000771  0.8368000  1
  13646  13649  13650  13651     1  180.0000771  1.0460000  2
  13646  13649  13650  13651     1  0.0000000  0.7531200  3
  13646  13649  13650  13656     1  0.0000000  0.6508444  3
  13646  13645  13659  13665     1  0.0000000  0.6508444  3
  13646  13645  13667  13651     1  180.0000771  0.4184000  2
  13646  13645  13667  13651     1  0.0000000  1.6024720  3
  13649  13650  13651  13655     1  0.0000000  0.6508444  3
  13649  13650  13651  13667     1  0.0000000  0.6508444  3
  13649  13646  13645  13659     1  180.0000771  0.8368000  1
  13649  13646  13645  13659     1  180.0000771  1.0460000  2
  13649  13646  13645  13659     1  0.0000000  0.7531200  3
  13649  13646  13645  13667     1  0.0000000  0.6508444  3
  13650  13649  13646  13658     1  0.0000000  0.6508444  3
  13651  13667  13645  13659     1  180.0000771  0.4184000  2
  13651  13667  13645  13659     1  0.0000000  1.6024720  3
  13651  13650  13649  13657     1  0.0000000  0.6508444  3
  13655  13651  13650  13656     1  0.0000000  4.9162000  2
  13655  13651  13650  13656     1  0.0000000  0.6024960  3
  13656  13650  13651  13667     1  0.0000000  4.9162000  2
  13656  13650  13651  13667     1  0.0000000  0.6024960  3
  13656  13650  13649  13657     1  0.0000000  4.9162000  2
  13656  13650  13649  13657     1  0.0000000  0.6024960  3
  13657  13649  13646  13658     1  0.0000000  4.9162000  2
  13657  13649  13646  13658     1  0.0000000  0.6024960  3
  13658  13646  13645  13659     1  0.0000000  0.6508444  3
  13658  13646  13645  13667     1  0.0000000  4.9162000  2
  13658  13646  13645  13667     1  0.0000000  0.6024960  3
  13665  13659  13645  13667     1  0.0000000  4.9162000  2
  13665  13659  13645  13667     1  0.0000000  0.6024960  3
  13668  13669  13672  13673     1  180.0000771  0.8368000  1
  13668  13669  13672  13673     1  180.0000771  1.0460000  2
  13668  13669  13672  13673     1  0.0000000  0.7531200  3
  13668  13669  13672  13680     1  0.0000000  0.6508444  3
  13668  13690  13674  13673     1  180.0000771  0.4184000  2
  13668  13690  13674  13673     1  0.0000000  1.6024720  3
  13668  13690  13674  13678     1  180.0000771  5.6484000  1
  13668  13690  13674  13678     1  180.0000771  3.5564000  2
  13668  13690  13674  13678     1  0.0000000  0.4184000  3
  13669  13668  13682  13688     1  0.0000000  0.6508444  3
  13669  13668  13690  13674     1  180.0000771  0.4184000  2
  13669  13668  13690  13674     1  0.0000000  1.6024720  3
  13669  13672  13673  13674     1  180.0000771  0.8368000  1
  13669  13672  13673  13674     1  180.0000771  1.0460000  2
  13669  13672  13673  13674     1  0.0000000  0.7531200  3
  13669  13672  13673  13679     1  0.0000000  0.6508444  3
  13672  13669  13668  13682     1  180.0000771  0.8368000  1
  13672  13669  13668  13682     1  180.0000771  1.0460000  2
  13672  13669  13668  13682     1  0.0000000  0.7531200  3
  13672  13669  13668  13690     1  0.0000000  0.6508444  3
  13672  13673  13674  13678     1  0.0000000  0.6508444  3
  13672  13673  13674  13690     1  0.0000000  0.6508444  3
  13673  13672  13669  13681     1  0.0000000  0.6508444  3
  13674  13673  13672  13680     1  0.0000000  0.6508444  3
  13674  13690  13668  13682     1  180.0000771  0.4184000  2
  13674  13690  13668  13682     1  0.0000000  1.6024720  3
  13678  13674  13673  13679     1  0.0000000  4.9162000  2
  13678  13674  13673  13679     1  0.0000000  0.6024960  3
  13679  13673  13672  13680     1  0.0000000  4.9162000  2
  13679  13673  13672  13680     1  0.0000000  0.6024960  3
  13679  13673  13674  13690     1  0.0000000  4.9162000  2
  13679  13673  13674  13690     1  0.0000000  0.6024960  3
  13680  13672  13669  13681     1  0.0000000  4.9162000  2
  13680  13672  13669  13681     1  0.0000000  0.6024960  3
  13681  13669  13668  13682     1  0.0000000  0.6508444  3
  13681  13669  13668  13690     1  0.0000000  4.9162000  2
  13681  13669  13668  13690     1  0.0000000  0.6024960  3
  13688  13682  13668  13690     1  0.0000000  4.9162000  2
  13688  13682  13668  13690     1  0.0000000  0.6024960  3
  13691  13692  13695  13696     1  180.0000771  0.8368000  1
  13691  13692  13695  13696     1  180.0000771  1.0460000  2
  13691  13692  13695  13696     1  0.0000000  0.7531200  3
  13691  13692  13695  13703     1  0.0000000  0.6508444  3
  13691  13713  13697  13701     1  180.0000771  5.6484000  1
  13691  13713  13697  13701     1  180.0000771  3.5564000  2
  13691  13713  13697  13701     1  0.0000000  0.4184000  3
  13691  13713  13697  13696     1  180.0000771  0.4184000  2
  13691  13713  13697  13696     1  0.0000000  1.6024720  3
  13692  13695  13696  13697     1  180.0000771  0.8368000  1
  13692  13695  13696  13697     1  180.0000771  1.0460000  2
  13692  13695  13696  13697     1  0.0000000  0.7531200  3
  13692  13695  13696  13702     1  0.0000000  0.6508444  3
  13692  13691  13705  13711     1  0.0000000  0.6508444  3
  13692  13691  13713  13697     1  180.0000771  0.4184000  2
  13692  13691  13713  13697     1  0.0000000  1.6024720  3
  13695  13696  13697  13701     1  0.0000000  0.6508444  3
  13695  13696  13697  13713     1  0.0000000  0.6508444  3
  13695  13692  13691  13705     1  180.0000771  0.8368000  1
  13695  13692  13691  13705     1  180.0000771  1.0460000  2
  13695  13692  13691  13705     1  0.0000000  0.7531200  3
  13695  13692  13691  13713     1  0.0000000  0.6508444  3
  13696  13695  13692  13704     1  0.0000000  0.6508444  3
  13697  13713  13691  13705     1  180.0000771  0.4184000  2
  13697  13713  13691  13705     1  0.0000000  1.6024720  3
  13697  13696  13695  13703     1  0.0000000  0.6508444  3
  13701  13697  13696  13702     1  0.0000000  4.9162000  2
  13701  13697  13696  13702     1  0.0000000  0.6024960  3
  13702  13696  13697  13713     1  0.0000000  4.9162000  2
  13702  13696  13697  13713     1  0.0000000  0.6024960  3
  13702  13696  13695  13703     1  0.0000000  4.9162000  2
  13702  13696  13695  13703     1  0.0000000  0.6024960  3
  13703  13695  13692  13704     1  0.0000000  4.9162000  2
  13703  13695  13692  13704     1  0.0000000  0.6024960  3
  13704  13692  13691  13705     1  0.0000000  0.6508444  3
  13704  13692  13691  13713     1  0.0000000  4.9162000  2
  13704  13692  13691  13713     1  0.0000000  0.6024960  3
  13711  13705  13691  13713     1  0.0000000  4.9162000  2
  13711  13705  13691  13713     1  0.0000000  0.6024960  3
  13714  13715  13718  13719     1  180.0000771  0.8368000  1
  13714  13715  13718  13719     1  180.0000771  1.0460000  2
  13714  13715  13718  13719     1  0.0000000  0.7531200  3
  13714  13715  13718  13726     1  0.0000000  0.6508444  3
  13714  13736  13720  13719     1  180.0000771  0.4184000  2
  13714  13736  13720  13719     1  0.0000000  1.6024720  3
  13714  13736  13720  13724     1  180.0000771  5.6484000  1
  13714  13736  13720  13724     1  180.0000771  3.5564000  2
  13714  13736  13720  13724     1  0.0000000  0.4184000  3
  13715  13714  13728  13734     1  0.0000000  0.6508444  3
  13715  13714  13736  13720     1  180.0000771  0.4184000  2
  13715  13714  13736  13720     1  0.0000000  1.6024720  3
  13715  13718  13719  13720     1  180.0000771  0.8368000  1
  13715  13718  13719  13720     1  180.0000771  1.0460000  2
  13715  13718  13719  13720     1  0.0000000  0.7531200  3
  13715  13718  13719  13725     1  0.0000000  0.6508444  3
  13718  13715  13714  13728     1  180.0000771  0.8368000  1
  13718  13715  13714  13728     1  180.0000771  1.0460000  2
  13718  13715  13714  13728     1  0.0000000  0.7531200  3
  13718  13715  13714  13736     1  0.0000000  0.6508444  3
  13718  13719  13720  13724     1  0.0000000  0.6508444  3
  13718  13719  13720  13736     1  0.0000000  0.6508444  3
  13719  13718  13715  13727     1  0.0000000  0.6508444  3
  13720  13719  13718  13726     1  0.0000000  0.6508444  3
  13720  13736  13714  13728     1  180.0000771  0.4184000  2
  13720  13736  13714  13728     1  0.0000000  1.6024720  3
  13724  13720  13719  13725     1  0.0000000  4.9162000  2
  13724  13720  13719  13725     1  0.0000000  0.6024960  3
  13725  13719  13718  13726     1  0.0000000  4.9162000  2
  13725  13719  13718  13726     1  0.0000000  0.6024960  3
  13725  13719  13720  13736     1  0.0000000  4.9162000  2
  13725  13719  13720  13736     1  0.0000000  0.6024960  3
  13726  13718  13715  13727     1  0.0000000  4.9162000  2
  13726  13718  13715  13727     1  0.0000000  0.6024960  3
  13727  13715  13714  13728     1  0.0000000  0.6508444  3
  13727  13715  13714  13736     1  0.0000000  4.9162000  2
  13727  13715  13714  13736     1  0.0000000  0.6024960  3
  13734  13728  13714  13736     1  0.0000000  4.9162000  2
  13734  13728  13714  13736     1  0.0000000  0.6024960  3
  13737  13738  13741  13742     1  180.0000771  0.8368000  1
  13737  13738  13741  13742     1  180.0000771  1.0460000  2
  13737  13738  13741  13742     1  0.0000000  0.7531200  3
  13737  13738  13741  13749     1  0.0000000  0.6508444  3
  13737  13759  13743  13747     1  180.0000771  5.6484000  1
  13737  13759  13743  13747     1  180.0000771  3.5564000  2
  13737  13759  13743  13747     1  0.0000000  0.4184000  3
  13737  13759  13743  13742     1  180.0000771  0.4184000  2
  13737  13759  13743  13742     1  0.0000000  1.6024720  3
  13738  13741  13742  13743     1  180.0000771  0.8368000  1
  13738  13741  13742  13743     1  180.0000771  1.0460000  2
  13738  13741  13742  13743     1  0.0000000  0.7531200  3
  13738  13741  13742  13748     1  0.0000000  0.6508444  3
  13738  13737  13751  13757     1  0.0000000  0.6508444  3
  13738  13737  13759  13743     1  180.0000771  0.4184000  2
  13738  13737  13759  13743     1  0.0000000  1.6024720  3
  13741  13742  13743  13747     1  0.0000000  0.6508444  3
  13741  13742  13743  13759     1  0.0000000  0.6508444  3
  13741  13738  13737  13751     1  180.0000771  0.8368000  1
  13741  13738  13737  13751     1  180.0000771  1.0460000  2
  13741  13738  13737  13751     1  0.0000000  0.7531200  3
  13741  13738  13737  13759     1  0.0000000  0.6508444  3
  13742  13741  13738  13750     1  0.0000000  0.6508444  3
  13743  13759  13737  13751     1  180.0000771  0.4184000  2
  13743  13759  13737  13751     1  0.0000000  1.6024720  3
  13743  13742  13741  13749     1  0.0000000  0.6508444  3
  13747  13743  13742  13748     1  0.0000000  4.9162000  2
  13747  13743  13742  13748     1  0.0000000  0.6024960  3
  13748  13742  13743  13759     1  0.0000000  4.9162000  2
  13748  13742  13743  13759     1  0.0000000  0.6024960  3
  13748  13742  13741  13749     1  0.0000000  4.9162000  2
  13748  13742  13741  13749     1  0.0000000  0.6024960  3
  13749  13741  13738  13750     1  0.0000000  4.9162000  2
  13749  13741  13738  13750     1  0.0000000  0.6024960  3
  13750  13738  13737  13751     1  0.0000000  0.6508444  3
  13750  13738  13737  13759     1  0.0000000  4.9162000  2
  13750  13738  13737  13759     1  0.0000000  0.6024960  3
  13757  13751  13737  13759     1  0.0000000  4.9162000  2
  13757  13751  13737  13759     1  0.0000000  0.6024960  3
  13760  13761  13764  13765     1  180.0000771  0.8368000  1
  13760  13761  13764  13765     1  180.0000771  1.0460000  2
  13760  13761  13764  13765     1  0.0000000  0.7531200  3
  13760  13761  13764  13772     1  0.0000000  0.6508444  3
  13760  13782  13766  13765     1  180.0000771  0.4184000  2
  13760  13782  13766  13765     1  0.0000000  1.6024720  3
  13760  13782  13766  13770     1  180.0000771  5.6484000  1
  13760  13782  13766  13770     1  180.0000771  3.5564000  2
  13760  13782  13766  13770     1  0.0000000  0.4184000  3
  13761  13760  13774  13780     1  0.0000000  0.6508444  3
  13761  13760  13782  13766     1  180.0000771  0.4184000  2
  13761  13760  13782  13766     1  0.0000000  1.6024720  3
  13761  13764  13765  13766     1  180.0000771  0.8368000  1
  13761  13764  13765  13766     1  180.0000771  1.0460000  2
  13761  13764  13765  13766     1  0.0000000  0.7531200  3
  13761  13764  13765  13771     1  0.0000000  0.6508444  3
  13764  13761  13760  13774     1  180.0000771  0.8368000  1
  13764  13761  13760  13774     1  180.0000771  1.0460000  2
  13764  13761  13760  13774     1  0.0000000  0.7531200  3
  13764  13761  13760  13782     1  0.0000000  0.6508444  3
  13764  13765  13766  13770     1  0.0000000  0.6508444  3
  13764  13765  13766  13782     1  0.0000000  0.6508444  3
  13765  13764  13761  13773     1  0.0000000  0.6508444  3
  13766  13765  13764  13772     1  0.0000000  0.6508444  3
  13766  13782  13760  13774     1  180.0000771  0.4184000  2
  13766  13782  13760  13774     1  0.0000000  1.6024720  3
  13770  13766  13765  13771     1  0.0000000  4.9162000  2
  13770  13766  13765  13771     1  0.0000000  0.6024960  3
  13771  13765  13764  13772     1  0.0000000  4.9162000  2
  13771  13765  13764  13772     1  0.0000000  0.6024960  3
  13771  13765  13766  13782     1  0.0000000  4.9162000  2
  13771  13765  13766  13782     1  0.0000000  0.6024960  3
  13772  13764  13761  13773     1  0.0000000  4.9162000  2
  13772  13764  13761  13773     1  0.0000000  0.6024960  3
  13773  13761  13760  13774     1  0.0000000  0.6508444  3
  13773  13761  13760  13782     1  0.0000000  4.9162000  2
  13773  13761  13760  13782     1  0.0000000  0.6024960  3
  13780  13774  13760  13782     1  0.0000000  4.9162000  2
  13780  13774  13760  13782     1  0.0000000  0.6024960  3
  13783  13784  13787  13788     1  180.0000771  0.8368000  1
  13783  13784  13787  13788     1  180.0000771  1.0460000  2
  13783  13784  13787  13788     1  0.0000000  0.7531200  3
  13783  13784  13787  13795     1  0.0000000  0.6508444  3
  13783  13805  13789  13793     1  180.0000771  5.6484000  1
  13783  13805  13789  13793     1  180.0000771  3.5564000  2
  13783  13805  13789  13793     1  0.0000000  0.4184000  3
  13783  13805  13789  13788     1  180.0000771  0.4184000  2
  13783  13805  13789  13788     1  0.0000000  1.6024720  3
  13784  13787  13788  13789     1  180.0000771  0.8368000  1
  13784  13787  13788  13789     1  180.0000771  1.0460000  2
  13784  13787  13788  13789     1  0.0000000  0.7531200  3
  13784  13787  13788  13794     1  0.0000000  0.6508444  3
  13784  13783  13797  13803     1  0.0000000  0.6508444  3
  13784  13783  13805  13789     1  180.0000771  0.4184000  2
  13784  13783  13805  13789     1  0.0000000  1.6024720  3
  13787  13788  13789  13793     1  0.0000000  0.6508444  3
  13787  13788  13789  13805     1  0.0000000  0.6508444  3
  13787  13784  13783  13797     1  180.0000771  0.8368000  1
  13787  13784  13783  13797     1  180.0000771  1.0460000  2
  13787  13784  13783  13797     1  0.0000000  0.7531200  3
  13787  13784  13783  13805     1  0.0000000  0.6508444  3
  13788  13787  13784  13796     1  0.0000000  0.6508444  3
  13789  13805  13783  13797     1  180.0000771  0.4184000  2
  13789  13805  13783  13797     1  0.0000000  1.6024720  3
  13789  13788  13787  13795     1  0.0000000  0.6508444  3
  13793  13789  13788  13794     1  0.0000000  4.9162000  2
  13793  13789  13788  13794     1  0.0000000  0.6024960  3
  13794  13788  13789  13805     1  0.0000000  4.9162000  2
  13794  13788  13789  13805     1  0.0000000  0.6024960  3
  13794  13788  13787  13795     1  0.0000000  4.9162000  2
  13794  13788  13787  13795     1  0.0000000  0.6024960  3
  13795  13787  13784  13796     1  0.0000000  4.9162000  2
  13795  13787  13784  13796     1  0.0000000  0.6024960  3
  13796  13784  13783  13797     1  0.0000000  0.6508444  3
  13796  13784  13783  13805     1  0.0000000  4.9162000  2
  13796  13784  13783  13805     1  0.0000000  0.6024960  3
  13803  13797  13783  13805     1  0.0000000  4.9162000  2
  13803  13797  13783  13805     1  0.0000000  0.6024960  3
  13806  13807  13810  13811     1  180.0000771  0.8368000  1
  13806  13807  13810  13811     1  180.0000771  1.0460000  2
  13806  13807  13810  13811     1  0.0000000  0.7531200  3
  13806  13807  13810  13818     1  0.0000000  0.6508444  3
  13806  13828  13812  13811     1  180.0000771  0.4184000  2
  13806  13828  13812  13811     1  0.0000000  1.6024720  3
  13806  13828  13812  13816     1  180.0000771  5.6484000  1
  13806  13828  13812  13816     1  180.0000771  3.5564000  2
  13806  13828  13812  13816     1  0.0000000  0.4184000  3
  13807  13806  13820  13826     1  0.0000000  0.6508444  3
  13807  13806  13828  13812     1  180.0000771  0.4184000  2
  13807  13806  13828  13812     1  0.0000000  1.6024720  3
  13807  13810  13811  13812     1  180.0000771  0.8368000  1
  13807  13810  13811  13812     1  180.0000771  1.0460000  2
  13807  13810  13811  13812     1  0.0000000  0.7531200  3
  13807  13810  13811  13817     1  0.0000000  0.6508444  3
  13810  13807  13806  13820     1  180.0000771  0.8368000  1
  13810  13807  13806  13820     1  180.0000771  1.0460000  2
  13810  13807  13806  13820     1  0.0000000  0.7531200  3
  13810  13807  13806  13828     1  0.0000000  0.6508444  3
  13810  13811  13812  13816     1  0.0000000  0.6508444  3
  13810  13811  13812  13828     1  0.0000000  0.6508444  3
  13811  13810  13807  13819     1  0.0000000  0.6508444  3
  13812  13811  13810  13818     1  0.0000000  0.6508444  3
  13812  13828  13806  13820     1  180.0000771  0.4184000  2
  13812  13828  13806  13820     1  0.0000000  1.6024720  3
  13816  13812  13811  13817     1  0.0000000  4.9162000  2
  13816  13812  13811  13817     1  0.0000000  0.6024960  3
  13817  13811  13810  13818     1  0.0000000  4.9162000  2
  13817  13811  13810  13818     1  0.0000000  0.6024960  3
  13817  13811  13812  13828     1  0.0000000  4.9162000  2
  13817  13811  13812  13828     1  0.0000000  0.6024960  3
  13818  13810  13807  13819     1  0.0000000  4.9162000  2
  13818  13810  13807  13819     1  0.0000000  0.6024960  3
  13819  13807  13806  13820     1  0.0000000  0.6508444  3
  13819  13807  13806  13828     1  0.0000000  4.9162000  2
  13819  13807  13806  13828     1  0.0000000  0.6024960  3
  13826  13820  13806  13828     1  0.0000000  4.9162000  2
  13826  13820  13806  13828     1  0.0000000  0.6024960  3
  13829  13830  13833  13834     1  180.0000771  0.8368000  1
  13829  13830  13833  13834     1  180.0000771  1.0460000  2
  13829  13830  13833  13834     1  0.0000000  0.7531200  3
  13829  13830  13833  13841     1  0.0000000  0.6508444  3
  13829  13851  13835  13839     1  180.0000771  5.6484000  1
  13829  13851  13835  13839     1  180.0000771  3.5564000  2
  13829  13851  13835  13839     1  0.0000000  0.4184000  3
  13829  13851  13835  13834     1  180.0000771  0.4184000  2
  13829  13851  13835  13834     1  0.0000000  1.6024720  3
  13830  13833  13834  13835     1  180.0000771  0.8368000  1
  13830  13833  13834  13835     1  180.0000771  1.0460000  2
  13830  13833  13834  13835     1  0.0000000  0.7531200  3
  13830  13833  13834  13840     1  0.0000000  0.6508444  3
  13830  13829  13843  13849     1  0.0000000  0.6508444  3
  13830  13829  13851  13835     1  180.0000771  0.4184000  2
  13830  13829  13851  13835     1  0.0000000  1.6024720  3
  13833  13834  13835  13839     1  0.0000000  0.6508444  3
  13833  13834  13835  13851     1  0.0000000  0.6508444  3
  13833  13830  13829  13843     1  180.0000771  0.8368000  1
  13833  13830  13829  13843     1  180.0000771  1.0460000  2
  13833  13830  13829  13843     1  0.0000000  0.7531200  3
  13833  13830  13829  13851     1  0.0000000  0.6508444  3
  13834  13833  13830  13842     1  0.0000000  0.6508444  3
  13835  13851  13829  13843     1  180.0000771  0.4184000  2
  13835  13851  13829  13843     1  0.0000000  1.6024720  3
  13835  13834  13833  13841     1  0.0000000  0.6508444  3
  13839  13835  13834  13840     1  0.0000000  4.9162000  2
  13839  13835  13834  13840     1  0.0000000  0.6024960  3
  13840  13834  13835  13851     1  0.0000000  4.9162000  2
  13840  13834  13835  13851     1  0.0000000  0.6024960  3
  13840  13834  13833  13841     1  0.0000000  4.9162000  2
  13840  13834  13833  13841     1  0.0000000  0.6024960  3
  13841  13833  13830  13842     1  0.0000000  4.9162000  2
  13841  13833  13830  13842     1  0.0000000  0.6024960  3
  13842  13830  13829  13843     1  0.0000000  0.6508444  3
  13842  13830  13829  13851     1  0.0000000  4.9162000  2
  13842  13830  13829  13851     1  0.0000000  0.6024960  3
  13849  13843  13829  13851     1  0.0000000  4.9162000  2
  13849  13843  13829  13851     1  0.0000000  0.6024960  3
  13852  13853  13856  13857     1  180.0000771  0.8368000  1
  13852  13853  13856  13857     1  180.0000771  1.0460000  2
  13852  13853  13856  13857     1  0.0000000  0.7531200  3
  13852  13853  13856  13864     1  0.0000000  0.6508444  3
  13852  13874  13858  13857     1  180.0000771  0.4184000  2
  13852  13874  13858  13857     1  0.0000000  1.6024720  3
  13852  13874  13858  13862     1  180.0000771  5.6484000  1
  13852  13874  13858  13862     1  180.0000771  3.5564000  2
  13852  13874  13858  13862     1  0.0000000  0.4184000  3
  13853  13852  13866  13872     1  0.0000000  0.6508444  3
  13853  13852  13874  13858     1  180.0000771  0.4184000  2
  13853  13852  13874  13858     1  0.0000000  1.6024720  3
  13853  13856  13857  13858     1  180.0000771  0.8368000  1
  13853  13856  13857  13858     1  180.0000771  1.0460000  2
  13853  13856  13857  13858     1  0.0000000  0.7531200  3
  13853  13856  13857  13863     1  0.0000000  0.6508444  3
  13856  13853  13852  13866     1  180.0000771  0.8368000  1
  13856  13853  13852  13866     1  180.0000771  1.0460000  2
  13856  13853  13852  13866     1  0.0000000  0.7531200  3
  13856  13853  13852  13874     1  0.0000000  0.6508444  3
  13856  13857  13858  13862     1  0.0000000  0.6508444  3
  13856  13857  13858  13874     1  0.0000000  0.6508444  3
  13857  13856  13853  13865     1  0.0000000  0.6508444  3
  13858  13857  13856  13864     1  0.0000000  0.6508444  3
  13858  13874  13852  13866     1  180.0000771  0.4184000  2
  13858  13874  13852  13866     1  0.0000000  1.6024720  3
  13862  13858  13857  13863     1  0.0000000  4.9162000  2
  13862  13858  13857  13863     1  0.0000000  0.6024960  3
  13863  13857  13856  13864     1  0.0000000  4.9162000  2
  13863  13857  13856  13864     1  0.0000000  0.6024960  3
  13863  13857  13858  13874     1  0.0000000  4.9162000  2
  13863  13857  13858  13874     1  0.0000000  0.6024960  3
  13864  13856  13853  13865     1  0.0000000  4.9162000  2
  13864  13856  13853  13865     1  0.0000000  0.6024960  3
  13865  13853  13852  13866     1  0.0000000  0.6508444  3
  13865  13853  13852  13874     1  0.0000000  4.9162000  2
  13865  13853  13852  13874     1  0.0000000  0.6024960  3
  13872  13866  13852  13874     1  0.0000000  4.9162000  2
  13872  13866  13852  13874     1  0.0000000  0.6024960  3
  13875  13876  13879  13880     1  180.0000771  0.8368000  1
  13875  13876  13879  13880     1  180.0000771  1.0460000  2
  13875  13876  13879  13880     1  0.0000000  0.7531200  3
  13875  13876  13879  13887     1  0.0000000  0.6508444  3
  13875  13897  13881  13885     1  180.0000771  5.6484000  1
  13875  13897  13881  13885     1  180.0000771  3.5564000  2
  13875  13897  13881  13885     1  0.0000000  0.4184000  3
  13875  13897  13881  13880     1  180.0000771  0.4184000  2
  13875  13897  13881  13880     1  0.0000000  1.6024720  3
  13876  13879  13880  13881     1  180.0000771  0.8368000  1
  13876  13879  13880  13881     1  180.0000771  1.0460000  2
  13876  13879  13880  13881     1  0.0000000  0.7531200  3
  13876  13879  13880  13886     1  0.0000000  0.6508444  3
  13876  13875  13889  13895     1  0.0000000  0.6508444  3
  13876  13875  13897  13881     1  180.0000771  0.4184000  2
  13876  13875  13897  13881     1  0.0000000  1.6024720  3
  13879  13880  13881  13885     1  0.0000000  0.6508444  3
  13879  13880  13881  13897     1  0.0000000  0.6508444  3
  13879  13876  13875  13889     1  180.0000771  0.8368000  1
  13879  13876  13875  13889     1  180.0000771  1.0460000  2
  13879  13876  13875  13889     1  0.0000000  0.7531200  3
  13879  13876  13875  13897     1  0.0000000  0.6508444  3
  13880  13879  13876  13888     1  0.0000000  0.6508444  3
  13881  13897  13875  13889     1  180.0000771  0.4184000  2
  13881  13897  13875  13889     1  0.0000000  1.6024720  3
  13881  13880  13879  13887     1  0.0000000  0.6508444  3
  13885  13881  13880  13886     1  0.0000000  4.9162000  2
  13885  13881  13880  13886     1  0.0000000  0.6024960  3
  13886  13880  13881  13897     1  0.0000000  4.9162000  2
  13886  13880  13881  13897     1  0.0000000  0.6024960  3
  13886  13880  13879  13887     1  0.0000000  4.9162000  2
  13886  13880  13879  13887     1  0.0000000  0.6024960  3
  13887  13879  13876  13888     1  0.0000000  4.9162000  2
  13887  13879  13876  13888     1  0.0000000  0.6024960  3
  13888  13876  13875  13889     1  0.0000000  0.6508444  3
  13888  13876  13875  13897     1  0.0000000  4.9162000  2
  13888  13876  13875  13897     1  0.0000000  0.6024960  3
  13895  13889  13875  13897     1  0.0000000  4.9162000  2
  13895  13889  13875  13897     1  0.0000000  0.6024960  3
  13898  13899  13902  13903     1  180.0000771  0.8368000  1
  13898  13899  13902  13903     1  180.0000771  1.0460000  2
  13898  13899  13902  13903     1  0.0000000  0.7531200  3
  13898  13899  13902  13910     1  0.0000000  0.6508444  3
  13898  13920  13904  13903     1  180.0000771  0.4184000  2
  13898  13920  13904  13903     1  0.0000000  1.6024720  3
  13898  13920  13904  13908     1  180.0000771  5.6484000  1
  13898  13920  13904  13908     1  180.0000771  3.5564000  2
  13898  13920  13904  13908     1  0.0000000  0.4184000  3
  13899  13898  13912  13918     1  0.0000000  0.6508444  3
  13899  13898  13920  13904     1  180.0000771  0.4184000  2
  13899  13898  13920  13904     1  0.0000000  1.6024720  3
  13899  13902  13903  13904     1  180.0000771  0.8368000  1
  13899  13902  13903  13904     1  180.0000771  1.0460000  2
  13899  13902  13903  13904     1  0.0000000  0.7531200  3
  13899  13902  13903  13909     1  0.0000000  0.6508444  3
  13902  13899  13898  13912     1  180.0000771  0.8368000  1
  13902  13899  13898  13912     1  180.0000771  1.0460000  2
  13902  13899  13898  13912     1  0.0000000  0.7531200  3
  13902  13899  13898  13920     1  0.0000000  0.6508444  3
  13902  13903  13904  13908     1  0.0000000  0.6508444  3
  13902  13903  13904  13920     1  0.0000000  0.6508444  3
  13903  13902  13899  13911     1  0.0000000  0.6508444  3
  13904  13903  13902  13910     1  0.0000000  0.6508444  3
  13904  13920  13898  13912     1  180.0000771  0.4184000  2
  13904  13920  13898  13912     1  0.0000000  1.6024720  3
  13908  13904  13903  13909     1  0.0000000  4.9162000  2
  13908  13904  13903  13909     1  0.0000000  0.6024960  3
  13909  13903  13902  13910     1  0.0000000  4.9162000  2
  13909  13903  13902  13910     1  0.0000000  0.6024960  3
  13909  13903  13904  13920     1  0.0000000  4.9162000  2
  13909  13903  13904  13920     1  0.0000000  0.6024960  3
  13910  13902  13899  13911     1  0.0000000  4.9162000  2
  13910  13902  13899  13911     1  0.0000000  0.6024960  3
  13911  13899  13898  13912     1  0.0000000  0.6508444  3
  13911  13899  13898  13920     1  0.0000000  4.9162000  2
  13911  13899  13898  13920     1  0.0000000  0.6024960  3
  13918  13912  13898  13920     1  0.0000000  4.9162000  2
  13918  13912  13898  13920     1  0.0000000  0.6024960  3
  13921  13922  13925  13926     1  180.0000771  0.8368000  1
  13921  13922  13925  13926     1  180.0000771  1.0460000  2
  13921  13922  13925  13926     1  0.0000000  0.7531200  3
  13921  13922  13925  13933     1  0.0000000  0.6508444  3
  13921  13943  13927  13931     1  180.0000771  5.6484000  1
  13921  13943  13927  13931     1  180.0000771  3.5564000  2
  13921  13943  13927  13931     1  0.0000000  0.4184000  3
  13921  13943  13927  13926     1  180.0000771  0.4184000  2
  13921  13943  13927  13926     1  0.0000000  1.6024720  3
  13922  13925  13926  13927     1  180.0000771  0.8368000  1
  13922  13925  13926  13927     1  180.0000771  1.0460000  2
  13922  13925  13926  13927     1  0.0000000  0.7531200  3
  13922  13925  13926  13932     1  0.0000000  0.6508444  3
  13922  13921  13935  13941     1  0.0000000  0.6508444  3
  13922  13921  13943  13927     1  180.0000771  0.4184000  2
  13922  13921  13943  13927     1  0.0000000  1.6024720  3
  13925  13926  13927  13931     1  0.0000000  0.6508444  3
  13925  13926  13927  13943     1  0.0000000  0.6508444  3
  13925  13922  13921  13935     1  180.0000771  0.8368000  1
  13925  13922  13921  13935     1  180.0000771  1.0460000  2
  13925  13922  13921  13935     1  0.0000000  0.7531200  3
  13925  13922  13921  13943     1  0.0000000  0.6508444  3
  13926  13925  13922  13934     1  0.0000000  0.6508444  3
  13927  13943  13921  13935     1  180.0000771  0.4184000  2
  13927  13943  13921  13935     1  0.0000000  1.6024720  3
  13927  13926  13925  13933     1  0.0000000  0.6508444  3
  13931  13927  13926  13932     1  0.0000000  4.9162000  2
  13931  13927  13926  13932     1  0.0000000  0.6024960  3
  13932  13926  13927  13943     1  0.0000000  4.9162000  2
  13932  13926  13927  13943     1  0.0000000  0.6024960  3
  13932  13926  13925  13933     1  0.0000000  4.9162000  2
  13932  13926  13925  13933     1  0.0000000  0.6024960  3
  13933  13925  13922  13934     1  0.0000000  4.9162000  2
  13933  13925  13922  13934     1  0.0000000  0.6024960  3
  13934  13922  13921  13935     1  0.0000000  0.6508444  3
  13934  13922  13921  13943     1  0.0000000  4.9162000  2
  13934  13922  13921  13943     1  0.0000000  0.6024960  3
  13941  13935  13921  13943     1  0.0000000  4.9162000  2
  13941  13935  13921  13943     1  0.0000000  0.6024960  3
  13944  13945  13948  13949     1  180.0000771  0.8368000  1
  13944  13945  13948  13949     1  180.0000771  1.0460000  2
  13944  13945  13948  13949     1  0.0000000  0.7531200  3
  13944  13945  13948  13956     1  0.0000000  0.6508444  3
  13944  13966  13950  13949     1  180.0000771  0.4184000  2
  13944  13966  13950  13949     1  0.0000000  1.6024720  3
  13944  13966  13950  13954     1  180.0000771  5.6484000  1
  13944  13966  13950  13954     1  180.0000771  3.5564000  2
  13944  13966  13950  13954     1  0.0000000  0.4184000  3
  13945  13944  13958  13964     1  0.0000000  0.6508444  3
  13945  13944  13966  13950     1  180.0000771  0.4184000  2
  13945  13944  13966  13950     1  0.0000000  1.6024720  3
  13945  13948  13949  13950     1  180.0000771  0.8368000  1
  13945  13948  13949  13950     1  180.0000771  1.0460000  2
  13945  13948  13949  13950     1  0.0000000  0.7531200  3
  13945  13948  13949  13955     1  0.0000000  0.6508444  3
  13948  13945  13944  13958     1  180.0000771  0.8368000  1
  13948  13945  13944  13958     1  180.0000771  1.0460000  2
  13948  13945  13944  13958     1  0.0000000  0.7531200  3
  13948  13945  13944  13966     1  0.0000000  0.6508444  3
  13948  13949  13950  13954     1  0.0000000  0.6508444  3
  13948  13949  13950  13966     1  0.0000000  0.6508444  3
  13949  13948  13945  13957     1  0.0000000  0.6508444  3
  13950  13949  13948  13956     1  0.0000000  0.6508444  3
  13950  13966  13944  13958     1  180.0000771  0.4184000  2
  13950  13966  13944  13958     1  0.0000000  1.6024720  3
  13954  13950  13949  13955     1  0.0000000  4.9162000  2
  13954  13950  13949  13955     1  0.0000000  0.6024960  3
  13955  13949  13948  13956     1  0.0000000  4.9162000  2
  13955  13949  13948  13956     1  0.0000000  0.6024960  3
  13955  13949  13950  13966     1  0.0000000  4.9162000  2
  13955  13949  13950  13966     1  0.0000000  0.6024960  3
  13956  13948  13945  13957     1  0.0000000  4.9162000  2
  13956  13948  13945  13957     1  0.0000000  0.6024960  3
  13957  13945  13944  13958     1  0.0000000  0.6508444  3
  13957  13945  13944  13966     1  0.0000000  4.9162000  2
  13957  13945  13944  13966     1  0.0000000  0.6024960  3
  13964  13958  13944  13966     1  0.0000000  4.9162000  2
  13964  13958  13944  13966     1  0.0000000  0.6024960  3
  13967  13968  13971  13972     1  180.0000771  0.8368000  1
  13967  13968  13971  13972     1  180.0000771  1.0460000  2
  13967  13968  13971  13972     1  0.0000000  0.7531200  3
  13967  13968  13971  13979     1  0.0000000  0.6508444  3
  13967  13989  13973  13977     1  180.0000771  5.6484000  1
  13967  13989  13973  13977     1  180.0000771  3.5564000  2
  13967  13989  13973  13977     1  0.0000000  0.4184000  3
  13967  13989  13973  13972     1  180.0000771  0.4184000  2
  13967  13989  13973  13972     1  0.0000000  1.6024720  3
  13968  13971  13972  13973     1  180.0000771  0.8368000  1
  13968  13971  13972  13973     1  180.0000771  1.0460000  2
  13968  13971  13972  13973     1  0.0000000  0.7531200  3
  13968  13971  13972  13978     1  0.0000000  0.6508444  3
  13968  13967  13981  13987     1  0.0000000  0.6508444  3
  13968  13967  13989  13973     1  180.0000771  0.4184000  2
  13968  13967  13989  13973     1  0.0000000  1.6024720  3
  13971  13972  13973  13977     1  0.0000000  0.6508444  3
  13971  13972  13973  13989     1  0.0000000  0.6508444  3
  13971  13968  13967  13981     1  180.0000771  0.8368000  1
  13971  13968  13967  13981     1  180.0000771  1.0460000  2
  13971  13968  13967  13981     1  0.0000000  0.7531200  3
  13971  13968  13967  13989     1  0.0000000  0.6508444  3
  13972  13971  13968  13980     1  0.0000000  0.6508444  3
  13973  13989  13967  13981     1  180.0000771  0.4184000  2
  13973  13989  13967  13981     1  0.0000000  1.6024720  3
  13973  13972  13971  13979     1  0.0000000  0.6508444  3
  13977  13973  13972  13978     1  0.0000000  4.9162000  2
  13977  13973  13972  13978     1  0.0000000  0.6024960  3
  13978  13972  13973  13989     1  0.0000000  4.9162000  2
  13978  13972  13973  13989     1  0.0000000  0.6024960  3
  13978  13972  13971  13979     1  0.0000000  4.9162000  2
  13978  13972  13971  13979     1  0.0000000  0.6024960  3
  13979  13971  13968  13980     1  0.0000000  4.9162000  2
  13979  13971  13968  13980     1  0.0000000  0.6024960  3
  13980  13968  13967  13981     1  0.0000000  0.6508444  3
  13980  13968  13967  13989     1  0.0000000  4.9162000  2
  13980  13968  13967  13989     1  0.0000000  0.6024960  3
  13987  13981  13967  13989     1  0.0000000  4.9162000  2
  13987  13981  13967  13989     1  0.0000000  0.6024960  3
  13990  13991  13994  13995     1  180.0000771  0.8368000  1
  13990  13991  13994  13995     1  180.0000771  1.0460000  2
  13990  13991  13994  13995     1  0.0000000  0.7531200  3
  13990  13991  13994  14002     1  0.0000000  0.6508444  3
  13990  14012  13996  13995     1  180.0000771  0.4184000  2
  13990  14012  13996  13995     1  0.0000000  1.6024720  3
  13990  14012  13996  14000     1  180.0000771  5.6484000  1
  13990  14012  13996  14000     1  180.0000771  3.5564000  2
  13990  14012  13996  14000     1  0.0000000  0.4184000  3
  13991  13990  14004  14010     1  0.0000000  0.6508444  3
  13991  13990  14012  13996     1  180.0000771  0.4184000  2
  13991  13990  14012  13996     1  0.0000000  1.6024720  3
  13991  13994  13995  13996     1  180.0000771  0.8368000  1
  13991  13994  13995  13996     1  180.0000771  1.0460000  2
  13991  13994  13995  13996     1  0.0000000  0.7531200  3
  13991  13994  13995  14001     1  0.0000000  0.6508444  3
  13994  13991  13990  14004     1  180.0000771  0.8368000  1
  13994  13991  13990  14004     1  180.0000771  1.0460000  2
  13994  13991  13990  14004     1  0.0000000  0.7531200  3
  13994  13991  13990  14012     1  0.0000000  0.6508444  3
  13994  13995  13996  14000     1  0.0000000  0.6508444  3
  13994  13995  13996  14012     1  0.0000000  0.6508444  3
  13995  13994  13991  14003     1  0.0000000  0.6508444  3
  13996  13995  13994  14002     1  0.0000000  0.6508444  3
  13996  14012  13990  14004     1  180.0000771  0.4184000  2
  13996  14012  13990  14004     1  0.0000000  1.6024720  3
  14000  13996  13995  14001     1  0.0000000  4.9162000  2
  14000  13996  13995  14001     1  0.0000000  0.6024960  3
  14001  13995  13994  14002     1  0.0000000  4.9162000  2
  14001  13995  13994  14002     1  0.0000000  0.6024960  3
  14001  13995  13996  14012     1  0.0000000  4.9162000  2
  14001  13995  13996  14012     1  0.0000000  0.6024960  3
  14002  13994  13991  14003     1  0.0000000  4.9162000  2
  14002  13994  13991  14003     1  0.0000000  0.6024960  3
  14003  13991  13990  14004     1  0.0000000  0.6508444  3
  14003  13991  13990  14012     1  0.0000000  4.9162000  2
  14003  13991  13990  14012     1  0.0000000  0.6024960  3
  14010  14004  13990  14012     1  0.0000000  4.9162000  2
  14010  14004  13990  14012     1  0.0000000  0.6024960  3
  14013  14014  14017  14018     1  180.0000771  0.8368000  1
  14013  14014  14017  14018     1  180.0000771  1.0460000  2
  14013  14014  14017  14018     1  0.0000000  0.7531200  3
  14013  14014  14017  14025     1  0.0000000  0.6508444  3
  14013  14035  14019  14023     1  180.0000771  5.6484000  1
  14013  14035  14019  14023     1  180.0000771  3.5564000  2
  14013  14035  14019  14023     1  0.0000000  0.4184000  3
  14013  14035  14019  14018     1  180.0000771  0.4184000  2
  14013  14035  14019  14018     1  0.0000000  1.6024720  3
  14014  14017  14018  14019     1  180.0000771  0.8368000  1
  14014  14017  14018  14019     1  180.0000771  1.0460000  2
  14014  14017  14018  14019     1  0.0000000  0.7531200  3
  14014  14017  14018  14024     1  0.0000000  0.6508444  3
  14014  14013  14027  14033     1  0.0000000  0.6508444  3
  14014  14013  14035  14019     1  180.0000771  0.4184000  2
  14014  14013  14035  14019     1  0.0000000  1.6024720  3
  14017  14018  14019  14023     1  0.0000000  0.6508444  3
  14017  14018  14019  14035     1  0.0000000  0.6508444  3
  14017  14014  14013  14027     1  180.0000771  0.8368000  1
  14017  14014  14013  14027     1  180.0000771  1.0460000  2
  14017  14014  14013  14027     1  0.0000000  0.7531200  3
  14017  14014  14013  14035     1  0.0000000  0.6508444  3
  14018  14017  14014  14026     1  0.0000000  0.6508444  3
  14019  14035  14013  14027     1  180.0000771  0.4184000  2
  14019  14035  14013  14027     1  0.0000000  1.6024720  3
  14019  14018  14017  14025     1  0.0000000  0.6508444  3
  14023  14019  14018  14024     1  0.0000000  4.9162000  2
  14023  14019  14018  14024     1  0.0000000  0.6024960  3
  14024  14018  14019  14035     1  0.0000000  4.9162000  2
  14024  14018  14019  14035     1  0.0000000  0.6024960  3
  14024  14018  14017  14025     1  0.0000000  4.9162000  2
  14024  14018  14017  14025     1  0.0000000  0.6024960  3
  14025  14017  14014  14026     1  0.0000000  4.9162000  2
  14025  14017  14014  14026     1  0.0000000  0.6024960  3
  14026  14014  14013  14027     1  0.0000000  0.6508444  3
  14026  14014  14013  14035     1  0.0000000  4.9162000  2
  14026  14014  14013  14035     1  0.0000000  0.6024960  3
  14033  14027  14013  14035     1  0.0000000  4.9162000  2
  14033  14027  14013  14035     1  0.0000000  0.6024960  3
  14036  14037  14040  14041     1  180.0000771  0.8368000  1
  14036  14037  14040  14041     1  180.0000771  1.0460000  2
  14036  14037  14040  14041     1  0.0000000  0.7531200  3
  14036  14037  14040  14048     1  0.0000000  0.6508444  3
  14036  14058  14042  14041     1  180.0000771  0.4184000  2
  14036  14058  14042  14041     1  0.0000000  1.6024720  3
  14036  14058  14042  14046     1  180.0000771  5.6484000  1
  14036  14058  14042  14046     1  180.0000771  3.5564000  2
  14036  14058  14042  14046     1  0.0000000  0.4184000  3
  14037  14036  14050  14056     1  0.0000000  0.6508444  3
  14037  14036  14058  14042     1  180.0000771  0.4184000  2
  14037  14036  14058  14042     1  0.0000000  1.6024720  3
  14037  14040  14041  14042     1  180.0000771  0.8368000  1
  14037  14040  14041  14042     1  180.0000771  1.0460000  2
  14037  14040  14041  14042     1  0.0000000  0.7531200  3
  14037  14040  14041  14047     1  0.0000000  0.6508444  3
  14040  14037  14036  14050     1  180.0000771  0.8368000  1
  14040  14037  14036  14050     1  180.0000771  1.0460000  2
  14040  14037  14036  14050     1  0.0000000  0.7531200  3
  14040  14037  14036  14058     1  0.0000000  0.6508444  3
  14040  14041  14042  14046     1  0.0000000  0.6508444  3
  14040  14041  14042  14058     1  0.0000000  0.6508444  3
  14041  14040  14037  14049     1  0.0000000  0.6508444  3
  14042  14041  14040  14048     1  0.0000000  0.6508444  3
  14042  14058  14036  14050     1  180.0000771  0.4184000  2
  14042  14058  14036  14050     1  0.0000000  1.6024720  3
  14046  14042  14041  14047     1  0.0000000  4.9162000  2
  14046  14042  14041  14047     1  0.0000000  0.6024960  3
  14047  14041  14040  14048     1  0.0000000  4.9162000  2
  14047  14041  14040  14048     1  0.0000000  0.6024960  3
  14047  14041  14042  14058     1  0.0000000  4.9162000  2
  14047  14041  14042  14058     1  0.0000000  0.6024960  3
  14048  14040  14037  14049     1  0.0000000  4.9162000  2
  14048  14040  14037  14049     1  0.0000000  0.6024960  3
  14049  14037  14036  14050     1  0.0000000  0.6508444  3
  14049  14037  14036  14058     1  0.0000000  4.9162000  2
  14049  14037  14036  14058     1  0.0000000  0.6024960  3
  14056  14050  14036  14058     1  0.0000000  4.9162000  2
  14056  14050  14036  14058     1  0.0000000  0.6024960  3
  14059  14060  14063  14064     1  180.0000771  0.8368000  1
  14059  14060  14063  14064     1  180.0000771  1.0460000  2
  14059  14060  14063  14064     1  0.0000000  0.7531200  3
  14059  14060  14063  14071     1  0.0000000  0.6508444  3
  14059  14081  14065  14069     1  180.0000771  5.6484000  1
  14059  14081  14065  14069     1  180.0000771  3.5564000  2
  14059  14081  14065  14069     1  0.0000000  0.4184000  3
  14059  14081  14065  14064     1  180.0000771  0.4184000  2
  14059  14081  14065  14064     1  0.0000000  1.6024720  3
  14060  14063  14064  14065     1  180.0000771  0.8368000  1
  14060  14063  14064  14065     1  180.0000771  1.0460000  2
  14060  14063  14064  14065     1  0.0000000  0.7531200  3
  14060  14063  14064  14070     1  0.0000000  0.6508444  3
  14060  14059  14073  14079     1  0.0000000  0.6508444  3
  14060  14059  14081  14065     1  180.0000771  0.4184000  2
  14060  14059  14081  14065     1  0.0000000  1.6024720  3
  14063  14064  14065  14069     1  0.0000000  0.6508444  3
  14063  14064  14065  14081     1  0.0000000  0.6508444  3
  14063  14060  14059  14073     1  180.0000771  0.8368000  1
  14063  14060  14059  14073     1  180.0000771  1.0460000  2
  14063  14060  14059  14073     1  0.0000000  0.7531200  3
  14063  14060  14059  14081     1  0.0000000  0.6508444  3
  14064  14063  14060  14072     1  0.0000000  0.6508444  3
  14065  14081  14059  14073     1  180.0000771  0.4184000  2
  14065  14081  14059  14073     1  0.0000000  1.6024720  3
  14065  14064  14063  14071     1  0.0000000  0.6508444  3
  14069  14065  14064  14070     1  0.0000000  4.9162000  2
  14069  14065  14064  14070     1  0.0000000  0.6024960  3
  14070  14064  14065  14081     1  0.0000000  4.9162000  2
  14070  14064  14065  14081     1  0.0000000  0.6024960  3
  14070  14064  14063  14071     1  0.0000000  4.9162000  2
  14070  14064  14063  14071     1  0.0000000  0.6024960  3
  14071  14063  14060  14072     1  0.0000000  4.9162000  2
  14071  14063  14060  14072     1  0.0000000  0.6024960  3
  14072  14060  14059  14073     1  0.0000000  0.6508444  3
  14072  14060  14059  14081     1  0.0000000  4.9162000  2
  14072  14060  14059  14081     1  0.0000000  0.6024960  3
  14079  14073  14059  14081     1  0.0000000  4.9162000  2
  14079  14073  14059  14081     1  0.0000000  0.6024960  3
  14082  14083  14086  14087     1  180.0000771  0.8368000  1
  14082  14083  14086  14087     1  180.0000771  1.0460000  2
  14082  14083  14086  14087     1  0.0000000  0.7531200  3
  14082  14083  14086  14094     1  0.0000000  0.6508444  3
  14082  14104  14088  14087     1  180.0000771  0.4184000  2
  14082  14104  14088  14087     1  0.0000000  1.6024720  3
  14082  14104  14088  14092     1  180.0000771  5.6484000  1
  14082  14104  14088  14092     1  180.0000771  3.5564000  2
  14082  14104  14088  14092     1  0.0000000  0.4184000  3
  14083  14082  14096  14102     1  0.0000000  0.6508444  3
  14083  14082  14104  14088     1  180.0000771  0.4184000  2
  14083  14082  14104  14088     1  0.0000000  1.6024720  3
  14083  14086  14087  14088     1  180.0000771  0.8368000  1
  14083  14086  14087  14088     1  180.0000771  1.0460000  2
  14083  14086  14087  14088     1  0.0000000  0.7531200  3
  14083  14086  14087  14093     1  0.0000000  0.6508444  3
  14086  14083  14082  14096     1  180.0000771  0.8368000  1
  14086  14083  14082  14096     1  180.0000771  1.0460000  2
  14086  14083  14082  14096     1  0.0000000  0.7531200  3
  14086  14083  14082  14104     1  0.0000000  0.6508444  3
  14086  14087  14088  14092     1  0.0000000  0.6508444  3
  14086  14087  14088  14104     1  0.0000000  0.6508444  3
  14087  14086  14083  14095     1  0.0000000  0.6508444  3
  14088  14087  14086  14094     1  0.0000000  0.6508444  3
  14088  14104  14082  14096     1  180.0000771  0.4184000  2
  14088  14104  14082  14096     1  0.0000000  1.6024720  3
  14092  14088  14087  14093     1  0.0000000  4.9162000  2
  14092  14088  14087  14093     1  0.0000000  0.6024960  3
  14093  14087  14086  14094     1  0.0000000  4.9162000  2
  14093  14087  14086  14094     1  0.0000000  0.6024960  3
  14093  14087  14088  14104     1  0.0000000  4.9162000  2
  14093  14087  14088  14104     1  0.0000000  0.6024960  3
  14094  14086  14083  14095     1  0.0000000  4.9162000  2
  14094  14086  14083  14095     1  0.0000000  0.6024960  3
  14095  14083  14082  14096     1  0.0000000  0.6508444  3
  14095  14083  14082  14104     1  0.0000000  4.9162000  2
  14095  14083  14082  14104     1  0.0000000  0.6024960  3
  14102  14096  14082  14104     1  0.0000000  4.9162000  2
  14102  14096  14082  14104     1  0.0000000  0.6024960  3
  14105  14106  14109  14110     1  180.0000771  0.8368000  1
  14105  14106  14109  14110     1  180.0000771  1.0460000  2
  14105  14106  14109  14110     1  0.0000000  0.7531200  3
  14105  14106  14109  14117     1  0.0000000  0.6508444  3
  14105  14127  14111  14115     1  180.0000771  5.6484000  1
  14105  14127  14111  14115     1  180.0000771  3.5564000  2
  14105  14127  14111  14115     1  0.0000000  0.4184000  3
  14105  14127  14111  14110     1  180.0000771  0.4184000  2
  14105  14127  14111  14110     1  0.0000000  1.6024720  3
  14106  14109  14110  14111     1  180.0000771  0.8368000  1
  14106  14109  14110  14111     1  180.0000771  1.0460000  2
  14106  14109  14110  14111     1  0.0000000  0.7531200  3
  14106  14109  14110  14116     1  0.0000000  0.6508444  3
  14106  14105  14119  14125     1  0.0000000  0.6508444  3
  14106  14105  14127  14111     1  180.0000771  0.4184000  2
  14106  14105  14127  14111     1  0.0000000  1.6024720  3
  14109  14110  14111  14115     1  0.0000000  0.6508444  3
  14109  14110  14111  14127     1  0.0000000  0.6508444  3
  14109  14106  14105  14119     1  180.0000771  0.8368000  1
  14109  14106  14105  14119     1  180.0000771  1.0460000  2
  14109  14106  14105  14119     1  0.0000000  0.7531200  3
  14109  14106  14105  14127     1  0.0000000  0.6508444  3
  14110  14109  14106  14118     1  0.0000000  0.6508444  3
  14111  14127  14105  14119     1  180.0000771  0.4184000  2
  14111  14127  14105  14119     1  0.0000000  1.6024720  3
  14111  14110  14109  14117     1  0.0000000  0.6508444  3
  14115  14111  14110  14116     1  0.0000000  4.9162000  2
  14115  14111  14110  14116     1  0.0000000  0.6024960  3
  14116  14110  14111  14127     1  0.0000000  4.9162000  2
  14116  14110  14111  14127     1  0.0000000  0.6024960  3
  14116  14110  14109  14117     1  0.0000000  4.9162000  2
  14116  14110  14109  14117     1  0.0000000  0.6024960  3
  14117  14109  14106  14118     1  0.0000000  4.9162000  2
  14117  14109  14106  14118     1  0.0000000  0.6024960  3
  14118  14106  14105  14119     1  0.0000000  0.6508444  3
  14118  14106  14105  14127     1  0.0000000  4.9162000  2
  14118  14106  14105  14127     1  0.0000000  0.6024960  3
  14125  14119  14105  14127     1  0.0000000  4.9162000  2
  14125  14119  14105  14127     1  0.0000000  0.6024960  3
  14128  14129  14132  14133     1  180.0000771  0.8368000  1
  14128  14129  14132  14133     1  180.0000771  1.0460000  2
  14128  14129  14132  14133     1  0.0000000  0.7531200  3
  14128  14129  14132  14140     1  0.0000000  0.6508444  3
  14128  14150  14134  14133     1  180.0000771  0.4184000  2
  14128  14150  14134  14133     1  0.0000000  1.6024720  3
  14128  14150  14134  14138     1  180.0000771  5.6484000  1
  14128  14150  14134  14138     1  180.0000771  3.5564000  2
  14128  14150  14134  14138     1  0.0000000  0.4184000  3
  14129  14128  14142  14148     1  0.0000000  0.6508444  3
  14129  14128  14150  14134     1  180.0000771  0.4184000  2
  14129  14128  14150  14134     1  0.0000000  1.6024720  3
  14129  14132  14133  14134     1  180.0000771  0.8368000  1
  14129  14132  14133  14134     1  180.0000771  1.0460000  2
  14129  14132  14133  14134     1  0.0000000  0.7531200  3
  14129  14132  14133  14139     1  0.0000000  0.6508444  3
  14132  14129  14128  14142     1  180.0000771  0.8368000  1
  14132  14129  14128  14142     1  180.0000771  1.0460000  2
  14132  14129  14128  14142     1  0.0000000  0.7531200  3
  14132  14129  14128  14150     1  0.0000000  0.6508444  3
  14132  14133  14134  14138     1  0.0000000  0.6508444  3
  14132  14133  14134  14150     1  0.0000000  0.6508444  3
  14133  14132  14129  14141     1  0.0000000  0.6508444  3
  14134  14133  14132  14140     1  0.0000000  0.6508444  3
  14134  14150  14128  14142     1  180.0000771  0.4184000  2
  14134  14150  14128  14142     1  0.0000000  1.6024720  3
  14138  14134  14133  14139     1  0.0000000  4.9162000  2
  14138  14134  14133  14139     1  0.0000000  0.6024960  3
  14139  14133  14132  14140     1  0.0000000  4.9162000  2
  14139  14133  14132  14140     1  0.0000000  0.6024960  3
  14139  14133  14134  14150     1  0.0000000  4.9162000  2
  14139  14133  14134  14150     1  0.0000000  0.6024960  3
  14140  14132  14129  14141     1  0.0000000  4.9162000  2
  14140  14132  14129  14141     1  0.0000000  0.6024960  3
  14141  14129  14128  14142     1  0.0000000  0.6508444  3
  14141  14129  14128  14150     1  0.0000000  4.9162000  2
  14141  14129  14128  14150     1  0.0000000  0.6024960  3
  14148  14142  14128  14150     1  0.0000000  4.9162000  2
  14148  14142  14128  14150     1  0.0000000  0.6024960  3
  14151  14152  14155  14156     1  180.0000771  0.8368000  1
  14151  14152  14155  14156     1  180.0000771  1.0460000  2
  14151  14152  14155  14156     1  0.0000000  0.7531200  3
  14151  14152  14155  14163     1  0.0000000  0.6508444  3
  14151  14173  14157  14161     1  180.0000771  5.6484000  1
  14151  14173  14157  14161     1  180.0000771  3.5564000  2
  14151  14173  14157  14161     1  0.0000000  0.4184000  3
  14151  14173  14157  14156     1  180.0000771  0.4184000  2
  14151  14173  14157  14156     1  0.0000000  1.6024720  3
  14152  14155  14156  14157     1  180.0000771  0.8368000  1
  14152  14155  14156  14157     1  180.0000771  1.0460000  2
  14152  14155  14156  14157     1  0.0000000  0.7531200  3
  14152  14155  14156  14162     1  0.0000000  0.6508444  3
  14152  14151  14165  14171     1  0.0000000  0.6508444  3
  14152  14151  14173  14157     1  180.0000771  0.4184000  2
  14152  14151  14173  14157     1  0.0000000  1.6024720  3
  14155  14156  14157  14161     1  0.0000000  0.6508444  3
  14155  14156  14157  14173     1  0.0000000  0.6508444  3
  14155  14152  14151  14165     1  180.0000771  0.8368000  1
  14155  14152  14151  14165     1  180.0000771  1.0460000  2
  14155  14152  14151  14165     1  0.0000000  0.7531200  3
  14155  14152  14151  14173     1  0.0000000  0.6508444  3
  14156  14155  14152  14164     1  0.0000000  0.6508444  3
  14157  14173  14151  14165     1  180.0000771  0.4184000  2
  14157  14173  14151  14165     1  0.0000000  1.6024720  3
  14157  14156  14155  14163     1  0.0000000  0.6508444  3
  14161  14157  14156  14162     1  0.0000000  4.9162000  2
  14161  14157  14156  14162     1  0.0000000  0.6024960  3
  14162  14156  14157  14173     1  0.0000000  4.9162000  2
  14162  14156  14157  14173     1  0.0000000  0.6024960  3
  14162  14156  14155  14163     1  0.0000000  4.9162000  2
  14162  14156  14155  14163     1  0.0000000  0.6024960  3
  14163  14155  14152  14164     1  0.0000000  4.9162000  2
  14163  14155  14152  14164     1  0.0000000  0.6024960  3
  14164  14152  14151  14165     1  0.0000000  0.6508444  3
  14164  14152  14151  14173     1  0.0000000  4.9162000  2
  14164  14152  14151  14173     1  0.0000000  0.6024960  3
  14171  14165  14151  14173     1  0.0000000  4.9162000  2
  14171  14165  14151  14173     1  0.0000000  0.6024960  3
  14174  14175  14178  14179     1  180.0000771  0.8368000  1
  14174  14175  14178  14179     1  180.0000771  1.0460000  2
  14174  14175  14178  14179     1  0.0000000  0.7531200  3
  14174  14175  14178  14186     1  0.0000000  0.6508444  3
  14174  14196  14180  14179     1  180.0000771  0.4184000  2
  14174  14196  14180  14179     1  0.0000000  1.6024720  3
  14174  14196  14180  14184     1  180.0000771  5.6484000  1
  14174  14196  14180  14184     1  180.0000771  3.5564000  2
  14174  14196  14180  14184     1  0.0000000  0.4184000  3
  14175  14174  14188  14194     1  0.0000000  0.6508444  3
  14175  14174  14196  14180     1  180.0000771  0.4184000  2
  14175  14174  14196  14180     1  0.0000000  1.6024720  3
  14175  14178  14179  14180     1  180.0000771  0.8368000  1
  14175  14178  14179  14180     1  180.0000771  1.0460000  2
  14175  14178  14179  14180     1  0.0000000  0.7531200  3
  14175  14178  14179  14185     1  0.0000000  0.6508444  3
  14178  14175  14174  14188     1  180.0000771  0.8368000  1
  14178  14175  14174  14188     1  180.0000771  1.0460000  2
  14178  14175  14174  14188     1  0.0000000  0.7531200  3
  14178  14175  14174  14196     1  0.0000000  0.6508444  3
  14178  14179  14180  14184     1  0.0000000  0.6508444  3
  14178  14179  14180  14196     1  0.0000000  0.6508444  3
  14179  14178  14175  14187     1  0.0000000  0.6508444  3
  14180  14179  14178  14186     1  0.0000000  0.6508444  3
  14180  14196  14174  14188     1  180.0000771  0.4184000  2
  14180  14196  14174  14188     1  0.0000000  1.6024720  3
  14184  14180  14179  14185     1  0.0000000  4.9162000  2
  14184  14180  14179  14185     1  0.0000000  0.6024960  3
  14185  14179  14178  14186     1  0.0000000  4.9162000  2
  14185  14179  14178  14186     1  0.0000000  0.6024960  3
  14185  14179  14180  14196     1  0.0000000  4.9162000  2
  14185  14179  14180  14196     1  0.0000000  0.6024960  3
  14186  14178  14175  14187     1  0.0000000  4.9162000  2
  14186  14178  14175  14187     1  0.0000000  0.6024960  3
  14187  14175  14174  14188     1  0.0000000  0.6508444  3
  14187  14175  14174  14196     1  0.0000000  4.9162000  2
  14187  14175  14174  14196     1  0.0000000  0.6024960  3
  14194  14188  14174  14196     1  0.0000000  4.9162000  2
  14194  14188  14174  14196     1  0.0000000  0.6024960  3
  14197  14198  14201  14202     1  180.0000771  0.8368000  1
  14197  14198  14201  14202     1  180.0000771  1.0460000  2
  14197  14198  14201  14202     1  0.0000000  0.7531200  3
  14197  14198  14201  14209     1  0.0000000  0.6508444  3
  14197  14219  14203  14207     1  180.0000771  5.6484000  1
  14197  14219  14203  14207     1  180.0000771  3.5564000  2
  14197  14219  14203  14207     1  0.0000000  0.4184000  3
  14197  14219  14203  14202     1  180.0000771  0.4184000  2
  14197  14219  14203  14202     1  0.0000000  1.6024720  3
  14198  14201  14202  14203     1  180.0000771  0.8368000  1
  14198  14201  14202  14203     1  180.0000771  1.0460000  2
  14198  14201  14202  14203     1  0.0000000  0.7531200  3
  14198  14201  14202  14208     1  0.0000000  0.6508444  3
  14198  14197  14211  14217     1  0.0000000  0.6508444  3
  14198  14197  14219  14203     1  180.0000771  0.4184000  2
  14198  14197  14219  14203     1  0.0000000  1.6024720  3
  14201  14202  14203  14207     1  0.0000000  0.6508444  3
  14201  14202  14203  14219     1  0.0000000  0.6508444  3
  14201  14198  14197  14211     1  180.0000771  0.8368000  1
  14201  14198  14197  14211     1  180.0000771  1.0460000  2
  14201  14198  14197  14211     1  0.0000000  0.7531200  3
  14201  14198  14197  14219     1  0.0000000  0.6508444  3
  14202  14201  14198  14210     1  0.0000000  0.6508444  3
  14203  14219  14197  14211     1  180.0000771  0.4184000  2
  14203  14219  14197  14211     1  0.0000000  1.6024720  3
  14203  14202  14201  14209     1  0.0000000  0.6508444  3
  14207  14203  14202  14208     1  0.0000000  4.9162000  2
  14207  14203  14202  14208     1  0.0000000  0.6024960  3
  14208  14202  14203  14219     1  0.0000000  4.9162000  2
  14208  14202  14203  14219     1  0.0000000  0.6024960  3
  14208  14202  14201  14209     1  0.0000000  4.9162000  2
  14208  14202  14201  14209     1  0.0000000  0.6024960  3
  14209  14201  14198  14210     1  0.0000000  4.9162000  2
  14209  14201  14198  14210     1  0.0000000  0.6024960  3
  14210  14198  14197  14211     1  0.0000000  0.6508444  3
  14210  14198  14197  14219     1  0.0000000  4.9162000  2
  14210  14198  14197  14219     1  0.0000000  0.6024960  3
  14217  14211  14197  14219     1  0.0000000  4.9162000  2
  14217  14211  14197  14219     1  0.0000000  0.6024960  3
  14220  14221  14224  14225     1  180.0000771  0.8368000  1
  14220  14221  14224  14225     1  180.0000771  1.0460000  2
  14220  14221  14224  14225     1  0.0000000  0.7531200  3
  14220  14221  14224  14232     1  0.0000000  0.6508444  3
  14220  14242  14226  14225     1  180.0000771  0.4184000  2
  14220  14242  14226  14225     1  0.0000000  1.6024720  3
  14220  14242  14226  14230     1  180.0000771  5.6484000  1
  14220  14242  14226  14230     1  180.0000771  3.5564000  2
  14220  14242  14226  14230     1  0.0000000  0.4184000  3
  14221  14220  14234  14240     1  0.0000000  0.6508444  3
  14221  14220  14242  14226     1  180.0000771  0.4184000  2
  14221  14220  14242  14226     1  0.0000000  1.6024720  3
  14221  14224  14225  14226     1  180.0000771  0.8368000  1
  14221  14224  14225  14226     1  180.0000771  1.0460000  2
  14221  14224  14225  14226     1  0.0000000  0.7531200  3
  14221  14224  14225  14231     1  0.0000000  0.6508444  3
  14224  14221  14220  14234     1  180.0000771  0.8368000  1
  14224  14221  14220  14234     1  180.0000771  1.0460000  2
  14224  14221  14220  14234     1  0.0000000  0.7531200  3
  14224  14221  14220  14242     1  0.0000000  0.6508444  3
  14224  14225  14226  14230     1  0.0000000  0.6508444  3
  14224  14225  14226  14242     1  0.0000000  0.6508444  3
  14225  14224  14221  14233     1  0.0000000  0.6508444  3
  14226  14225  14224  14232     1  0.0000000  0.6508444  3
  14226  14242  14220  14234     1  180.0000771  0.4184000  2
  14226  14242  14220  14234     1  0.0000000  1.6024720  3
  14230  14226  14225  14231     1  0.0000000  4.9162000  2
  14230  14226  14225  14231     1  0.0000000  0.6024960  3
  14231  14225  14224  14232     1  0.0000000  4.9162000  2
  14231  14225  14224  14232     1  0.0000000  0.6024960  3
  14231  14225  14226  14242     1  0.0000000  4.9162000  2
  14231  14225  14226  14242     1  0.0000000  0.6024960  3
  14232  14224  14221  14233     1  0.0000000  4.9162000  2
  14232  14224  14221  14233     1  0.0000000  0.6024960  3
  14233  14221  14220  14234     1  0.0000000  0.6508444  3
  14233  14221  14220  14242     1  0.0000000  4.9162000  2
  14233  14221  14220  14242     1  0.0000000  0.6024960  3
  14240  14234  14220  14242     1  0.0000000  4.9162000  2
  14240  14234  14220  14242     1  0.0000000  0.6024960  3
  14243  14244  14247  14248     1  180.0000771  0.8368000  1
  14243  14244  14247  14248     1  180.0000771  1.0460000  2
  14243  14244  14247  14248     1  0.0000000  0.7531200  3
  14243  14244  14247  14255     1  0.0000000  0.6508444  3
  14243  14265  14249  14253     1  180.0000771  5.6484000  1
  14243  14265  14249  14253     1  180.0000771  3.5564000  2
  14243  14265  14249  14253     1  0.0000000  0.4184000  3
  14243  14265  14249  14248     1  180.0000771  0.4184000  2
  14243  14265  14249  14248     1  0.0000000  1.6024720  3
  14244  14247  14248  14249     1  180.0000771  0.8368000  1
  14244  14247  14248  14249     1  180.0000771  1.0460000  2
  14244  14247  14248  14249     1  0.0000000  0.7531200  3
  14244  14247  14248  14254     1  0.0000000  0.6508444  3
  14244  14243  14257  14263     1  0.0000000  0.6508444  3
  14244  14243  14265  14249     1  180.0000771  0.4184000  2
  14244  14243  14265  14249     1  0.0000000  1.6024720  3
  14247  14248  14249  14253     1  0.0000000  0.6508444  3
  14247  14248  14249  14265     1  0.0000000  0.6508444  3
  14247  14244  14243  14257     1  180.0000771  0.8368000  1
  14247  14244  14243  14257     1  180.0000771  1.0460000  2
  14247  14244  14243  14257     1  0.0000000  0.7531200  3
  14247  14244  14243  14265     1  0.0000000  0.6508444  3
  14248  14247  14244  14256     1  0.0000000  0.6508444  3
  14249  14265  14243  14257     1  180.0000771  0.4184000  2
  14249  14265  14243  14257     1  0.0000000  1.6024720  3
  14249  14248  14247  14255     1  0.0000000  0.6508444  3
  14253  14249  14248  14254     1  0.0000000  4.9162000  2
  14253  14249  14248  14254     1  0.0000000  0.6024960  3
  14254  14248  14249  14265     1  0.0000000  4.9162000  2
  14254  14248  14249  14265     1  0.0000000  0.6024960  3
  14254  14248  14247  14255     1  0.0000000  4.9162000  2
  14254  14248  14247  14255     1  0.0000000  0.6024960  3
  14255  14247  14244  14256     1  0.0000000  4.9162000  2
  14255  14247  14244  14256     1  0.0000000  0.6024960  3
  14256  14244  14243  14257     1  0.0000000  0.6508444  3
  14256  14244  14243  14265     1  0.0000000  4.9162000  2
  14256  14244  14243  14265     1  0.0000000  0.6024960  3
  14263  14257  14243  14265     1  0.0000000  4.9162000  2
  14263  14257  14243  14265     1  0.0000000  0.6024960  3
  14266  14267  14270  14271     1  180.0000771  0.8368000  1
  14266  14267  14270  14271     1  180.0000771  1.0460000  2
  14266  14267  14270  14271     1  0.0000000  0.7531200  3
  14266  14267  14270  14278     1  0.0000000  0.6508444  3
  14266  14288  14272  14271     1  180.0000771  0.4184000  2
  14266  14288  14272  14271     1  0.0000000  1.6024720  3
  14266  14288  14272  14276     1  180.0000771  5.6484000  1
  14266  14288  14272  14276     1  180.0000771  3.5564000  2
  14266  14288  14272  14276     1  0.0000000  0.4184000  3
  14267  14266  14280  14286     1  0.0000000  0.6508444  3
  14267  14266  14288  14272     1  180.0000771  0.4184000  2
  14267  14266  14288  14272     1  0.0000000  1.6024720  3
  14267  14270  14271  14272     1  180.0000771  0.8368000  1
  14267  14270  14271  14272     1  180.0000771  1.0460000  2
  14267  14270  14271  14272     1  0.0000000  0.7531200  3
  14267  14270  14271  14277     1  0.0000000  0.6508444  3
  14270  14267  14266  14280     1  180.0000771  0.8368000  1
  14270  14267  14266  14280     1  180.0000771  1.0460000  2
  14270  14267  14266  14280     1  0.0000000  0.7531200  3
  14270  14267  14266  14288     1  0.0000000  0.6508444  3
  14270  14271  14272  14276     1  0.0000000  0.6508444  3
  14270  14271  14272  14288     1  0.0000000  0.6508444  3
  14271  14270  14267  14279     1  0.0000000  0.6508444  3
  14272  14271  14270  14278     1  0.0000000  0.6508444  3
  14272  14288  14266  14280     1  180.0000771  0.4184000  2
  14272  14288  14266  14280     1  0.0000000  1.6024720  3
  14276  14272  14271  14277     1  0.0000000  4.9162000  2
  14276  14272  14271  14277     1  0.0000000  0.6024960  3
  14277  14271  14270  14278     1  0.0000000  4.9162000  2
  14277  14271  14270  14278     1  0.0000000  0.6024960  3
  14277  14271  14272  14288     1  0.0000000  4.9162000  2
  14277  14271  14272  14288     1  0.0000000  0.6024960  3
  14278  14270  14267  14279     1  0.0000000  4.9162000  2
  14278  14270  14267  14279     1  0.0000000  0.6024960  3
  14279  14267  14266  14280     1  0.0000000  0.6508444  3
  14279  14267  14266  14288     1  0.0000000  4.9162000  2
  14279  14267  14266  14288     1  0.0000000  0.6024960  3
  14286  14280  14266  14288     1  0.0000000  4.9162000  2
  14286  14280  14266  14288     1  0.0000000  0.6024960  3
  14289  14290  14293  14294     1  180.0000771  0.8368000  1
  14289  14290  14293  14294     1  180.0000771  1.0460000  2
  14289  14290  14293  14294     1  0.0000000  0.7531200  3
  14289  14290  14293  14301     1  0.0000000  0.6508444  3
  14289  14311  14295  14299     1  180.0000771  5.6484000  1
  14289  14311  14295  14299     1  180.0000771  3.5564000  2
  14289  14311  14295  14299     1  0.0000000  0.4184000  3
  14289  14311  14295  14294     1  180.0000771  0.4184000  2
  14289  14311  14295  14294     1  0.0000000  1.6024720  3
  14290  14293  14294  14295     1  180.0000771  0.8368000  1
  14290  14293  14294  14295     1  180.0000771  1.0460000  2
  14290  14293  14294  14295     1  0.0000000  0.7531200  3
  14290  14293  14294  14300     1  0.0000000  0.6508444  3
  14290  14289  14303  14309     1  0.0000000  0.6508444  3
  14290  14289  14311  14295     1  180.0000771  0.4184000  2
  14290  14289  14311  14295     1  0.0000000  1.6024720  3
  14293  14294  14295  14299     1  0.0000000  0.6508444  3
  14293  14294  14295  14311     1  0.0000000  0.6508444  3
  14293  14290  14289  14303     1  180.0000771  0.8368000  1
  14293  14290  14289  14303     1  180.0000771  1.0460000  2
  14293  14290  14289  14303     1  0.0000000  0.7531200  3
  14293  14290  14289  14311     1  0.0000000  0.6508444  3
  14294  14293  14290  14302     1  0.0000000  0.6508444  3
  14295  14311  14289  14303     1  180.0000771  0.4184000  2
  14295  14311  14289  14303     1  0.0000000  1.6024720  3
  14295  14294  14293  14301     1  0.0000000  0.6508444  3
  14299  14295  14294  14300     1  0.0000000  4.9162000  2
  14299  14295  14294  14300     1  0.0000000  0.6024960  3
  14300  14294  14295  14311     1  0.0000000  4.9162000  2
  14300  14294  14295  14311     1  0.0000000  0.6024960  3
  14300  14294  14293  14301     1  0.0000000  4.9162000  2
  14300  14294  14293  14301     1  0.0000000  0.6024960  3
  14301  14293  14290  14302     1  0.0000000  4.9162000  2
  14301  14293  14290  14302     1  0.0000000  0.6024960  3
  14302  14290  14289  14303     1  0.0000000  0.6508444  3
  14302  14290  14289  14311     1  0.0000000  4.9162000  2
  14302  14290  14289  14311     1  0.0000000  0.6024960  3
  14309  14303  14289  14311     1  0.0000000  4.9162000  2
  14309  14303  14289  14311     1  0.0000000  0.6024960  3
  14312  14313  14316  14317     1  180.0000771  0.8368000  1
  14312  14313  14316  14317     1  180.0000771  1.0460000  2
  14312  14313  14316  14317     1  0.0000000  0.7531200  3
  14312  14313  14316  14324     1  0.0000000  0.6508444  3
  14312  14334  14318  14317     1  180.0000771  0.4184000  2
  14312  14334  14318  14317     1  0.0000000  1.6024720  3
  14312  14334  14318  14322     1  180.0000771  5.6484000  1
  14312  14334  14318  14322     1  180.0000771  3.5564000  2
  14312  14334  14318  14322     1  0.0000000  0.4184000  3
  14313  14312  14326  14332     1  0.0000000  0.6508444  3
  14313  14312  14334  14318     1  180.0000771  0.4184000  2
  14313  14312  14334  14318     1  0.0000000  1.6024720  3
  14313  14316  14317  14318     1  180.0000771  0.8368000  1
  14313  14316  14317  14318     1  180.0000771  1.0460000  2
  14313  14316  14317  14318     1  0.0000000  0.7531200  3
  14313  14316  14317  14323     1  0.0000000  0.6508444  3
  14316  14313  14312  14326     1  180.0000771  0.8368000  1
  14316  14313  14312  14326     1  180.0000771  1.0460000  2
  14316  14313  14312  14326     1  0.0000000  0.7531200  3
  14316  14313  14312  14334     1  0.0000000  0.6508444  3
  14316  14317  14318  14322     1  0.0000000  0.6508444  3
  14316  14317  14318  14334     1  0.0000000  0.6508444  3
  14317  14316  14313  14325     1  0.0000000  0.6508444  3
  14318  14317  14316  14324     1  0.0000000  0.6508444  3
  14318  14334  14312  14326     1  180.0000771  0.4184000  2
  14318  14334  14312  14326     1  0.0000000  1.6024720  3
  14322  14318  14317  14323     1  0.0000000  4.9162000  2
  14322  14318  14317  14323     1  0.0000000  0.6024960  3
  14323  14317  14316  14324     1  0.0000000  4.9162000  2
  14323  14317  14316  14324     1  0.0000000  0.6024960  3
  14323  14317  14318  14334     1  0.0000000  4.9162000  2
  14323  14317  14318  14334     1  0.0000000  0.6024960  3
  14324  14316  14313  14325     1  0.0000000  4.9162000  2
  14324  14316  14313  14325     1  0.0000000  0.6024960  3
  14325  14313  14312  14326     1  0.0000000  0.6508444  3
  14325  14313  14312  14334     1  0.0000000  4.9162000  2
  14325  14313  14312  14334     1  0.0000000  0.6024960  3
  14332  14326  14312  14334     1  0.0000000  4.9162000  2
  14332  14326  14312  14334     1  0.0000000  0.6024960  3
  14335  14336  14339  14340     1  180.0000771  0.8368000  1
  14335  14336  14339  14340     1  180.0000771  1.0460000  2
  14335  14336  14339  14340     1  0.0000000  0.7531200  3
  14335  14336  14339  14347     1  0.0000000  0.6508444  3
  14335  14357  14341  14345     1  180.0000771  5.6484000  1
  14335  14357  14341  14345     1  180.0000771  3.5564000  2
  14335  14357  14341  14345     1  0.0000000  0.4184000  3
  14335  14357  14341  14340     1  180.0000771  0.4184000  2
  14335  14357  14341  14340     1  0.0000000  1.6024720  3
  14336  14339  14340  14341     1  180.0000771  0.8368000  1
  14336  14339  14340  14341     1  180.0000771  1.0460000  2
  14336  14339  14340  14341     1  0.0000000  0.7531200  3
  14336  14339  14340  14346     1  0.0000000  0.6508444  3
  14336  14335  14349  14355     1  0.0000000  0.6508444  3
  14336  14335  14357  14341     1  180.0000771  0.4184000  2
  14336  14335  14357  14341     1  0.0000000  1.6024720  3
  14339  14340  14341  14345     1  0.0000000  0.6508444  3
  14339  14340  14341  14357     1  0.0000000  0.6508444  3
  14339  14336  14335  14349     1  180.0000771  0.8368000  1
  14339  14336  14335  14349     1  180.0000771  1.0460000  2
  14339  14336  14335  14349     1  0.0000000  0.7531200  3
  14339  14336  14335  14357     1  0.0000000  0.6508444  3
  14340  14339  14336  14348     1  0.0000000  0.6508444  3
  14341  14357  14335  14349     1  180.0000771  0.4184000  2
  14341  14357  14335  14349     1  0.0000000  1.6024720  3
  14341  14340  14339  14347     1  0.0000000  0.6508444  3
  14345  14341  14340  14346     1  0.0000000  4.9162000  2
  14345  14341  14340  14346     1  0.0000000  0.6024960  3
  14346  14340  14341  14357     1  0.0000000  4.9162000  2
  14346  14340  14341  14357     1  0.0000000  0.6024960  3
  14346  14340  14339  14347     1  0.0000000  4.9162000  2
  14346  14340  14339  14347     1  0.0000000  0.6024960  3
  14347  14339  14336  14348     1  0.0000000  4.9162000  2
  14347  14339  14336  14348     1  0.0000000  0.6024960  3
  14348  14336  14335  14349     1  0.0000000  0.6508444  3
  14348  14336  14335  14357     1  0.0000000  4.9162000  2
  14348  14336  14335  14357     1  0.0000000  0.6024960  3
  14355  14349  14335  14357     1  0.0000000  4.9162000  2
  14355  14349  14335  14357     1  0.0000000  0.6024960  3
  14358  14359  14362  14363     1  180.0000771  0.8368000  1
  14358  14359  14362  14363     1  180.0000771  1.0460000  2
  14358  14359  14362  14363     1  0.0000000  0.7531200  3
  14358  14359  14362  14370     1  0.0000000  0.6508444  3
  14358  14380  14364  14363     1  180.0000771  0.4184000  2
  14358  14380  14364  14363     1  0.0000000  1.6024720  3
  14358  14380  14364  14368     1  180.0000771  5.6484000  1
  14358  14380  14364  14368     1  180.0000771  3.5564000  2
  14358  14380  14364  14368     1  0.0000000  0.4184000  3
  14359  14358  14372  14378     1  0.0000000  0.6508444  3
  14359  14358  14380  14364     1  180.0000771  0.4184000  2
  14359  14358  14380  14364     1  0.0000000  1.6024720  3
  14359  14362  14363  14364     1  180.0000771  0.8368000  1
  14359  14362  14363  14364     1  180.0000771  1.0460000  2
  14359  14362  14363  14364     1  0.0000000  0.7531200  3
  14359  14362  14363  14369     1  0.0000000  0.6508444  3
  14362  14359  14358  14372     1  180.0000771  0.8368000  1
  14362  14359  14358  14372     1  180.0000771  1.0460000  2
  14362  14359  14358  14372     1  0.0000000  0.7531200  3
  14362  14359  14358  14380     1  0.0000000  0.6508444  3
  14362  14363  14364  14368     1  0.0000000  0.6508444  3
  14362  14363  14364  14380     1  0.0000000  0.6508444  3
  14363  14362  14359  14371     1  0.0000000  0.6508444  3
  14364  14363  14362  14370     1  0.0000000  0.6508444  3
  14364  14380  14358  14372     1  180.0000771  0.4184000  2
  14364  14380  14358  14372     1  0.0000000  1.6024720  3
  14368  14364  14363  14369     1  0.0000000  4.9162000  2
  14368  14364  14363  14369     1  0.0000000  0.6024960  3
  14369  14363  14362  14370     1  0.0000000  4.9162000  2
  14369  14363  14362  14370     1  0.0000000  0.6024960  3
  14369  14363  14364  14380     1  0.0000000  4.9162000  2
  14369  14363  14364  14380     1  0.0000000  0.6024960  3
  14370  14362  14359  14371     1  0.0000000  4.9162000  2
  14370  14362  14359  14371     1  0.0000000  0.6024960  3
  14371  14359  14358  14372     1  0.0000000  0.6508444  3
  14371  14359  14358  14380     1  0.0000000  4.9162000  2
  14371  14359  14358  14380     1  0.0000000  0.6024960  3
  14378  14372  14358  14380     1  0.0000000  4.9162000  2
  14378  14372  14358  14380     1  0.0000000  0.6024960  3
  14381  14382  14385  14386     1  180.0000771  0.8368000  1
  14381  14382  14385  14386     1  180.0000771  1.0460000  2
  14381  14382  14385  14386     1  0.0000000  0.7531200  3
  14381  14382  14385  14393     1  0.0000000  0.6508444  3
  14381  14403  14387  14391     1  180.0000771  5.6484000  1
  14381  14403  14387  14391     1  180.0000771  3.5564000  2
  14381  14403  14387  14391     1  0.0000000  0.4184000  3
  14381  14403  14387  14386     1  180.0000771  0.4184000  2
  14381  14403  14387  14386     1  0.0000000  1.6024720  3
  14382  14385  14386  14387     1  180.0000771  0.8368000  1
  14382  14385  14386  14387     1  180.0000771  1.0460000  2
  14382  14385  14386  14387     1  0.0000000  0.7531200  3
  14382  14385  14386  14392     1  0.0000000  0.6508444  3
  14382  14381  14395  14401     1  0.0000000  0.6508444  3
  14382  14381  14403  14387     1  180.0000771  0.4184000  2
  14382  14381  14403  14387     1  0.0000000  1.6024720  3
  14385  14386  14387  14391     1  0.0000000  0.6508444  3
  14385  14386  14387  14403     1  0.0000000  0.6508444  3
  14385  14382  14381  14395     1  180.0000771  0.8368000  1
  14385  14382  14381  14395     1  180.0000771  1.0460000  2
  14385  14382  14381  14395     1  0.0000000  0.7531200  3
  14385  14382  14381  14403     1  0.0000000  0.6508444  3
  14386  14385  14382  14394     1  0.0000000  0.6508444  3
  14387  14403  14381  14395     1  180.0000771  0.4184000  2
  14387  14403  14381  14395     1  0.0000000  1.6024720  3
  14387  14386  14385  14393     1  0.0000000  0.6508444  3
  14391  14387  14386  14392     1  0.0000000  4.9162000  2
  14391  14387  14386  14392     1  0.0000000  0.6024960  3
  14392  14386  14387  14403     1  0.0000000  4.9162000  2
  14392  14386  14387  14403     1  0.0000000  0.6024960  3
  14392  14386  14385  14393     1  0.0000000  4.9162000  2
  14392  14386  14385  14393     1  0.0000000  0.6024960  3
  14393  14385  14382  14394     1  0.0000000  4.9162000  2
  14393  14385  14382  14394     1  0.0000000  0.6024960  3
  14394  14382  14381  14395     1  0.0000000  0.6508444  3
  14394  14382  14381  14403     1  0.0000000  4.9162000  2
  14394  14382  14381  14403     1  0.0000000  0.6024960  3
  14401  14395  14381  14403     1  0.0000000  4.9162000  2
  14401  14395  14381  14403     1  0.0000000  0.6024960  3
  14404  14405  14408  14409     1  180.0000771  0.8368000  1
  14404  14405  14408  14409     1  180.0000771  1.0460000  2
  14404  14405  14408  14409     1  0.0000000  0.7531200  3
  14404  14405  14408  14416     1  0.0000000  0.6508444  3
  14404  14426  14410  14409     1  180.0000771  0.4184000  2
  14404  14426  14410  14409     1  0.0000000  1.6024720  3
  14404  14426  14410  14414     1  180.0000771  5.6484000  1
  14404  14426  14410  14414     1  180.0000771  3.5564000  2
  14404  14426  14410  14414     1  0.0000000  0.4184000  3
  14405  14404  14418  14424     1  0.0000000  0.6508444  3
  14405  14404  14426  14410     1  180.0000771  0.4184000  2
  14405  14404  14426  14410     1  0.0000000  1.6024720  3
  14405  14408  14409  14410     1  180.0000771  0.8368000  1
  14405  14408  14409  14410     1  180.0000771  1.0460000  2
  14405  14408  14409  14410     1  0.0000000  0.7531200  3
  14405  14408  14409  14415     1  0.0000000  0.6508444  3
  14408  14405  14404  14418     1  180.0000771  0.8368000  1
  14408  14405  14404  14418     1  180.0000771  1.0460000  2
  14408  14405  14404  14418     1  0.0000000  0.7531200  3
  14408  14405  14404  14426     1  0.0000000  0.6508444  3
  14408  14409  14410  14414     1  0.0000000  0.6508444  3
  14408  14409  14410  14426     1  0.0000000  0.6508444  3
  14409  14408  14405  14417     1  0.0000000  0.6508444  3
  14410  14409  14408  14416     1  0.0000000  0.6508444  3
  14410  14426  14404  14418     1  180.0000771  0.4184000  2
  14410  14426  14404  14418     1  0.0000000  1.6024720  3
  14414  14410  14409  14415     1  0.0000000  4.9162000  2
  14414  14410  14409  14415     1  0.0000000  0.6024960  3
  14415  14409  14408  14416     1  0.0000000  4.9162000  2
  14415  14409  14408  14416     1  0.0000000  0.6024960  3
  14415  14409  14410  14426     1  0.0000000  4.9162000  2
  14415  14409  14410  14426     1  0.0000000  0.6024960  3
  14416  14408  14405  14417     1  0.0000000  4.9162000  2
  14416  14408  14405  14417     1  0.0000000  0.6024960  3
  14417  14405  14404  14418     1  0.0000000  0.6508444  3
  14417  14405  14404  14426     1  0.0000000  4.9162000  2
  14417  14405  14404  14426     1  0.0000000  0.6024960  3
  14424  14418  14404  14426     1  0.0000000  4.9162000  2
  14424  14418  14404  14426     1  0.0000000  0.6024960  3
  14427  14428  14431  14432     1  180.0000771  0.8368000  1
  14427  14428  14431  14432     1  180.0000771  1.0460000  2
  14427  14428  14431  14432     1  0.0000000  0.7531200  3
  14427  14428  14431  14439     1  0.0000000  0.6508444  3
  14427  14449  14433  14437     1  180.0000771  5.6484000  1
  14427  14449  14433  14437     1  180.0000771  3.5564000  2
  14427  14449  14433  14437     1  0.0000000  0.4184000  3
  14427  14449  14433  14432     1  180.0000771  0.4184000  2
  14427  14449  14433  14432     1  0.0000000  1.6024720  3
  14428  14431  14432  14433     1  180.0000771  0.8368000  1
  14428  14431  14432  14433     1  180.0000771  1.0460000  2
  14428  14431  14432  14433     1  0.0000000  0.7531200  3
  14428  14431  14432  14438     1  0.0000000  0.6508444  3
  14428  14427  14441  14447     1  0.0000000  0.6508444  3
  14428  14427  14449  14433     1  180.0000771  0.4184000  2
  14428  14427  14449  14433     1  0.0000000  1.6024720  3
  14431  14432  14433  14437     1  0.0000000  0.6508444  3
  14431  14432  14433  14449     1  0.0000000  0.6508444  3
  14431  14428  14427  14441     1  180.0000771  0.8368000  1
  14431  14428  14427  14441     1  180.0000771  1.0460000  2
  14431  14428  14427  14441     1  0.0000000  0.7531200  3
  14431  14428  14427  14449     1  0.0000000  0.6508444  3
  14432  14431  14428  14440     1  0.0000000  0.6508444  3
  14433  14449  14427  14441     1  180.0000771  0.4184000  2
  14433  14449  14427  14441     1  0.0000000  1.6024720  3
  14433  14432  14431  14439     1  0.0000000  0.6508444  3
  14437  14433  14432  14438     1  0.0000000  4.9162000  2
  14437  14433  14432  14438     1  0.0000000  0.6024960  3
  14438  14432  14433  14449     1  0.0000000  4.9162000  2
  14438  14432  14433  14449     1  0.0000000  0.6024960  3
  14438  14432  14431  14439     1  0.0000000  4.9162000  2
  14438  14432  14431  14439     1  0.0000000  0.6024960  3
  14439  14431  14428  14440     1  0.0000000  4.9162000  2
  14439  14431  14428  14440     1  0.0000000  0.6024960  3
  14440  14428  14427  14441     1  0.0000000  0.6508444  3
  14440  14428  14427  14449     1  0.0000000  4.9162000  2
  14440  14428  14427  14449     1  0.0000000  0.6024960  3
  14447  14441  14427  14449     1  0.0000000  4.9162000  2
  14447  14441  14427  14449     1  0.0000000  0.6024960  3
  14450  14451  14454  14455     1  180.0000771  0.8368000  1
  14450  14451  14454  14455     1  180.0000771  1.0460000  2
  14450  14451  14454  14455     1  0.0000000  0.7531200  3
  14450  14451  14454  14462     1  0.0000000  0.6508444  3
  14450  14472  14456  14455     1  180.0000771  0.4184000  2
  14450  14472  14456  14455     1  0.0000000  1.6024720  3
  14450  14472  14456  14460     1  180.0000771  5.6484000  1
  14450  14472  14456  14460     1  180.0000771  3.5564000  2
  14450  14472  14456  14460     1  0.0000000  0.4184000  3
  14451  14450  14464  14470     1  0.0000000  0.6508444  3
  14451  14450  14472  14456     1  180.0000771  0.4184000  2
  14451  14450  14472  14456     1  0.0000000  1.6024720  3
  14451  14454  14455  14456     1  180.0000771  0.8368000  1
  14451  14454  14455  14456     1  180.0000771  1.0460000  2
  14451  14454  14455  14456     1  0.0000000  0.7531200  3
  14451  14454  14455  14461     1  0.0000000  0.6508444  3
  14454  14451  14450  14464     1  180.0000771  0.8368000  1
  14454  14451  14450  14464     1  180.0000771  1.0460000  2
  14454  14451  14450  14464     1  0.0000000  0.7531200  3
  14454  14451  14450  14472     1  0.0000000  0.6508444  3
  14454  14455  14456  14460     1  0.0000000  0.6508444  3
  14454  14455  14456  14472     1  0.0000000  0.6508444  3
  14455  14454  14451  14463     1  0.0000000  0.6508444  3
  14456  14455  14454  14462     1  0.0000000  0.6508444  3
  14456  14472  14450  14464     1  180.0000771  0.4184000  2
  14456  14472  14450  14464     1  0.0000000  1.6024720  3
  14460  14456  14455  14461     1  0.0000000  4.9162000  2
  14460  14456  14455  14461     1  0.0000000  0.6024960  3
  14461  14455  14454  14462     1  0.0000000  4.9162000  2
  14461  14455  14454  14462     1  0.0000000  0.6024960  3
  14461  14455  14456  14472     1  0.0000000  4.9162000  2
  14461  14455  14456  14472     1  0.0000000  0.6024960  3
  14462  14454  14451  14463     1  0.0000000  4.9162000  2
  14462  14454  14451  14463     1  0.0000000  0.6024960  3
  14463  14451  14450  14464     1  0.0000000  0.6508444  3
  14463  14451  14450  14472     1  0.0000000  4.9162000  2
  14463  14451  14450  14472     1  0.0000000  0.6024960  3
  14470  14464  14450  14472     1  0.0000000  4.9162000  2
  14470  14464  14450  14472     1  0.0000000  0.6024960  3
  14473  14474  14477  14478     1  180.0000771  0.8368000  1
  14473  14474  14477  14478     1  180.0000771  1.0460000  2
  14473  14474  14477  14478     1  0.0000000  0.7531200  3
  14473  14474  14477  14485     1  0.0000000  0.6508444  3
  14473  14495  14479  14483     1  180.0000771  5.6484000  1
  14473  14495  14479  14483     1  180.0000771  3.5564000  2
  14473  14495  14479  14483     1  0.0000000  0.4184000  3
  14473  14495  14479  14478     1  180.0000771  0.4184000  2
  14473  14495  14479  14478     1  0.0000000  1.6024720  3
  14474  14477  14478  14479     1  180.0000771  0.8368000  1
  14474  14477  14478  14479     1  180.0000771  1.0460000  2
  14474  14477  14478  14479     1  0.0000000  0.7531200  3
  14474  14477  14478  14484     1  0.0000000  0.6508444  3
  14474  14473  14487  14493     1  0.0000000  0.6508444  3
  14474  14473  14495  14479     1  180.0000771  0.4184000  2
  14474  14473  14495  14479     1  0.0000000  1.6024720  3
  14477  14478  14479  14483     1  0.0000000  0.6508444  3
  14477  14478  14479  14495     1  0.0000000  0.6508444  3
  14477  14474  14473  14487     1  180.0000771  0.8368000  1
  14477  14474  14473  14487     1  180.0000771  1.0460000  2
  14477  14474  14473  14487     1  0.0000000  0.7531200  3
  14477  14474  14473  14495     1  0.0000000  0.6508444  3
  14478  14477  14474  14486     1  0.0000000  0.6508444  3
  14479  14495  14473  14487     1  180.0000771  0.4184000  2
  14479  14495  14473  14487     1  0.0000000  1.6024720  3
  14479  14478  14477  14485     1  0.0000000  0.6508444  3
  14483  14479  14478  14484     1  0.0000000  4.9162000  2
  14483  14479  14478  14484     1  0.0000000  0.6024960  3
  14484  14478  14479  14495     1  0.0000000  4.9162000  2
  14484  14478  14479  14495     1  0.0000000  0.6024960  3
  14484  14478  14477  14485     1  0.0000000  4.9162000  2
  14484  14478  14477  14485     1  0.0000000  0.6024960  3
  14485  14477  14474  14486     1  0.0000000  4.9162000  2
  14485  14477  14474  14486     1  0.0000000  0.6024960  3
  14486  14474  14473  14487     1  0.0000000  0.6508444  3
  14486  14474  14473  14495     1  0.0000000  4.9162000  2
  14486  14474  14473  14495     1  0.0000000  0.6024960  3
  14493  14487  14473  14495     1  0.0000000  4.9162000  2
  14493  14487  14473  14495     1  0.0000000  0.6024960  3
  14496  14497  14500  14501     1  180.0000771  0.8368000  1
  14496  14497  14500  14501     1  180.0000771  1.0460000  2
  14496  14497  14500  14501     1  0.0000000  0.7531200  3
  14496  14497  14500  14508     1  0.0000000  0.6508444  3
  14496  14518  14502  14501     1  180.0000771  0.4184000  2
  14496  14518  14502  14501     1  0.0000000  1.6024720  3
  14496  14518  14502  14506     1  180.0000771  5.6484000  1
  14496  14518  14502  14506     1  180.0000771  3.5564000  2
  14496  14518  14502  14506     1  0.0000000  0.4184000  3
  14497  14496  14510  14516     1  0.0000000  0.6508444  3
  14497  14496  14518  14502     1  180.0000771  0.4184000  2
  14497  14496  14518  14502     1  0.0000000  1.6024720  3
  14497  14500  14501  14502     1  180.0000771  0.8368000  1
  14497  14500  14501  14502     1  180.0000771  1.0460000  2
  14497  14500  14501  14502     1  0.0000000  0.7531200  3
  14497  14500  14501  14507     1  0.0000000  0.6508444  3
  14500  14497  14496  14510     1  180.0000771  0.8368000  1
  14500  14497  14496  14510     1  180.0000771  1.0460000  2
  14500  14497  14496  14510     1  0.0000000  0.7531200  3
  14500  14497  14496  14518     1  0.0000000  0.6508444  3
  14500  14501  14502  14506     1  0.0000000  0.6508444  3
  14500  14501  14502  14518     1  0.0000000  0.6508444  3
  14501  14500  14497  14509     1  0.0000000  0.6508444  3
  14502  14501  14500  14508     1  0.0000000  0.6508444  3
  14502  14518  14496  14510     1  180.0000771  0.4184000  2
  14502  14518  14496  14510     1  0.0000000  1.6024720  3
  14506  14502  14501  14507     1  0.0000000  4.9162000  2
  14506  14502  14501  14507     1  0.0000000  0.6024960  3
  14507  14501  14500  14508     1  0.0000000  4.9162000  2
  14507  14501  14500  14508     1  0.0000000  0.6024960  3
  14507  14501  14502  14518     1  0.0000000  4.9162000  2
  14507  14501  14502  14518     1  0.0000000  0.6024960  3
  14508  14500  14497  14509     1  0.0000000  4.9162000  2
  14508  14500  14497  14509     1  0.0000000  0.6024960  3
  14509  14497  14496  14510     1  0.0000000  0.6508444  3
  14509  14497  14496  14518     1  0.0000000  4.9162000  2
  14509  14497  14496  14518     1  0.0000000  0.6024960  3
  14516  14510  14496  14518     1  0.0000000  4.9162000  2
  14516  14510  14496  14518     1  0.0000000  0.6024960  3
  14519  14520  14523  14524     1  180.0000771  0.8368000  1
  14519  14520  14523  14524     1  180.0000771  1.0460000  2
  14519  14520  14523  14524     1  0.0000000  0.7531200  3
  14519  14520  14523  14531     1  0.0000000  0.6508444  3
  14519  14541  14525  14529     1  180.0000771  5.6484000  1
  14519  14541  14525  14529     1  180.0000771  3.5564000  2
  14519  14541  14525  14529     1  0.0000000  0.4184000  3
  14519  14541  14525  14524     1  180.0000771  0.4184000  2
  14519  14541  14525  14524     1  0.0000000  1.6024720  3
  14520  14523  14524  14525     1  180.0000771  0.8368000  1
  14520  14523  14524  14525     1  180.0000771  1.0460000  2
  14520  14523  14524  14525     1  0.0000000  0.7531200  3
  14520  14523  14524  14530     1  0.0000000  0.6508444  3
  14520  14519  14533  14539     1  0.0000000  0.6508444  3
  14520  14519  14541  14525     1  180.0000771  0.4184000  2
  14520  14519  14541  14525     1  0.0000000  1.6024720  3
  14523  14524  14525  14529     1  0.0000000  0.6508444  3
  14523  14524  14525  14541     1  0.0000000  0.6508444  3
  14523  14520  14519  14533     1  180.0000771  0.8368000  1
  14523  14520  14519  14533     1  180.0000771  1.0460000  2
  14523  14520  14519  14533     1  0.0000000  0.7531200  3
  14523  14520  14519  14541     1  0.0000000  0.6508444  3
  14524  14523  14520  14532     1  0.0000000  0.6508444  3
  14525  14541  14519  14533     1  180.0000771  0.4184000  2
  14525  14541  14519  14533     1  0.0000000  1.6024720  3
  14525  14524  14523  14531     1  0.0000000  0.6508444  3
  14529  14525  14524  14530     1  0.0000000  4.9162000  2
  14529  14525  14524  14530     1  0.0000000  0.6024960  3
  14530  14524  14525  14541     1  0.0000000  4.9162000  2
  14530  14524  14525  14541     1  0.0000000  0.6024960  3
  14530  14524  14523  14531     1  0.0000000  4.9162000  2
  14530  14524  14523  14531     1  0.0000000  0.6024960  3
  14531  14523  14520  14532     1  0.0000000  4.9162000  2
  14531  14523  14520  14532     1  0.0000000  0.6024960  3
  14532  14520  14519  14533     1  0.0000000  0.6508444  3
  14532  14520  14519  14541     1  0.0000000  4.9162000  2
  14532  14520  14519  14541     1  0.0000000  0.6024960  3
  14539  14533  14519  14541     1  0.0000000  4.9162000  2
  14539  14533  14519  14541     1  0.0000000  0.6024960  3
  14542  14543  14546  14547     1  180.0000771  0.8368000  1
  14542  14543  14546  14547     1  180.0000771  1.0460000  2
  14542  14543  14546  14547     1  0.0000000  0.7531200  3
  14542  14543  14546  14554     1  0.0000000  0.6508444  3
  14542  14564  14548  14547     1  180.0000771  0.4184000  2
  14542  14564  14548  14547     1  0.0000000  1.6024720  3
  14542  14564  14548  14552     1  180.0000771  5.6484000  1
  14542  14564  14548  14552     1  180.0000771  3.5564000  2
  14542  14564  14548  14552     1  0.0000000  0.4184000  3
  14543  14542  14556  14562     1  0.0000000  0.6508444  3
  14543  14542  14564  14548     1  180.0000771  0.4184000  2
  14543  14542  14564  14548     1  0.0000000  1.6024720  3
  14543  14546  14547  14548     1  180.0000771  0.8368000  1
  14543  14546  14547  14548     1  180.0000771  1.0460000  2
  14543  14546  14547  14548     1  0.0000000  0.7531200  3
  14543  14546  14547  14553     1  0.0000000  0.6508444  3
  14546  14543  14542  14556     1  180.0000771  0.8368000  1
  14546  14543  14542  14556     1  180.0000771  1.0460000  2
  14546  14543  14542  14556     1  0.0000000  0.7531200  3
  14546  14543  14542  14564     1  0.0000000  0.6508444  3
  14546  14547  14548  14552     1  0.0000000  0.6508444  3
  14546  14547  14548  14564     1  0.0000000  0.6508444  3
  14547  14546  14543  14555     1  0.0000000  0.6508444  3
  14548  14547  14546  14554     1  0.0000000  0.6508444  3
  14548  14564  14542  14556     1  180.0000771  0.4184000  2
  14548  14564  14542  14556     1  0.0000000  1.6024720  3
  14552  14548  14547  14553     1  0.0000000  4.9162000  2
  14552  14548  14547  14553     1  0.0000000  0.6024960  3
  14553  14547  14546  14554     1  0.0000000  4.9162000  2
  14553  14547  14546  14554     1  0.0000000  0.6024960  3
  14553  14547  14548  14564     1  0.0000000  4.9162000  2
  14553  14547  14548  14564     1  0.0000000  0.6024960  3
  14554  14546  14543  14555     1  0.0000000  4.9162000  2
  14554  14546  14543  14555     1  0.0000000  0.6024960  3
  14555  14543  14542  14556     1  0.0000000  0.6508444  3
  14555  14543  14542  14564     1  0.0000000  4.9162000  2
  14555  14543  14542  14564     1  0.0000000  0.6024960  3
  14562  14556  14542  14564     1  0.0000000  4.9162000  2
  14562  14556  14542  14564     1  0.0000000  0.6024960  3
  14565  14566  14569  14570     1  180.0000771  0.8368000  1
  14565  14566  14569  14570     1  180.0000771  1.0460000  2
  14565  14566  14569  14570     1  0.0000000  0.7531200  3
  14565  14566  14569  14577     1  0.0000000  0.6508444  3
  14565  14587  14571  14575     1  180.0000771  5.6484000  1
  14565  14587  14571  14575     1  180.0000771  3.5564000  2
  14565  14587  14571  14575     1  0.0000000  0.4184000  3
  14565  14587  14571  14570     1  180.0000771  0.4184000  2
  14565  14587  14571  14570     1  0.0000000  1.6024720  3
  14566  14569  14570  14571     1  180.0000771  0.8368000  1
  14566  14569  14570  14571     1  180.0000771  1.0460000  2
  14566  14569  14570  14571     1  0.0000000  0.7531200  3
  14566  14569  14570  14576     1  0.0000000  0.6508444  3
  14566  14565  14579  14585     1  0.0000000  0.6508444  3
  14566  14565  14587  14571     1  180.0000771  0.4184000  2
  14566  14565  14587  14571     1  0.0000000  1.6024720  3
  14569  14570  14571  14575     1  0.0000000  0.6508444  3
  14569  14570  14571  14587     1  0.0000000  0.6508444  3
  14569  14566  14565  14579     1  180.0000771  0.8368000  1
  14569  14566  14565  14579     1  180.0000771  1.0460000  2
  14569  14566  14565  14579     1  0.0000000  0.7531200  3
  14569  14566  14565  14587     1  0.0000000  0.6508444  3
  14570  14569  14566  14578     1  0.0000000  0.6508444  3
  14571  14587  14565  14579     1  180.0000771  0.4184000  2
  14571  14587  14565  14579     1  0.0000000  1.6024720  3
  14571  14570  14569  14577     1  0.0000000  0.6508444  3
  14575  14571  14570  14576     1  0.0000000  4.9162000  2
  14575  14571  14570  14576     1  0.0000000  0.6024960  3
  14576  14570  14571  14587     1  0.0000000  4.9162000  2
  14576  14570  14571  14587     1  0.0000000  0.6024960  3
  14576  14570  14569  14577     1  0.0000000  4.9162000  2
  14576  14570  14569  14577     1  0.0000000  0.6024960  3
  14577  14569  14566  14578     1  0.0000000  4.9162000  2
  14577  14569  14566  14578     1  0.0000000  0.6024960  3
  14578  14566  14565  14579     1  0.0000000  0.6508444  3
  14578  14566  14565  14587     1  0.0000000  4.9162000  2
  14578  14566  14565  14587     1  0.0000000  0.6024960  3
  14585  14579  14565  14587     1  0.0000000  4.9162000  2
  14585  14579  14565  14587     1  0.0000000  0.6024960  3
  14588  14589  14592  14593     1  180.0000771  0.8368000  1
  14588  14589  14592  14593     1  180.0000771  1.0460000  2
  14588  14589  14592  14593     1  0.0000000  0.7531200  3
  14588  14589  14592  14600     1  0.0000000  0.6508444  3
  14588  14610  14594  14593     1  180.0000771  0.4184000  2
  14588  14610  14594  14593     1  0.0000000  1.6024720  3
  14588  14610  14594  14598     1  180.0000771  5.6484000  1
  14588  14610  14594  14598     1  180.0000771  3.5564000  2
  14588  14610  14594  14598     1  0.0000000  0.4184000  3
  14589  14588  14602  14608     1  0.0000000  0.6508444  3
  14589  14588  14610  14594     1  180.0000771  0.4184000  2
  14589  14588  14610  14594     1  0.0000000  1.6024720  3
  14589  14592  14593  14594     1  180.0000771  0.8368000  1
  14589  14592  14593  14594     1  180.0000771  1.0460000  2
  14589  14592  14593  14594     1  0.0000000  0.7531200  3
  14589  14592  14593  14599     1  0.0000000  0.6508444  3
  14592  14589  14588  14602     1  180.0000771  0.8368000  1
  14592  14589  14588  14602     1  180.0000771  1.0460000  2
  14592  14589  14588  14602     1  0.0000000  0.7531200  3
  14592  14589  14588  14610     1  0.0000000  0.6508444  3
  14592  14593  14594  14598     1  0.0000000  0.6508444  3
  14592  14593  14594  14610     1  0.0000000  0.6508444  3
  14593  14592  14589  14601     1  0.0000000  0.6508444  3
  14594  14593  14592  14600     1  0.0000000  0.6508444  3
  14594  14610  14588  14602     1  180.0000771  0.4184000  2
  14594  14610  14588  14602     1  0.0000000  1.6024720  3
  14598  14594  14593  14599     1  0.0000000  4.9162000  2
  14598  14594  14593  14599     1  0.0000000  0.6024960  3
  14599  14593  14592  14600     1  0.0000000  4.9162000  2
  14599  14593  14592  14600     1  0.0000000  0.6024960  3
  14599  14593  14594  14610     1  0.0000000  4.9162000  2
  14599  14593  14594  14610     1  0.0000000  0.6024960  3
  14600  14592  14589  14601     1  0.0000000  4.9162000  2
  14600  14592  14589  14601     1  0.0000000  0.6024960  3
  14601  14589  14588  14602     1  0.0000000  0.6508444  3
  14601  14589  14588  14610     1  0.0000000  4.9162000  2
  14601  14589  14588  14610     1  0.0000000  0.6024960  3
  14608  14602  14588  14610     1  0.0000000  4.9162000  2
  14608  14602  14588  14610     1  0.0000000  0.6024960  3
  14611  14612  14615  14616     1  180.0000771  0.8368000  1
  14611  14612  14615  14616     1  180.0000771  1.0460000  2
  14611  14612  14615  14616     1  0.0000000  0.7531200  3
  14611  14612  14615  14623     1  0.0000000  0.6508444  3
  14611  14633  14617  14621     1  180.0000771  5.6484000  1
  14611  14633  14617  14621     1  180.0000771  3.5564000  2
  14611  14633  14617  14621     1  0.0000000  0.4184000  3
  14611  14633  14617  14616     1  180.0000771  0.4184000  2
  14611  14633  14617  14616     1  0.0000000  1.6024720  3
  14612  14615  14616  14617     1  180.0000771  0.8368000  1
  14612  14615  14616  14617     1  180.0000771  1.0460000  2
  14612  14615  14616  14617     1  0.0000000  0.7531200  3
  14612  14615  14616  14622     1  0.0000000  0.6508444  3
  14612  14611  14625  14631     1  0.0000000  0.6508444  3
  14612  14611  14633  14617     1  180.0000771  0.4184000  2
  14612  14611  14633  14617     1  0.0000000  1.6024720  3
  14615  14616  14617  14621     1  0.0000000  0.6508444  3
  14615  14616  14617  14633     1  0.0000000  0.6508444  3
  14615  14612  14611  14625     1  180.0000771  0.8368000  1
  14615  14612  14611  14625     1  180.0000771  1.0460000  2
  14615  14612  14611  14625     1  0.0000000  0.7531200  3
  14615  14612  14611  14633     1  0.0000000  0.6508444  3
  14616  14615  14612  14624     1  0.0000000  0.6508444  3
  14617  14633  14611  14625     1  180.0000771  0.4184000  2
  14617  14633  14611  14625     1  0.0000000  1.6024720  3
  14617  14616  14615  14623     1  0.0000000  0.6508444  3
  14621  14617  14616  14622     1  0.0000000  4.9162000  2
  14621  14617  14616  14622     1  0.0000000  0.6024960  3
  14622  14616  14617  14633     1  0.0000000  4.9162000  2
  14622  14616  14617  14633     1  0.0000000  0.6024960  3
  14622  14616  14615  14623     1  0.0000000  4.9162000  2
  14622  14616  14615  14623     1  0.0000000  0.6024960  3
  14623  14615  14612  14624     1  0.0000000  4.9162000  2
  14623  14615  14612  14624     1  0.0000000  0.6024960  3
  14624  14612  14611  14625     1  0.0000000  0.6508444  3
  14624  14612  14611  14633     1  0.0000000  4.9162000  2
  14624  14612  14611  14633     1  0.0000000  0.6024960  3
  14631  14625  14611  14633     1  0.0000000  4.9162000  2
  14631  14625  14611  14633     1  0.0000000  0.6024960  3
  14634  14635  14638  14639     1  180.0000771  0.8368000  1
  14634  14635  14638  14639     1  180.0000771  1.0460000  2
  14634  14635  14638  14639     1  0.0000000  0.7531200  3
  14634  14635  14638  14646     1  0.0000000  0.6508444  3
  14634  14656  14640  14639     1  180.0000771  0.4184000  2
  14634  14656  14640  14639     1  0.0000000  1.6024720  3
  14634  14656  14640  14644     1  180.0000771  5.6484000  1
  14634  14656  14640  14644     1  180.0000771  3.5564000  2
  14634  14656  14640  14644     1  0.0000000  0.4184000  3
  14635  14634  14648  14654     1  0.0000000  0.6508444  3
  14635  14634  14656  14640     1  180.0000771  0.4184000  2
  14635  14634  14656  14640     1  0.0000000  1.6024720  3
  14635  14638  14639  14640     1  180.0000771  0.8368000  1
  14635  14638  14639  14640     1  180.0000771  1.0460000  2
  14635  14638  14639  14640     1  0.0000000  0.7531200  3
  14635  14638  14639  14645     1  0.0000000  0.6508444  3
  14638  14635  14634  14648     1  180.0000771  0.8368000  1
  14638  14635  14634  14648     1  180.0000771  1.0460000  2
  14638  14635  14634  14648     1  0.0000000  0.7531200  3
  14638  14635  14634  14656     1  0.0000000  0.6508444  3
  14638  14639  14640  14644     1  0.0000000  0.6508444  3
  14638  14639  14640  14656     1  0.0000000  0.6508444  3
  14639  14638  14635  14647     1  0.0000000  0.6508444  3
  14640  14639  14638  14646     1  0.0000000  0.6508444  3
  14640  14656  14634  14648     1  180.0000771  0.4184000  2
  14640  14656  14634  14648     1  0.0000000  1.6024720  3
  14644  14640  14639  14645     1  0.0000000  4.9162000  2
  14644  14640  14639  14645     1  0.0000000  0.6024960  3
  14645  14639  14638  14646     1  0.0000000  4.9162000  2
  14645  14639  14638  14646     1  0.0000000  0.6024960  3
  14645  14639  14640  14656     1  0.0000000  4.9162000  2
  14645  14639  14640  14656     1  0.0000000  0.6024960  3
  14646  14638  14635  14647     1  0.0000000  4.9162000  2
  14646  14638  14635  14647     1  0.0000000  0.6024960  3
  14647  14635  14634  14648     1  0.0000000  0.6508444  3
  14647  14635  14634  14656     1  0.0000000  4.9162000  2
  14647  14635  14634  14656     1  0.0000000  0.6024960  3
  14654  14648  14634  14656     1  0.0000000  4.9162000  2
  14654  14648  14634  14656     1  0.0000000  0.6024960  3
  14657  14658  14661  14662     1  180.0000771  0.8368000  1
  14657  14658  14661  14662     1  180.0000771  1.0460000  2
  14657  14658  14661  14662     1  0.0000000  0.7531200  3
  14657  14658  14661  14669     1  0.0000000  0.6508444  3
  14657  14679  14663  14667     1  180.0000771  5.6484000  1
  14657  14679  14663  14667     1  180.0000771  3.5564000  2
  14657  14679  14663  14667     1  0.0000000  0.4184000  3
  14657  14679  14663  14662     1  180.0000771  0.4184000  2
  14657  14679  14663  14662     1  0.0000000  1.6024720  3
  14658  14661  14662  14663     1  180.0000771  0.8368000  1
  14658  14661  14662  14663     1  180.0000771  1.0460000  2
  14658  14661  14662  14663     1  0.0000000  0.7531200  3
  14658  14661  14662  14668     1  0.0000000  0.6508444  3
  14658  14657  14671  14677     1  0.0000000  0.6508444  3
  14658  14657  14679  14663     1  180.0000771  0.4184000  2
  14658  14657  14679  14663     1  0.0000000  1.6024720  3
  14661  14662  14663  14667     1  0.0000000  0.6508444  3
  14661  14662  14663  14679     1  0.0000000  0.6508444  3
  14661  14658  14657  14671     1  180.0000771  0.8368000  1
  14661  14658  14657  14671     1  180.0000771  1.0460000  2
  14661  14658  14657  14671     1  0.0000000  0.7531200  3
  14661  14658  14657  14679     1  0.0000000  0.6508444  3
  14662  14661  14658  14670     1  0.0000000  0.6508444  3
  14663  14679  14657  14671     1  180.0000771  0.4184000  2
  14663  14679  14657  14671     1  0.0000000  1.6024720  3
  14663  14662  14661  14669     1  0.0000000  0.6508444  3
  14667  14663  14662  14668     1  0.0000000  4.9162000  2
  14667  14663  14662  14668     1  0.0000000  0.6024960  3
  14668  14662  14663  14679     1  0.0000000  4.9162000  2
  14668  14662  14663  14679     1  0.0000000  0.6024960  3
  14668  14662  14661  14669     1  0.0000000  4.9162000  2
  14668  14662  14661  14669     1  0.0000000  0.6024960  3
  14669  14661  14658  14670     1  0.0000000  4.9162000  2
  14669  14661  14658  14670     1  0.0000000  0.6024960  3
  14670  14658  14657  14671     1  0.0000000  0.6508444  3
  14670  14658  14657  14679     1  0.0000000  4.9162000  2
  14670  14658  14657  14679     1  0.0000000  0.6024960  3
  14677  14671  14657  14679     1  0.0000000  4.9162000  2
  14677  14671  14657  14679     1  0.0000000  0.6024960  3
  14680  14681  14684  14685     1  180.0000771  0.8368000  1
  14680  14681  14684  14685     1  180.0000771  1.0460000  2
  14680  14681  14684  14685     1  0.0000000  0.7531200  3
  14680  14681  14684  14692     1  0.0000000  0.6508444  3
  14680  14702  14686  14685     1  180.0000771  0.4184000  2
  14680  14702  14686  14685     1  0.0000000  1.6024720  3
  14680  14702  14686  14690     1  180.0000771  5.6484000  1
  14680  14702  14686  14690     1  180.0000771  3.5564000  2
  14680  14702  14686  14690     1  0.0000000  0.4184000  3
  14681  14680  14694  14700     1  0.0000000  0.6508444  3
  14681  14680  14702  14686     1  180.0000771  0.4184000  2
  14681  14680  14702  14686     1  0.0000000  1.6024720  3
  14681  14684  14685  14686     1  180.0000771  0.8368000  1
  14681  14684  14685  14686     1  180.0000771  1.0460000  2
  14681  14684  14685  14686     1  0.0000000  0.7531200  3
  14681  14684  14685  14691     1  0.0000000  0.6508444  3
  14684  14681  14680  14694     1  180.0000771  0.8368000  1
  14684  14681  14680  14694     1  180.0000771  1.0460000  2
  14684  14681  14680  14694     1  0.0000000  0.7531200  3
  14684  14681  14680  14702     1  0.0000000  0.6508444  3
  14684  14685  14686  14690     1  0.0000000  0.6508444  3
  14684  14685  14686  14702     1  0.0000000  0.6508444  3
  14685  14684  14681  14693     1  0.0000000  0.6508444  3
  14686  14685  14684  14692     1  0.0000000  0.6508444  3
  14686  14702  14680  14694     1  180.0000771  0.4184000  2
  14686  14702  14680  14694     1  0.0000000  1.6024720  3
  14690  14686  14685  14691     1  0.0000000  4.9162000  2
  14690  14686  14685  14691     1  0.0000000  0.6024960  3
  14691  14685  14684  14692     1  0.0000000  4.9162000  2
  14691  14685  14684  14692     1  0.0000000  0.6024960  3
  14691  14685  14686  14702     1  0.0000000  4.9162000  2
  14691  14685  14686  14702     1  0.0000000  0.6024960  3
  14692  14684  14681  14693     1  0.0000000  4.9162000  2
  14692  14684  14681  14693     1  0.0000000  0.6024960  3
  14693  14681  14680  14694     1  0.0000000  0.6508444  3
  14693  14681  14680  14702     1  0.0000000  4.9162000  2
  14693  14681  14680  14702     1  0.0000000  0.6024960  3
  14700  14694  14680  14702     1  0.0000000  4.9162000  2
  14700  14694  14680  14702     1  0.0000000  0.6024960  3
  14703  14704  14707  14708     1  180.0000771  0.8368000  1
  14703  14704  14707  14708     1  180.0000771  1.0460000  2
  14703  14704  14707  14708     1  0.0000000  0.7531200  3
  14703  14704  14707  14715     1  0.0000000  0.6508444  3
  14703  14725  14709  14713     1  180.0000771  5.6484000  1
  14703  14725  14709  14713     1  180.0000771  3.5564000  2
  14703  14725  14709  14713     1  0.0000000  0.4184000  3
  14703  14725  14709  14708     1  180.0000771  0.4184000  2
  14703  14725  14709  14708     1  0.0000000  1.6024720  3
  14704  14707  14708  14709     1  180.0000771  0.8368000  1
  14704  14707  14708  14709     1  180.0000771  1.0460000  2
  14704  14707  14708  14709     1  0.0000000  0.7531200  3
  14704  14707  14708  14714     1  0.0000000  0.6508444  3
  14704  14703  14717  14723     1  0.0000000  0.6508444  3
  14704  14703  14725  14709     1  180.0000771  0.4184000  2
  14704  14703  14725  14709     1  0.0000000  1.6024720  3
  14707  14708  14709  14713     1  0.0000000  0.6508444  3
  14707  14708  14709  14725     1  0.0000000  0.6508444  3
  14707  14704  14703  14717     1  180.0000771  0.8368000  1
  14707  14704  14703  14717     1  180.0000771  1.0460000  2
  14707  14704  14703  14717     1  0.0000000  0.7531200  3
  14707  14704  14703  14725     1  0.0000000  0.6508444  3
  14708  14707  14704  14716     1  0.0000000  0.6508444  3
  14709  14725  14703  14717     1  180.0000771  0.4184000  2
  14709  14725  14703  14717     1  0.0000000  1.6024720  3
  14709  14708  14707  14715     1  0.0000000  0.6508444  3
  14713  14709  14708  14714     1  0.0000000  4.9162000  2
  14713  14709  14708  14714     1  0.0000000  0.6024960  3
  14714  14708  14709  14725     1  0.0000000  4.9162000  2
  14714  14708  14709  14725     1  0.0000000  0.6024960  3
  14714  14708  14707  14715     1  0.0000000  4.9162000  2
  14714  14708  14707  14715     1  0.0000000  0.6024960  3
  14715  14707  14704  14716     1  0.0000000  4.9162000  2
  14715  14707  14704  14716     1  0.0000000  0.6024960  3
  14716  14704  14703  14717     1  0.0000000  0.6508444  3
  14716  14704  14703  14725     1  0.0000000  4.9162000  2
  14716  14704  14703  14725     1  0.0000000  0.6024960  3
  14723  14717  14703  14725     1  0.0000000  4.9162000  2
  14723  14717  14703  14725     1  0.0000000  0.6024960  3
  14726  14727  14730  14731     1  180.0000771  0.8368000  1
  14726  14727  14730  14731     1  180.0000771  1.0460000  2
  14726  14727  14730  14731     1  0.0000000  0.7531200  3
  14726  14727  14730  14738     1  0.0000000  0.6508444  3
  14726  14748  14732  14731     1  180.0000771  0.4184000  2
  14726  14748  14732  14731     1  0.0000000  1.6024720  3
  14726  14748  14732  14736     1  180.0000771  5.6484000  1
  14726  14748  14732  14736     1  180.0000771  3.5564000  2
  14726  14748  14732  14736     1  0.0000000  0.4184000  3
  14727  14726  14740  14746     1  0.0000000  0.6508444  3
  14727  14726  14748  14732     1  180.0000771  0.4184000  2
  14727  14726  14748  14732     1  0.0000000  1.6024720  3
  14727  14730  14731  14732     1  180.0000771  0.8368000  1
  14727  14730  14731  14732     1  180.0000771  1.0460000  2
  14727  14730  14731  14732     1  0.0000000  0.7531200  3
  14727  14730  14731  14737     1  0.0000000  0.6508444  3
  14730  14727  14726  14740     1  180.0000771  0.8368000  1
  14730  14727  14726  14740     1  180.0000771  1.0460000  2
  14730  14727  14726  14740     1  0.0000000  0.7531200  3
  14730  14727  14726  14748     1  0.0000000  0.6508444  3
  14730  14731  14732  14736     1  0.0000000  0.6508444  3
  14730  14731  14732  14748     1  0.0000000  0.6508444  3
  14731  14730  14727  14739     1  0.0000000  0.6508444  3
  14732  14731  14730  14738     1  0.0000000  0.6508444  3
  14732  14748  14726  14740     1  180.0000771  0.4184000  2
  14732  14748  14726  14740     1  0.0000000  1.6024720  3
  14736  14732  14731  14737     1  0.0000000  4.9162000  2
  14736  14732  14731  14737     1  0.0000000  0.6024960  3
  14737  14731  14730  14738     1  0.0000000  4.9162000  2
  14737  14731  14730  14738     1  0.0000000  0.6024960  3
  14737  14731  14732  14748     1  0.0000000  4.9162000  2
  14737  14731  14732  14748     1  0.0000000  0.6024960  3
  14738  14730  14727  14739     1  0.0000000  4.9162000  2
  14738  14730  14727  14739     1  0.0000000  0.6024960  3
  14739  14727  14726  14740     1  0.0000000  0.6508444  3
  14739  14727  14726  14748     1  0.0000000  4.9162000  2
  14739  14727  14726  14748     1  0.0000000  0.6024960  3
  14746  14740  14726  14748     1  0.0000000  4.9162000  2
  14746  14740  14726  14748     1  0.0000000  0.6024960  3
  14749  14750  14753  14754     1  180.0000771  0.8368000  1
  14749  14750  14753  14754     1  180.0000771  1.0460000  2
  14749  14750  14753  14754     1  0.0000000  0.7531200  3
  14749  14750  14753  14761     1  0.0000000  0.6508444  3
  14749  14771  14755  14759     1  180.0000771  5.6484000  1
  14749  14771  14755  14759     1  180.0000771  3.5564000  2
  14749  14771  14755  14759     1  0.0000000  0.4184000  3
  14749  14771  14755  14754     1  180.0000771  0.4184000  2
  14749  14771  14755  14754     1  0.0000000  1.6024720  3
  14750  14753  14754  14755     1  180.0000771  0.8368000  1
  14750  14753  14754  14755     1  180.0000771  1.0460000  2
  14750  14753  14754  14755     1  0.0000000  0.7531200  3
  14750  14753  14754  14760     1  0.0000000  0.6508444  3
  14750  14749  14763  14769     1  0.0000000  0.6508444  3
  14750  14749  14771  14755     1  180.0000771  0.4184000  2
  14750  14749  14771  14755     1  0.0000000  1.6024720  3
  14753  14754  14755  14759     1  0.0000000  0.6508444  3
  14753  14754  14755  14771     1  0.0000000  0.6508444  3
  14753  14750  14749  14763     1  180.0000771  0.8368000  1
  14753  14750  14749  14763     1  180.0000771  1.0460000  2
  14753  14750  14749  14763     1  0.0000000  0.7531200  3
  14753  14750  14749  14771     1  0.0000000  0.6508444  3
  14754  14753  14750  14762     1  0.0000000  0.6508444  3
  14755  14771  14749  14763     1  180.0000771  0.4184000  2
  14755  14771  14749  14763     1  0.0000000  1.6024720  3
  14755  14754  14753  14761     1  0.0000000  0.6508444  3
  14759  14755  14754  14760     1  0.0000000  4.9162000  2
  14759  14755  14754  14760     1  0.0000000  0.6024960  3
  14760  14754  14755  14771     1  0.0000000  4.9162000  2
  14760  14754  14755  14771     1  0.0000000  0.6024960  3
  14760  14754  14753  14761     1  0.0000000  4.9162000  2
  14760  14754  14753  14761     1  0.0000000  0.6024960  3
  14761  14753  14750  14762     1  0.0000000  4.9162000  2
  14761  14753  14750  14762     1  0.0000000  0.6024960  3
  14762  14750  14749  14763     1  0.0000000  0.6508444  3
  14762  14750  14749  14771     1  0.0000000  4.9162000  2
  14762  14750  14749  14771     1  0.0000000  0.6024960  3
  14769  14763  14749  14771     1  0.0000000  4.9162000  2
  14769  14763  14749  14771     1  0.0000000  0.6024960  3
  14772  14773  14776  14777     1  180.0000771  0.8368000  1
  14772  14773  14776  14777     1  180.0000771  1.0460000  2
  14772  14773  14776  14777     1  0.0000000  0.7531200  3
  14772  14773  14776  14784     1  0.0000000  0.6508444  3
  14772  14794  14778  14777     1  180.0000771  0.4184000  2
  14772  14794  14778  14777     1  0.0000000  1.6024720  3
  14772  14794  14778  14782     1  180.0000771  5.6484000  1
  14772  14794  14778  14782     1  180.0000771  3.5564000  2
  14772  14794  14778  14782     1  0.0000000  0.4184000  3
  14773  14772  14786  14792     1  0.0000000  0.6508444  3
  14773  14772  14794  14778     1  180.0000771  0.4184000  2
  14773  14772  14794  14778     1  0.0000000  1.6024720  3
  14773  14776  14777  14778     1  180.0000771  0.8368000  1
  14773  14776  14777  14778     1  180.0000771  1.0460000  2
  14773  14776  14777  14778     1  0.0000000  0.7531200  3
  14773  14776  14777  14783     1  0.0000000  0.6508444  3
  14776  14773  14772  14786     1  180.0000771  0.8368000  1
  14776  14773  14772  14786     1  180.0000771  1.0460000  2
  14776  14773  14772  14786     1  0.0000000  0.7531200  3
  14776  14773  14772  14794     1  0.0000000  0.6508444  3
  14776  14777  14778  14782     1  0.0000000  0.6508444  3
  14776  14777  14778  14794     1  0.0000000  0.6508444  3
  14777  14776  14773  14785     1  0.0000000  0.6508444  3
  14778  14777  14776  14784     1  0.0000000  0.6508444  3
  14778  14794  14772  14786     1  180.0000771  0.4184000  2
  14778  14794  14772  14786     1  0.0000000  1.6024720  3
  14782  14778  14777  14783     1  0.0000000  4.9162000  2
  14782  14778  14777  14783     1  0.0000000  0.6024960  3
  14783  14777  14776  14784     1  0.0000000  4.9162000  2
  14783  14777  14776  14784     1  0.0000000  0.6024960  3
  14783  14777  14778  14794     1  0.0000000  4.9162000  2
  14783  14777  14778  14794     1  0.0000000  0.6024960  3
  14784  14776  14773  14785     1  0.0000000  4.9162000  2
  14784  14776  14773  14785     1  0.0000000  0.6024960  3
  14785  14773  14772  14786     1  0.0000000  0.6508444  3
  14785  14773  14772  14794     1  0.0000000  4.9162000  2
  14785  14773  14772  14794     1  0.0000000  0.6024960  3
  14792  14786  14772  14794     1  0.0000000  4.9162000  2
  14792  14786  14772  14794     1  0.0000000  0.6024960  3
  14795  14796  14799  14800     1  180.0000771  0.8368000  1
  14795  14796  14799  14800     1  180.0000771  1.0460000  2
  14795  14796  14799  14800     1  0.0000000  0.7531200  3
  14795  14796  14799  14807     1  0.0000000  0.6508444  3
  14795  14817  14801  14805     1  180.0000771  5.6484000  1
  14795  14817  14801  14805     1  180.0000771  3.5564000  2
  14795  14817  14801  14805     1  0.0000000  0.4184000  3
  14795  14817  14801  14800     1  180.0000771  0.4184000  2
  14795  14817  14801  14800     1  0.0000000  1.6024720  3
  14796  14799  14800  14801     1  180.0000771  0.8368000  1
  14796  14799  14800  14801     1  180.0000771  1.0460000  2
  14796  14799  14800  14801     1  0.0000000  0.7531200  3
  14796  14799  14800  14806     1  0.0000000  0.6508444  3
  14796  14795  14809  14815     1  0.0000000  0.6508444  3
  14796  14795  14817  14801     1  180.0000771  0.4184000  2
  14796  14795  14817  14801     1  0.0000000  1.6024720  3
  14799  14800  14801  14805     1  0.0000000  0.6508444  3
  14799  14800  14801  14817     1  0.0000000  0.6508444  3
  14799  14796  14795  14809     1  180.0000771  0.8368000  1
  14799  14796  14795  14809     1  180.0000771  1.0460000  2
  14799  14796  14795  14809     1  0.0000000  0.7531200  3
  14799  14796  14795  14817     1  0.0000000  0.6508444  3
  14800  14799  14796  14808     1  0.0000000  0.6508444  3
  14801  14817  14795  14809     1  180.0000771  0.4184000  2
  14801  14817  14795  14809     1  0.0000000  1.6024720  3
  14801  14800  14799  14807     1  0.0000000  0.6508444  3
  14805  14801  14800  14806     1  0.0000000  4.9162000  2
  14805  14801  14800  14806     1  0.0000000  0.6024960  3
  14806  14800  14801  14817     1  0.0000000  4.9162000  2
  14806  14800  14801  14817     1  0.0000000  0.6024960  3
  14806  14800  14799  14807     1  0.0000000  4.9162000  2
  14806  14800  14799  14807     1  0.0000000  0.6024960  3
  14807  14799  14796  14808     1  0.0000000  4.9162000  2
  14807  14799  14796  14808     1  0.0000000  0.6024960  3
  14808  14796  14795  14809     1  0.0000000  0.6508444  3
  14808  14796  14795  14817     1  0.0000000  4.9162000  2
  14808  14796  14795  14817     1  0.0000000  0.6024960  3
  14815  14809  14795  14817     1  0.0000000  4.9162000  2
  14815  14809  14795  14817     1  0.0000000  0.6024960  3
  14818  14819  14822  14823     1  180.0000771  0.8368000  1
  14818  14819  14822  14823     1  180.0000771  1.0460000  2
  14818  14819  14822  14823     1  0.0000000  0.7531200  3
  14818  14819  14822  14830     1  0.0000000  0.6508444  3
  14818  14840  14824  14823     1  180.0000771  0.4184000  2
  14818  14840  14824  14823     1  0.0000000  1.6024720  3
  14818  14840  14824  14828     1  180.0000771  5.6484000  1
  14818  14840  14824  14828     1  180.0000771  3.5564000  2
  14818  14840  14824  14828     1  0.0000000  0.4184000  3
  14819  14818  14832  14838     1  0.0000000  0.6508444  3
  14819  14818  14840  14824     1  180.0000771  0.4184000  2
  14819  14818  14840  14824     1  0.0000000  1.6024720  3
  14819  14822  14823  14824     1  180.0000771  0.8368000  1
  14819  14822  14823  14824     1  180.0000771  1.0460000  2
  14819  14822  14823  14824     1  0.0000000  0.7531200  3
  14819  14822  14823  14829     1  0.0000000  0.6508444  3
  14822  14819  14818  14832     1  180.0000771  0.8368000  1
  14822  14819  14818  14832     1  180.0000771  1.0460000  2
  14822  14819  14818  14832     1  0.0000000  0.7531200  3
  14822  14819  14818  14840     1  0.0000000  0.6508444  3
  14822  14823  14824  14828     1  0.0000000  0.6508444  3
  14822  14823  14824  14840     1  0.0000000  0.6508444  3
  14823  14822  14819  14831     1  0.0000000  0.6508444  3
  14824  14823  14822  14830     1  0.0000000  0.6508444  3
  14824  14840  14818  14832     1  180.0000771  0.4184000  2
  14824  14840  14818  14832     1  0.0000000  1.6024720  3
  14828  14824  14823  14829     1  0.0000000  4.9162000  2
  14828  14824  14823  14829     1  0.0000000  0.6024960  3
  14829  14823  14822  14830     1  0.0000000  4.9162000  2
  14829  14823  14822  14830     1  0.0000000  0.6024960  3
  14829  14823  14824  14840     1  0.0000000  4.9162000  2
  14829  14823  14824  14840     1  0.0000000  0.6024960  3
  14830  14822  14819  14831     1  0.0000000  4.9162000  2
  14830  14822  14819  14831     1  0.0000000  0.6024960  3
  14831  14819  14818  14832     1  0.0000000  0.6508444  3
  14831  14819  14818  14840     1  0.0000000  4.9162000  2
  14831  14819  14818  14840     1  0.0000000  0.6024960  3
  14838  14832  14818  14840     1  0.0000000  4.9162000  2
  14838  14832  14818  14840     1  0.0000000  0.6024960  3
  14841  14842  14845  14846     1  180.0000771  0.8368000  1
  14841  14842  14845  14846     1  180.0000771  1.0460000  2
  14841  14842  14845  14846     1  0.0000000  0.7531200  3
  14841  14842  14845  14853     1  0.0000000  0.6508444  3
  14841  14863  14847  14851     1  180.0000771  5.6484000  1
  14841  14863  14847  14851     1  180.0000771  3.5564000  2
  14841  14863  14847  14851     1  0.0000000  0.4184000  3
  14841  14863  14847  14846     1  180.0000771  0.4184000  2
  14841  14863  14847  14846     1  0.0000000  1.6024720  3
  14842  14845  14846  14847     1  180.0000771  0.8368000  1
  14842  14845  14846  14847     1  180.0000771  1.0460000  2
  14842  14845  14846  14847     1  0.0000000  0.7531200  3
  14842  14845  14846  14852     1  0.0000000  0.6508444  3
  14842  14841  14855  14861     1  0.0000000  0.6508444  3
  14842  14841  14863  14847     1  180.0000771  0.4184000  2
  14842  14841  14863  14847     1  0.0000000  1.6024720  3
  14845  14846  14847  14851     1  0.0000000  0.6508444  3
  14845  14846  14847  14863     1  0.0000000  0.6508444  3
  14845  14842  14841  14855     1  180.0000771  0.8368000  1
  14845  14842  14841  14855     1  180.0000771  1.0460000  2
  14845  14842  14841  14855     1  0.0000000  0.7531200  3
  14845  14842  14841  14863     1  0.0000000  0.6508444  3
  14846  14845  14842  14854     1  0.0000000  0.6508444  3
  14847  14863  14841  14855     1  180.0000771  0.4184000  2
  14847  14863  14841  14855     1  0.0000000  1.6024720  3
  14847  14846  14845  14853     1  0.0000000  0.6508444  3
  14851  14847  14846  14852     1  0.0000000  4.9162000  2
  14851  14847  14846  14852     1  0.0000000  0.6024960  3
  14852  14846  14847  14863     1  0.0000000  4.9162000  2
  14852  14846  14847  14863     1  0.0000000  0.6024960  3
  14852  14846  14845  14853     1  0.0000000  4.9162000  2
  14852  14846  14845  14853     1  0.0000000  0.6024960  3
  14853  14845  14842  14854     1  0.0000000  4.9162000  2
  14853  14845  14842  14854     1  0.0000000  0.6024960  3
  14854  14842  14841  14855     1  0.0000000  0.6508444  3
  14854  14842  14841  14863     1  0.0000000  4.9162000  2
  14854  14842  14841  14863     1  0.0000000  0.6024960  3
  14861  14855  14841  14863     1  0.0000000  4.9162000  2
  14861  14855  14841  14863     1  0.0000000  0.6024960  3
  14864  14865  14868  14869     1  180.0000771  0.8368000  1
  14864  14865  14868  14869     1  180.0000771  1.0460000  2
  14864  14865  14868  14869     1  0.0000000  0.7531200  3
  14864  14865  14868  14876     1  0.0000000  0.6508444  3
  14864  14886  14870  14869     1  180.0000771  0.4184000  2
  14864  14886  14870  14869     1  0.0000000  1.6024720  3
  14864  14886  14870  14874     1  180.0000771  5.6484000  1
  14864  14886  14870  14874     1  180.0000771  3.5564000  2
  14864  14886  14870  14874     1  0.0000000  0.4184000  3
  14865  14864  14878  14884     1  0.0000000  0.6508444  3
  14865  14864  14886  14870     1  180.0000771  0.4184000  2
  14865  14864  14886  14870     1  0.0000000  1.6024720  3
  14865  14868  14869  14870     1  180.0000771  0.8368000  1
  14865  14868  14869  14870     1  180.0000771  1.0460000  2
  14865  14868  14869  14870     1  0.0000000  0.7531200  3
  14865  14868  14869  14875     1  0.0000000  0.6508444  3
  14868  14865  14864  14878     1  180.0000771  0.8368000  1
  14868  14865  14864  14878     1  180.0000771  1.0460000  2
  14868  14865  14864  14878     1  0.0000000  0.7531200  3
  14868  14865  14864  14886     1  0.0000000  0.6508444  3
  14868  14869  14870  14874     1  0.0000000  0.6508444  3
  14868  14869  14870  14886     1  0.0000000  0.6508444  3
  14869  14868  14865  14877     1  0.0000000  0.6508444  3
  14870  14869  14868  14876     1  0.0000000  0.6508444  3
  14870  14886  14864  14878     1  180.0000771  0.4184000  2
  14870  14886  14864  14878     1  0.0000000  1.6024720  3
  14874  14870  14869  14875     1  0.0000000  4.9162000  2
  14874  14870  14869  14875     1  0.0000000  0.6024960  3
  14875  14869  14868  14876     1  0.0000000  4.9162000  2
  14875  14869  14868  14876     1  0.0000000  0.6024960  3
  14875  14869  14870  14886     1  0.0000000  4.9162000  2
  14875  14869  14870  14886     1  0.0000000  0.6024960  3
  14876  14868  14865  14877     1  0.0000000  4.9162000  2
  14876  14868  14865  14877     1  0.0000000  0.6024960  3
  14877  14865  14864  14878     1  0.0000000  0.6508444  3
  14877  14865  14864  14886     1  0.0000000  4.9162000  2
  14877  14865  14864  14886     1  0.0000000  0.6024960  3
  14884  14878  14864  14886     1  0.0000000  4.9162000  2
  14884  14878  14864  14886     1  0.0000000  0.6024960  3
  14887  14888  14891  14892     1  180.0000771  0.8368000  1
  14887  14888  14891  14892     1  180.0000771  1.0460000  2
  14887  14888  14891  14892     1  0.0000000  0.7531200  3
  14887  14888  14891  14899     1  0.0000000  0.6508444  3
  14887  14909  14893  14897     1  180.0000771  5.6484000  1
  14887  14909  14893  14897     1  180.0000771  3.5564000  2
  14887  14909  14893  14897     1  0.0000000  0.4184000  3
  14887  14909  14893  14892     1  180.0000771  0.4184000  2
  14887  14909  14893  14892     1  0.0000000  1.6024720  3
  14888  14891  14892  14893     1  180.0000771  0.8368000  1
  14888  14891  14892  14893     1  180.0000771  1.0460000  2
  14888  14891  14892  14893     1  0.0000000  0.7531200  3
  14888  14891  14892  14898     1  0.0000000  0.6508444  3
  14888  14887  14901  14907     1  0.0000000  0.6508444  3
  14888  14887  14909  14893     1  180.0000771  0.4184000  2
  14888  14887  14909  14893     1  0.0000000  1.6024720  3
  14891  14892  14893  14897     1  0.0000000  0.6508444  3
  14891  14892  14893  14909     1  0.0000000  0.6508444  3
  14891  14888  14887  14901     1  180.0000771  0.8368000  1
  14891  14888  14887  14901     1  180.0000771  1.0460000  2
  14891  14888  14887  14901     1  0.0000000  0.7531200  3
  14891  14888  14887  14909     1  0.0000000  0.6508444  3
  14892  14891  14888  14900     1  0.0000000  0.6508444  3
  14893  14909  14887  14901     1  180.0000771  0.4184000  2
  14893  14909  14887  14901     1  0.0000000  1.6024720  3
  14893  14892  14891  14899     1  0.0000000  0.6508444  3
  14897  14893  14892  14898     1  0.0000000  4.9162000  2
  14897  14893  14892  14898     1  0.0000000  0.6024960  3
  14898  14892  14893  14909     1  0.0000000  4.9162000  2
  14898  14892  14893  14909     1  0.0000000  0.6024960  3
  14898  14892  14891  14899     1  0.0000000  4.9162000  2
  14898  14892  14891  14899     1  0.0000000  0.6024960  3
  14899  14891  14888  14900     1  0.0000000  4.9162000  2
  14899  14891  14888  14900     1  0.0000000  0.6024960  3
  14900  14888  14887  14901     1  0.0000000  0.6508444  3
  14900  14888  14887  14909     1  0.0000000  4.9162000  2
  14900  14888  14887  14909     1  0.0000000  0.6024960  3
  14907  14901  14887  14909     1  0.0000000  4.9162000  2
  14907  14901  14887  14909     1  0.0000000  0.6024960  3
  14910  14911  14914  14915     1  180.0000771  0.8368000  1
  14910  14911  14914  14915     1  180.0000771  1.0460000  2
  14910  14911  14914  14915     1  0.0000000  0.7531200  3
  14910  14911  14914  14922     1  0.0000000  0.6508444  3
  14910  14932  14916  14915     1  180.0000771  0.4184000  2
  14910  14932  14916  14915     1  0.0000000  1.6024720  3
  14910  14932  14916  14920     1  180.0000771  5.6484000  1
  14910  14932  14916  14920     1  180.0000771  3.5564000  2
  14910  14932  14916  14920     1  0.0000000  0.4184000  3
  14911  14910  14924  14930     1  0.0000000  0.6508444  3
  14911  14910  14932  14916     1  180.0000771  0.4184000  2
  14911  14910  14932  14916     1  0.0000000  1.6024720  3
  14911  14914  14915  14916     1  180.0000771  0.8368000  1
  14911  14914  14915  14916     1  180.0000771  1.0460000  2
  14911  14914  14915  14916     1  0.0000000  0.7531200  3
  14911  14914  14915  14921     1  0.0000000  0.6508444  3
  14914  14911  14910  14924     1  180.0000771  0.8368000  1
  14914  14911  14910  14924     1  180.0000771  1.0460000  2
  14914  14911  14910  14924     1  0.0000000  0.7531200  3
  14914  14911  14910  14932     1  0.0000000  0.6508444  3
  14914  14915  14916  14920     1  0.0000000  0.6508444  3
  14914  14915  14916  14932     1  0.0000000  0.6508444  3
  14915  14914  14911  14923     1  0.0000000  0.6508444  3
  14916  14915  14914  14922     1  0.0000000  0.6508444  3
  14916  14932  14910  14924     1  180.0000771  0.4184000  2
  14916  14932  14910  14924     1  0.0000000  1.6024720  3
  14920  14916  14915  14921     1  0.0000000  4.9162000  2
  14920  14916  14915  14921     1  0.0000000  0.6024960  3
  14921  14915  14914  14922     1  0.0000000  4.9162000  2
  14921  14915  14914  14922     1  0.0000000  0.6024960  3
  14921  14915  14916  14932     1  0.0000000  4.9162000  2
  14921  14915  14916  14932     1  0.0000000  0.6024960  3
  14922  14914  14911  14923     1  0.0000000  4.9162000  2
  14922  14914  14911  14923     1  0.0000000  0.6024960  3
  14923  14911  14910  14924     1  0.0000000  0.6508444  3
  14923  14911  14910  14932     1  0.0000000  4.9162000  2
  14923  14911  14910  14932     1  0.0000000  0.6024960  3
  14930  14924  14910  14932     1  0.0000000  4.9162000  2
  14930  14924  14910  14932     1  0.0000000  0.6024960  3
  14933  14934  14937  14938     1  180.0000771  0.8368000  1
  14933  14934  14937  14938     1  180.0000771  1.0460000  2
  14933  14934  14937  14938     1  0.0000000  0.7531200  3
  14933  14934  14937  14945     1  0.0000000  0.6508444  3
  14933  14955  14939  14943     1  180.0000771  5.6484000  1
  14933  14955  14939  14943     1  180.0000771  3.5564000  2
  14933  14955  14939  14943     1  0.0000000  0.4184000  3
  14933  14955  14939  14938     1  180.0000771  0.4184000  2
  14933  14955  14939  14938     1  0.0000000  1.6024720  3
  14934  14937  14938  14939     1  180.0000771  0.8368000  1
  14934  14937  14938  14939     1  180.0000771  1.0460000  2
  14934  14937  14938  14939     1  0.0000000  0.7531200  3
  14934  14937  14938  14944     1  0.0000000  0.6508444  3
  14934  14933  14947  14953     1  0.0000000  0.6508444  3
  14934  14933  14955  14939     1  180.0000771  0.4184000  2
  14934  14933  14955  14939     1  0.0000000  1.6024720  3
  14937  14938  14939  14943     1  0.0000000  0.6508444  3
  14937  14938  14939  14955     1  0.0000000  0.6508444  3
  14937  14934  14933  14947     1  180.0000771  0.8368000  1
  14937  14934  14933  14947     1  180.0000771  1.0460000  2
  14937  14934  14933  14947     1  0.0000000  0.7531200  3
  14937  14934  14933  14955     1  0.0000000  0.6508444  3
  14938  14937  14934  14946     1  0.0000000  0.6508444  3
  14939  14955  14933  14947     1  180.0000771  0.4184000  2
  14939  14955  14933  14947     1  0.0000000  1.6024720  3
  14939  14938  14937  14945     1  0.0000000  0.6508444  3
  14943  14939  14938  14944     1  0.0000000  4.9162000  2
  14943  14939  14938  14944     1  0.0000000  0.6024960  3
  14944  14938  14939  14955     1  0.0000000  4.9162000  2
  14944  14938  14939  14955     1  0.0000000  0.6024960  3
  14944  14938  14937  14945     1  0.0000000  4.9162000  2
  14944  14938  14937  14945     1  0.0000000  0.6024960  3
  14945  14937  14934  14946     1  0.0000000  4.9162000  2
  14945  14937  14934  14946     1  0.0000000  0.6024960  3
  14946  14934  14933  14947     1  0.0000000  0.6508444  3
  14946  14934  14933  14955     1  0.0000000  4.9162000  2
  14946  14934  14933  14955     1  0.0000000  0.6024960  3
  14953  14947  14933  14955     1  0.0000000  4.9162000  2
  14953  14947  14933  14955     1  0.0000000  0.6024960  3
  14956  14957  14960  14961     1  180.0000771  0.8368000  1
  14956  14957  14960  14961     1  180.0000771  1.0460000  2
  14956  14957  14960  14961     1  0.0000000  0.7531200  3
  14956  14957  14960  14968     1  0.0000000  0.6508444  3
  14956  14978  14962  14961     1  180.0000771  0.4184000  2
  14956  14978  14962  14961     1  0.0000000  1.6024720  3
  14956  14978  14962  14966     1  180.0000771  5.6484000  1
  14956  14978  14962  14966     1  180.0000771  3.5564000  2
  14956  14978  14962  14966     1  0.0000000  0.4184000  3
  14957  14956  14970  14976     1  0.0000000  0.6508444  3
  14957  14956  14978  14962     1  180.0000771  0.4184000  2
  14957  14956  14978  14962     1  0.0000000  1.6024720  3
  14957  14960  14961  14962     1  180.0000771  0.8368000  1
  14957  14960  14961  14962     1  180.0000771  1.0460000  2
  14957  14960  14961  14962     1  0.0000000  0.7531200  3
  14957  14960  14961  14967     1  0.0000000  0.6508444  3
  14960  14957  14956  14970     1  180.0000771  0.8368000  1
  14960  14957  14956  14970     1  180.0000771  1.0460000  2
  14960  14957  14956  14970     1  0.0000000  0.7531200  3
  14960  14957  14956  14978     1  0.0000000  0.6508444  3
  14960  14961  14962  14966     1  0.0000000  0.6508444  3
  14960  14961  14962  14978     1  0.0000000  0.6508444  3
  14961  14960  14957  14969     1  0.0000000  0.6508444  3
  14962  14961  14960  14968     1  0.0000000  0.6508444  3
  14962  14978  14956  14970     1  180.0000771  0.4184000  2
  14962  14978  14956  14970     1  0.0000000  1.6024720  3
  14966  14962  14961  14967     1  0.0000000  4.9162000  2
  14966  14962  14961  14967     1  0.0000000  0.6024960  3
  14967  14961  14960  14968     1  0.0000000  4.9162000  2
  14967  14961  14960  14968     1  0.0000000  0.6024960  3
  14967  14961  14962  14978     1  0.0000000  4.9162000  2
  14967  14961  14962  14978     1  0.0000000  0.6024960  3
  14968  14960  14957  14969     1  0.0000000  4.9162000  2
  14968  14960  14957  14969     1  0.0000000  0.6024960  3
  14969  14957  14956  14970     1  0.0000000  0.6508444  3
  14969  14957  14956  14978     1  0.0000000  4.9162000  2
  14969  14957  14956  14978     1  0.0000000  0.6024960  3
  14976  14970  14956  14978     1  0.0000000  4.9162000  2
  14976  14970  14956  14978     1  0.0000000  0.6024960  3
  14979  14980  14983  14984     1  180.0000771  0.8368000  1
  14979  14980  14983  14984     1  180.0000771  1.0460000  2
  14979  14980  14983  14984     1  0.0000000  0.7531200  3
  14979  14980  14983  14991     1  0.0000000  0.6508444  3
  14979  15001  14985  14989     1  180.0000771  5.6484000  1
  14979  15001  14985  14989     1  180.0000771  3.5564000  2
  14979  15001  14985  14989     1  0.0000000  0.4184000  3
  14979  15001  14985  14984     1  180.0000771  0.4184000  2
  14979  15001  14985  14984     1  0.0000000  1.6024720  3
  14980  14983  14984  14985     1  180.0000771  0.8368000  1
  14980  14983  14984  14985     1  180.0000771  1.0460000  2
  14980  14983  14984  14985     1  0.0000000  0.7531200  3
  14980  14983  14984  14990     1  0.0000000  0.6508444  3
  14980  14979  14993  14999     1  0.0000000  0.6508444  3
  14980  14979  15001  14985     1  180.0000771  0.4184000  2
  14980  14979  15001  14985     1  0.0000000  1.6024720  3
  14983  14984  14985  14989     1  0.0000000  0.6508444  3
  14983  14984  14985  15001     1  0.0000000  0.6508444  3
  14983  14980  14979  14993     1  180.0000771  0.8368000  1
  14983  14980  14979  14993     1  180.0000771  1.0460000  2
  14983  14980  14979  14993     1  0.0000000  0.7531200  3
  14983  14980  14979  15001     1  0.0000000  0.6508444  3
  14984  14983  14980  14992     1  0.0000000  0.6508444  3
  14985  15001  14979  14993     1  180.0000771  0.4184000  2
  14985  15001  14979  14993     1  0.0000000  1.6024720  3
  14985  14984  14983  14991     1  0.0000000  0.6508444  3
  14989  14985  14984  14990     1  0.0000000  4.9162000  2
  14989  14985  14984  14990     1  0.0000000  0.6024960  3
  14990  14984  14985  15001     1  0.0000000  4.9162000  2
  14990  14984  14985  15001     1  0.0000000  0.6024960  3
  14990  14984  14983  14991     1  0.0000000  4.9162000  2
  14990  14984  14983  14991     1  0.0000000  0.6024960  3
  14991  14983  14980  14992     1  0.0000000  4.9162000  2
  14991  14983  14980  14992     1  0.0000000  0.6024960  3
  14992  14980  14979  14993     1  0.0000000  0.6508444  3
  14992  14980  14979  15001     1  0.0000000  4.9162000  2
  14992  14980  14979  15001     1  0.0000000  0.6024960  3
  14999  14993  14979  15001     1  0.0000000  4.9162000  2
  14999  14993  14979  15001     1  0.0000000  0.6024960  3
  15002  15003  15006  15007     1  180.0000771  0.8368000  1
  15002  15003  15006  15007     1  180.0000771  1.0460000  2
  15002  15003  15006  15007     1  0.0000000  0.7531200  3
  15002  15003  15006  15014     1  0.0000000  0.6508444  3
  15002  15024  15008  15007     1  180.0000771  0.4184000  2
  15002  15024  15008  15007     1  0.0000000  1.6024720  3
  15002  15024  15008  15012     1  180.0000771  5.6484000  1
  15002  15024  15008  15012     1  180.0000771  3.5564000  2
  15002  15024  15008  15012     1  0.0000000  0.4184000  3
  15003  15002  15016  15022     1  0.0000000  0.6508444  3
  15003  15002  15024  15008     1  180.0000771  0.4184000  2
  15003  15002  15024  15008     1  0.0000000  1.6024720  3
  15003  15006  15007  15008     1  180.0000771  0.8368000  1
  15003  15006  15007  15008     1  180.0000771  1.0460000  2
  15003  15006  15007  15008     1  0.0000000  0.7531200  3
  15003  15006  15007  15013     1  0.0000000  0.6508444  3
  15006  15003  15002  15016     1  180.0000771  0.8368000  1
  15006  15003  15002  15016     1  180.0000771  1.0460000  2
  15006  15003  15002  15016     1  0.0000000  0.7531200  3
  15006  15003  15002  15024     1  0.0000000  0.6508444  3
  15006  15007  15008  15012     1  0.0000000  0.6508444  3
  15006  15007  15008  15024     1  0.0000000  0.6508444  3
  15007  15006  15003  15015     1  0.0000000  0.6508444  3
  15008  15007  15006  15014     1  0.0000000  0.6508444  3
  15008  15024  15002  15016     1  180.0000771  0.4184000  2
  15008  15024  15002  15016     1  0.0000000  1.6024720  3
  15012  15008  15007  15013     1  0.0000000  4.9162000  2
  15012  15008  15007  15013     1  0.0000000  0.6024960  3
  15013  15007  15006  15014     1  0.0000000  4.9162000  2
  15013  15007  15006  15014     1  0.0000000  0.6024960  3
  15013  15007  15008  15024     1  0.0000000  4.9162000  2
  15013  15007  15008  15024     1  0.0000000  0.6024960  3
  15014  15006  15003  15015     1  0.0000000  4.9162000  2
  15014  15006  15003  15015     1  0.0000000  0.6024960  3
  15015  15003  15002  15016     1  0.0000000  0.6508444  3
  15015  15003  15002  15024     1  0.0000000  4.9162000  2
  15015  15003  15002  15024     1  0.0000000  0.6024960  3
  15022  15016  15002  15024     1  0.0000000  4.9162000  2
  15022  15016  15002  15024     1  0.0000000  0.6024960  3
  15025  15026  15029  15030     1  180.0000771  0.8368000  1
  15025  15026  15029  15030     1  180.0000771  1.0460000  2
  15025  15026  15029  15030     1  0.0000000  0.7531200  3
  15025  15026  15029  15037     1  0.0000000  0.6508444  3
  15025  15047  15031  15035     1  180.0000771  5.6484000  1
  15025  15047  15031  15035     1  180.0000771  3.5564000  2
  15025  15047  15031  15035     1  0.0000000  0.4184000  3
  15025  15047  15031  15030     1  180.0000771  0.4184000  2
  15025  15047  15031  15030     1  0.0000000  1.6024720  3
  15026  15029  15030  15031     1  180.0000771  0.8368000  1
  15026  15029  15030  15031     1  180.0000771  1.0460000  2
  15026  15029  15030  15031     1  0.0000000  0.7531200  3
  15026  15029  15030  15036     1  0.0000000  0.6508444  3
  15026  15025  15039  15045     1  0.0000000  0.6508444  3
  15026  15025  15047  15031     1  180.0000771  0.4184000  2
  15026  15025  15047  15031     1  0.0000000  1.6024720  3
  15029  15030  15031  15035     1  0.0000000  0.6508444  3
  15029  15030  15031  15047     1  0.0000000  0.6508444  3
  15029  15026  15025  15039     1  180.0000771  0.8368000  1
  15029  15026  15025  15039     1  180.0000771  1.0460000  2
  15029  15026  15025  15039     1  0.0000000  0.7531200  3
  15029  15026  15025  15047     1  0.0000000  0.6508444  3
  15030  15029  15026  15038     1  0.0000000  0.6508444  3
  15031  15047  15025  15039     1  180.0000771  0.4184000  2
  15031  15047  15025  15039     1  0.0000000  1.6024720  3
  15031  15030  15029  15037     1  0.0000000  0.6508444  3
  15035  15031  15030  15036     1  0.0000000  4.9162000  2
  15035  15031  15030  15036     1  0.0000000  0.6024960  3
  15036  15030  15031  15047     1  0.0000000  4.9162000  2
  15036  15030  15031  15047     1  0.0000000  0.6024960  3
  15036  15030  15029  15037     1  0.0000000  4.9162000  2
  15036  15030  15029  15037     1  0.0000000  0.6024960  3
  15037  15029  15026  15038     1  0.0000000  4.9162000  2
  15037  15029  15026  15038     1  0.0000000  0.6024960  3
  15038  15026  15025  15039     1  0.0000000  0.6508444  3
  15038  15026  15025  15047     1  0.0000000  4.9162000  2
  15038  15026  15025  15047     1  0.0000000  0.6024960  3
  15045  15039  15025  15047     1  0.0000000  4.9162000  2
  15045  15039  15025  15047     1  0.0000000  0.6024960  3
  15048  15049  15052  15053     1  180.0000771  0.8368000  1
  15048  15049  15052  15053     1  180.0000771  1.0460000  2
  15048  15049  15052  15053     1  0.0000000  0.7531200  3
  15048  15049  15052  15060     1  0.0000000  0.6508444  3
  15048  15070  15054  15053     1  180.0000771  0.4184000  2
  15048  15070  15054  15053     1  0.0000000  1.6024720  3
  15048  15070  15054  15058     1  180.0000771  5.6484000  1
  15048  15070  15054  15058     1  180.0000771  3.5564000  2
  15048  15070  15054  15058     1  0.0000000  0.4184000  3
  15049  15048  15062  15068     1  0.0000000  0.6508444  3
  15049  15048  15070  15054     1  180.0000771  0.4184000  2
  15049  15048  15070  15054     1  0.0000000  1.6024720  3
  15049  15052  15053  15054     1  180.0000771  0.8368000  1
  15049  15052  15053  15054     1  180.0000771  1.0460000  2
  15049  15052  15053  15054     1  0.0000000  0.7531200  3
  15049  15052  15053  15059     1  0.0000000  0.6508444  3
  15052  15049  15048  15062     1  180.0000771  0.8368000  1
  15052  15049  15048  15062     1  180.0000771  1.0460000  2
  15052  15049  15048  15062     1  0.0000000  0.7531200  3
  15052  15049  15048  15070     1  0.0000000  0.6508444  3
  15052  15053  15054  15058     1  0.0000000  0.6508444  3
  15052  15053  15054  15070     1  0.0000000  0.6508444  3
  15053  15052  15049  15061     1  0.0000000  0.6508444  3
  15054  15053  15052  15060     1  0.0000000  0.6508444  3
  15054  15070  15048  15062     1  180.0000771  0.4184000  2
  15054  15070  15048  15062     1  0.0000000  1.6024720  3
  15058  15054  15053  15059     1  0.0000000  4.9162000  2
  15058  15054  15053  15059     1  0.0000000  0.6024960  3
  15059  15053  15052  15060     1  0.0000000  4.9162000  2
  15059  15053  15052  15060     1  0.0000000  0.6024960  3
  15059  15053  15054  15070     1  0.0000000  4.9162000  2
  15059  15053  15054  15070     1  0.0000000  0.6024960  3
  15060  15052  15049  15061     1  0.0000000  4.9162000  2
  15060  15052  15049  15061     1  0.0000000  0.6024960  3
  15061  15049  15048  15062     1  0.0000000  0.6508444  3
  15061  15049  15048  15070     1  0.0000000  4.9162000  2
  15061  15049  15048  15070     1  0.0000000  0.6024960  3
  15068  15062  15048  15070     1  0.0000000  4.9162000  2
  15068  15062  15048  15070     1  0.0000000  0.6024960  3
  15071  15072  15075  15076     1  180.0000771  0.8368000  1
  15071  15072  15075  15076     1  180.0000771  1.0460000  2
  15071  15072  15075  15076     1  0.0000000  0.7531200  3
  15071  15072  15075  15083     1  0.0000000  0.6508444  3
  15071  15093  15077  15081     1  180.0000771  5.6484000  1
  15071  15093  15077  15081     1  180.0000771  3.5564000  2
  15071  15093  15077  15081     1  0.0000000  0.4184000  3
  15071  15093  15077  15076     1  180.0000771  0.4184000  2
  15071  15093  15077  15076     1  0.0000000  1.6024720  3
  15072  15075  15076  15077     1  180.0000771  0.8368000  1
  15072  15075  15076  15077     1  180.0000771  1.0460000  2
  15072  15075  15076  15077     1  0.0000000  0.7531200  3
  15072  15075  15076  15082     1  0.0000000  0.6508444  3
  15072  15071  15085  15091     1  0.0000000  0.6508444  3
  15072  15071  15093  15077     1  180.0000771  0.4184000  2
  15072  15071  15093  15077     1  0.0000000  1.6024720  3
  15075  15076  15077  15081     1  0.0000000  0.6508444  3
  15075  15076  15077  15093     1  0.0000000  0.6508444  3
  15075  15072  15071  15085     1  180.0000771  0.8368000  1
  15075  15072  15071  15085     1  180.0000771  1.0460000  2
  15075  15072  15071  15085     1  0.0000000  0.7531200  3
  15075  15072  15071  15093     1  0.0000000  0.6508444  3
  15076  15075  15072  15084     1  0.0000000  0.6508444  3
  15077  15093  15071  15085     1  180.0000771  0.4184000  2
  15077  15093  15071  15085     1  0.0000000  1.6024720  3
  15077  15076  15075  15083     1  0.0000000  0.6508444  3
  15081  15077  15076  15082     1  0.0000000  4.9162000  2
  15081  15077  15076  15082     1  0.0000000  0.6024960  3
  15082  15076  15077  15093     1  0.0000000  4.9162000  2
  15082  15076  15077  15093     1  0.0000000  0.6024960  3
  15082  15076  15075  15083     1  0.0000000  4.9162000  2
  15082  15076  15075  15083     1  0.0000000  0.6024960  3
  15083  15075  15072  15084     1  0.0000000  4.9162000  2
  15083  15075  15072  15084     1  0.0000000  0.6024960  3
  15084  15072  15071  15085     1  0.0000000  0.6508444  3
  15084  15072  15071  15093     1  0.0000000  4.9162000  2
  15084  15072  15071  15093     1  0.0000000  0.6024960  3
  15091  15085  15071  15093     1  0.0000000  4.9162000  2
  15091  15085  15071  15093     1  0.0000000  0.6024960  3
  15094  15095  15098  15099     1  180.0000771  0.8368000  1
  15094  15095  15098  15099     1  180.0000771  1.0460000  2
  15094  15095  15098  15099     1  0.0000000  0.7531200  3
  15094  15095  15098  15106     1  0.0000000  0.6508444  3
  15094  15116  15100  15099     1  180.0000771  0.4184000  2
  15094  15116  15100  15099     1  0.0000000  1.6024720  3
  15094  15116  15100  15104     1  180.0000771  5.6484000  1
  15094  15116  15100  15104     1  180.0000771  3.5564000  2
  15094  15116  15100  15104     1  0.0000000  0.4184000  3
  15095  15094  15108  15114     1  0.0000000  0.6508444  3
  15095  15094  15116  15100     1  180.0000771  0.4184000  2
  15095  15094  15116  15100     1  0.0000000  1.6024720  3
  15095  15098  15099  15100     1  180.0000771  0.8368000  1
  15095  15098  15099  15100     1  180.0000771  1.0460000  2
  15095  15098  15099  15100     1  0.0000000  0.7531200  3
  15095  15098  15099  15105     1  0.0000000  0.6508444  3
  15098  15095  15094  15108     1  180.0000771  0.8368000  1
  15098  15095  15094  15108     1  180.0000771  1.0460000  2
  15098  15095  15094  15108     1  0.0000000  0.7531200  3
  15098  15095  15094  15116     1  0.0000000  0.6508444  3
  15098  15099  15100  15104     1  0.0000000  0.6508444  3
  15098  15099  15100  15116     1  0.0000000  0.6508444  3
  15099  15098  15095  15107     1  0.0000000  0.6508444  3
  15100  15099  15098  15106     1  0.0000000  0.6508444  3
  15100  15116  15094  15108     1  180.0000771  0.4184000  2
  15100  15116  15094  15108     1  0.0000000  1.6024720  3
  15104  15100  15099  15105     1  0.0000000  4.9162000  2
  15104  15100  15099  15105     1  0.0000000  0.6024960  3
  15105  15099  15098  15106     1  0.0000000  4.9162000  2
  15105  15099  15098  15106     1  0.0000000  0.6024960  3
  15105  15099  15100  15116     1  0.0000000  4.9162000  2
  15105  15099  15100  15116     1  0.0000000  0.6024960  3
  15106  15098  15095  15107     1  0.0000000  4.9162000  2
  15106  15098  15095  15107     1  0.0000000  0.6024960  3
  15107  15095  15094  15108     1  0.0000000  0.6508444  3
  15107  15095  15094  15116     1  0.0000000  4.9162000  2
  15107  15095  15094  15116     1  0.0000000  0.6024960  3
  15114  15108  15094  15116     1  0.0000000  4.9162000  2
  15114  15108  15094  15116     1  0.0000000  0.6024960  3
  15117  15118  15121  15122     1  180.0000771  0.8368000  1
  15117  15118  15121  15122     1  180.0000771  1.0460000  2
  15117  15118  15121  15122     1  0.0000000  0.7531200  3
  15117  15118  15121  15129     1  0.0000000  0.6508444  3
  15117  15139  15123  15127     1  180.0000771  5.6484000  1
  15117  15139  15123  15127     1  180.0000771  3.5564000  2
  15117  15139  15123  15127     1  0.0000000  0.4184000  3
  15117  15139  15123  15122     1  180.0000771  0.4184000  2
  15117  15139  15123  15122     1  0.0000000  1.6024720  3
  15118  15121  15122  15123     1  180.0000771  0.8368000  1
  15118  15121  15122  15123     1  180.0000771  1.0460000  2
  15118  15121  15122  15123     1  0.0000000  0.7531200  3
  15118  15121  15122  15128     1  0.0000000  0.6508444  3
  15118  15117  15131  15137     1  0.0000000  0.6508444  3
  15118  15117  15139  15123     1  180.0000771  0.4184000  2
  15118  15117  15139  15123     1  0.0000000  1.6024720  3
  15121  15122  15123  15127     1  0.0000000  0.6508444  3
  15121  15122  15123  15139     1  0.0000000  0.6508444  3
  15121  15118  15117  15131     1  180.0000771  0.8368000  1
  15121  15118  15117  15131     1  180.0000771  1.0460000  2
  15121  15118  15117  15131     1  0.0000000  0.7531200  3
  15121  15118  15117  15139     1  0.0000000  0.6508444  3
  15122  15121  15118  15130     1  0.0000000  0.6508444  3
  15123  15139  15117  15131     1  180.0000771  0.4184000  2
  15123  15139  15117  15131     1  0.0000000  1.6024720  3
  15123  15122  15121  15129     1  0.0000000  0.6508444  3
  15127  15123  15122  15128     1  0.0000000  4.9162000  2
  15127  15123  15122  15128     1  0.0000000  0.6024960  3
  15128  15122  15123  15139     1  0.0000000  4.9162000  2
  15128  15122  15123  15139     1  0.0000000  0.6024960  3
  15128  15122  15121  15129     1  0.0000000  4.9162000  2
  15128  15122  15121  15129     1  0.0000000  0.6024960  3
  15129  15121  15118  15130     1  0.0000000  4.9162000  2
  15129  15121  15118  15130     1  0.0000000  0.6024960  3
  15130  15118  15117  15131     1  0.0000000  0.6508444  3
  15130  15118  15117  15139     1  0.0000000  4.9162000  2
  15130  15118  15117  15139     1  0.0000000  0.6024960  3
  15137  15131  15117  15139     1  0.0000000  4.9162000  2
  15137  15131  15117  15139     1  0.0000000  0.6024960  3
  15140  15141  15144  15145     1  180.0000771  0.8368000  1
  15140  15141  15144  15145     1  180.0000771  1.0460000  2
  15140  15141  15144  15145     1  0.0000000  0.7531200  3
  15140  15141  15144  15152     1  0.0000000  0.6508444  3
  15140  15162  15146  15145     1  180.0000771  0.4184000  2
  15140  15162  15146  15145     1  0.0000000  1.6024720  3
  15140  15162  15146  15150     1  180.0000771  5.6484000  1
  15140  15162  15146  15150     1  180.0000771  3.5564000  2
  15140  15162  15146  15150     1  0.0000000  0.4184000  3
  15141  15140  15154  15160     1  0.0000000  0.6508444  3
  15141  15140  15162  15146     1  180.0000771  0.4184000  2
  15141  15140  15162  15146     1  0.0000000  1.6024720  3
  15141  15144  15145  15146     1  180.0000771  0.8368000  1
  15141  15144  15145  15146     1  180.0000771  1.0460000  2
  15141  15144  15145  15146     1  0.0000000  0.7531200  3
  15141  15144  15145  15151     1  0.0000000  0.6508444  3
  15144  15141  15140  15154     1  180.0000771  0.8368000  1
  15144  15141  15140  15154     1  180.0000771  1.0460000  2
  15144  15141  15140  15154     1  0.0000000  0.7531200  3
  15144  15141  15140  15162     1  0.0000000  0.6508444  3
  15144  15145  15146  15150     1  0.0000000  0.6508444  3
  15144  15145  15146  15162     1  0.0000000  0.6508444  3
  15145  15144  15141  15153     1  0.0000000  0.6508444  3
  15146  15145  15144  15152     1  0.0000000  0.6508444  3
  15146  15162  15140  15154     1  180.0000771  0.4184000  2
  15146  15162  15140  15154     1  0.0000000  1.6024720  3
  15150  15146  15145  15151     1  0.0000000  4.9162000  2
  15150  15146  15145  15151     1  0.0000000  0.6024960  3
  15151  15145  15144  15152     1  0.0000000  4.9162000  2
  15151  15145  15144  15152     1  0.0000000  0.6024960  3
  15151  15145  15146  15162     1  0.0000000  4.9162000  2
  15151  15145  15146  15162     1  0.0000000  0.6024960  3
  15152  15144  15141  15153     1  0.0000000  4.9162000  2
  15152  15144  15141  15153     1  0.0000000  0.6024960  3
  15153  15141  15140  15154     1  0.0000000  0.6508444  3
  15153  15141  15140  15162     1  0.0000000  4.9162000  2
  15153  15141  15140  15162     1  0.0000000  0.6024960  3
  15160  15154  15140  15162     1  0.0000000  4.9162000  2
  15160  15154  15140  15162     1  0.0000000  0.6024960  3
  15163  15164  15167  15168     1  180.0000771  0.8368000  1
  15163  15164  15167  15168     1  180.0000771  1.0460000  2
  15163  15164  15167  15168     1  0.0000000  0.7531200  3
  15163  15164  15167  15175     1  0.0000000  0.6508444  3
  15163  15185  15169  15173     1  180.0000771  5.6484000  1
  15163  15185  15169  15173     1  180.0000771  3.5564000  2
  15163  15185  15169  15173     1  0.0000000  0.4184000  3
  15163  15185  15169  15168     1  180.0000771  0.4184000  2
  15163  15185  15169  15168     1  0.0000000  1.6024720  3
  15164  15167  15168  15169     1  180.0000771  0.8368000  1
  15164  15167  15168  15169     1  180.0000771  1.0460000  2
  15164  15167  15168  15169     1  0.0000000  0.7531200  3
  15164  15167  15168  15174     1  0.0000000  0.6508444  3
  15164  15163  15177  15183     1  0.0000000  0.6508444  3
  15164  15163  15185  15169     1  180.0000771  0.4184000  2
  15164  15163  15185  15169     1  0.0000000  1.6024720  3
  15167  15168  15169  15173     1  0.0000000  0.6508444  3
  15167  15168  15169  15185     1  0.0000000  0.6508444  3
  15167  15164  15163  15177     1  180.0000771  0.8368000  1
  15167  15164  15163  15177     1  180.0000771  1.0460000  2
  15167  15164  15163  15177     1  0.0000000  0.7531200  3
  15167  15164  15163  15185     1  0.0000000  0.6508444  3
  15168  15167  15164  15176     1  0.0000000  0.6508444  3
  15169  15185  15163  15177     1  180.0000771  0.4184000  2
  15169  15185  15163  15177     1  0.0000000  1.6024720  3
  15169  15168  15167  15175     1  0.0000000  0.6508444  3
  15173  15169  15168  15174     1  0.0000000  4.9162000  2
  15173  15169  15168  15174     1  0.0000000  0.6024960  3
  15174  15168  15169  15185     1  0.0000000  4.9162000  2
  15174  15168  15169  15185     1  0.0000000  0.6024960  3
  15174  15168  15167  15175     1  0.0000000  4.9162000  2
  15174  15168  15167  15175     1  0.0000000  0.6024960  3
  15175  15167  15164  15176     1  0.0000000  4.9162000  2
  15175  15167  15164  15176     1  0.0000000  0.6024960  3
  15176  15164  15163  15177     1  0.0000000  0.6508444  3
  15176  15164  15163  15185     1  0.0000000  4.9162000  2
  15176  15164  15163  15185     1  0.0000000  0.6024960  3
  15183  15177  15163  15185     1  0.0000000  4.9162000  2
  15183  15177  15163  15185     1  0.0000000  0.6024960  3
  15186  15187  15190  15191     1  180.0000771  0.8368000  1
  15186  15187  15190  15191     1  180.0000771  1.0460000  2
  15186  15187  15190  15191     1  0.0000000  0.7531200  3
  15186  15187  15190  15198     1  0.0000000  0.6508444  3
  15186  15208  15192  15191     1  180.0000771  0.4184000  2
  15186  15208  15192  15191     1  0.0000000  1.6024720  3
  15186  15208  15192  15196     1  180.0000771  5.6484000  1
  15186  15208  15192  15196     1  180.0000771  3.5564000  2
  15186  15208  15192  15196     1  0.0000000  0.4184000  3
  15187  15186  15200  15206     1  0.0000000  0.6508444  3
  15187  15186  15208  15192     1  180.0000771  0.4184000  2
  15187  15186  15208  15192     1  0.0000000  1.6024720  3
  15187  15190  15191  15192     1  180.0000771  0.8368000  1
  15187  15190  15191  15192     1  180.0000771  1.0460000  2
  15187  15190  15191  15192     1  0.0000000  0.7531200  3
  15187  15190  15191  15197     1  0.0000000  0.6508444  3
  15190  15187  15186  15200     1  180.0000771  0.8368000  1
  15190  15187  15186  15200     1  180.0000771  1.0460000  2
  15190  15187  15186  15200     1  0.0000000  0.7531200  3
  15190  15187  15186  15208     1  0.0000000  0.6508444  3
  15190  15191  15192  15196     1  0.0000000  0.6508444  3
  15190  15191  15192  15208     1  0.0000000  0.6508444  3
  15191  15190  15187  15199     1  0.0000000  0.6508444  3
  15192  15191  15190  15198     1  0.0000000  0.6508444  3
  15192  15208  15186  15200     1  180.0000771  0.4184000  2
  15192  15208  15186  15200     1  0.0000000  1.6024720  3
  15196  15192  15191  15197     1  0.0000000  4.9162000  2
  15196  15192  15191  15197     1  0.0000000  0.6024960  3
  15197  15191  15190  15198     1  0.0000000  4.9162000  2
  15197  15191  15190  15198     1  0.0000000  0.6024960  3
  15197  15191  15192  15208     1  0.0000000  4.9162000  2
  15197  15191  15192  15208     1  0.0000000  0.6024960  3
  15198  15190  15187  15199     1  0.0000000  4.9162000  2
  15198  15190  15187  15199     1  0.0000000  0.6024960  3
  15199  15187  15186  15200     1  0.0000000  0.6508444  3
  15199  15187  15186  15208     1  0.0000000  4.9162000  2
  15199  15187  15186  15208     1  0.0000000  0.6024960  3
  15206  15200  15186  15208     1  0.0000000  4.9162000  2
  15206  15200  15186  15208     1  0.0000000  0.6024960  3
  15209  15210  15213  15214     1  180.0000771  0.8368000  1
  15209  15210  15213  15214     1  180.0000771  1.0460000  2
  15209  15210  15213  15214     1  0.0000000  0.7531200  3
  15209  15210  15213  15221     1  0.0000000  0.6508444  3
  15209  15231  15215  15219     1  180.0000771  5.6484000  1
  15209  15231  15215  15219     1  180.0000771  3.5564000  2
  15209  15231  15215  15219     1  0.0000000  0.4184000  3
  15209  15231  15215  15214     1  180.0000771  0.4184000  2
  15209  15231  15215  15214     1  0.0000000  1.6024720  3
  15210  15213  15214  15215     1  180.0000771  0.8368000  1
  15210  15213  15214  15215     1  180.0000771  1.0460000  2
  15210  15213  15214  15215     1  0.0000000  0.7531200  3
  15210  15213  15214  15220     1  0.0000000  0.6508444  3
  15210  15209  15223  15229     1  0.0000000  0.6508444  3
  15210  15209  15231  15215     1  180.0000771  0.4184000  2
  15210  15209  15231  15215     1  0.0000000  1.6024720  3
  15213  15214  15215  15219     1  0.0000000  0.6508444  3
  15213  15214  15215  15231     1  0.0000000  0.6508444  3
  15213  15210  15209  15223     1  180.0000771  0.8368000  1
  15213  15210  15209  15223     1  180.0000771  1.0460000  2
  15213  15210  15209  15223     1  0.0000000  0.7531200  3
  15213  15210  15209  15231     1  0.0000000  0.6508444  3
  15214  15213  15210  15222     1  0.0000000  0.6508444  3
  15215  15231  15209  15223     1  180.0000771  0.4184000  2
  15215  15231  15209  15223     1  0.0000000  1.6024720  3
  15215  15214  15213  15221     1  0.0000000  0.6508444  3
  15219  15215  15214  15220     1  0.0000000  4.9162000  2
  15219  15215  15214  15220     1  0.0000000  0.6024960  3
  15220  15214  15215  15231     1  0.0000000  4.9162000  2
  15220  15214  15215  15231     1  0.0000000  0.6024960  3
  15220  15214  15213  15221     1  0.0000000  4.9162000  2
  15220  15214  15213  15221     1  0.0000000  0.6024960  3
  15221  15213  15210  15222     1  0.0000000  4.9162000  2
  15221  15213  15210  15222     1  0.0000000  0.6024960  3
  15222  15210  15209  15223     1  0.0000000  0.6508444  3
  15222  15210  15209  15231     1  0.0000000  4.9162000  2
  15222  15210  15209  15231     1  0.0000000  0.6024960  3
  15229  15223  15209  15231     1  0.0000000  4.9162000  2
  15229  15223  15209  15231     1  0.0000000  0.6024960  3
  15232  15233  15236  15237     1  180.0000771  0.8368000  1
  15232  15233  15236  15237     1  180.0000771  1.0460000  2
  15232  15233  15236  15237     1  0.0000000  0.7531200  3
  15232  15233  15236  15244     1  0.0000000  0.6508444  3
  15232  15254  15238  15237     1  180.0000771  0.4184000  2
  15232  15254  15238  15237     1  0.0000000  1.6024720  3
  15232  15254  15238  15242     1  180.0000771  5.6484000  1
  15232  15254  15238  15242     1  180.0000771  3.5564000  2
  15232  15254  15238  15242     1  0.0000000  0.4184000  3
  15233  15232  15246  15252     1  0.0000000  0.6508444  3
  15233  15232  15254  15238     1  180.0000771  0.4184000  2
  15233  15232  15254  15238     1  0.0000000  1.6024720  3
  15233  15236  15237  15238     1  180.0000771  0.8368000  1
  15233  15236  15237  15238     1  180.0000771  1.0460000  2
  15233  15236  15237  15238     1  0.0000000  0.7531200  3
  15233  15236  15237  15243     1  0.0000000  0.6508444  3
  15236  15233  15232  15246     1  180.0000771  0.8368000  1
  15236  15233  15232  15246     1  180.0000771  1.0460000  2
  15236  15233  15232  15246     1  0.0000000  0.7531200  3
  15236  15233  15232  15254     1  0.0000000  0.6508444  3
  15236  15237  15238  15242     1  0.0000000  0.6508444  3
  15236  15237  15238  15254     1  0.0000000  0.6508444  3
  15237  15236  15233  15245     1  0.0000000  0.6508444  3
  15238  15237  15236  15244     1  0.0000000  0.6508444  3
  15238  15254  15232  15246     1  180.0000771  0.4184000  2
  15238  15254  15232  15246     1  0.0000000  1.6024720  3
  15242  15238  15237  15243     1  0.0000000  4.9162000  2
  15242  15238  15237  15243     1  0.0000000  0.6024960  3
  15243  15237  15236  15244     1  0.0000000  4.9162000  2
  15243  15237  15236  15244     1  0.0000000  0.6024960  3
  15243  15237  15238  15254     1  0.0000000  4.9162000  2
  15243  15237  15238  15254     1  0.0000000  0.6024960  3
  15244  15236  15233  15245     1  0.0000000  4.9162000  2
  15244  15236  15233  15245     1  0.0000000  0.6024960  3
  15245  15233  15232  15246     1  0.0000000  0.6508444  3
  15245  15233  15232  15254     1  0.0000000  4.9162000  2
  15245  15233  15232  15254     1  0.0000000  0.6024960  3
  15252  15246  15232  15254     1  0.0000000  4.9162000  2
  15252  15246  15232  15254     1  0.0000000  0.6024960  3
  15255  15256  15259  15260     1  180.0000771  0.8368000  1
  15255  15256  15259  15260     1  180.0000771  1.0460000  2
  15255  15256  15259  15260     1  0.0000000  0.7531200  3
  15255  15256  15259  15267     1  0.0000000  0.6508444  3
  15255  15277  15261  15265     1  180.0000771  5.6484000  1
  15255  15277  15261  15265     1  180.0000771  3.5564000  2
  15255  15277  15261  15265     1  0.0000000  0.4184000  3
  15255  15277  15261  15260     1  180.0000771  0.4184000  2
  15255  15277  15261  15260     1  0.0000000  1.6024720  3
  15256  15259  15260  15261     1  180.0000771  0.8368000  1
  15256  15259  15260  15261     1  180.0000771  1.0460000  2
  15256  15259  15260  15261     1  0.0000000  0.7531200  3
  15256  15259  15260  15266     1  0.0000000  0.6508444  3
  15256  15255  15269  15275     1  0.0000000  0.6508444  3
  15256  15255  15277  15261     1  180.0000771  0.4184000  2
  15256  15255  15277  15261     1  0.0000000  1.6024720  3
  15259  15260  15261  15265     1  0.0000000  0.6508444  3
  15259  15260  15261  15277     1  0.0000000  0.6508444  3
  15259  15256  15255  15269     1  180.0000771  0.8368000  1
  15259  15256  15255  15269     1  180.0000771  1.0460000  2
  15259  15256  15255  15269     1  0.0000000  0.7531200  3
  15259  15256  15255  15277     1  0.0000000  0.6508444  3
  15260  15259  15256  15268     1  0.0000000  0.6508444  3
  15261  15277  15255  15269     1  180.0000771  0.4184000  2
  15261  15277  15255  15269     1  0.0000000  1.6024720  3
  15261  15260  15259  15267     1  0.0000000  0.6508444  3
  15265  15261  15260  15266     1  0.0000000  4.9162000  2
  15265  15261  15260  15266     1  0.0000000  0.6024960  3
  15266  15260  15261  15277     1  0.0000000  4.9162000  2
  15266  15260  15261  15277     1  0.0000000  0.6024960  3
  15266  15260  15259  15267     1  0.0000000  4.9162000  2
  15266  15260  15259  15267     1  0.0000000  0.6024960  3
  15267  15259  15256  15268     1  0.0000000  4.9162000  2
  15267  15259  15256  15268     1  0.0000000  0.6024960  3
  15268  15256  15255  15269     1  0.0000000  0.6508444  3
  15268  15256  15255  15277     1  0.0000000  4.9162000  2
  15268  15256  15255  15277     1  0.0000000  0.6024960  3
  15275  15269  15255  15277     1  0.0000000  4.9162000  2
  15275  15269  15255  15277     1  0.0000000  0.6024960  3
  15278  15279  15282  15283     1  180.0000771  0.8368000  1
  15278  15279  15282  15283     1  180.0000771  1.0460000  2
  15278  15279  15282  15283     1  0.0000000  0.7531200  3
  15278  15279  15282  15290     1  0.0000000  0.6508444  3
  15278  15300  15284  15283     1  180.0000771  0.4184000  2
  15278  15300  15284  15283     1  0.0000000  1.6024720  3
  15278  15300  15284  15288     1  180.0000771  5.6484000  1
  15278  15300  15284  15288     1  180.0000771  3.5564000  2
  15278  15300  15284  15288     1  0.0000000  0.4184000  3
  15279  15278  15292  15298     1  0.0000000  0.6508444  3
  15279  15278  15300  15284     1  180.0000771  0.4184000  2
  15279  15278  15300  15284     1  0.0000000  1.6024720  3
  15279  15282  15283  15284     1  180.0000771  0.8368000  1
  15279  15282  15283  15284     1  180.0000771  1.0460000  2
  15279  15282  15283  15284     1  0.0000000  0.7531200  3
  15279  15282  15283  15289     1  0.0000000  0.6508444  3
  15282  15279  15278  15292     1  180.0000771  0.8368000  1
  15282  15279  15278  15292     1  180.0000771  1.0460000  2
  15282  15279  15278  15292     1  0.0000000  0.7531200  3
  15282  15279  15278  15300     1  0.0000000  0.6508444  3
  15282  15283  15284  15288     1  0.0000000  0.6508444  3
  15282  15283  15284  15300     1  0.0000000  0.6508444  3
  15283  15282  15279  15291     1  0.0000000  0.6508444  3
  15284  15283  15282  15290     1  0.0000000  0.6508444  3
  15284  15300  15278  15292     1  180.0000771  0.4184000  2
  15284  15300  15278  15292     1  0.0000000  1.6024720  3
  15288  15284  15283  15289     1  0.0000000  4.9162000  2
  15288  15284  15283  15289     1  0.0000000  0.6024960  3
  15289  15283  15282  15290     1  0.0000000  4.9162000  2
  15289  15283  15282  15290     1  0.0000000  0.6024960  3
  15289  15283  15284  15300     1  0.0000000  4.9162000  2
  15289  15283  15284  15300     1  0.0000000  0.6024960  3
  15290  15282  15279  15291     1  0.0000000  4.9162000  2
  15290  15282  15279  15291     1  0.0000000  0.6024960  3
  15291  15279  15278  15292     1  0.0000000  0.6508444  3
  15291  15279  15278  15300     1  0.0000000  4.9162000  2
  15291  15279  15278  15300     1  0.0000000  0.6024960  3
  15298  15292  15278  15300     1  0.0000000  4.9162000  2
  15298  15292  15278  15300     1  0.0000000  0.6024960  3
  15301  15302  15305  15306     1  180.0000771  0.8368000  1
  15301  15302  15305  15306     1  180.0000771  1.0460000  2
  15301  15302  15305  15306     1  0.0000000  0.7531200  3
  15301  15302  15305  15313     1  0.0000000  0.6508444  3
  15301  15323  15307  15311     1  180.0000771  5.6484000  1
  15301  15323  15307  15311     1  180.0000771  3.5564000  2
  15301  15323  15307  15311     1  0.0000000  0.4184000  3
  15301  15323  15307  15306     1  180.0000771  0.4184000  2
  15301  15323  15307  15306     1  0.0000000  1.6024720  3
  15302  15305  15306  15307     1  180.0000771  0.8368000  1
  15302  15305  15306  15307     1  180.0000771  1.0460000  2
  15302  15305  15306  15307     1  0.0000000  0.7531200  3
  15302  15305  15306  15312     1  0.0000000  0.6508444  3
  15302  15301  15315  15321     1  0.0000000  0.6508444  3
  15302  15301  15323  15307     1  180.0000771  0.4184000  2
  15302  15301  15323  15307     1  0.0000000  1.6024720  3
  15305  15306  15307  15311     1  0.0000000  0.6508444  3
  15305  15306  15307  15323     1  0.0000000  0.6508444  3
  15305  15302  15301  15315     1  180.0000771  0.8368000  1
  15305  15302  15301  15315     1  180.0000771  1.0460000  2
  15305  15302  15301  15315     1  0.0000000  0.7531200  3
  15305  15302  15301  15323     1  0.0000000  0.6508444  3
  15306  15305  15302  15314     1  0.0000000  0.6508444  3
  15307  15323  15301  15315     1  180.0000771  0.4184000  2
  15307  15323  15301  15315     1  0.0000000  1.6024720  3
  15307  15306  15305  15313     1  0.0000000  0.6508444  3
  15311  15307  15306  15312     1  0.0000000  4.9162000  2
  15311  15307  15306  15312     1  0.0000000  0.6024960  3
  15312  15306  15307  15323     1  0.0000000  4.9162000  2
  15312  15306  15307  15323     1  0.0000000  0.6024960  3
  15312  15306  15305  15313     1  0.0000000  4.9162000  2
  15312  15306  15305  15313     1  0.0000000  0.6024960  3
  15313  15305  15302  15314     1  0.0000000  4.9162000  2
  15313  15305  15302  15314     1  0.0000000  0.6024960  3
  15314  15302  15301  15315     1  0.0000000  0.6508444  3
  15314  15302  15301  15323     1  0.0000000  4.9162000  2
  15314  15302  15301  15323     1  0.0000000  0.6024960  3
  15321  15315  15301  15323     1  0.0000000  4.9162000  2
  15321  15315  15301  15323     1  0.0000000  0.6024960  3
  15324  15325  15328  15329     1  180.0000771  0.8368000  1
  15324  15325  15328  15329     1  180.0000771  1.0460000  2
  15324  15325  15328  15329     1  0.0000000  0.7531200  3
  15324  15325  15328  15336     1  0.0000000  0.6508444  3
  15324  15346  15330  15329     1  180.0000771  0.4184000  2
  15324  15346  15330  15329     1  0.0000000  1.6024720  3
  15324  15346  15330  15334     1  180.0000771  5.6484000  1
  15324  15346  15330  15334     1  180.0000771  3.5564000  2
  15324  15346  15330  15334     1  0.0000000  0.4184000  3
  15325  15324  15338  15344     1  0.0000000  0.6508444  3
  15325  15324  15346  15330     1  180.0000771  0.4184000  2
  15325  15324  15346  15330     1  0.0000000  1.6024720  3
  15325  15328  15329  15330     1  180.0000771  0.8368000  1
  15325  15328  15329  15330     1  180.0000771  1.0460000  2
  15325  15328  15329  15330     1  0.0000000  0.7531200  3
  15325  15328  15329  15335     1  0.0000000  0.6508444  3
  15328  15325  15324  15338     1  180.0000771  0.8368000  1
  15328  15325  15324  15338     1  180.0000771  1.0460000  2
  15328  15325  15324  15338     1  0.0000000  0.7531200  3
  15328  15325  15324  15346     1  0.0000000  0.6508444  3
  15328  15329  15330  15334     1  0.0000000  0.6508444  3
  15328  15329  15330  15346     1  0.0000000  0.6508444  3
  15329  15328  15325  15337     1  0.0000000  0.6508444  3
  15330  15329  15328  15336     1  0.0000000  0.6508444  3
  15330  15346  15324  15338     1  180.0000771  0.4184000  2
  15330  15346  15324  15338     1  0.0000000  1.6024720  3
  15334  15330  15329  15335     1  0.0000000  4.9162000  2
  15334  15330  15329  15335     1  0.0000000  0.6024960  3
  15335  15329  15328  15336     1  0.0000000  4.9162000  2
  15335  15329  15328  15336     1  0.0000000  0.6024960  3
  15335  15329  15330  15346     1  0.0000000  4.9162000  2
  15335  15329  15330  15346     1  0.0000000  0.6024960  3
  15336  15328  15325  15337     1  0.0000000  4.9162000  2
  15336  15328  15325  15337     1  0.0000000  0.6024960  3
  15337  15325  15324  15338     1  0.0000000  0.6508444  3
  15337  15325  15324  15346     1  0.0000000  4.9162000  2
  15337  15325  15324  15346     1  0.0000000  0.6024960  3
  15344  15338  15324  15346     1  0.0000000  4.9162000  2
  15344  15338  15324  15346     1  0.0000000  0.6024960  3
  15347  15348  15351  15352     1  180.0000771  0.8368000  1
  15347  15348  15351  15352     1  180.0000771  1.0460000  2
  15347  15348  15351  15352     1  0.0000000  0.7531200  3
  15347  15348  15351  15359     1  0.0000000  0.6508444  3
  15347  15369  15353  15357     1  180.0000771  5.6484000  1
  15347  15369  15353  15357     1  180.0000771  3.5564000  2
  15347  15369  15353  15357     1  0.0000000  0.4184000  3
  15347  15369  15353  15352     1  180.0000771  0.4184000  2
  15347  15369  15353  15352     1  0.0000000  1.6024720  3
  15348  15351  15352  15353     1  180.0000771  0.8368000  1
  15348  15351  15352  15353     1  180.0000771  1.0460000  2
  15348  15351  15352  15353     1  0.0000000  0.7531200  3
  15348  15351  15352  15358     1  0.0000000  0.6508444  3
  15348  15347  15361  15367     1  0.0000000  0.6508444  3
  15348  15347  15369  15353     1  180.0000771  0.4184000  2
  15348  15347  15369  15353     1  0.0000000  1.6024720  3
  15351  15352  15353  15357     1  0.0000000  0.6508444  3
  15351  15352  15353  15369     1  0.0000000  0.6508444  3
  15351  15348  15347  15361     1  180.0000771  0.8368000  1
  15351  15348  15347  15361     1  180.0000771  1.0460000  2
  15351  15348  15347  15361     1  0.0000000  0.7531200  3
  15351  15348  15347  15369     1  0.0000000  0.6508444  3
  15352  15351  15348  15360     1  0.0000000  0.6508444  3
  15353  15369  15347  15361     1  180.0000771  0.4184000  2
  15353  15369  15347  15361     1  0.0000000  1.6024720  3
  15353  15352  15351  15359     1  0.0000000  0.6508444  3
  15357  15353  15352  15358     1  0.0000000  4.9162000  2
  15357  15353  15352  15358     1  0.0000000  0.6024960  3
  15358  15352  15353  15369     1  0.0000000  4.9162000  2
  15358  15352  15353  15369     1  0.0000000  0.6024960  3
  15358  15352  15351  15359     1  0.0000000  4.9162000  2
  15358  15352  15351  15359     1  0.0000000  0.6024960  3
  15359  15351  15348  15360     1  0.0000000  4.9162000  2
  15359  15351  15348  15360     1  0.0000000  0.6024960  3
  15360  15348  15347  15361     1  0.0000000  0.6508444  3
  15360  15348  15347  15369     1  0.0000000  4.9162000  2
  15360  15348  15347  15369     1  0.0000000  0.6024960  3
  15367  15361  15347  15369     1  0.0000000  4.9162000  2
  15367  15361  15347  15369     1  0.0000000  0.6024960  3
  15370  15371  15374  15375     1  180.0000771  0.8368000  1
  15370  15371  15374  15375     1  180.0000771  1.0460000  2
  15370  15371  15374  15375     1  0.0000000  0.7531200  3
  15370  15371  15374  15382     1  0.0000000  0.6508444  3
  15370  15392  15376  15375     1  180.0000771  0.4184000  2
  15370  15392  15376  15375     1  0.0000000  1.6024720  3
  15370  15392  15376  15380     1  180.0000771  5.6484000  1
  15370  15392  15376  15380     1  180.0000771  3.5564000  2
  15370  15392  15376  15380     1  0.0000000  0.4184000  3
  15371  15370  15384  15390     1  0.0000000  0.6508444  3
  15371  15370  15392  15376     1  180.0000771  0.4184000  2
  15371  15370  15392  15376     1  0.0000000  1.6024720  3
  15371  15374  15375  15376     1  180.0000771  0.8368000  1
  15371  15374  15375  15376     1  180.0000771  1.0460000  2
  15371  15374  15375  15376     1  0.0000000  0.7531200  3
  15371  15374  15375  15381     1  0.0000000  0.6508444  3
  15374  15371  15370  15384     1  180.0000771  0.8368000  1
  15374  15371  15370  15384     1  180.0000771  1.0460000  2
  15374  15371  15370  15384     1  0.0000000  0.7531200  3
  15374  15371  15370  15392     1  0.0000000  0.6508444  3
  15374  15375  15376  15380     1  0.0000000  0.6508444  3
  15374  15375  15376  15392     1  0.0000000  0.6508444  3
  15375  15374  15371  15383     1  0.0000000  0.6508444  3
  15376  15375  15374  15382     1  0.0000000  0.6508444  3
  15376  15392  15370  15384     1  180.0000771  0.4184000  2
  15376  15392  15370  15384     1  0.0000000  1.6024720  3
  15380  15376  15375  15381     1  0.0000000  4.9162000  2
  15380  15376  15375  15381     1  0.0000000  0.6024960  3
  15381  15375  15374  15382     1  0.0000000  4.9162000  2
  15381  15375  15374  15382     1  0.0000000  0.6024960  3
  15381  15375  15376  15392     1  0.0000000  4.9162000  2
  15381  15375  15376  15392     1  0.0000000  0.6024960  3
  15382  15374  15371  15383     1  0.0000000  4.9162000  2
  15382  15374  15371  15383     1  0.0000000  0.6024960  3
  15383  15371  15370  15384     1  0.0000000  0.6508444  3
  15383  15371  15370  15392     1  0.0000000  4.9162000  2
  15383  15371  15370  15392     1  0.0000000  0.6024960  3
  15390  15384  15370  15392     1  0.0000000  4.9162000  2
  15390  15384  15370  15392     1  0.0000000  0.6024960  3
  15393  15394  15397  15398     1  180.0000771  0.8368000  1
  15393  15394  15397  15398     1  180.0000771  1.0460000  2
  15393  15394  15397  15398     1  0.0000000  0.7531200  3
  15393  15394  15397  15405     1  0.0000000  0.6508444  3
  15393  15415  15399  15403     1  180.0000771  5.6484000  1
  15393  15415  15399  15403     1  180.0000771  3.5564000  2
  15393  15415  15399  15403     1  0.0000000  0.4184000  3
  15393  15415  15399  15398     1  180.0000771  0.4184000  2
  15393  15415  15399  15398     1  0.0000000  1.6024720  3
  15394  15397  15398  15399     1  180.0000771  0.8368000  1
  15394  15397  15398  15399     1  180.0000771  1.0460000  2
  15394  15397  15398  15399     1  0.0000000  0.7531200  3
  15394  15397  15398  15404     1  0.0000000  0.6508444  3
  15394  15393  15407  15413     1  0.0000000  0.6508444  3
  15394  15393  15415  15399     1  180.0000771  0.4184000  2
  15394  15393  15415  15399     1  0.0000000  1.6024720  3
  15397  15398  15399  15403     1  0.0000000  0.6508444  3
  15397  15398  15399  15415     1  0.0000000  0.6508444  3
  15397  15394  15393  15407     1  180.0000771  0.8368000  1
  15397  15394  15393  15407     1  180.0000771  1.0460000  2
  15397  15394  15393  15407     1  0.0000000  0.7531200  3
  15397  15394  15393  15415     1  0.0000000  0.6508444  3
  15398  15397  15394  15406     1  0.0000000  0.6508444  3
  15399  15415  15393  15407     1  180.0000771  0.4184000  2
  15399  15415  15393  15407     1  0.0000000  1.6024720  3
  15399  15398  15397  15405     1  0.0000000  0.6508444  3
  15403  15399  15398  15404     1  0.0000000  4.9162000  2
  15403  15399  15398  15404     1  0.0000000  0.6024960  3
  15404  15398  15399  15415     1  0.0000000  4.9162000  2
  15404  15398  15399  15415     1  0.0000000  0.6024960  3
  15404  15398  15397  15405     1  0.0000000  4.9162000  2
  15404  15398  15397  15405     1  0.0000000  0.6024960  3
  15405  15397  15394  15406     1  0.0000000  4.9162000  2
  15405  15397  15394  15406     1  0.0000000  0.6024960  3
  15406  15394  15393  15407     1  0.0000000  0.6508444  3
  15406  15394  15393  15415     1  0.0000000  4.9162000  2
  15406  15394  15393  15415     1  0.0000000  0.6024960  3
  15413  15407  15393  15415     1  0.0000000  4.9162000  2
  15413  15407  15393  15415     1  0.0000000  0.6024960  3
  15416  15417  15420  15421     1  180.0000771  0.8368000  1
  15416  15417  15420  15421     1  180.0000771  1.0460000  2
  15416  15417  15420  15421     1  0.0000000  0.7531200  3
  15416  15417  15420  15428     1  0.0000000  0.6508444  3
  15416  15438  15422  15421     1  180.0000771  0.4184000  2
  15416  15438  15422  15421     1  0.0000000  1.6024720  3
  15416  15438  15422  15426     1  180.0000771  5.6484000  1
  15416  15438  15422  15426     1  180.0000771  3.5564000  2
  15416  15438  15422  15426     1  0.0000000  0.4184000  3
  15417  15416  15430  15436     1  0.0000000  0.6508444  3
  15417  15416  15438  15422     1  180.0000771  0.4184000  2
  15417  15416  15438  15422     1  0.0000000  1.6024720  3
  15417  15420  15421  15422     1  180.0000771  0.8368000  1
  15417  15420  15421  15422     1  180.0000771  1.0460000  2
  15417  15420  15421  15422     1  0.0000000  0.7531200  3
  15417  15420  15421  15427     1  0.0000000  0.6508444  3
  15420  15417  15416  15430     1  180.0000771  0.8368000  1
  15420  15417  15416  15430     1  180.0000771  1.0460000  2
  15420  15417  15416  15430     1  0.0000000  0.7531200  3
  15420  15417  15416  15438     1  0.0000000  0.6508444  3
  15420  15421  15422  15426     1  0.0000000  0.6508444  3
  15420  15421  15422  15438     1  0.0000000  0.6508444  3
  15421  15420  15417  15429     1  0.0000000  0.6508444  3
  15422  15421  15420  15428     1  0.0000000  0.6508444  3
  15422  15438  15416  15430     1  180.0000771  0.4184000  2
  15422  15438  15416  15430     1  0.0000000  1.6024720  3
  15426  15422  15421  15427     1  0.0000000  4.9162000  2
  15426  15422  15421  15427     1  0.0000000  0.6024960  3
  15427  15421  15420  15428     1  0.0000000  4.9162000  2
  15427  15421  15420  15428     1  0.0000000  0.6024960  3
  15427  15421  15422  15438     1  0.0000000  4.9162000  2
  15427  15421  15422  15438     1  0.0000000  0.6024960  3
  15428  15420  15417  15429     1  0.0000000  4.9162000  2
  15428  15420  15417  15429     1  0.0000000  0.6024960  3
  15429  15417  15416  15430     1  0.0000000  0.6508444  3
  15429  15417  15416  15438     1  0.0000000  4.9162000  2
  15429  15417  15416  15438     1  0.0000000  0.6024960  3
  15436  15430  15416  15438     1  0.0000000  4.9162000  2
  15436  15430  15416  15438     1  0.0000000  0.6024960  3
  15439  15440  15443  15444     1  180.0000771  0.8368000  1
  15439  15440  15443  15444     1  180.0000771  1.0460000  2
  15439  15440  15443  15444     1  0.0000000  0.7531200  3
  15439  15440  15443  15451     1  0.0000000  0.6508444  3
  15439  15461  15445  15449     1  180.0000771  5.6484000  1
  15439  15461  15445  15449     1  180.0000771  3.5564000  2
  15439  15461  15445  15449     1  0.0000000  0.4184000  3
  15439  15461  15445  15444     1  180.0000771  0.4184000  2
  15439  15461  15445  15444     1  0.0000000  1.6024720  3
  15440  15443  15444  15445     1  180.0000771  0.8368000  1
  15440  15443  15444  15445     1  180.0000771  1.0460000  2
  15440  15443  15444  15445     1  0.0000000  0.7531200  3
  15440  15443  15444  15450     1  0.0000000  0.6508444  3
  15440  15439  15453  15459     1  0.0000000  0.6508444  3
  15440  15439  15461  15445     1  180.0000771  0.4184000  2
  15440  15439  15461  15445     1  0.0000000  1.6024720  3
  15443  15444  15445  15449     1  0.0000000  0.6508444  3
  15443  15444  15445  15461     1  0.0000000  0.6508444  3
  15443  15440  15439  15453     1  180.0000771  0.8368000  1
  15443  15440  15439  15453     1  180.0000771  1.0460000  2
  15443  15440  15439  15453     1  0.0000000  0.7531200  3
  15443  15440  15439  15461     1  0.0000000  0.6508444  3
  15444  15443  15440  15452     1  0.0000000  0.6508444  3
  15445  15461  15439  15453     1  180.0000771  0.4184000  2
  15445  15461  15439  15453     1  0.0000000  1.6024720  3
  15445  15444  15443  15451     1  0.0000000  0.6508444  3
  15449  15445  15444  15450     1  0.0000000  4.9162000  2
  15449  15445  15444  15450     1  0.0000000  0.6024960  3
  15450  15444  15445  15461     1  0.0000000  4.9162000  2
  15450  15444  15445  15461     1  0.0000000  0.6024960  3
  15450  15444  15443  15451     1  0.0000000  4.9162000  2
  15450  15444  15443  15451     1  0.0000000  0.6024960  3
  15451  15443  15440  15452     1  0.0000000  4.9162000  2
  15451  15443  15440  15452     1  0.0000000  0.6024960  3
  15452  15440  15439  15453     1  0.0000000  0.6508444  3
  15452  15440  15439  15461     1  0.0000000  4.9162000  2
  15452  15440  15439  15461     1  0.0000000  0.6024960  3
  15459  15453  15439  15461     1  0.0000000  4.9162000  2
  15459  15453  15439  15461     1  0.0000000  0.6024960  3
  15462  15463  15466  15467     1  180.0000771  0.8368000  1
  15462  15463  15466  15467     1  180.0000771  1.0460000  2
  15462  15463  15466  15467     1  0.0000000  0.7531200  3
  15462  15463  15466  15474     1  0.0000000  0.6508444  3
  15462  15484  15468  15467     1  180.0000771  0.4184000  2
  15462  15484  15468  15467     1  0.0000000  1.6024720  3
  15462  15484  15468  15472     1  180.0000771  5.6484000  1
  15462  15484  15468  15472     1  180.0000771  3.5564000  2
  15462  15484  15468  15472     1  0.0000000  0.4184000  3
  15463  15462  15476  15482     1  0.0000000  0.6508444  3
  15463  15462  15484  15468     1  180.0000771  0.4184000  2
  15463  15462  15484  15468     1  0.0000000  1.6024720  3
  15463  15466  15467  15468     1  180.0000771  0.8368000  1
  15463  15466  15467  15468     1  180.0000771  1.0460000  2
  15463  15466  15467  15468     1  0.0000000  0.7531200  3
  15463  15466  15467  15473     1  0.0000000  0.6508444  3
  15466  15463  15462  15476     1  180.0000771  0.8368000  1
  15466  15463  15462  15476     1  180.0000771  1.0460000  2
  15466  15463  15462  15476     1  0.0000000  0.7531200  3
  15466  15463  15462  15484     1  0.0000000  0.6508444  3
  15466  15467  15468  15472     1  0.0000000  0.6508444  3
  15466  15467  15468  15484     1  0.0000000  0.6508444  3
  15467  15466  15463  15475     1  0.0000000  0.6508444  3
  15468  15467  15466  15474     1  0.0000000  0.6508444  3
  15468  15484  15462  15476     1  180.0000771  0.4184000  2
  15468  15484  15462  15476     1  0.0000000  1.6024720  3
  15472  15468  15467  15473     1  0.0000000  4.9162000  2
  15472  15468  15467  15473     1  0.0000000  0.6024960  3
  15473  15467  15466  15474     1  0.0000000  4.9162000  2
  15473  15467  15466  15474     1  0.0000000  0.6024960  3
  15473  15467  15468  15484     1  0.0000000  4.9162000  2
  15473  15467  15468  15484     1  0.0000000  0.6024960  3
  15474  15466  15463  15475     1  0.0000000  4.9162000  2
  15474  15466  15463  15475     1  0.0000000  0.6024960  3
  15475  15463  15462  15476     1  0.0000000  0.6508444  3
  15475  15463  15462  15484     1  0.0000000  4.9162000  2
  15475  15463  15462  15484     1  0.0000000  0.6024960  3
  15482  15476  15462  15484     1  0.0000000  4.9162000  2
  15482  15476  15462  15484     1  0.0000000  0.6024960  3
  15485  15486  15489  15490     1  180.0000771  0.8368000  1
  15485  15486  15489  15490     1  180.0000771  1.0460000  2
  15485  15486  15489  15490     1  0.0000000  0.7531200  3
  15485  15486  15489  15497     1  0.0000000  0.6508444  3
  15485  15507  15491  15495     1  180.0000771  5.6484000  1
  15485  15507  15491  15495     1  180.0000771  3.5564000  2
  15485  15507  15491  15495     1  0.0000000  0.4184000  3
  15485  15507  15491  15490     1  180.0000771  0.4184000  2
  15485  15507  15491  15490     1  0.0000000  1.6024720  3
  15486  15489  15490  15491     1  180.0000771  0.8368000  1
  15486  15489  15490  15491     1  180.0000771  1.0460000  2
  15486  15489  15490  15491     1  0.0000000  0.7531200  3
  15486  15489  15490  15496     1  0.0000000  0.6508444  3
  15486  15485  15499  15505     1  0.0000000  0.6508444  3
  15486  15485  15507  15491     1  180.0000771  0.4184000  2
  15486  15485  15507  15491     1  0.0000000  1.6024720  3
  15489  15490  15491  15495     1  0.0000000  0.6508444  3
  15489  15490  15491  15507     1  0.0000000  0.6508444  3
  15489  15486  15485  15499     1  180.0000771  0.8368000  1
  15489  15486  15485  15499     1  180.0000771  1.0460000  2
  15489  15486  15485  15499     1  0.0000000  0.7531200  3
  15489  15486  15485  15507     1  0.0000000  0.6508444  3
  15490  15489  15486  15498     1  0.0000000  0.6508444  3
  15491  15507  15485  15499     1  180.0000771  0.4184000  2
  15491  15507  15485  15499     1  0.0000000  1.6024720  3
  15491  15490  15489  15497     1  0.0000000  0.6508444  3
  15495  15491  15490  15496     1  0.0000000  4.9162000  2
  15495  15491  15490  15496     1  0.0000000  0.6024960  3
  15496  15490  15491  15507     1  0.0000000  4.9162000  2
  15496  15490  15491  15507     1  0.0000000  0.6024960  3
  15496  15490  15489  15497     1  0.0000000  4.9162000  2
  15496  15490  15489  15497     1  0.0000000  0.6024960  3
  15497  15489  15486  15498     1  0.0000000  4.9162000  2
  15497  15489  15486  15498     1  0.0000000  0.6024960  3
  15498  15486  15485  15499     1  0.0000000  0.6508444  3
  15498  15486  15485  15507     1  0.0000000  4.9162000  2
  15498  15486  15485  15507     1  0.0000000  0.6024960  3
  15505  15499  15485  15507     1  0.0000000  4.9162000  2
  15505  15499  15485  15507     1  0.0000000  0.6024960  3
  15508  15509  15512  15513     1  180.0000771  0.8368000  1
  15508  15509  15512  15513     1  180.0000771  1.0460000  2
  15508  15509  15512  15513     1  0.0000000  0.7531200  3
  15508  15509  15512  15520     1  0.0000000  0.6508444  3
  15508  15530  15514  15513     1  180.0000771  0.4184000  2
  15508  15530  15514  15513     1  0.0000000  1.6024720  3
  15508  15530  15514  15518     1  180.0000771  5.6484000  1
  15508  15530  15514  15518     1  180.0000771  3.5564000  2
  15508  15530  15514  15518     1  0.0000000  0.4184000  3
  15509  15508  15522  15528     1  0.0000000  0.6508444  3
  15509  15508  15530  15514     1  180.0000771  0.4184000  2
  15509  15508  15530  15514     1  0.0000000  1.6024720  3
  15509  15512  15513  15514     1  180.0000771  0.8368000  1
  15509  15512  15513  15514     1  180.0000771  1.0460000  2
  15509  15512  15513  15514     1  0.0000000  0.7531200  3
  15509  15512  15513  15519     1  0.0000000  0.6508444  3
  15512  15509  15508  15522     1  180.0000771  0.8368000  1
  15512  15509  15508  15522     1  180.0000771  1.0460000  2
  15512  15509  15508  15522     1  0.0000000  0.7531200  3
  15512  15509  15508  15530     1  0.0000000  0.6508444  3
  15512  15513  15514  15518     1  0.0000000  0.6508444  3
  15512  15513  15514  15530     1  0.0000000  0.6508444  3
  15513  15512  15509  15521     1  0.0000000  0.6508444  3
  15514  15513  15512  15520     1  0.0000000  0.6508444  3
  15514  15530  15508  15522     1  180.0000771  0.4184000  2
  15514  15530  15508  15522     1  0.0000000  1.6024720  3
  15518  15514  15513  15519     1  0.0000000  4.9162000  2
  15518  15514  15513  15519     1  0.0000000  0.6024960  3
  15519  15513  15512  15520     1  0.0000000  4.9162000  2
  15519  15513  15512  15520     1  0.0000000  0.6024960  3
  15519  15513  15514  15530     1  0.0000000  4.9162000  2
  15519  15513  15514  15530     1  0.0000000  0.6024960  3
  15520  15512  15509  15521     1  0.0000000  4.9162000  2
  15520  15512  15509  15521     1  0.0000000  0.6024960  3
  15521  15509  15508  15522     1  0.0000000  0.6508444  3
  15521  15509  15508  15530     1  0.0000000  4.9162000  2
  15521  15509  15508  15530     1  0.0000000  0.6024960  3
  15528  15522  15508  15530     1  0.0000000  4.9162000  2
  15528  15522  15508  15530     1  0.0000000  0.6024960  3
  15531  15532  15535  15536     1  180.0000771  0.8368000  1
  15531  15532  15535  15536     1  180.0000771  1.0460000  2
  15531  15532  15535  15536     1  0.0000000  0.7531200  3
  15531  15532  15535  15543     1  0.0000000  0.6508444  3
  15531  15553  15537  15541     1  180.0000771  5.6484000  1
  15531  15553  15537  15541     1  180.0000771  3.5564000  2
  15531  15553  15537  15541     1  0.0000000  0.4184000  3
  15531  15553  15537  15536     1  180.0000771  0.4184000  2
  15531  15553  15537  15536     1  0.0000000  1.6024720  3
  15532  15535  15536  15537     1  180.0000771  0.8368000  1
  15532  15535  15536  15537     1  180.0000771  1.0460000  2
  15532  15535  15536  15537     1  0.0000000  0.7531200  3
  15532  15535  15536  15542     1  0.0000000  0.6508444  3
  15532  15531  15545  15551     1  0.0000000  0.6508444  3
  15532  15531  15553  15537     1  180.0000771  0.4184000  2
  15532  15531  15553  15537     1  0.0000000  1.6024720  3
  15535  15536  15537  15541     1  0.0000000  0.6508444  3
  15535  15536  15537  15553     1  0.0000000  0.6508444  3
  15535  15532  15531  15545     1  180.0000771  0.8368000  1
  15535  15532  15531  15545     1  180.0000771  1.0460000  2
  15535  15532  15531  15545     1  0.0000000  0.7531200  3
  15535  15532  15531  15553     1  0.0000000  0.6508444  3
  15536  15535  15532  15544     1  0.0000000  0.6508444  3
  15537  15553  15531  15545     1  180.0000771  0.4184000  2
  15537  15553  15531  15545     1  0.0000000  1.6024720  3
  15537  15536  15535  15543     1  0.0000000  0.6508444  3
  15541  15537  15536  15542     1  0.0000000  4.9162000  2
  15541  15537  15536  15542     1  0.0000000  0.6024960  3
  15542  15536  15537  15553     1  0.0000000  4.9162000  2
  15542  15536  15537  15553     1  0.0000000  0.6024960  3
  15542  15536  15535  15543     1  0.0000000  4.9162000  2
  15542  15536  15535  15543     1  0.0000000  0.6024960  3
  15543  15535  15532  15544     1  0.0000000  4.9162000  2
  15543  15535  15532  15544     1  0.0000000  0.6024960  3
  15544  15532  15531  15545     1  0.0000000  0.6508444  3
  15544  15532  15531  15553     1  0.0000000  4.9162000  2
  15544  15532  15531  15553     1  0.0000000  0.6024960  3
  15551  15545  15531  15553     1  0.0000000  4.9162000  2
  15551  15545  15531  15553     1  0.0000000  0.6024960  3
  15554  15555  15558  15559     1  180.0000771  0.8368000  1
  15554  15555  15558  15559     1  180.0000771  1.0460000  2
  15554  15555  15558  15559     1  0.0000000  0.7531200  3
  15554  15555  15558  15566     1  0.0000000  0.6508444  3
  15554  15576  15560  15559     1  180.0000771  0.4184000  2
  15554  15576  15560  15559     1  0.0000000  1.6024720  3
  15554  15576  15560  15564     1  180.0000771  5.6484000  1
  15554  15576  15560  15564     1  180.0000771  3.5564000  2
  15554  15576  15560  15564     1  0.0000000  0.4184000  3
  15555  15554  15568  15574     1  0.0000000  0.6508444  3
  15555  15554  15576  15560     1  180.0000771  0.4184000  2
  15555  15554  15576  15560     1  0.0000000  1.6024720  3
  15555  15558  15559  15560     1  180.0000771  0.8368000  1
  15555  15558  15559  15560     1  180.0000771  1.0460000  2
  15555  15558  15559  15560     1  0.0000000  0.7531200  3
  15555  15558  15559  15565     1  0.0000000  0.6508444  3
  15558  15555  15554  15568     1  180.0000771  0.8368000  1
  15558  15555  15554  15568     1  180.0000771  1.0460000  2
  15558  15555  15554  15568     1  0.0000000  0.7531200  3
  15558  15555  15554  15576     1  0.0000000  0.6508444  3
  15558  15559  15560  15564     1  0.0000000  0.6508444  3
  15558  15559  15560  15576     1  0.0000000  0.6508444  3
  15559  15558  15555  15567     1  0.0000000  0.6508444  3
  15560  15559  15558  15566     1  0.0000000  0.6508444  3
  15560  15576  15554  15568     1  180.0000771  0.4184000  2
  15560  15576  15554  15568     1  0.0000000  1.6024720  3
  15564  15560  15559  15565     1  0.0000000  4.9162000  2
  15564  15560  15559  15565     1  0.0000000  0.6024960  3
  15565  15559  15558  15566     1  0.0000000  4.9162000  2
  15565  15559  15558  15566     1  0.0000000  0.6024960  3
  15565  15559  15560  15576     1  0.0000000  4.9162000  2
  15565  15559  15560  15576     1  0.0000000  0.6024960  3
  15566  15558  15555  15567     1  0.0000000  4.9162000  2
  15566  15558  15555  15567     1  0.0000000  0.6024960  3
  15567  15555  15554  15568     1  0.0000000  0.6508444  3
  15567  15555  15554  15576     1  0.0000000  4.9162000  2
  15567  15555  15554  15576     1  0.0000000  0.6024960  3
  15574  15568  15554  15576     1  0.0000000  4.9162000  2
  15574  15568  15554  15576     1  0.0000000  0.6024960  3
  15577  15578  15581  15582     1  180.0000771  0.8368000  1
  15577  15578  15581  15582     1  180.0000771  1.0460000  2
  15577  15578  15581  15582     1  0.0000000  0.7531200  3
  15577  15578  15581  15589     1  0.0000000  0.6508444  3
  15577  15599  15583  15587     1  180.0000771  5.6484000  1
  15577  15599  15583  15587     1  180.0000771  3.5564000  2
  15577  15599  15583  15587     1  0.0000000  0.4184000  3
  15577  15599  15583  15582     1  180.0000771  0.4184000  2
  15577  15599  15583  15582     1  0.0000000  1.6024720  3
  15578  15581  15582  15583     1  180.0000771  0.8368000  1
  15578  15581  15582  15583     1  180.0000771  1.0460000  2
  15578  15581  15582  15583     1  0.0000000  0.7531200  3
  15578  15581  15582  15588     1  0.0000000  0.6508444  3
  15578  15577  15591  15597     1  0.0000000  0.6508444  3
  15578  15577  15599  15583     1  180.0000771  0.4184000  2
  15578  15577  15599  15583     1  0.0000000  1.6024720  3
  15581  15582  15583  15587     1  0.0000000  0.6508444  3
  15581  15582  15583  15599     1  0.0000000  0.6508444  3
  15581  15578  15577  15591     1  180.0000771  0.8368000  1
  15581  15578  15577  15591     1  180.0000771  1.0460000  2
  15581  15578  15577  15591     1  0.0000000  0.7531200  3
  15581  15578  15577  15599     1  0.0000000  0.6508444  3
  15582  15581  15578  15590     1  0.0000000  0.6508444  3
  15583  15599  15577  15591     1  180.0000771  0.4184000  2
  15583  15599  15577  15591     1  0.0000000  1.6024720  3
  15583  15582  15581  15589     1  0.0000000  0.6508444  3
  15587  15583  15582  15588     1  0.0000000  4.9162000  2
  15587  15583  15582  15588     1  0.0000000  0.6024960  3
  15588  15582  15583  15599     1  0.0000000  4.9162000  2
  15588  15582  15583  15599     1  0.0000000  0.6024960  3
  15588  15582  15581  15589     1  0.0000000  4.9162000  2
  15588  15582  15581  15589     1  0.0000000  0.6024960  3
  15589  15581  15578  15590     1  0.0000000  4.9162000  2
  15589  15581  15578  15590     1  0.0000000  0.6024960  3
  15590  15578  15577  15591     1  0.0000000  0.6508444  3
  15590  15578  15577  15599     1  0.0000000  4.9162000  2
  15590  15578  15577  15599     1  0.0000000  0.6024960  3
  15597  15591  15577  15599     1  0.0000000  4.9162000  2
  15597  15591  15577  15599     1  0.0000000  0.6024960  3
  15600  15601  15604  15605     1  180.0000771  0.8368000  1
  15600  15601  15604  15605     1  180.0000771  1.0460000  2
  15600  15601  15604  15605     1  0.0000000  0.7531200  3
  15600  15601  15604  15612     1  0.0000000  0.6508444  3
  15600  15622  15606  15605     1  180.0000771  0.4184000  2
  15600  15622  15606  15605     1  0.0000000  1.6024720  3
  15600  15622  15606  15610     1  180.0000771  5.6484000  1
  15600  15622  15606  15610     1  180.0000771  3.5564000  2
  15600  15622  15606  15610     1  0.0000000  0.4184000  3
  15601  15600  15614  15620     1  0.0000000  0.6508444  3
  15601  15600  15622  15606     1  180.0000771  0.4184000  2
  15601  15600  15622  15606     1  0.0000000  1.6024720  3
  15601  15604  15605  15606     1  180.0000771  0.8368000  1
  15601  15604  15605  15606     1  180.0000771  1.0460000  2
  15601  15604  15605  15606     1  0.0000000  0.7531200  3
  15601  15604  15605  15611     1  0.0000000  0.6508444  3
  15604  15601  15600  15614     1  180.0000771  0.8368000  1
  15604  15601  15600  15614     1  180.0000771  1.0460000  2
  15604  15601  15600  15614     1  0.0000000  0.7531200  3
  15604  15601  15600  15622     1  0.0000000  0.6508444  3
  15604  15605  15606  15610     1  0.0000000  0.6508444  3
  15604  15605  15606  15622     1  0.0000000  0.6508444  3
  15605  15604  15601  15613     1  0.0000000  0.6508444  3
  15606  15605  15604  15612     1  0.0000000  0.6508444  3
  15606  15622  15600  15614     1  180.0000771  0.4184000  2
  15606  15622  15600  15614     1  0.0000000  1.6024720  3
  15610  15606  15605  15611     1  0.0000000  4.9162000  2
  15610  15606  15605  15611     1  0.0000000  0.6024960  3
  15611  15605  15604  15612     1  0.0000000  4.9162000  2
  15611  15605  15604  15612     1  0.0000000  0.6024960  3
  15611  15605  15606  15622     1  0.0000000  4.9162000  2
  15611  15605  15606  15622     1  0.0000000  0.6024960  3
  15612  15604  15601  15613     1  0.0000000  4.9162000  2
  15612  15604  15601  15613     1  0.0000000  0.6024960  3
  15613  15601  15600  15614     1  0.0000000  0.6508444  3
  15613  15601  15600  15622     1  0.0000000  4.9162000  2
  15613  15601  15600  15622     1  0.0000000  0.6024960  3
  15620  15614  15600  15622     1  0.0000000  4.9162000  2
  15620  15614  15600  15622     1  0.0000000  0.6024960  3
  15623  15624  15627  15628     1  180.0000771  0.8368000  1
  15623  15624  15627  15628     1  180.0000771  1.0460000  2
  15623  15624  15627  15628     1  0.0000000  0.7531200  3
  15623  15624  15627  15635     1  0.0000000  0.6508444  3
  15623  15645  15629  15633     1  180.0000771  5.6484000  1
  15623  15645  15629  15633     1  180.0000771  3.5564000  2
  15623  15645  15629  15633     1  0.0000000  0.4184000  3
  15623  15645  15629  15628     1  180.0000771  0.4184000  2
  15623  15645  15629  15628     1  0.0000000  1.6024720  3
  15624  15627  15628  15629     1  180.0000771  0.8368000  1
  15624  15627  15628  15629     1  180.0000771  1.0460000  2
  15624  15627  15628  15629     1  0.0000000  0.7531200  3
  15624  15627  15628  15634     1  0.0000000  0.6508444  3
  15624  15623  15637  15643     1  0.0000000  0.6508444  3
  15624  15623  15645  15629     1  180.0000771  0.4184000  2
  15624  15623  15645  15629     1  0.0000000  1.6024720  3
  15627  15628  15629  15633     1  0.0000000  0.6508444  3
  15627  15628  15629  15645     1  0.0000000  0.6508444  3
  15627  15624  15623  15637     1  180.0000771  0.8368000  1
  15627  15624  15623  15637     1  180.0000771  1.0460000  2
  15627  15624  15623  15637     1  0.0000000  0.7531200  3
  15627  15624  15623  15645     1  0.0000000  0.6508444  3
  15628  15627  15624  15636     1  0.0000000  0.6508444  3
  15629  15645  15623  15637     1  180.0000771  0.4184000  2
  15629  15645  15623  15637     1  0.0000000  1.6024720  3
  15629  15628  15627  15635     1  0.0000000  0.6508444  3
  15633  15629  15628  15634     1  0.0000000  4.9162000  2
  15633  15629  15628  15634     1  0.0000000  0.6024960  3
  15634  15628  15629  15645     1  0.0000000  4.9162000  2
  15634  15628  15629  15645     1  0.0000000  0.6024960  3
  15634  15628  15627  15635     1  0.0000000  4.9162000  2
  15634  15628  15627  15635     1  0.0000000  0.6024960  3
  15635  15627  15624  15636     1  0.0000000  4.9162000  2
  15635  15627  15624  15636     1  0.0000000  0.6024960  3
  15636  15624  15623  15637     1  0.0000000  0.6508444  3
  15636  15624  15623  15645     1  0.0000000  4.9162000  2
  15636  15624  15623  15645     1  0.0000000  0.6024960  3
  15643  15637  15623  15645     1  0.0000000  4.9162000  2
  15643  15637  15623  15645     1  0.0000000  0.6024960  3
  15646  15647  15650  15651     1  180.0000771  0.8368000  1
  15646  15647  15650  15651     1  180.0000771  1.0460000  2
  15646  15647  15650  15651     1  0.0000000  0.7531200  3
  15646  15647  15650  15658     1  0.0000000  0.6508444  3
  15646  15668  15652  15651     1  180.0000771  0.4184000  2
  15646  15668  15652  15651     1  0.0000000  1.6024720  3
  15646  15668  15652  15656     1  180.0000771  5.6484000  1
  15646  15668  15652  15656     1  180.0000771  3.5564000  2
  15646  15668  15652  15656     1  0.0000000  0.4184000  3
  15647  15646  15660  15666     1  0.0000000  0.6508444  3
  15647  15646  15668  15652     1  180.0000771  0.4184000  2
  15647  15646  15668  15652     1  0.0000000  1.6024720  3
  15647  15650  15651  15652     1  180.0000771  0.8368000  1
  15647  15650  15651  15652     1  180.0000771  1.0460000  2
  15647  15650  15651  15652     1  0.0000000  0.7531200  3
  15647  15650  15651  15657     1  0.0000000  0.6508444  3
  15650  15647  15646  15660     1  180.0000771  0.8368000  1
  15650  15647  15646  15660     1  180.0000771  1.0460000  2
  15650  15647  15646  15660     1  0.0000000  0.7531200  3
  15650  15647  15646  15668     1  0.0000000  0.6508444  3
  15650  15651  15652  15656     1  0.0000000  0.6508444  3
  15650  15651  15652  15668     1  0.0000000  0.6508444  3
  15651  15650  15647  15659     1  0.0000000  0.6508444  3
  15652  15651  15650  15658     1  0.0000000  0.6508444  3
  15652  15668  15646  15660     1  180.0000771  0.4184000  2
  15652  15668  15646  15660     1  0.0000000  1.6024720  3
  15656  15652  15651  15657     1  0.0000000  4.9162000  2
  15656  15652  15651  15657     1  0.0000000  0.6024960  3
  15657  15651  15650  15658     1  0.0000000  4.9162000  2
  15657  15651  15650  15658     1  0.0000000  0.6024960  3
  15657  15651  15652  15668     1  0.0000000  4.9162000  2
  15657  15651  15652  15668     1  0.0000000  0.6024960  3
  15658  15650  15647  15659     1  0.0000000  4.9162000  2
  15658  15650  15647  15659     1  0.0000000  0.6024960  3
  15659  15647  15646  15660     1  0.0000000  0.6508444  3
  15659  15647  15646  15668     1  0.0000000  4.9162000  2
  15659  15647  15646  15668     1  0.0000000  0.6024960  3
  15666  15660  15646  15668     1  0.0000000  4.9162000  2
  15666  15660  15646  15668     1  0.0000000  0.6024960  3
  15669  15670  15673  15674     1  180.0000771  0.8368000  1
  15669  15670  15673  15674     1  180.0000771  1.0460000  2
  15669  15670  15673  15674     1  0.0000000  0.7531200  3
  15669  15670  15673  15681     1  0.0000000  0.6508444  3
  15669  15691  15675  15679     1  180.0000771  5.6484000  1
  15669  15691  15675  15679     1  180.0000771  3.5564000  2
  15669  15691  15675  15679     1  0.0000000  0.4184000  3
  15669  15691  15675  15674     1  180.0000771  0.4184000  2
  15669  15691  15675  15674     1  0.0000000  1.6024720  3
  15670  15673  15674  15675     1  180.0000771  0.8368000  1
  15670  15673  15674  15675     1  180.0000771  1.0460000  2
  15670  15673  15674  15675     1  0.0000000  0.7531200  3
  15670  15673  15674  15680     1  0.0000000  0.6508444  3
  15670  15669  15683  15689     1  0.0000000  0.6508444  3
  15670  15669  15691  15675     1  180.0000771  0.4184000  2
  15670  15669  15691  15675     1  0.0000000  1.6024720  3
  15673  15674  15675  15679     1  0.0000000  0.6508444  3
  15673  15674  15675  15691     1  0.0000000  0.6508444  3
  15673  15670  15669  15683     1  180.0000771  0.8368000  1
  15673  15670  15669  15683     1  180.0000771  1.0460000  2
  15673  15670  15669  15683     1  0.0000000  0.7531200  3
  15673  15670  15669  15691     1  0.0000000  0.6508444  3
  15674  15673  15670  15682     1  0.0000000  0.6508444  3
  15675  15691  15669  15683     1  180.0000771  0.4184000  2
  15675  15691  15669  15683     1  0.0000000  1.6024720  3
  15675  15674  15673  15681     1  0.0000000  0.6508444  3
  15679  15675  15674  15680     1  0.0000000  4.9162000  2
  15679  15675  15674  15680     1  0.0000000  0.6024960  3
  15680  15674  15675  15691     1  0.0000000  4.9162000  2
  15680  15674  15675  15691     1  0.0000000  0.6024960  3
  15680  15674  15673  15681     1  0.0000000  4.9162000  2
  15680  15674  15673  15681     1  0.0000000  0.6024960  3
  15681  15673  15670  15682     1  0.0000000  4.9162000  2
  15681  15673  15670  15682     1  0.0000000  0.6024960  3
  15682  15670  15669  15683     1  0.0000000  0.6508444  3
  15682  15670  15669  15691     1  0.0000000  4.9162000  2
  15682  15670  15669  15691     1  0.0000000  0.6024960  3
  15689  15683  15669  15691     1  0.0000000  4.9162000  2
  15689  15683  15669  15691     1  0.0000000  0.6024960  3
  15692  15693  15696  15697     1  180.0000771  0.8368000  1
  15692  15693  15696  15697     1  180.0000771  1.0460000  2
  15692  15693  15696  15697     1  0.0000000  0.7531200  3
  15692  15693  15696  15704     1  0.0000000  0.6508444  3
  15692  15714  15698  15697     1  180.0000771  0.4184000  2
  15692  15714  15698  15697     1  0.0000000  1.6024720  3
  15692  15714  15698  15702     1  180.0000771  5.6484000  1
  15692  15714  15698  15702     1  180.0000771  3.5564000  2
  15692  15714  15698  15702     1  0.0000000  0.4184000  3
  15693  15692  15706  15712     1  0.0000000  0.6508444  3
  15693  15692  15714  15698     1  180.0000771  0.4184000  2
  15693  15692  15714  15698     1  0.0000000  1.6024720  3
  15693  15696  15697  15698     1  180.0000771  0.8368000  1
  15693  15696  15697  15698     1  180.0000771  1.0460000  2
  15693  15696  15697  15698     1  0.0000000  0.7531200  3
  15693  15696  15697  15703     1  0.0000000  0.6508444  3
  15696  15693  15692  15706     1  180.0000771  0.8368000  1
  15696  15693  15692  15706     1  180.0000771  1.0460000  2
  15696  15693  15692  15706     1  0.0000000  0.7531200  3
  15696  15693  15692  15714     1  0.0000000  0.6508444  3
  15696  15697  15698  15702     1  0.0000000  0.6508444  3
  15696  15697  15698  15714     1  0.0000000  0.6508444  3
  15697  15696  15693  15705     1  0.0000000  0.6508444  3
  15698  15697  15696  15704     1  0.0000000  0.6508444  3
  15698  15714  15692  15706     1  180.0000771  0.4184000  2
  15698  15714  15692  15706     1  0.0000000  1.6024720  3
  15702  15698  15697  15703     1  0.0000000  4.9162000  2
  15702  15698  15697  15703     1  0.0000000  0.6024960  3
  15703  15697  15696  15704     1  0.0000000  4.9162000  2
  15703  15697  15696  15704     1  0.0000000  0.6024960  3
  15703  15697  15698  15714     1  0.0000000  4.9162000  2
  15703  15697  15698  15714     1  0.0000000  0.6024960  3
  15704  15696  15693  15705     1  0.0000000  4.9162000  2
  15704  15696  15693  15705     1  0.0000000  0.6024960  3
  15705  15693  15692  15706     1  0.0000000  0.6508444  3
  15705  15693  15692  15714     1  0.0000000  4.9162000  2
  15705  15693  15692  15714     1  0.0000000  0.6024960  3
  15712  15706  15692  15714     1  0.0000000  4.9162000  2
  15712  15706  15692  15714     1  0.0000000  0.6024960  3
  15715  15716  15719  15720     1  180.0000771  0.8368000  1
  15715  15716  15719  15720     1  180.0000771  1.0460000  2
  15715  15716  15719  15720     1  0.0000000  0.7531200  3
  15715  15716  15719  15727     1  0.0000000  0.6508444  3
  15715  15737  15721  15725     1  180.0000771  5.6484000  1
  15715  15737  15721  15725     1  180.0000771  3.5564000  2
  15715  15737  15721  15725     1  0.0000000  0.4184000  3
  15715  15737  15721  15720     1  180.0000771  0.4184000  2
  15715  15737  15721  15720     1  0.0000000  1.6024720  3
  15716  15719  15720  15721     1  180.0000771  0.8368000  1
  15716  15719  15720  15721     1  180.0000771  1.0460000  2
  15716  15719  15720  15721     1  0.0000000  0.7531200  3
  15716  15719  15720  15726     1  0.0000000  0.6508444  3
  15716  15715  15729  15735     1  0.0000000  0.6508444  3
  15716  15715  15737  15721     1  180.0000771  0.4184000  2
  15716  15715  15737  15721     1  0.0000000  1.6024720  3
  15719  15720  15721  15725     1  0.0000000  0.6508444  3
  15719  15720  15721  15737     1  0.0000000  0.6508444  3
  15719  15716  15715  15729     1  180.0000771  0.8368000  1
  15719  15716  15715  15729     1  180.0000771  1.0460000  2
  15719  15716  15715  15729     1  0.0000000  0.7531200  3
  15719  15716  15715  15737     1  0.0000000  0.6508444  3
  15720  15719  15716  15728     1  0.0000000  0.6508444  3
  15721  15737  15715  15729     1  180.0000771  0.4184000  2
  15721  15737  15715  15729     1  0.0000000  1.6024720  3
  15721  15720  15719  15727     1  0.0000000  0.6508444  3
  15725  15721  15720  15726     1  0.0000000  4.9162000  2
  15725  15721  15720  15726     1  0.0000000  0.6024960  3
  15726  15720  15721  15737     1  0.0000000  4.9162000  2
  15726  15720  15721  15737     1  0.0000000  0.6024960  3
  15726  15720  15719  15727     1  0.0000000  4.9162000  2
  15726  15720  15719  15727     1  0.0000000  0.6024960  3
  15727  15719  15716  15728     1  0.0000000  4.9162000  2
  15727  15719  15716  15728     1  0.0000000  0.6024960  3
  15728  15716  15715  15729     1  0.0000000  0.6508444  3
  15728  15716  15715  15737     1  0.0000000  4.9162000  2
  15728  15716  15715  15737     1  0.0000000  0.6024960  3
  15735  15729  15715  15737     1  0.0000000  4.9162000  2
  15735  15729  15715  15737     1  0.0000000  0.6024960  3
  15738  15739  15742  15743     1  180.0000771  0.8368000  1
  15738  15739  15742  15743     1  180.0000771  1.0460000  2
  15738  15739  15742  15743     1  0.0000000  0.7531200  3
  15738  15739  15742  15750     1  0.0000000  0.6508444  3
  15738  15760  15744  15743     1  180.0000771  0.4184000  2
  15738  15760  15744  15743     1  0.0000000  1.6024720  3
  15738  15760  15744  15748     1  180.0000771  5.6484000  1
  15738  15760  15744  15748     1  180.0000771  3.5564000  2
  15738  15760  15744  15748     1  0.0000000  0.4184000  3
  15739  15738  15752  15758     1  0.0000000  0.6508444  3
  15739  15738  15760  15744     1  180.0000771  0.4184000  2
  15739  15738  15760  15744     1  0.0000000  1.6024720  3
  15739  15742  15743  15744     1  180.0000771  0.8368000  1
  15739  15742  15743  15744     1  180.0000771  1.0460000  2
  15739  15742  15743  15744     1  0.0000000  0.7531200  3
  15739  15742  15743  15749     1  0.0000000  0.6508444  3
  15742  15739  15738  15752     1  180.0000771  0.8368000  1
  15742  15739  15738  15752     1  180.0000771  1.0460000  2
  15742  15739  15738  15752     1  0.0000000  0.7531200  3
  15742  15739  15738  15760     1  0.0000000  0.6508444  3
  15742  15743  15744  15748     1  0.0000000  0.6508444  3
  15742  15743  15744  15760     1  0.0000000  0.6508444  3
  15743  15742  15739  15751     1  0.0000000  0.6508444  3
  15744  15743  15742  15750     1  0.0000000  0.6508444  3
  15744  15760  15738  15752     1  180.0000771  0.4184000  2
  15744  15760  15738  15752     1  0.0000000  1.6024720  3
  15748  15744  15743  15749     1  0.0000000  4.9162000  2
  15748  15744  15743  15749     1  0.0000000  0.6024960  3
  15749  15743  15742  15750     1  0.0000000  4.9162000  2
  15749  15743  15742  15750     1  0.0000000  0.6024960  3
  15749  15743  15744  15760     1  0.0000000  4.9162000  2
  15749  15743  15744  15760     1  0.0000000  0.6024960  3
  15750  15742  15739  15751     1  0.0000000  4.9162000  2
  15750  15742  15739  15751     1  0.0000000  0.6024960  3
  15751  15739  15738  15752     1  0.0000000  0.6508444  3
  15751  15739  15738  15760     1  0.0000000  4.9162000  2
  15751  15739  15738  15760     1  0.0000000  0.6024960  3
  15758  15752  15738  15760     1  0.0000000  4.9162000  2
  15758  15752  15738  15760     1  0.0000000  0.6024960  3
  15761  15762  15765  15766     1  180.0000771  0.8368000  1
  15761  15762  15765  15766     1  180.0000771  1.0460000  2
  15761  15762  15765  15766     1  0.0000000  0.7531200  3
  15761  15762  15765  15773     1  0.0000000  0.6508444  3
  15761  15783  15767  15771     1  180.0000771  5.6484000  1
  15761  15783  15767  15771     1  180.0000771  3.5564000  2
  15761  15783  15767  15771     1  0.0000000  0.4184000  3
  15761  15783  15767  15766     1  180.0000771  0.4184000  2
  15761  15783  15767  15766     1  0.0000000  1.6024720  3
  15762  15765  15766  15767     1  180.0000771  0.8368000  1
  15762  15765  15766  15767     1  180.0000771  1.0460000  2
  15762  15765  15766  15767     1  0.0000000  0.7531200  3
  15762  15765  15766  15772     1  0.0000000  0.6508444  3
  15762  15761  15775  15781     1  0.0000000  0.6508444  3
  15762  15761  15783  15767     1  180.0000771  0.4184000  2
  15762  15761  15783  15767     1  0.0000000  1.6024720  3
  15765  15766  15767  15771     1  0.0000000  0.6508444  3
  15765  15766  15767  15783     1  0.0000000  0.6508444  3
  15765  15762  15761  15775     1  180.0000771  0.8368000  1
  15765  15762  15761  15775     1  180.0000771  1.0460000  2
  15765  15762  15761  15775     1  0.0000000  0.7531200  3
  15765  15762  15761  15783     1  0.0000000  0.6508444  3
  15766  15765  15762  15774     1  0.0000000  0.6508444  3
  15767  15783  15761  15775     1  180.0000771  0.4184000  2
  15767  15783  15761  15775     1  0.0000000  1.6024720  3
  15767  15766  15765  15773     1  0.0000000  0.6508444  3
  15771  15767  15766  15772     1  0.0000000  4.9162000  2
  15771  15767  15766  15772     1  0.0000000  0.6024960  3
  15772  15766  15767  15783     1  0.0000000  4.9162000  2
  15772  15766  15767  15783     1  0.0000000  0.6024960  3
  15772  15766  15765  15773     1  0.0000000  4.9162000  2
  15772  15766  15765  15773     1  0.0000000  0.6024960  3
  15773  15765  15762  15774     1  0.0000000  4.9162000  2
  15773  15765  15762  15774     1  0.0000000  0.6024960  3
  15774  15762  15761  15775     1  0.0000000  0.6508444  3
  15774  15762  15761  15783     1  0.0000000  4.9162000  2
  15774  15762  15761  15783     1  0.0000000  0.6024960  3
  15781  15775  15761  15783     1  0.0000000  4.9162000  2
  15781  15775  15761  15783     1  0.0000000  0.6024960  3
  15784  15785  15788  15789     1  180.0000771  0.8368000  1
  15784  15785  15788  15789     1  180.0000771  1.0460000  2
  15784  15785  15788  15789     1  0.0000000  0.7531200  3
  15784  15785  15788  15796     1  0.0000000  0.6508444  3
  15784  15806  15790  15789     1  180.0000771  0.4184000  2
  15784  15806  15790  15789     1  0.0000000  1.6024720  3
  15784  15806  15790  15794     1  180.0000771  5.6484000  1
  15784  15806  15790  15794     1  180.0000771  3.5564000  2
  15784  15806  15790  15794     1  0.0000000  0.4184000  3
  15785  15784  15798  15804     1  0.0000000  0.6508444  3
  15785  15784  15806  15790     1  180.0000771  0.4184000  2
  15785  15784  15806  15790     1  0.0000000  1.6024720  3
  15785  15788  15789  15790     1  180.0000771  0.8368000  1
  15785  15788  15789  15790     1  180.0000771  1.0460000  2
  15785  15788  15789  15790     1  0.0000000  0.7531200  3
  15785  15788  15789  15795     1  0.0000000  0.6508444  3
  15788  15785  15784  15798     1  180.0000771  0.8368000  1
  15788  15785  15784  15798     1  180.0000771  1.0460000  2
  15788  15785  15784  15798     1  0.0000000  0.7531200  3
  15788  15785  15784  15806     1  0.0000000  0.6508444  3
  15788  15789  15790  15794     1  0.0000000  0.6508444  3
  15788  15789  15790  15806     1  0.0000000  0.6508444  3
  15789  15788  15785  15797     1  0.0000000  0.6508444  3
  15790  15789  15788  15796     1  0.0000000  0.6508444  3
  15790  15806  15784  15798     1  180.0000771  0.4184000  2
  15790  15806  15784  15798     1  0.0000000  1.6024720  3
  15794  15790  15789  15795     1  0.0000000  4.9162000  2
  15794  15790  15789  15795     1  0.0000000  0.6024960  3
  15795  15789  15788  15796     1  0.0000000  4.9162000  2
  15795  15789  15788  15796     1  0.0000000  0.6024960  3
  15795  15789  15790  15806     1  0.0000000  4.9162000  2
  15795  15789  15790  15806     1  0.0000000  0.6024960  3
  15796  15788  15785  15797     1  0.0000000  4.9162000  2
  15796  15788  15785  15797     1  0.0000000  0.6024960  3
  15797  15785  15784  15798     1  0.0000000  0.6508444  3
  15797  15785  15784  15806     1  0.0000000  4.9162000  2
  15797  15785  15784  15806     1  0.0000000  0.6024960  3
  15804  15798  15784  15806     1  0.0000000  4.9162000  2
  15804  15798  15784  15806     1  0.0000000  0.6024960  3
  15807  15808  15811  15812     1  180.0000771  0.8368000  1
  15807  15808  15811  15812     1  180.0000771  1.0460000  2
  15807  15808  15811  15812     1  0.0000000  0.7531200  3
  15807  15808  15811  15819     1  0.0000000  0.6508444  3
  15807  15829  15813  15817     1  180.0000771  5.6484000  1
  15807  15829  15813  15817     1  180.0000771  3.5564000  2
  15807  15829  15813  15817     1  0.0000000  0.4184000  3
  15807  15829  15813  15812     1  180.0000771  0.4184000  2
  15807  15829  15813  15812     1  0.0000000  1.6024720  3
  15808  15811  15812  15813     1  180.0000771  0.8368000  1
  15808  15811  15812  15813     1  180.0000771  1.0460000  2
  15808  15811  15812  15813     1  0.0000000  0.7531200  3
  15808  15811  15812  15818     1  0.0000000  0.6508444  3
  15808  15807  15821  15827     1  0.0000000  0.6508444  3
  15808  15807  15829  15813     1  180.0000771  0.4184000  2
  15808  15807  15829  15813     1  0.0000000  1.6024720  3
  15811  15812  15813  15817     1  0.0000000  0.6508444  3
  15811  15812  15813  15829     1  0.0000000  0.6508444  3
  15811  15808  15807  15821     1  180.0000771  0.8368000  1
  15811  15808  15807  15821     1  180.0000771  1.0460000  2
  15811  15808  15807  15821     1  0.0000000  0.7531200  3
  15811  15808  15807  15829     1  0.0000000  0.6508444  3
  15812  15811  15808  15820     1  0.0000000  0.6508444  3
  15813  15829  15807  15821     1  180.0000771  0.4184000  2
  15813  15829  15807  15821     1  0.0000000  1.6024720  3
  15813  15812  15811  15819     1  0.0000000  0.6508444  3
  15817  15813  15812  15818     1  0.0000000  4.9162000  2
  15817  15813  15812  15818     1  0.0000000  0.6024960  3
  15818  15812  15813  15829     1  0.0000000  4.9162000  2
  15818  15812  15813  15829     1  0.0000000  0.6024960  3
  15818  15812  15811  15819     1  0.0000000  4.9162000  2
  15818  15812  15811  15819     1  0.0000000  0.6024960  3
  15819  15811  15808  15820     1  0.0000000  4.9162000  2
  15819  15811  15808  15820     1  0.0000000  0.6024960  3
  15820  15808  15807  15821     1  0.0000000  0.6508444  3
  15820  15808  15807  15829     1  0.0000000  4.9162000  2
  15820  15808  15807  15829     1  0.0000000  0.6024960  3
  15827  15821  15807  15829     1  0.0000000  4.9162000  2
  15827  15821  15807  15829     1  0.0000000  0.6024960  3
  15830  15831  15834  15835     1  180.0000771  0.8368000  1
  15830  15831  15834  15835     1  180.0000771  1.0460000  2
  15830  15831  15834  15835     1  0.0000000  0.7531200  3
  15830  15831  15834  15842     1  0.0000000  0.6508444  3
  15830  15852  15836  15835     1  180.0000771  0.4184000  2
  15830  15852  15836  15835     1  0.0000000  1.6024720  3
  15830  15852  15836  15840     1  180.0000771  5.6484000  1
  15830  15852  15836  15840     1  180.0000771  3.5564000  2
  15830  15852  15836  15840     1  0.0000000  0.4184000  3
  15831  15830  15844  15850     1  0.0000000  0.6508444  3
  15831  15830  15852  15836     1  180.0000771  0.4184000  2
  15831  15830  15852  15836     1  0.0000000  1.6024720  3
  15831  15834  15835  15836     1  180.0000771  0.8368000  1
  15831  15834  15835  15836     1  180.0000771  1.0460000  2
  15831  15834  15835  15836     1  0.0000000  0.7531200  3
  15831  15834  15835  15841     1  0.0000000  0.6508444  3
  15834  15831  15830  15844     1  180.0000771  0.8368000  1
  15834  15831  15830  15844     1  180.0000771  1.0460000  2
  15834  15831  15830  15844     1  0.0000000  0.7531200  3
  15834  15831  15830  15852     1  0.0000000  0.6508444  3
  15834  15835  15836  15840     1  0.0000000  0.6508444  3
  15834  15835  15836  15852     1  0.0000000  0.6508444  3
  15835  15834  15831  15843     1  0.0000000  0.6508444  3
  15836  15835  15834  15842     1  0.0000000  0.6508444  3
  15836  15852  15830  15844     1  180.0000771  0.4184000  2
  15836  15852  15830  15844     1  0.0000000  1.6024720  3
  15840  15836  15835  15841     1  0.0000000  4.9162000  2
  15840  15836  15835  15841     1  0.0000000  0.6024960  3
  15841  15835  15834  15842     1  0.0000000  4.9162000  2
  15841  15835  15834  15842     1  0.0000000  0.6024960  3
  15841  15835  15836  15852     1  0.0000000  4.9162000  2
  15841  15835  15836  15852     1  0.0000000  0.6024960  3
  15842  15834  15831  15843     1  0.0000000  4.9162000  2
  15842  15834  15831  15843     1  0.0000000  0.6024960  3
  15843  15831  15830  15844     1  0.0000000  0.6508444  3
  15843  15831  15830  15852     1  0.0000000  4.9162000  2
  15843  15831  15830  15852     1  0.0000000  0.6024960  3
  15850  15844  15830  15852     1  0.0000000  4.9162000  2
  15850  15844  15830  15852     1  0.0000000  0.6024960  3
  15853  15854  15857  15858     1  180.0000771  0.8368000  1
  15853  15854  15857  15858     1  180.0000771  1.0460000  2
  15853  15854  15857  15858     1  0.0000000  0.7531200  3
  15853  15854  15857  15865     1  0.0000000  0.6508444  3
  15853  15875  15859  15863     1  180.0000771  5.6484000  1
  15853  15875  15859  15863     1  180.0000771  3.5564000  2
  15853  15875  15859  15863     1  0.0000000  0.4184000  3
  15853  15875  15859  15858     1  180.0000771  0.4184000  2
  15853  15875  15859  15858     1  0.0000000  1.6024720  3
  15854  15857  15858  15859     1  180.0000771  0.8368000  1
  15854  15857  15858  15859     1  180.0000771  1.0460000  2
  15854  15857  15858  15859     1  0.0000000  0.7531200  3
  15854  15857  15858  15864     1  0.0000000  0.6508444  3
  15854  15853  15867  15873     1  0.0000000  0.6508444  3
  15854  15853  15875  15859     1  180.0000771  0.4184000  2
  15854  15853  15875  15859     1  0.0000000  1.6024720  3
  15857  15858  15859  15863     1  0.0000000  0.6508444  3
  15857  15858  15859  15875     1  0.0000000  0.6508444  3
  15857  15854  15853  15867     1  180.0000771  0.8368000  1
  15857  15854  15853  15867     1  180.0000771  1.0460000  2
  15857  15854  15853  15867     1  0.0000000  0.7531200  3
  15857  15854  15853  15875     1  0.0000000  0.6508444  3
  15858  15857  15854  15866     1  0.0000000  0.6508444  3
  15859  15875  15853  15867     1  180.0000771  0.4184000  2
  15859  15875  15853  15867     1  0.0000000  1.6024720  3
  15859  15858  15857  15865     1  0.0000000  0.6508444  3
  15863  15859  15858  15864     1  0.0000000  4.9162000  2
  15863  15859  15858  15864     1  0.0000000  0.6024960  3
  15864  15858  15859  15875     1  0.0000000  4.9162000  2
  15864  15858  15859  15875     1  0.0000000  0.6024960  3
  15864  15858  15857  15865     1  0.0000000  4.9162000  2
  15864  15858  15857  15865     1  0.0000000  0.6024960  3
  15865  15857  15854  15866     1  0.0000000  4.9162000  2
  15865  15857  15854  15866     1  0.0000000  0.6024960  3
  15866  15854  15853  15867     1  0.0000000  0.6508444  3
  15866  15854  15853  15875     1  0.0000000  4.9162000  2
  15866  15854  15853  15875     1  0.0000000  0.6024960  3
  15873  15867  15853  15875     1  0.0000000  4.9162000  2
  15873  15867  15853  15875     1  0.0000000  0.6024960  3
  15876  15877  15880  15881     1  180.0000771  0.8368000  1
  15876  15877  15880  15881     1  180.0000771  1.0460000  2
  15876  15877  15880  15881     1  0.0000000  0.7531200  3
  15876  15877  15880  15888     1  0.0000000  0.6508444  3
  15876  15898  15882  15881     1  180.0000771  0.4184000  2
  15876  15898  15882  15881     1  0.0000000  1.6024720  3
  15876  15898  15882  15886     1  180.0000771  5.6484000  1
  15876  15898  15882  15886     1  180.0000771  3.5564000  2
  15876  15898  15882  15886     1  0.0000000  0.4184000  3
  15877  15876  15890  15896     1  0.0000000  0.6508444  3
  15877  15876  15898  15882     1  180.0000771  0.4184000  2
  15877  15876  15898  15882     1  0.0000000  1.6024720  3
  15877  15880  15881  15882     1  180.0000771  0.8368000  1
  15877  15880  15881  15882     1  180.0000771  1.0460000  2
  15877  15880  15881  15882     1  0.0000000  0.7531200  3
  15877  15880  15881  15887     1  0.0000000  0.6508444  3
  15880  15877  15876  15890     1  180.0000771  0.8368000  1
  15880  15877  15876  15890     1  180.0000771  1.0460000  2
  15880  15877  15876  15890     1  0.0000000  0.7531200  3
  15880  15877  15876  15898     1  0.0000000  0.6508444  3
  15880  15881  15882  15886     1  0.0000000  0.6508444  3
  15880  15881  15882  15898     1  0.0000000  0.6508444  3
  15881  15880  15877  15889     1  0.0000000  0.6508444  3
  15882  15881  15880  15888     1  0.0000000  0.6508444  3
  15882  15898  15876  15890     1  180.0000771  0.4184000  2
  15882  15898  15876  15890     1  0.0000000  1.6024720  3
  15886  15882  15881  15887     1  0.0000000  4.9162000  2
  15886  15882  15881  15887     1  0.0000000  0.6024960  3
  15887  15881  15880  15888     1  0.0000000  4.9162000  2
  15887  15881  15880  15888     1  0.0000000  0.6024960  3
  15887  15881  15882  15898     1  0.0000000  4.9162000  2
  15887  15881  15882  15898     1  0.0000000  0.6024960  3
  15888  15880  15877  15889     1  0.0000000  4.9162000  2
  15888  15880  15877  15889     1  0.0000000  0.6024960  3
  15889  15877  15876  15890     1  0.0000000  0.6508444  3
  15889  15877  15876  15898     1  0.0000000  4.9162000  2
  15889  15877  15876  15898     1  0.0000000  0.6024960  3
  15896  15890  15876  15898     1  0.0000000  4.9162000  2
  15896  15890  15876  15898     1  0.0000000  0.6024960  3
  15899  15900  15903  15904     1  180.0000771  0.8368000  1
  15899  15900  15903  15904     1  180.0000771  1.0460000  2
  15899  15900  15903  15904     1  0.0000000  0.7531200  3
  15899  15900  15903  15911     1  0.0000000  0.6508444  3
  15899  15921  15905  15909     1  180.0000771  5.6484000  1
  15899  15921  15905  15909     1  180.0000771  3.5564000  2
  15899  15921  15905  15909     1  0.0000000  0.4184000  3
  15899  15921  15905  15904     1  180.0000771  0.4184000  2
  15899  15921  15905  15904     1  0.0000000  1.6024720  3
  15900  15903  15904  15905     1  180.0000771  0.8368000  1
  15900  15903  15904  15905     1  180.0000771  1.0460000  2
  15900  15903  15904  15905     1  0.0000000  0.7531200  3
  15900  15903  15904  15910     1  0.0000000  0.6508444  3
  15900  15899  15913  15919     1  0.0000000  0.6508444  3
  15900  15899  15921  15905     1  180.0000771  0.4184000  2
  15900  15899  15921  15905     1  0.0000000  1.6024720  3
  15903  15904  15905  15909     1  0.0000000  0.6508444  3
  15903  15904  15905  15921     1  0.0000000  0.6508444  3
  15903  15900  15899  15913     1  180.0000771  0.8368000  1
  15903  15900  15899  15913     1  180.0000771  1.0460000  2
  15903  15900  15899  15913     1  0.0000000  0.7531200  3
  15903  15900  15899  15921     1  0.0000000  0.6508444  3
  15904  15903  15900  15912     1  0.0000000  0.6508444  3
  15905  15921  15899  15913     1  180.0000771  0.4184000  2
  15905  15921  15899  15913     1  0.0000000  1.6024720  3
  15905  15904  15903  15911     1  0.0000000  0.6508444  3
  15909  15905  15904  15910     1  0.0000000  4.9162000  2
  15909  15905  15904  15910     1  0.0000000  0.6024960  3
  15910  15904  15905  15921     1  0.0000000  4.9162000  2
  15910  15904  15905  15921     1  0.0000000  0.6024960  3
  15910  15904  15903  15911     1  0.0000000  4.9162000  2
  15910  15904  15903  15911     1  0.0000000  0.6024960  3
  15911  15903  15900  15912     1  0.0000000  4.9162000  2
  15911  15903  15900  15912     1  0.0000000  0.6024960  3
  15912  15900  15899  15913     1  0.0000000  0.6508444  3
  15912  15900  15899  15921     1  0.0000000  4.9162000  2
  15912  15900  15899  15921     1  0.0000000  0.6024960  3
  15919  15913  15899  15921     1  0.0000000  4.9162000  2
  15919  15913  15899  15921     1  0.0000000  0.6024960  3
  15922  15923  15926  15927     1  180.0000771  0.8368000  1
  15922  15923  15926  15927     1  180.0000771  1.0460000  2
  15922  15923  15926  15927     1  0.0000000  0.7531200  3
  15922  15923  15926  15934     1  0.0000000  0.6508444  3
  15922  15944  15928  15927     1  180.0000771  0.4184000  2
  15922  15944  15928  15927     1  0.0000000  1.6024720  3
  15922  15944  15928  15932     1  180.0000771  5.6484000  1
  15922  15944  15928  15932     1  180.0000771  3.5564000  2
  15922  15944  15928  15932     1  0.0000000  0.4184000  3
  15923  15922  15936  15942     1  0.0000000  0.6508444  3
  15923  15922  15944  15928     1  180.0000771  0.4184000  2
  15923  15922  15944  15928     1  0.0000000  1.6024720  3
  15923  15926  15927  15928     1  180.0000771  0.8368000  1
  15923  15926  15927  15928     1  180.0000771  1.0460000  2
  15923  15926  15927  15928     1  0.0000000  0.7531200  3
  15923  15926  15927  15933     1  0.0000000  0.6508444  3
  15926  15923  15922  15936     1  180.0000771  0.8368000  1
  15926  15923  15922  15936     1  180.0000771  1.0460000  2
  15926  15923  15922  15936     1  0.0000000  0.7531200  3
  15926  15923  15922  15944     1  0.0000000  0.6508444  3
  15926  15927  15928  15932     1  0.0000000  0.6508444  3
  15926  15927  15928  15944     1  0.0000000  0.6508444  3
  15927  15926  15923  15935     1  0.0000000  0.6508444  3
  15928  15927  15926  15934     1  0.0000000  0.6508444  3
  15928  15944  15922  15936     1  180.0000771  0.4184000  2
  15928  15944  15922  15936     1  0.0000000  1.6024720  3
  15932  15928  15927  15933     1  0.0000000  4.9162000  2
  15932  15928  15927  15933     1  0.0000000  0.6024960  3
  15933  15927  15926  15934     1  0.0000000  4.9162000  2
  15933  15927  15926  15934     1  0.0000000  0.6024960  3
  15933  15927  15928  15944     1  0.0000000  4.9162000  2
  15933  15927  15928  15944     1  0.0000000  0.6024960  3
  15934  15926  15923  15935     1  0.0000000  4.9162000  2
  15934  15926  15923  15935     1  0.0000000  0.6024960  3
  15935  15923  15922  15936     1  0.0000000  0.6508444  3
  15935  15923  15922  15944     1  0.0000000  4.9162000  2
  15935  15923  15922  15944     1  0.0000000  0.6024960  3
  15942  15936  15922  15944     1  0.0000000  4.9162000  2
  15942  15936  15922  15944     1  0.0000000  0.6024960  3
  15945  15946  15949  15950     1  180.0000771  0.8368000  1
  15945  15946  15949  15950     1  180.0000771  1.0460000  2
  15945  15946  15949  15950     1  0.0000000  0.7531200  3
  15945  15946  15949  15957     1  0.0000000  0.6508444  3
  15945  15967  15951  15955     1  180.0000771  5.6484000  1
  15945  15967  15951  15955     1  180.0000771  3.5564000  2
  15945  15967  15951  15955     1  0.0000000  0.4184000  3
  15945  15967  15951  15950     1  180.0000771  0.4184000  2
  15945  15967  15951  15950     1  0.0000000  1.6024720  3
  15946  15949  15950  15951     1  180.0000771  0.8368000  1
  15946  15949  15950  15951     1  180.0000771  1.0460000  2
  15946  15949  15950  15951     1  0.0000000  0.7531200  3
  15946  15949  15950  15956     1  0.0000000  0.6508444  3
  15946  15945  15959  15965     1  0.0000000  0.6508444  3
  15946  15945  15967  15951     1  180.0000771  0.4184000  2
  15946  15945  15967  15951     1  0.0000000  1.6024720  3
  15949  15950  15951  15955     1  0.0000000  0.6508444  3
  15949  15950  15951  15967     1  0.0000000  0.6508444  3
  15949  15946  15945  15959     1  180.0000771  0.8368000  1
  15949  15946  15945  15959     1  180.0000771  1.0460000  2
  15949  15946  15945  15959     1  0.0000000  0.7531200  3
  15949  15946  15945  15967     1  0.0000000  0.6508444  3
  15950  15949  15946  15958     1  0.0000000  0.6508444  3
  15951  15967  15945  15959     1  180.0000771  0.4184000  2
  15951  15967  15945  15959     1  0.0000000  1.6024720  3
  15951  15950  15949  15957     1  0.0000000  0.6508444  3
  15955  15951  15950  15956     1  0.0000000  4.9162000  2
  15955  15951  15950  15956     1  0.0000000  0.6024960  3
  15956  15950  15951  15967     1  0.0000000  4.9162000  2
  15956  15950  15951  15967     1  0.0000000  0.6024960  3
  15956  15950  15949  15957     1  0.0000000  4.9162000  2
  15956  15950  15949  15957     1  0.0000000  0.6024960  3
  15957  15949  15946  15958     1  0.0000000  4.9162000  2
  15957  15949  15946  15958     1  0.0000000  0.6024960  3
  15958  15946  15945  15959     1  0.0000000  0.6508444  3
  15958  15946  15945  15967     1  0.0000000  4.9162000  2
  15958  15946  15945  15967     1  0.0000000  0.6024960  3
  15965  15959  15945  15967     1  0.0000000  4.9162000  2
  15965  15959  15945  15967     1  0.0000000  0.6024960  3
  15968  15969  15972  15973     1  180.0000771  0.8368000  1
  15968  15969  15972  15973     1  180.0000771  1.0460000  2
  15968  15969  15972  15973     1  0.0000000  0.7531200  3
  15968  15969  15972  15980     1  0.0000000  0.6508444  3
  15968  15990  15974  15973     1  180.0000771  0.4184000  2
  15968  15990  15974  15973     1  0.0000000  1.6024720  3
  15968  15990  15974  15978     1  180.0000771  5.6484000  1
  15968  15990  15974  15978     1  180.0000771  3.5564000  2
  15968  15990  15974  15978     1  0.0000000  0.4184000  3
  15969  15968  15982  15988     1  0.0000000  0.6508444  3
  15969  15968  15990  15974     1  180.0000771  0.4184000  2
  15969  15968  15990  15974     1  0.0000000  1.6024720  3
  15969  15972  15973  15974     1  180.0000771  0.8368000  1
  15969  15972  15973  15974     1  180.0000771  1.0460000  2
  15969  15972  15973  15974     1  0.0000000  0.7531200  3
  15969  15972  15973  15979     1  0.0000000  0.6508444  3
  15972  15969  15968  15982     1  180.0000771  0.8368000  1
  15972  15969  15968  15982     1  180.0000771  1.0460000  2
  15972  15969  15968  15982     1  0.0000000  0.7531200  3
  15972  15969  15968  15990     1  0.0000000  0.6508444  3
  15972  15973  15974  15978     1  0.0000000  0.6508444  3
  15972  15973  15974  15990     1  0.0000000  0.6508444  3
  15973  15972  15969  15981     1  0.0000000  0.6508444  3
  15974  15973  15972  15980     1  0.0000000  0.6508444  3
  15974  15990  15968  15982     1  180.0000771  0.4184000  2
  15974  15990  15968  15982     1  0.0000000  1.6024720  3
  15978  15974  15973  15979     1  0.0000000  4.9162000  2
  15978  15974  15973  15979     1  0.0000000  0.6024960  3
  15979  15973  15972  15980     1  0.0000000  4.9162000  2
  15979  15973  15972  15980     1  0.0000000  0.6024960  3
  15979  15973  15974  15990     1  0.0000000  4.9162000  2
  15979  15973  15974  15990     1  0.0000000  0.6024960  3
  15980  15972  15969  15981     1  0.0000000  4.9162000  2
  15980  15972  15969  15981     1  0.0000000  0.6024960  3
  15981  15969  15968  15982     1  0.0000000  0.6508444  3
  15981  15969  15968  15990     1  0.0000000  4.9162000  2
  15981  15969  15968  15990     1  0.0000000  0.6024960  3
  15988  15982  15968  15990     1  0.0000000  4.9162000  2
  15988  15982  15968  15990     1  0.0000000  0.6024960  3
  15991  15992  15995  15996     1  180.0000771  0.8368000  1
  15991  15992  15995  15996     1  180.0000771  1.0460000  2
  15991  15992  15995  15996     1  0.0000000  0.7531200  3
  15991  15992  15995  16003     1  0.0000000  0.6508444  3
  15991  16013  15997  16001     1  180.0000771  5.6484000  1
  15991  16013  15997  16001     1  180.0000771  3.5564000  2
  15991  16013  15997  16001     1  0.0000000  0.4184000  3
  15991  16013  15997  15996     1  180.0000771  0.4184000  2
  15991  16013  15997  15996     1  0.0000000  1.6024720  3
  15992  15995  15996  15997     1  180.0000771  0.8368000  1
  15992  15995  15996  15997     1  180.0000771  1.0460000  2
  15992  15995  15996  15997     1  0.0000000  0.7531200  3
  15992  15995  15996  16002     1  0.0000000  0.6508444  3
  15992  15991  16005  16011     1  0.0000000  0.6508444  3
  15992  15991  16013  15997     1  180.0000771  0.4184000  2
  15992  15991  16013  15997     1  0.0000000  1.6024720  3
  15995  15996  15997  16001     1  0.0000000  0.6508444  3
  15995  15996  15997  16013     1  0.0000000  0.6508444  3
  15995  15992  15991  16005     1  180.0000771  0.8368000  1
  15995  15992  15991  16005     1  180.0000771  1.0460000  2
  15995  15992  15991  16005     1  0.0000000  0.7531200  3
  15995  15992  15991  16013     1  0.0000000  0.6508444  3
  15996  15995  15992  16004     1  0.0000000  0.6508444  3
  15997  16013  15991  16005     1  180.0000771  0.4184000  2
  15997  16013  15991  16005     1  0.0000000  1.6024720  3
  15997  15996  15995  16003     1  0.0000000  0.6508444  3
  16001  15997  15996  16002     1  0.0000000  4.9162000  2
  16001  15997  15996  16002     1  0.0000000  0.6024960  3
  16002  15996  15997  16013     1  0.0000000  4.9162000  2
  16002  15996  15997  16013     1  0.0000000  0.6024960  3
  16002  15996  15995  16003     1  0.0000000  4.9162000  2
  16002  15996  15995  16003     1  0.0000000  0.6024960  3
  16003  15995  15992  16004     1  0.0000000  4.9162000  2
  16003  15995  15992  16004     1  0.0000000  0.6024960  3
  16004  15992  15991  16005     1  0.0000000  0.6508444  3
  16004  15992  15991  16013     1  0.0000000  4.9162000  2
  16004  15992  15991  16013     1  0.0000000  0.6024960  3
  16011  16005  15991  16013     1  0.0000000  4.9162000  2
  16011  16005  15991  16013     1  0.0000000  0.6024960  3
  16014  16015  16018  16019     1  180.0000771  0.8368000  1
  16014  16015  16018  16019     1  180.0000771  1.0460000  2
  16014  16015  16018  16019     1  0.0000000  0.7531200  3
  16014  16015  16018  16026     1  0.0000000  0.6508444  3
  16014  16036  16020  16019     1  180.0000771  0.4184000  2
  16014  16036  16020  16019     1  0.0000000  1.6024720  3
  16014  16036  16020  16024     1  180.0000771  5.6484000  1
  16014  16036  16020  16024     1  180.0000771  3.5564000  2
  16014  16036  16020  16024     1  0.0000000  0.4184000  3
  16015  16014  16028  16034     1  0.0000000  0.6508444  3
  16015  16014  16036  16020     1  180.0000771  0.4184000  2
  16015  16014  16036  16020     1  0.0000000  1.6024720  3
  16015  16018  16019  16020     1  180.0000771  0.8368000  1
  16015  16018  16019  16020     1  180.0000771  1.0460000  2
  16015  16018  16019  16020     1  0.0000000  0.7531200  3
  16015  16018  16019  16025     1  0.0000000  0.6508444  3
  16018  16015  16014  16028     1  180.0000771  0.8368000  1
  16018  16015  16014  16028     1  180.0000771  1.0460000  2
  16018  16015  16014  16028     1  0.0000000  0.7531200  3
  16018  16015  16014  16036     1  0.0000000  0.6508444  3
  16018  16019  16020  16024     1  0.0000000  0.6508444  3
  16018  16019  16020  16036     1  0.0000000  0.6508444  3
  16019  16018  16015  16027     1  0.0000000  0.6508444  3
  16020  16019  16018  16026     1  0.0000000  0.6508444  3
  16020  16036  16014  16028     1  180.0000771  0.4184000  2
  16020  16036  16014  16028     1  0.0000000  1.6024720  3
  16024  16020  16019  16025     1  0.0000000  4.9162000  2
  16024  16020  16019  16025     1  0.0000000  0.6024960  3
  16025  16019  16018  16026     1  0.0000000  4.9162000  2
  16025  16019  16018  16026     1  0.0000000  0.6024960  3
  16025  16019  16020  16036     1  0.0000000  4.9162000  2
  16025  16019  16020  16036     1  0.0000000  0.6024960  3
  16026  16018  16015  16027     1  0.0000000  4.9162000  2
  16026  16018  16015  16027     1  0.0000000  0.6024960  3
  16027  16015  16014  16028     1  0.0000000  0.6508444  3
  16027  16015  16014  16036     1  0.0000000  4.9162000  2
  16027  16015  16014  16036     1  0.0000000  0.6024960  3
  16034  16028  16014  16036     1  0.0000000  4.9162000  2
  16034  16028  16014  16036     1  0.0000000  0.6024960  3
  16037  16038  16041  16042     1  180.0000771  0.8368000  1
  16037  16038  16041  16042     1  180.0000771  1.0460000  2
  16037  16038  16041  16042     1  0.0000000  0.7531200  3
  16037  16038  16041  16049     1  0.0000000  0.6508444  3
  16037  16059  16043  16047     1  180.0000771  5.6484000  1
  16037  16059  16043  16047     1  180.0000771  3.5564000  2
  16037  16059  16043  16047     1  0.0000000  0.4184000  3
  16037  16059  16043  16042     1  180.0000771  0.4184000  2
  16037  16059  16043  16042     1  0.0000000  1.6024720  3
  16038  16041  16042  16043     1  180.0000771  0.8368000  1
  16038  16041  16042  16043     1  180.0000771  1.0460000  2
  16038  16041  16042  16043     1  0.0000000  0.7531200  3
  16038  16041  16042  16048     1  0.0000000  0.6508444  3
  16038  16037  16051  16057     1  0.0000000  0.6508444  3
  16038  16037  16059  16043     1  180.0000771  0.4184000  2
  16038  16037  16059  16043     1  0.0000000  1.6024720  3
  16041  16042  16043  16047     1  0.0000000  0.6508444  3
  16041  16042  16043  16059     1  0.0000000  0.6508444  3
  16041  16038  16037  16051     1  180.0000771  0.8368000  1
  16041  16038  16037  16051     1  180.0000771  1.0460000  2
  16041  16038  16037  16051     1  0.0000000  0.7531200  3
  16041  16038  16037  16059     1  0.0000000  0.6508444  3
  16042  16041  16038  16050     1  0.0000000  0.6508444  3
  16043  16059  16037  16051     1  180.0000771  0.4184000  2
  16043  16059  16037  16051     1  0.0000000  1.6024720  3
  16043  16042  16041  16049     1  0.0000000  0.6508444  3
  16047  16043  16042  16048     1  0.0000000  4.9162000  2
  16047  16043  16042  16048     1  0.0000000  0.6024960  3
  16048  16042  16043  16059     1  0.0000000  4.9162000  2
  16048  16042  16043  16059     1  0.0000000  0.6024960  3
  16048  16042  16041  16049     1  0.0000000  4.9162000  2
  16048  16042  16041  16049     1  0.0000000  0.6024960  3
  16049  16041  16038  16050     1  0.0000000  4.9162000  2
  16049  16041  16038  16050     1  0.0000000  0.6024960  3
  16050  16038  16037  16051     1  0.0000000  0.6508444  3
  16050  16038  16037  16059     1  0.0000000  4.9162000  2
  16050  16038  16037  16059     1  0.0000000  0.6024960  3
  16057  16051  16037  16059     1  0.0000000  4.9162000  2
  16057  16051  16037  16059     1  0.0000000  0.6024960  3
  16060  16061  16064  16065     1  180.0000771  0.8368000  1
  16060  16061  16064  16065     1  180.0000771  1.0460000  2
  16060  16061  16064  16065     1  0.0000000  0.7531200  3
  16060  16061  16064  16072     1  0.0000000  0.6508444  3
  16060  16082  16066  16065     1  180.0000771  0.4184000  2
  16060  16082  16066  16065     1  0.0000000  1.6024720  3
  16060  16082  16066  16070     1  180.0000771  5.6484000  1
  16060  16082  16066  16070     1  180.0000771  3.5564000  2
  16060  16082  16066  16070     1  0.0000000  0.4184000  3
  16061  16060  16074  16080     1  0.0000000  0.6508444  3
  16061  16060  16082  16066     1  180.0000771  0.4184000  2
  16061  16060  16082  16066     1  0.0000000  1.6024720  3
  16061  16064  16065  16066     1  180.0000771  0.8368000  1
  16061  16064  16065  16066     1  180.0000771  1.0460000  2
  16061  16064  16065  16066     1  0.0000000  0.7531200  3
  16061  16064  16065  16071     1  0.0000000  0.6508444  3
  16064  16061  16060  16074     1  180.0000771  0.8368000  1
  16064  16061  16060  16074     1  180.0000771  1.0460000  2
  16064  16061  16060  16074     1  0.0000000  0.7531200  3
  16064  16061  16060  16082     1  0.0000000  0.6508444  3
  16064  16065  16066  16070     1  0.0000000  0.6508444  3
  16064  16065  16066  16082     1  0.0000000  0.6508444  3
  16065  16064  16061  16073     1  0.0000000  0.6508444  3
  16066  16065  16064  16072     1  0.0000000  0.6508444  3
  16066  16082  16060  16074     1  180.0000771  0.4184000  2
  16066  16082  16060  16074     1  0.0000000  1.6024720  3
  16070  16066  16065  16071     1  0.0000000  4.9162000  2
  16070  16066  16065  16071     1  0.0000000  0.6024960  3
  16071  16065  16064  16072     1  0.0000000  4.9162000  2
  16071  16065  16064  16072     1  0.0000000  0.6024960  3
  16071  16065  16066  16082     1  0.0000000  4.9162000  2
  16071  16065  16066  16082     1  0.0000000  0.6024960  3
  16072  16064  16061  16073     1  0.0000000  4.9162000  2
  16072  16064  16061  16073     1  0.0000000  0.6024960  3
  16073  16061  16060  16074     1  0.0000000  0.6508444  3
  16073  16061  16060  16082     1  0.0000000  4.9162000  2
  16073  16061  16060  16082     1  0.0000000  0.6024960  3
  16080  16074  16060  16082     1  0.0000000  4.9162000  2
  16080  16074  16060  16082     1  0.0000000  0.6024960  3
  16083  16084  16087  16088     1  180.0000771  0.8368000  1
  16083  16084  16087  16088     1  180.0000771  1.0460000  2
  16083  16084  16087  16088     1  0.0000000  0.7531200  3
  16083  16084  16087  16095     1  0.0000000  0.6508444  3
  16083  16105  16089  16093     1  180.0000771  5.6484000  1
  16083  16105  16089  16093     1  180.0000771  3.5564000  2
  16083  16105  16089  16093     1  0.0000000  0.4184000  3
  16083  16105  16089  16088     1  180.0000771  0.4184000  2
  16083  16105  16089  16088     1  0.0000000  1.6024720  3
  16084  16087  16088  16089     1  180.0000771  0.8368000  1
  16084  16087  16088  16089     1  180.0000771  1.0460000  2
  16084  16087  16088  16089     1  0.0000000  0.7531200  3
  16084  16087  16088  16094     1  0.0000000  0.6508444  3
  16084  16083  16097  16103     1  0.0000000  0.6508444  3
  16084  16083  16105  16089     1  180.0000771  0.4184000  2
  16084  16083  16105  16089     1  0.0000000  1.6024720  3
  16087  16088  16089  16093     1  0.0000000  0.6508444  3
  16087  16088  16089  16105     1  0.0000000  0.6508444  3
  16087  16084  16083  16097     1  180.0000771  0.8368000  1
  16087  16084  16083  16097     1  180.0000771  1.0460000  2
  16087  16084  16083  16097     1  0.0000000  0.7531200  3
  16087  16084  16083  16105     1  0.0000000  0.6508444  3
  16088  16087  16084  16096     1  0.0000000  0.6508444  3
  16089  16105  16083  16097     1  180.0000771  0.4184000  2
  16089  16105  16083  16097     1  0.0000000  1.6024720  3
  16089  16088  16087  16095     1  0.0000000  0.6508444  3
  16093  16089  16088  16094     1  0.0000000  4.9162000  2
  16093  16089  16088  16094     1  0.0000000  0.6024960  3
  16094  16088  16089  16105     1  0.0000000  4.9162000  2
  16094  16088  16089  16105     1  0.0000000  0.6024960  3
  16094  16088  16087  16095     1  0.0000000  4.9162000  2
  16094  16088  16087  16095     1  0.0000000  0.6024960  3
  16095  16087  16084  16096     1  0.0000000  4.9162000  2
  16095  16087  16084  16096     1  0.0000000  0.6024960  3
  16096  16084  16083  16097     1  0.0000000  0.6508444  3
  16096  16084  16083  16105     1  0.0000000  4.9162000  2
  16096  16084  16083  16105     1  0.0000000  0.6024960  3
  16103  16097  16083  16105     1  0.0000000  4.9162000  2
  16103  16097  16083  16105     1  0.0000000  0.6024960  3
  16106  16107  16110  16111     1  180.0000771  0.8368000  1
  16106  16107  16110  16111     1  180.0000771  1.0460000  2
  16106  16107  16110  16111     1  0.0000000  0.7531200  3
  16106  16107  16110  16118     1  0.0000000  0.6508444  3
  16106  16128  16112  16111     1  180.0000771  0.4184000  2
  16106  16128  16112  16111     1  0.0000000  1.6024720  3
  16106  16128  16112  16116     1  180.0000771  5.6484000  1
  16106  16128  16112  16116     1  180.0000771  3.5564000  2
  16106  16128  16112  16116     1  0.0000000  0.4184000  3
  16107  16106  16120  16126     1  0.0000000  0.6508444  3
  16107  16106  16128  16112     1  180.0000771  0.4184000  2
  16107  16106  16128  16112     1  0.0000000  1.6024720  3
  16107  16110  16111  16112     1  180.0000771  0.8368000  1
  16107  16110  16111  16112     1  180.0000771  1.0460000  2
  16107  16110  16111  16112     1  0.0000000  0.7531200  3
  16107  16110  16111  16117     1  0.0000000  0.6508444  3
  16110  16107  16106  16120     1  180.0000771  0.8368000  1
  16110  16107  16106  16120     1  180.0000771  1.0460000  2
  16110  16107  16106  16120     1  0.0000000  0.7531200  3
  16110  16107  16106  16128     1  0.0000000  0.6508444  3
  16110  16111  16112  16116     1  0.0000000  0.6508444  3
  16110  16111  16112  16128     1  0.0000000  0.6508444  3
  16111  16110  16107  16119     1  0.0000000  0.6508444  3
  16112  16111  16110  16118     1  0.0000000  0.6508444  3
  16112  16128  16106  16120     1  180.0000771  0.4184000  2
  16112  16128  16106  16120     1  0.0000000  1.6024720  3
  16116  16112  16111  16117     1  0.0000000  4.9162000  2
  16116  16112  16111  16117     1  0.0000000  0.6024960  3
  16117  16111  16110  16118     1  0.0000000  4.9162000  2
  16117  16111  16110  16118     1  0.0000000  0.6024960  3
  16117  16111  16112  16128     1  0.0000000  4.9162000  2
  16117  16111  16112  16128     1  0.0000000  0.6024960  3
  16118  16110  16107  16119     1  0.0000000  4.9162000  2
  16118  16110  16107  16119     1  0.0000000  0.6024960  3
  16119  16107  16106  16120     1  0.0000000  0.6508444  3
  16119  16107  16106  16128     1  0.0000000  4.9162000  2
  16119  16107  16106  16128     1  0.0000000  0.6024960  3
  16126  16120  16106  16128     1  0.0000000  4.9162000  2
  16126  16120  16106  16128     1  0.0000000  0.6024960  3
  16129  16130  16133  16134     1  180.0000771  0.8368000  1
  16129  16130  16133  16134     1  180.0000771  1.0460000  2
  16129  16130  16133  16134     1  0.0000000  0.7531200  3
  16129  16130  16133  16141     1  0.0000000  0.6508444  3
  16129  16151  16135  16139     1  180.0000771  5.6484000  1
  16129  16151  16135  16139     1  180.0000771  3.5564000  2
  16129  16151  16135  16139     1  0.0000000  0.4184000  3
  16129  16151  16135  16134     1  180.0000771  0.4184000  2
  16129  16151  16135  16134     1  0.0000000  1.6024720  3
  16130  16133  16134  16135     1  180.0000771  0.8368000  1
  16130  16133  16134  16135     1  180.0000771  1.0460000  2
  16130  16133  16134  16135     1  0.0000000  0.7531200  3
  16130  16133  16134  16140     1  0.0000000  0.6508444  3
  16130  16129  16143  16149     1  0.0000000  0.6508444  3
  16130  16129  16151  16135     1  180.0000771  0.4184000  2
  16130  16129  16151  16135     1  0.0000000  1.6024720  3
  16133  16134  16135  16139     1  0.0000000  0.6508444  3
  16133  16134  16135  16151     1  0.0000000  0.6508444  3
  16133  16130  16129  16143     1  180.0000771  0.8368000  1
  16133  16130  16129  16143     1  180.0000771  1.0460000  2
  16133  16130  16129  16143     1  0.0000000  0.7531200  3
  16133  16130  16129  16151     1  0.0000000  0.6508444  3
  16134  16133  16130  16142     1  0.0000000  0.6508444  3
  16135  16151  16129  16143     1  180.0000771  0.4184000  2
  16135  16151  16129  16143     1  0.0000000  1.6024720  3
  16135  16134  16133  16141     1  0.0000000  0.6508444  3
  16139  16135  16134  16140     1  0.0000000  4.9162000  2
  16139  16135  16134  16140     1  0.0000000  0.6024960  3
  16140  16134  16135  16151     1  0.0000000  4.9162000  2
  16140  16134  16135  16151     1  0.0000000  0.6024960  3
  16140  16134  16133  16141     1  0.0000000  4.9162000  2
  16140  16134  16133  16141     1  0.0000000  0.6024960  3
  16141  16133  16130  16142     1  0.0000000  4.9162000  2
  16141  16133  16130  16142     1  0.0000000  0.6024960  3
  16142  16130  16129  16143     1  0.0000000  0.6508444  3
  16142  16130  16129  16151     1  0.0000000  4.9162000  2
  16142  16130  16129  16151     1  0.0000000  0.6024960  3
  16149  16143  16129  16151     1  0.0000000  4.9162000  2
  16149  16143  16129  16151     1  0.0000000  0.6024960  3
  16152  16153  16156  16157     1  180.0000771  0.8368000  1
  16152  16153  16156  16157     1  180.0000771  1.0460000  2
  16152  16153  16156  16157     1  0.0000000  0.7531200  3
  16152  16153  16156  16164     1  0.0000000  0.6508444  3
  16152  16174  16158  16157     1  180.0000771  0.4184000  2
  16152  16174  16158  16157     1  0.0000000  1.6024720  3
  16152  16174  16158  16162     1  180.0000771  5.6484000  1
  16152  16174  16158  16162     1  180.0000771  3.5564000  2
  16152  16174  16158  16162     1  0.0000000  0.4184000  3
  16153  16152  16166  16172     1  0.0000000  0.6508444  3
  16153  16152  16174  16158     1  180.0000771  0.4184000  2
  16153  16152  16174  16158     1  0.0000000  1.6024720  3
  16153  16156  16157  16158     1  180.0000771  0.8368000  1
  16153  16156  16157  16158     1  180.0000771  1.0460000  2
  16153  16156  16157  16158     1  0.0000000  0.7531200  3
  16153  16156  16157  16163     1  0.0000000  0.6508444  3
  16156  16153  16152  16166     1  180.0000771  0.8368000  1
  16156  16153  16152  16166     1  180.0000771  1.0460000  2
  16156  16153  16152  16166     1  0.0000000  0.7531200  3
  16156  16153  16152  16174     1  0.0000000  0.6508444  3
  16156  16157  16158  16162     1  0.0000000  0.6508444  3
  16156  16157  16158  16174     1  0.0000000  0.6508444  3
  16157  16156  16153  16165     1  0.0000000  0.6508444  3
  16158  16157  16156  16164     1  0.0000000  0.6508444  3
  16158  16174  16152  16166     1  180.0000771  0.4184000  2
  16158  16174  16152  16166     1  0.0000000  1.6024720  3
  16162  16158  16157  16163     1  0.0000000  4.9162000  2
  16162  16158  16157  16163     1  0.0000000  0.6024960  3
  16163  16157  16156  16164     1  0.0000000  4.9162000  2
  16163  16157  16156  16164     1  0.0000000  0.6024960  3
  16163  16157  16158  16174     1  0.0000000  4.9162000  2
  16163  16157  16158  16174     1  0.0000000  0.6024960  3
  16164  16156  16153  16165     1  0.0000000  4.9162000  2
  16164  16156  16153  16165     1  0.0000000  0.6024960  3
  16165  16153  16152  16166     1  0.0000000  0.6508444  3
  16165  16153  16152  16174     1  0.0000000  4.9162000  2
  16165  16153  16152  16174     1  0.0000000  0.6024960  3
  16172  16166  16152  16174     1  0.0000000  4.9162000  2
  16172  16166  16152  16174     1  0.0000000  0.6024960  3
  16175  16176  16179  16180     1  180.0000771  0.8368000  1
  16175  16176  16179  16180     1  180.0000771  1.0460000  2
  16175  16176  16179  16180     1  0.0000000  0.7531200  3
  16175  16176  16179  16187     1  0.0000000  0.6508444  3
  16175  16197  16181  16185     1  180.0000771  5.6484000  1
  16175  16197  16181  16185     1  180.0000771  3.5564000  2
  16175  16197  16181  16185     1  0.0000000  0.4184000  3
  16175  16197  16181  16180     1  180.0000771  0.4184000  2
  16175  16197  16181  16180     1  0.0000000  1.6024720  3
  16176  16179  16180  16181     1  180.0000771  0.8368000  1
  16176  16179  16180  16181     1  180.0000771  1.0460000  2
  16176  16179  16180  16181     1  0.0000000  0.7531200  3
  16176  16179  16180  16186     1  0.0000000  0.6508444  3
  16176  16175  16189  16195     1  0.0000000  0.6508444  3
  16176  16175  16197  16181     1  180.0000771  0.4184000  2
  16176  16175  16197  16181     1  0.0000000  1.6024720  3
  16179  16180  16181  16185     1  0.0000000  0.6508444  3
  16179  16180  16181  16197     1  0.0000000  0.6508444  3
  16179  16176  16175  16189     1  180.0000771  0.8368000  1
  16179  16176  16175  16189     1  180.0000771  1.0460000  2
  16179  16176  16175  16189     1  0.0000000  0.7531200  3
  16179  16176  16175  16197     1  0.0000000  0.6508444  3
  16180  16179  16176  16188     1  0.0000000  0.6508444  3
  16181  16197  16175  16189     1  180.0000771  0.4184000  2
  16181  16197  16175  16189     1  0.0000000  1.6024720  3
  16181  16180  16179  16187     1  0.0000000  0.6508444  3
  16185  16181  16180  16186     1  0.0000000  4.9162000  2
  16185  16181  16180  16186     1  0.0000000  0.6024960  3
  16186  16180  16181  16197     1  0.0000000  4.9162000  2
  16186  16180  16181  16197     1  0.0000000  0.6024960  3
  16186  16180  16179  16187     1  0.0000000  4.9162000  2
  16186  16180  16179  16187     1  0.0000000  0.6024960  3
  16187  16179  16176  16188     1  0.0000000  4.9162000  2
  16187  16179  16176  16188     1  0.0000000  0.6024960  3
  16188  16176  16175  16189     1  0.0000000  0.6508444  3
  16188  16176  16175  16197     1  0.0000000  4.9162000  2
  16188  16176  16175  16197     1  0.0000000  0.6024960  3
  16195  16189  16175  16197     1  0.0000000  4.9162000  2
  16195  16189  16175  16197     1  0.0000000  0.6024960  3
  16198  16199  16202  16203     1  180.0000771  0.8368000  1
  16198  16199  16202  16203     1  180.0000771  1.0460000  2
  16198  16199  16202  16203     1  0.0000000  0.7531200  3
  16198  16199  16202  16210     1  0.0000000  0.6508444  3
  16198  16220  16204  16203     1  180.0000771  0.4184000  2
  16198  16220  16204  16203     1  0.0000000  1.6024720  3
  16198  16220  16204  16208     1  180.0000771  5.6484000  1
  16198  16220  16204  16208     1  180.0000771  3.5564000  2
  16198  16220  16204  16208     1  0.0000000  0.4184000  3
  16199  16198  16212  16218     1  0.0000000  0.6508444  3
  16199  16198  16220  16204     1  180.0000771  0.4184000  2
  16199  16198  16220  16204     1  0.0000000  1.6024720  3
  16199  16202  16203  16204     1  180.0000771  0.8368000  1
  16199  16202  16203  16204     1  180.0000771  1.0460000  2
  16199  16202  16203  16204     1  0.0000000  0.7531200  3
  16199  16202  16203  16209     1  0.0000000  0.6508444  3
  16202  16199  16198  16212     1  180.0000771  0.8368000  1
  16202  16199  16198  16212     1  180.0000771  1.0460000  2
  16202  16199  16198  16212     1  0.0000000  0.7531200  3
  16202  16199  16198  16220     1  0.0000000  0.6508444  3
  16202  16203  16204  16208     1  0.0000000  0.6508444  3
  16202  16203  16204  16220     1  0.0000000  0.6508444  3
  16203  16202  16199  16211     1  0.0000000  0.6508444  3
  16204  16203  16202  16210     1  0.0000000  0.6508444  3
  16204  16220  16198  16212     1  180.0000771  0.4184000  2
  16204  16220  16198  16212     1  0.0000000  1.6024720  3
  16208  16204  16203  16209     1  0.0000000  4.9162000  2
  16208  16204  16203  16209     1  0.0000000  0.6024960  3
  16209  16203  16202  16210     1  0.0000000  4.9162000  2
  16209  16203  16202  16210     1  0.0000000  0.6024960  3
  16209  16203  16204  16220     1  0.0000000  4.9162000  2
  16209  16203  16204  16220     1  0.0000000  0.6024960  3
  16210  16202  16199  16211     1  0.0000000  4.9162000  2
  16210  16202  16199  16211     1  0.0000000  0.6024960  3
  16211  16199  16198  16212     1  0.0000000  0.6508444  3
  16211  16199  16198  16220     1  0.0000000  4.9162000  2
  16211  16199  16198  16220     1  0.0000000  0.6024960  3
  16218  16212  16198  16220     1  0.0000000  4.9162000  2
  16218  16212  16198  16220     1  0.0000000  0.6024960  3
  16221  16222  16225  16226     1  180.0000771  0.8368000  1
  16221  16222  16225  16226     1  180.0000771  1.0460000  2
  16221  16222  16225  16226     1  0.0000000  0.7531200  3
  16221  16222  16225  16233     1  0.0000000  0.6508444  3
  16221  16243  16227  16231     1  180.0000771  5.6484000  1
  16221  16243  16227  16231     1  180.0000771  3.5564000  2
  16221  16243  16227  16231     1  0.0000000  0.4184000  3
  16221  16243  16227  16226     1  180.0000771  0.4184000  2
  16221  16243  16227  16226     1  0.0000000  1.6024720  3
  16222  16225  16226  16227     1  180.0000771  0.8368000  1
  16222  16225  16226  16227     1  180.0000771  1.0460000  2
  16222  16225  16226  16227     1  0.0000000  0.7531200  3
  16222  16225  16226  16232     1  0.0000000  0.6508444  3
  16222  16221  16235  16241     1  0.0000000  0.6508444  3
  16222  16221  16243  16227     1  180.0000771  0.4184000  2
  16222  16221  16243  16227     1  0.0000000  1.6024720  3
  16225  16226  16227  16231     1  0.0000000  0.6508444  3
  16225  16226  16227  16243     1  0.0000000  0.6508444  3
  16225  16222  16221  16235     1  180.0000771  0.8368000  1
  16225  16222  16221  16235     1  180.0000771  1.0460000  2
  16225  16222  16221  16235     1  0.0000000  0.7531200  3
  16225  16222  16221  16243     1  0.0000000  0.6508444  3
  16226  16225  16222  16234     1  0.0000000  0.6508444  3
  16227  16243  16221  16235     1  180.0000771  0.4184000  2
  16227  16243  16221  16235     1  0.0000000  1.6024720  3
  16227  16226  16225  16233     1  0.0000000  0.6508444  3
  16231  16227  16226  16232     1  0.0000000  4.9162000  2
  16231  16227  16226  16232     1  0.0000000  0.6024960  3
  16232  16226  16227  16243     1  0.0000000  4.9162000  2
  16232  16226  16227  16243     1  0.0000000  0.6024960  3
  16232  16226  16225  16233     1  0.0000000  4.9162000  2
  16232  16226  16225  16233     1  0.0000000  0.6024960  3
  16233  16225  16222  16234     1  0.0000000  4.9162000  2
  16233  16225  16222  16234     1  0.0000000  0.6024960  3
  16234  16222  16221  16235     1  0.0000000  0.6508444  3
  16234  16222  16221  16243     1  0.0000000  4.9162000  2
  16234  16222  16221  16243     1  0.0000000  0.6024960  3
  16241  16235  16221  16243     1  0.0000000  4.9162000  2
  16241  16235  16221  16243     1  0.0000000  0.6024960  3
  16244  16245  16248  16249     1  180.0000771  0.8368000  1
  16244  16245  16248  16249     1  180.0000771  1.0460000  2
  16244  16245  16248  16249     1  0.0000000  0.7531200  3
  16244  16245  16248  16256     1  0.0000000  0.6508444  3
  16244  16266  16250  16249     1  180.0000771  0.4184000  2
  16244  16266  16250  16249     1  0.0000000  1.6024720  3
  16244  16266  16250  16254     1  180.0000771  5.6484000  1
  16244  16266  16250  16254     1  180.0000771  3.5564000  2
  16244  16266  16250  16254     1  0.0000000  0.4184000  3
  16245  16244  16258  16264     1  0.0000000  0.6508444  3
  16245  16244  16266  16250     1  180.0000771  0.4184000  2
  16245  16244  16266  16250     1  0.0000000  1.6024720  3
  16245  16248  16249  16250     1  180.0000771  0.8368000  1
  16245  16248  16249  16250     1  180.0000771  1.0460000  2
  16245  16248  16249  16250     1  0.0000000  0.7531200  3
  16245  16248  16249  16255     1  0.0000000  0.6508444  3
  16248  16245  16244  16258     1  180.0000771  0.8368000  1
  16248  16245  16244  16258     1  180.0000771  1.0460000  2
  16248  16245  16244  16258     1  0.0000000  0.7531200  3
  16248  16245  16244  16266     1  0.0000000  0.6508444  3
  16248  16249  16250  16254     1  0.0000000  0.6508444  3
  16248  16249  16250  16266     1  0.0000000  0.6508444  3
  16249  16248  16245  16257     1  0.0000000  0.6508444  3
  16250  16249  16248  16256     1  0.0000000  0.6508444  3
  16250  16266  16244  16258     1  180.0000771  0.4184000  2
  16250  16266  16244  16258     1  0.0000000  1.6024720  3
  16254  16250  16249  16255     1  0.0000000  4.9162000  2
  16254  16250  16249  16255     1  0.0000000  0.6024960  3
  16255  16249  16248  16256     1  0.0000000  4.9162000  2
  16255  16249  16248  16256     1  0.0000000  0.6024960  3
  16255  16249  16250  16266     1  0.0000000  4.9162000  2
  16255  16249  16250  16266     1  0.0000000  0.6024960  3
  16256  16248  16245  16257     1  0.0000000  4.9162000  2
  16256  16248  16245  16257     1  0.0000000  0.6024960  3
  16257  16245  16244  16258     1  0.0000000  0.6508444  3
  16257  16245  16244  16266     1  0.0000000  4.9162000  2
  16257  16245  16244  16266     1  0.0000000  0.6024960  3
  16264  16258  16244  16266     1  0.0000000  4.9162000  2
  16264  16258  16244  16266     1  0.0000000  0.6024960  3
  16267  16268  16271  16272     1  180.0000771  0.8368000  1
  16267  16268  16271  16272     1  180.0000771  1.0460000  2
  16267  16268  16271  16272     1  0.0000000  0.7531200  3
  16267  16268  16271  16279     1  0.0000000  0.6508444  3
  16267  16289  16273  16277     1  180.0000771  5.6484000  1
  16267  16289  16273  16277     1  180.0000771  3.5564000  2
  16267  16289  16273  16277     1  0.0000000  0.4184000  3
  16267  16289  16273  16272     1  180.0000771  0.4184000  2
  16267  16289  16273  16272     1  0.0000000  1.6024720  3
  16268  16271  16272  16273     1  180.0000771  0.8368000  1
  16268  16271  16272  16273     1  180.0000771  1.0460000  2
  16268  16271  16272  16273     1  0.0000000  0.7531200  3
  16268  16271  16272  16278     1  0.0000000  0.6508444  3
  16268  16267  16281  16287     1  0.0000000  0.6508444  3
  16268  16267  16289  16273     1  180.0000771  0.4184000  2
  16268  16267  16289  16273     1  0.0000000  1.6024720  3
  16271  16272  16273  16277     1  0.0000000  0.6508444  3
  16271  16272  16273  16289     1  0.0000000  0.6508444  3
  16271  16268  16267  16281     1  180.0000771  0.8368000  1
  16271  16268  16267  16281     1  180.0000771  1.0460000  2
  16271  16268  16267  16281     1  0.0000000  0.7531200  3
  16271  16268  16267  16289     1  0.0000000  0.6508444  3
  16272  16271  16268  16280     1  0.0000000  0.6508444  3
  16273  16289  16267  16281     1  180.0000771  0.4184000  2
  16273  16289  16267  16281     1  0.0000000  1.6024720  3
  16273  16272  16271  16279     1  0.0000000  0.6508444  3
  16277  16273  16272  16278     1  0.0000000  4.9162000  2
  16277  16273  16272  16278     1  0.0000000  0.6024960  3
  16278  16272  16273  16289     1  0.0000000  4.9162000  2
  16278  16272  16273  16289     1  0.0000000  0.6024960  3
  16278  16272  16271  16279     1  0.0000000  4.9162000  2
  16278  16272  16271  16279     1  0.0000000  0.6024960  3
  16279  16271  16268  16280     1  0.0000000  4.9162000  2
  16279  16271  16268  16280     1  0.0000000  0.6024960  3
  16280  16268  16267  16281     1  0.0000000  0.6508444  3
  16280  16268  16267  16289     1  0.0000000  4.9162000  2
  16280  16268  16267  16289     1  0.0000000  0.6024960  3
  16287  16281  16267  16289     1  0.0000000  4.9162000  2
  16287  16281  16267  16289     1  0.0000000  0.6024960  3
  16290  16291  16294  16295     1  180.0000771  0.8368000  1
  16290  16291  16294  16295     1  180.0000771  1.0460000  2
  16290  16291  16294  16295     1  0.0000000  0.7531200  3
  16290  16291  16294  16302     1  0.0000000  0.6508444  3
  16290  16312  16296  16295     1  180.0000771  0.4184000  2
  16290  16312  16296  16295     1  0.0000000  1.6024720  3
  16290  16312  16296  16300     1  180.0000771  5.6484000  1
  16290  16312  16296  16300     1  180.0000771  3.5564000  2
  16290  16312  16296  16300     1  0.0000000  0.4184000  3
  16291  16290  16304  16310     1  0.0000000  0.6508444  3
  16291  16290  16312  16296     1  180.0000771  0.4184000  2
  16291  16290  16312  16296     1  0.0000000  1.6024720  3
  16291  16294  16295  16296     1  180.0000771  0.8368000  1
  16291  16294  16295  16296     1  180.0000771  1.0460000  2
  16291  16294  16295  16296     1  0.0000000  0.7531200  3
  16291  16294  16295  16301     1  0.0000000  0.6508444  3
  16294  16291  16290  16304     1  180.0000771  0.8368000  1
  16294  16291  16290  16304     1  180.0000771  1.0460000  2
  16294  16291  16290  16304     1  0.0000000  0.7531200  3
  16294  16291  16290  16312     1  0.0000000  0.6508444  3
  16294  16295  16296  16300     1  0.0000000  0.6508444  3
  16294  16295  16296  16312     1  0.0000000  0.6508444  3
  16295  16294  16291  16303     1  0.0000000  0.6508444  3
  16296  16295  16294  16302     1  0.0000000  0.6508444  3
  16296  16312  16290  16304     1  180.0000771  0.4184000  2
  16296  16312  16290  16304     1  0.0000000  1.6024720  3
  16300  16296  16295  16301     1  0.0000000  4.9162000  2
  16300  16296  16295  16301     1  0.0000000  0.6024960  3
  16301  16295  16294  16302     1  0.0000000  4.9162000  2
  16301  16295  16294  16302     1  0.0000000  0.6024960  3
  16301  16295  16296  16312     1  0.0000000  4.9162000  2
  16301  16295  16296  16312     1  0.0000000  0.6024960  3
  16302  16294  16291  16303     1  0.0000000  4.9162000  2
  16302  16294  16291  16303     1  0.0000000  0.6024960  3
  16303  16291  16290  16304     1  0.0000000  0.6508444  3
  16303  16291  16290  16312     1  0.0000000  4.9162000  2
  16303  16291  16290  16312     1  0.0000000  0.6024960  3
  16310  16304  16290  16312     1  0.0000000  4.9162000  2
  16310  16304  16290  16312     1  0.0000000  0.6024960  3
  16313  16314  16317  16318     1  180.0000771  0.8368000  1
  16313  16314  16317  16318     1  180.0000771  1.0460000  2
  16313  16314  16317  16318     1  0.0000000  0.7531200  3
  16313  16314  16317  16325     1  0.0000000  0.6508444  3
  16313  16335  16319  16323     1  180.0000771  5.6484000  1
  16313  16335  16319  16323     1  180.0000771  3.5564000  2
  16313  16335  16319  16323     1  0.0000000  0.4184000  3
  16313  16335  16319  16318     1  180.0000771  0.4184000  2
  16313  16335  16319  16318     1  0.0000000  1.6024720  3
  16314  16317  16318  16319     1  180.0000771  0.8368000  1
  16314  16317  16318  16319     1  180.0000771  1.0460000  2
  16314  16317  16318  16319     1  0.0000000  0.7531200  3
  16314  16317  16318  16324     1  0.0000000  0.6508444  3
  16314  16313  16327  16333     1  0.0000000  0.6508444  3
  16314  16313  16335  16319     1  180.0000771  0.4184000  2
  16314  16313  16335  16319     1  0.0000000  1.6024720  3
  16317  16318  16319  16323     1  0.0000000  0.6508444  3
  16317  16318  16319  16335     1  0.0000000  0.6508444  3
  16317  16314  16313  16327     1  180.0000771  0.8368000  1
  16317  16314  16313  16327     1  180.0000771  1.0460000  2
  16317  16314  16313  16327     1  0.0000000  0.7531200  3
  16317  16314  16313  16335     1  0.0000000  0.6508444  3
  16318  16317  16314  16326     1  0.0000000  0.6508444  3
  16319  16335  16313  16327     1  180.0000771  0.4184000  2
  16319  16335  16313  16327     1  0.0000000  1.6024720  3
  16319  16318  16317  16325     1  0.0000000  0.6508444  3
  16323  16319  16318  16324     1  0.0000000  4.9162000  2
  16323  16319  16318  16324     1  0.0000000  0.6024960  3
  16324  16318  16319  16335     1  0.0000000  4.9162000  2
  16324  16318  16319  16335     1  0.0000000  0.6024960  3
  16324  16318  16317  16325     1  0.0000000  4.9162000  2
  16324  16318  16317  16325     1  0.0000000  0.6024960  3
  16325  16317  16314  16326     1  0.0000000  4.9162000  2
  16325  16317  16314  16326     1  0.0000000  0.6024960  3
  16326  16314  16313  16327     1  0.0000000  0.6508444  3
  16326  16314  16313  16335     1  0.0000000  4.9162000  2
  16326  16314  16313  16335     1  0.0000000  0.6024960  3
  16333  16327  16313  16335     1  0.0000000  4.9162000  2
  16333  16327  16313  16335     1  0.0000000  0.6024960  3
  16336  16337  16340  16341     1  180.0000771  0.8368000  1
  16336  16337  16340  16341     1  180.0000771  1.0460000  2
  16336  16337  16340  16341     1  0.0000000  0.7531200  3
  16336  16337  16340  16348     1  0.0000000  0.6508444  3
  16336  16358  16342  16341     1  180.0000771  0.4184000  2
  16336  16358  16342  16341     1  0.0000000  1.6024720  3
  16336  16358  16342  16346     1  180.0000771  5.6484000  1
  16336  16358  16342  16346     1  180.0000771  3.5564000  2
  16336  16358  16342  16346     1  0.0000000  0.4184000  3
  16337  16336  16350  16356     1  0.0000000  0.6508444  3
  16337  16336  16358  16342     1  180.0000771  0.4184000  2
  16337  16336  16358  16342     1  0.0000000  1.6024720  3
  16337  16340  16341  16342     1  180.0000771  0.8368000  1
  16337  16340  16341  16342     1  180.0000771  1.0460000  2
  16337  16340  16341  16342     1  0.0000000  0.7531200  3
  16337  16340  16341  16347     1  0.0000000  0.6508444  3
  16340  16337  16336  16350     1  180.0000771  0.8368000  1
  16340  16337  16336  16350     1  180.0000771  1.0460000  2
  16340  16337  16336  16350     1  0.0000000  0.7531200  3
  16340  16337  16336  16358     1  0.0000000  0.6508444  3
  16340  16341  16342  16346     1  0.0000000  0.6508444  3
  16340  16341  16342  16358     1  0.0000000  0.6508444  3
  16341  16340  16337  16349     1  0.0000000  0.6508444  3
  16342  16341  16340  16348     1  0.0000000  0.6508444  3
  16342  16358  16336  16350     1  180.0000771  0.4184000  2
  16342  16358  16336  16350     1  0.0000000  1.6024720  3
  16346  16342  16341  16347     1  0.0000000  4.9162000  2
  16346  16342  16341  16347     1  0.0000000  0.6024960  3
  16347  16341  16340  16348     1  0.0000000  4.9162000  2
  16347  16341  16340  16348     1  0.0000000  0.6024960  3
  16347  16341  16342  16358     1  0.0000000  4.9162000  2
  16347  16341  16342  16358     1  0.0000000  0.6024960  3
  16348  16340  16337  16349     1  0.0000000  4.9162000  2
  16348  16340  16337  16349     1  0.0000000  0.6024960  3
  16349  16337  16336  16350     1  0.0000000  0.6508444  3
  16349  16337  16336  16358     1  0.0000000  4.9162000  2
  16349  16337  16336  16358     1  0.0000000  0.6024960  3
  16356  16350  16336  16358     1  0.0000000  4.9162000  2
  16356  16350  16336  16358     1  0.0000000  0.6024960  3
  16359  16360  16363  16364     1  180.0000771  0.8368000  1
  16359  16360  16363  16364     1  180.0000771  1.0460000  2
  16359  16360  16363  16364     1  0.0000000  0.7531200  3
  16359  16360  16363  16371     1  0.0000000  0.6508444  3
  16359  16381  16365  16369     1  180.0000771  5.6484000  1
  16359  16381  16365  16369     1  180.0000771  3.5564000  2
  16359  16381  16365  16369     1  0.0000000  0.4184000  3
  16359  16381  16365  16364     1  180.0000771  0.4184000  2
  16359  16381  16365  16364     1  0.0000000  1.6024720  3
  16360  16363  16364  16365     1  180.0000771  0.8368000  1
  16360  16363  16364  16365     1  180.0000771  1.0460000  2
  16360  16363  16364  16365     1  0.0000000  0.7531200  3
  16360  16363  16364  16370     1  0.0000000  0.6508444  3
  16360  16359  16373  16379     1  0.0000000  0.6508444  3
  16360  16359  16381  16365     1  180.0000771  0.4184000  2
  16360  16359  16381  16365     1  0.0000000  1.6024720  3
  16363  16364  16365  16369     1  0.0000000  0.6508444  3
  16363  16364  16365  16381     1  0.0000000  0.6508444  3
  16363  16360  16359  16373     1  180.0000771  0.8368000  1
  16363  16360  16359  16373     1  180.0000771  1.0460000  2
  16363  16360  16359  16373     1  0.0000000  0.7531200  3
  16363  16360  16359  16381     1  0.0000000  0.6508444  3
  16364  16363  16360  16372     1  0.0000000  0.6508444  3
  16365  16381  16359  16373     1  180.0000771  0.4184000  2
  16365  16381  16359  16373     1  0.0000000  1.6024720  3
  16365  16364  16363  16371     1  0.0000000  0.6508444  3
  16369  16365  16364  16370     1  0.0000000  4.9162000  2
  16369  16365  16364  16370     1  0.0000000  0.6024960  3
  16370  16364  16365  16381     1  0.0000000  4.9162000  2
  16370  16364  16365  16381     1  0.0000000  0.6024960  3
  16370  16364  16363  16371     1  0.0000000  4.9162000  2
  16370  16364  16363  16371     1  0.0000000  0.6024960  3
  16371  16363  16360  16372     1  0.0000000  4.9162000  2
  16371  16363  16360  16372     1  0.0000000  0.6024960  3
  16372  16360  16359  16373     1  0.0000000  0.6508444  3
  16372  16360  16359  16381     1  0.0000000  4.9162000  2
  16372  16360  16359  16381     1  0.0000000  0.6024960  3
  16379  16373  16359  16381     1  0.0000000  4.9162000  2
  16379  16373  16359  16381     1  0.0000000  0.6024960  3
  16382  16383  16386  16387     1  180.0000771  0.8368000  1
  16382  16383  16386  16387     1  180.0000771  1.0460000  2
  16382  16383  16386  16387     1  0.0000000  0.7531200  3
  16382  16383  16386  16394     1  0.0000000  0.6508444  3
  16382  16404  16388  16387     1  180.0000771  0.4184000  2
  16382  16404  16388  16387     1  0.0000000  1.6024720  3
  16382  16404  16388  16392     1  180.0000771  5.6484000  1
  16382  16404  16388  16392     1  180.0000771  3.5564000  2
  16382  16404  16388  16392     1  0.0000000  0.4184000  3
  16383  16382  16396  16402     1  0.0000000  0.6508444  3
  16383  16382  16404  16388     1  180.0000771  0.4184000  2
  16383  16382  16404  16388     1  0.0000000  1.6024720  3
  16383  16386  16387  16388     1  180.0000771  0.8368000  1
  16383  16386  16387  16388     1  180.0000771  1.0460000  2
  16383  16386  16387  16388     1  0.0000000  0.7531200  3
  16383  16386  16387  16393     1  0.0000000  0.6508444  3
  16386  16383  16382  16396     1  180.0000771  0.8368000  1
  16386  16383  16382  16396     1  180.0000771  1.0460000  2
  16386  16383  16382  16396     1  0.0000000  0.7531200  3
  16386  16383  16382  16404     1  0.0000000  0.6508444  3
  16386  16387  16388  16392     1  0.0000000  0.6508444  3
  16386  16387  16388  16404     1  0.0000000  0.6508444  3
  16387  16386  16383  16395     1  0.0000000  0.6508444  3
  16388  16387  16386  16394     1  0.0000000  0.6508444  3
  16388  16404  16382  16396     1  180.0000771  0.4184000  2
  16388  16404  16382  16396     1  0.0000000  1.6024720  3
  16392  16388  16387  16393     1  0.0000000  4.9162000  2
  16392  16388  16387  16393     1  0.0000000  0.6024960  3
  16393  16387  16386  16394     1  0.0000000  4.9162000  2
  16393  16387  16386  16394     1  0.0000000  0.6024960  3
  16393  16387  16388  16404     1  0.0000000  4.9162000  2
  16393  16387  16388  16404     1  0.0000000  0.6024960  3
  16394  16386  16383  16395     1  0.0000000  4.9162000  2
  16394  16386  16383  16395     1  0.0000000  0.6024960  3
  16395  16383  16382  16396     1  0.0000000  0.6508444  3
  16395  16383  16382  16404     1  0.0000000  4.9162000  2
  16395  16383  16382  16404     1  0.0000000  0.6024960  3
  16402  16396  16382  16404     1  0.0000000  4.9162000  2
  16402  16396  16382  16404     1  0.0000000  0.6024960  3
  16405  16406  16409  16410     1  180.0000771  0.8368000  1
  16405  16406  16409  16410     1  180.0000771  1.0460000  2
  16405  16406  16409  16410     1  0.0000000  0.7531200  3
  16405  16406  16409  16417     1  0.0000000  0.6508444  3
  16405  16427  16411  16415     1  180.0000771  5.6484000  1
  16405  16427  16411  16415     1  180.0000771  3.5564000  2
  16405  16427  16411  16415     1  0.0000000  0.4184000  3
  16405  16427  16411  16410     1  180.0000771  0.4184000  2
  16405  16427  16411  16410     1  0.0000000  1.6024720  3
  16406  16409  16410  16411     1  180.0000771  0.8368000  1
  16406  16409  16410  16411     1  180.0000771  1.0460000  2
  16406  16409  16410  16411     1  0.0000000  0.7531200  3
  16406  16409  16410  16416     1  0.0000000  0.6508444  3
  16406  16405  16419  16425     1  0.0000000  0.6508444  3
  16406  16405  16427  16411     1  180.0000771  0.4184000  2
  16406  16405  16427  16411     1  0.0000000  1.6024720  3
  16409  16410  16411  16415     1  0.0000000  0.6508444  3
  16409  16410  16411  16427     1  0.0000000  0.6508444  3
  16409  16406  16405  16419     1  180.0000771  0.8368000  1
  16409  16406  16405  16419     1  180.0000771  1.0460000  2
  16409  16406  16405  16419     1  0.0000000  0.7531200  3
  16409  16406  16405  16427     1  0.0000000  0.6508444  3
  16410  16409  16406  16418     1  0.0000000  0.6508444  3
  16411  16427  16405  16419     1  180.0000771  0.4184000  2
  16411  16427  16405  16419     1  0.0000000  1.6024720  3
  16411  16410  16409  16417     1  0.0000000  0.6508444  3
  16415  16411  16410  16416     1  0.0000000  4.9162000  2
  16415  16411  16410  16416     1  0.0000000  0.6024960  3
  16416  16410  16411  16427     1  0.0000000  4.9162000  2
  16416  16410  16411  16427     1  0.0000000  0.6024960  3
  16416  16410  16409  16417     1  0.0000000  4.9162000  2
  16416  16410  16409  16417     1  0.0000000  0.6024960  3
  16417  16409  16406  16418     1  0.0000000  4.9162000  2
  16417  16409  16406  16418     1  0.0000000  0.6024960  3
  16418  16406  16405  16419     1  0.0000000  0.6508444  3
  16418  16406  16405  16427     1  0.0000000  4.9162000  2
  16418  16406  16405  16427     1  0.0000000  0.6024960  3
  16425  16419  16405  16427     1  0.0000000  4.9162000  2
  16425  16419  16405  16427     1  0.0000000  0.6024960  3
  16428  16429  16432  16433     1  180.0000771  0.8368000  1
  16428  16429  16432  16433     1  180.0000771  1.0460000  2
  16428  16429  16432  16433     1  0.0000000  0.7531200  3
  16428  16429  16432  16440     1  0.0000000  0.6508444  3
  16428  16450  16434  16433     1  180.0000771  0.4184000  2
  16428  16450  16434  16433     1  0.0000000  1.6024720  3
  16428  16450  16434  16438     1  180.0000771  5.6484000  1
  16428  16450  16434  16438     1  180.0000771  3.5564000  2
  16428  16450  16434  16438     1  0.0000000  0.4184000  3
  16429  16428  16442  16448     1  0.0000000  0.6508444  3
  16429  16428  16450  16434     1  180.0000771  0.4184000  2
  16429  16428  16450  16434     1  0.0000000  1.6024720  3
  16429  16432  16433  16434     1  180.0000771  0.8368000  1
  16429  16432  16433  16434     1  180.0000771  1.0460000  2
  16429  16432  16433  16434     1  0.0000000  0.7531200  3
  16429  16432  16433  16439     1  0.0000000  0.6508444  3
  16432  16429  16428  16442     1  180.0000771  0.8368000  1
  16432  16429  16428  16442     1  180.0000771  1.0460000  2
  16432  16429  16428  16442     1  0.0000000  0.7531200  3
  16432  16429  16428  16450     1  0.0000000  0.6508444  3
  16432  16433  16434  16438     1  0.0000000  0.6508444  3
  16432  16433  16434  16450     1  0.0000000  0.6508444  3
  16433  16432  16429  16441     1  0.0000000  0.6508444  3
  16434  16433  16432  16440     1  0.0000000  0.6508444  3
  16434  16450  16428  16442     1  180.0000771  0.4184000  2
  16434  16450  16428  16442     1  0.0000000  1.6024720  3
  16438  16434  16433  16439     1  0.0000000  4.9162000  2
  16438  16434  16433  16439     1  0.0000000  0.6024960  3
  16439  16433  16432  16440     1  0.0000000  4.9162000  2
  16439  16433  16432  16440     1  0.0000000  0.6024960  3
  16439  16433  16434  16450     1  0.0000000  4.9162000  2
  16439  16433  16434  16450     1  0.0000000  0.6024960  3
  16440  16432  16429  16441     1  0.0000000  4.9162000  2
  16440  16432  16429  16441     1  0.0000000  0.6024960  3
  16441  16429  16428  16442     1  0.0000000  0.6508444  3
  16441  16429  16428  16450     1  0.0000000  4.9162000  2
  16441  16429  16428  16450     1  0.0000000  0.6024960  3
  16448  16442  16428  16450     1  0.0000000  4.9162000  2
  16448  16442  16428  16450     1  0.0000000  0.6024960  3
  16451  16452  16455  16456     1  180.0000771  0.8368000  1
  16451  16452  16455  16456     1  180.0000771  1.0460000  2
  16451  16452  16455  16456     1  0.0000000  0.7531200  3
  16451  16452  16455  16463     1  0.0000000  0.6508444  3
  16451  16473  16457  16461     1  180.0000771  5.6484000  1
  16451  16473  16457  16461     1  180.0000771  3.5564000  2
  16451  16473  16457  16461     1  0.0000000  0.4184000  3
  16451  16473  16457  16456     1  180.0000771  0.4184000  2
  16451  16473  16457  16456     1  0.0000000  1.6024720  3
  16452  16455  16456  16457     1  180.0000771  0.8368000  1
  16452  16455  16456  16457     1  180.0000771  1.0460000  2
  16452  16455  16456  16457     1  0.0000000  0.7531200  3
  16452  16455  16456  16462     1  0.0000000  0.6508444  3
  16452  16451  16465  16471     1  0.0000000  0.6508444  3
  16452  16451  16473  16457     1  180.0000771  0.4184000  2
  16452  16451  16473  16457     1  0.0000000  1.6024720  3
  16455  16456  16457  16461     1  0.0000000  0.6508444  3
  16455  16456  16457  16473     1  0.0000000  0.6508444  3
  16455  16452  16451  16465     1  180.0000771  0.8368000  1
  16455  16452  16451  16465     1  180.0000771  1.0460000  2
  16455  16452  16451  16465     1  0.0000000  0.7531200  3
  16455  16452  16451  16473     1  0.0000000  0.6508444  3
  16456  16455  16452  16464     1  0.0000000  0.6508444  3
  16457  16473  16451  16465     1  180.0000771  0.4184000  2
  16457  16473  16451  16465     1  0.0000000  1.6024720  3
  16457  16456  16455  16463     1  0.0000000  0.6508444  3
  16461  16457  16456  16462     1  0.0000000  4.9162000  2
  16461  16457  16456  16462     1  0.0000000  0.6024960  3
  16462  16456  16457  16473     1  0.0000000  4.9162000  2
  16462  16456  16457  16473     1  0.0000000  0.6024960  3
  16462  16456  16455  16463     1  0.0000000  4.9162000  2
  16462  16456  16455  16463     1  0.0000000  0.6024960  3
  16463  16455  16452  16464     1  0.0000000  4.9162000  2
  16463  16455  16452  16464     1  0.0000000  0.6024960  3
  16464  16452  16451  16465     1  0.0000000  0.6508444  3
  16464  16452  16451  16473     1  0.0000000  4.9162000  2
  16464  16452  16451  16473     1  0.0000000  0.6024960  3
  16471  16465  16451  16473     1  0.0000000  4.9162000  2
  16471  16465  16451  16473     1  0.0000000  0.6024960  3
  16474  16475  16478  16479     1  180.0000771  0.8368000  1
  16474  16475  16478  16479     1  180.0000771  1.0460000  2
  16474  16475  16478  16479     1  0.0000000  0.7531200  3
  16474  16475  16478  16486     1  0.0000000  0.6508444  3
  16474  16496  16480  16479     1  180.0000771  0.4184000  2
  16474  16496  16480  16479     1  0.0000000  1.6024720  3
  16474  16496  16480  16484     1  180.0000771  5.6484000  1
  16474  16496  16480  16484     1  180.0000771  3.5564000  2
  16474  16496  16480  16484     1  0.0000000  0.4184000  3
  16475  16474  16488  16494     1  0.0000000  0.6508444  3
  16475  16474  16496  16480     1  180.0000771  0.4184000  2
  16475  16474  16496  16480     1  0.0000000  1.6024720  3
  16475  16478  16479  16480     1  180.0000771  0.8368000  1
  16475  16478  16479  16480     1  180.0000771  1.0460000  2
  16475  16478  16479  16480     1  0.0000000  0.7531200  3
  16475  16478  16479  16485     1  0.0000000  0.6508444  3
  16478  16475  16474  16488     1  180.0000771  0.8368000  1
  16478  16475  16474  16488     1  180.0000771  1.0460000  2
  16478  16475  16474  16488     1  0.0000000  0.7531200  3
  16478  16475  16474  16496     1  0.0000000  0.6508444  3
  16478  16479  16480  16484     1  0.0000000  0.6508444  3
  16478  16479  16480  16496     1  0.0000000  0.6508444  3
  16479  16478  16475  16487     1  0.0000000  0.6508444  3
  16480  16479  16478  16486     1  0.0000000  0.6508444  3
  16480  16496  16474  16488     1  180.0000771  0.4184000  2
  16480  16496  16474  16488     1  0.0000000  1.6024720  3
  16484  16480  16479  16485     1  0.0000000  4.9162000  2
  16484  16480  16479  16485     1  0.0000000  0.6024960  3
  16485  16479  16478  16486     1  0.0000000  4.9162000  2
  16485  16479  16478  16486     1  0.0000000  0.6024960  3
  16485  16479  16480  16496     1  0.0000000  4.9162000  2
  16485  16479  16480  16496     1  0.0000000  0.6024960  3
  16486  16478  16475  16487     1  0.0000000  4.9162000  2
  16486  16478  16475  16487     1  0.0000000  0.6024960  3
  16487  16475  16474  16488     1  0.0000000  0.6508444  3
  16487  16475  16474  16496     1  0.0000000  4.9162000  2
  16487  16475  16474  16496     1  0.0000000  0.6024960  3
  16494  16488  16474  16496     1  0.0000000  4.9162000  2
  16494  16488  16474  16496     1  0.0000000  0.6024960  3
  16497  16498  16501  16502     1  180.0000771  0.8368000  1
  16497  16498  16501  16502     1  180.0000771  1.0460000  2
  16497  16498  16501  16502     1  0.0000000  0.7531200  3
  16497  16498  16501  16509     1  0.0000000  0.6508444  3
  16497  16519  16503  16507     1  180.0000771  5.6484000  1
  16497  16519  16503  16507     1  180.0000771  3.5564000  2
  16497  16519  16503  16507     1  0.0000000  0.4184000  3
  16497  16519  16503  16502     1  180.0000771  0.4184000  2
  16497  16519  16503  16502     1  0.0000000  1.6024720  3
  16498  16501  16502  16503     1  180.0000771  0.8368000  1
  16498  16501  16502  16503     1  180.0000771  1.0460000  2
  16498  16501  16502  16503     1  0.0000000  0.7531200  3
  16498  16501  16502  16508     1  0.0000000  0.6508444  3
  16498  16497  16511  16517     1  0.0000000  0.6508444  3
  16498  16497  16519  16503     1  180.0000771  0.4184000  2
  16498  16497  16519  16503     1  0.0000000  1.6024720  3
  16501  16502  16503  16507     1  0.0000000  0.6508444  3
  16501  16502  16503  16519     1  0.0000000  0.6508444  3
  16501  16498  16497  16511     1  180.0000771  0.8368000  1
  16501  16498  16497  16511     1  180.0000771  1.0460000  2
  16501  16498  16497  16511     1  0.0000000  0.7531200  3
  16501  16498  16497  16519     1  0.0000000  0.6508444  3
  16502  16501  16498  16510     1  0.0000000  0.6508444  3
  16503  16519  16497  16511     1  180.0000771  0.4184000  2
  16503  16519  16497  16511     1  0.0000000  1.6024720  3
  16503  16502  16501  16509     1  0.0000000  0.6508444  3
  16507  16503  16502  16508     1  0.0000000  4.9162000  2
  16507  16503  16502  16508     1  0.0000000  0.6024960  3
  16508  16502  16503  16519     1  0.0000000  4.9162000  2
  16508  16502  16503  16519     1  0.0000000  0.6024960  3
  16508  16502  16501  16509     1  0.0000000  4.9162000  2
  16508  16502  16501  16509     1  0.0000000  0.6024960  3
  16509  16501  16498  16510     1  0.0000000  4.9162000  2
  16509  16501  16498  16510     1  0.0000000  0.6024960  3
  16510  16498  16497  16511     1  0.0000000  0.6508444  3
  16510  16498  16497  16519     1  0.0000000  4.9162000  2
  16510  16498  16497  16519     1  0.0000000  0.6024960  3
  16517  16511  16497  16519     1  0.0000000  4.9162000  2
  16517  16511  16497  16519     1  0.0000000  0.6024960  3
  16520  16521  16524  16525     1  180.0000771  0.8368000  1
  16520  16521  16524  16525     1  180.0000771  1.0460000  2
  16520  16521  16524  16525     1  0.0000000  0.7531200  3
  16520  16521  16524  16532     1  0.0000000  0.6508444  3
  16520  16542  16526  16525     1  180.0000771  0.4184000  2
  16520  16542  16526  16525     1  0.0000000  1.6024720  3
  16520  16542  16526  16530     1  180.0000771  5.6484000  1
  16520  16542  16526  16530     1  180.0000771  3.5564000  2
  16520  16542  16526  16530     1  0.0000000  0.4184000  3
  16521  16520  16534  16540     1  0.0000000  0.6508444  3
  16521  16520  16542  16526     1  180.0000771  0.4184000  2
  16521  16520  16542  16526     1  0.0000000  1.6024720  3
  16521  16524  16525  16526     1  180.0000771  0.8368000  1
  16521  16524  16525  16526     1  180.0000771  1.0460000  2
  16521  16524  16525  16526     1  0.0000000  0.7531200  3
  16521  16524  16525  16531     1  0.0000000  0.6508444  3
  16524  16521  16520  16534     1  180.0000771  0.8368000  1
  16524  16521  16520  16534     1  180.0000771  1.0460000  2
  16524  16521  16520  16534     1  0.0000000  0.7531200  3
  16524  16521  16520  16542     1  0.0000000  0.6508444  3
  16524  16525  16526  16530     1  0.0000000  0.6508444  3
  16524  16525  16526  16542     1  0.0000000  0.6508444  3
  16525  16524  16521  16533     1  0.0000000  0.6508444  3
  16526  16525  16524  16532     1  0.0000000  0.6508444  3
  16526  16542  16520  16534     1  180.0000771  0.4184000  2
  16526  16542  16520  16534     1  0.0000000  1.6024720  3
  16530  16526  16525  16531     1  0.0000000  4.9162000  2
  16530  16526  16525  16531     1  0.0000000  0.6024960  3
  16531  16525  16524  16532     1  0.0000000  4.9162000  2
  16531  16525  16524  16532     1  0.0000000  0.6024960  3
  16531  16525  16526  16542     1  0.0000000  4.9162000  2
  16531  16525  16526  16542     1  0.0000000  0.6024960  3
  16532  16524  16521  16533     1  0.0000000  4.9162000  2
  16532  16524  16521  16533     1  0.0000000  0.6024960  3
  16533  16521  16520  16534     1  0.0000000  0.6508444  3
  16533  16521  16520  16542     1  0.0000000  4.9162000  2
  16533  16521  16520  16542     1  0.0000000  0.6024960  3
  16540  16534  16520  16542     1  0.0000000  4.9162000  2
  16540  16534  16520  16542     1  0.0000000  0.6024960  3
  16543  16544  16547  16548     1  180.0000771  0.8368000  1
  16543  16544  16547  16548     1  180.0000771  1.0460000  2
  16543  16544  16547  16548     1  0.0000000  0.7531200  3
  16543  16544  16547  16555     1  0.0000000  0.6508444  3
  16543  16565  16549  16553     1  180.0000771  5.6484000  1
  16543  16565  16549  16553     1  180.0000771  3.5564000  2
  16543  16565  16549  16553     1  0.0000000  0.4184000  3
  16543  16565  16549  16548     1  180.0000771  0.4184000  2
  16543  16565  16549  16548     1  0.0000000  1.6024720  3
  16544  16547  16548  16549     1  180.0000771  0.8368000  1
  16544  16547  16548  16549     1  180.0000771  1.0460000  2
  16544  16547  16548  16549     1  0.0000000  0.7531200  3
  16544  16547  16548  16554     1  0.0000000  0.6508444  3
  16544  16543  16557  16563     1  0.0000000  0.6508444  3
  16544  16543  16565  16549     1  180.0000771  0.4184000  2
  16544  16543  16565  16549     1  0.0000000  1.6024720  3
  16547  16548  16549  16553     1  0.0000000  0.6508444  3
  16547  16548  16549  16565     1  0.0000000  0.6508444  3
  16547  16544  16543  16557     1  180.0000771  0.8368000  1
  16547  16544  16543  16557     1  180.0000771  1.0460000  2
  16547  16544  16543  16557     1  0.0000000  0.7531200  3
  16547  16544  16543  16565     1  0.0000000  0.6508444  3
  16548  16547  16544  16556     1  0.0000000  0.6508444  3
  16549  16565  16543  16557     1  180.0000771  0.4184000  2
  16549  16565  16543  16557     1  0.0000000  1.6024720  3
  16549  16548  16547  16555     1  0.0000000  0.6508444  3
  16553  16549  16548  16554     1  0.0000000  4.9162000  2
  16553  16549  16548  16554     1  0.0000000  0.6024960  3
  16554  16548  16549  16565     1  0.0000000  4.9162000  2
  16554  16548  16549  16565     1  0.0000000  0.6024960  3
  16554  16548  16547  16555     1  0.0000000  4.9162000  2
  16554  16548  16547  16555     1  0.0000000  0.6024960  3
  16555  16547  16544  16556     1  0.0000000  4.9162000  2
  16555  16547  16544  16556     1  0.0000000  0.6024960  3
  16556  16544  16543  16557     1  0.0000000  0.6508444  3
  16556  16544  16543  16565     1  0.0000000  4.9162000  2
  16556  16544  16543  16565     1  0.0000000  0.6024960  3
  16563  16557  16543  16565     1  0.0000000  4.9162000  2
  16563  16557  16543  16565     1  0.0000000  0.6024960  3
  16566  16567  16570  16571     1  180.0000771  0.8368000  1
  16566  16567  16570  16571     1  180.0000771  1.0460000  2
  16566  16567  16570  16571     1  0.0000000  0.7531200  3
  16566  16567  16570  16578     1  0.0000000  0.6508444  3
  16566  16588  16572  16571     1  180.0000771  0.4184000  2
  16566  16588  16572  16571     1  0.0000000  1.6024720  3
  16566  16588  16572  16576     1  180.0000771  5.6484000  1
  16566  16588  16572  16576     1  180.0000771  3.5564000  2
  16566  16588  16572  16576     1  0.0000000  0.4184000  3
  16567  16566  16580  16586     1  0.0000000  0.6508444  3
  16567  16566  16588  16572     1  180.0000771  0.4184000  2
  16567  16566  16588  16572     1  0.0000000  1.6024720  3
  16567  16570  16571  16572     1  180.0000771  0.8368000  1
  16567  16570  16571  16572     1  180.0000771  1.0460000  2
  16567  16570  16571  16572     1  0.0000000  0.7531200  3
  16567  16570  16571  16577     1  0.0000000  0.6508444  3
  16570  16567  16566  16580     1  180.0000771  0.8368000  1
  16570  16567  16566  16580     1  180.0000771  1.0460000  2
  16570  16567  16566  16580     1  0.0000000  0.7531200  3
  16570  16567  16566  16588     1  0.0000000  0.6508444  3
  16570  16571  16572  16576     1  0.0000000  0.6508444  3
  16570  16571  16572  16588     1  0.0000000  0.6508444  3
  16571  16570  16567  16579     1  0.0000000  0.6508444  3
  16572  16571  16570  16578     1  0.0000000  0.6508444  3
  16572  16588  16566  16580     1  180.0000771  0.4184000  2
  16572  16588  16566  16580     1  0.0000000  1.6024720  3
  16576  16572  16571  16577     1  0.0000000  4.9162000  2
  16576  16572  16571  16577     1  0.0000000  0.6024960  3
  16577  16571  16570  16578     1  0.0000000  4.9162000  2
  16577  16571  16570  16578     1  0.0000000  0.6024960  3
  16577  16571  16572  16588     1  0.0000000  4.9162000  2
  16577  16571  16572  16588     1  0.0000000  0.6024960  3
  16578  16570  16567  16579     1  0.0000000  4.9162000  2
  16578  16570  16567  16579     1  0.0000000  0.6024960  3
  16579  16567  16566  16580     1  0.0000000  0.6508444  3
  16579  16567  16566  16588     1  0.0000000  4.9162000  2
  16579  16567  16566  16588     1  0.0000000  0.6024960  3
  16586  16580  16566  16588     1  0.0000000  4.9162000  2
  16586  16580  16566  16588     1  0.0000000  0.6024960  3
  16589  16590  16593  16594     1  180.0000771  0.8368000  1
  16589  16590  16593  16594     1  180.0000771  1.0460000  2
  16589  16590  16593  16594     1  0.0000000  0.7531200  3
  16589  16590  16593  16601     1  0.0000000  0.6508444  3
  16589  16611  16595  16599     1  180.0000771  5.6484000  1
  16589  16611  16595  16599     1  180.0000771  3.5564000  2
  16589  16611  16595  16599     1  0.0000000  0.4184000  3
  16589  16611  16595  16594     1  180.0000771  0.4184000  2
  16589  16611  16595  16594     1  0.0000000  1.6024720  3
  16590  16593  16594  16595     1  180.0000771  0.8368000  1
  16590  16593  16594  16595     1  180.0000771  1.0460000  2
  16590  16593  16594  16595     1  0.0000000  0.7531200  3
  16590  16593  16594  16600     1  0.0000000  0.6508444  3
  16590  16589  16603  16609     1  0.0000000  0.6508444  3
  16590  16589  16611  16595     1  180.0000771  0.4184000  2
  16590  16589  16611  16595     1  0.0000000  1.6024720  3
  16593  16594  16595  16599     1  0.0000000  0.6508444  3
  16593  16594  16595  16611     1  0.0000000  0.6508444  3
  16593  16590  16589  16603     1  180.0000771  0.8368000  1
  16593  16590  16589  16603     1  180.0000771  1.0460000  2
  16593  16590  16589  16603     1  0.0000000  0.7531200  3
  16593  16590  16589  16611     1  0.0000000  0.6508444  3
  16594  16593  16590  16602     1  0.0000000  0.6508444  3
  16595  16611  16589  16603     1  180.0000771  0.4184000  2
  16595  16611  16589  16603     1  0.0000000  1.6024720  3
  16595  16594  16593  16601     1  0.0000000  0.6508444  3
  16599  16595  16594  16600     1  0.0000000  4.9162000  2
  16599  16595  16594  16600     1  0.0000000  0.6024960  3
  16600  16594  16595  16611     1  0.0000000  4.9162000  2
  16600  16594  16595  16611     1  0.0000000  0.6024960  3
  16600  16594  16593  16601     1  0.0000000  4.9162000  2
  16600  16594  16593  16601     1  0.0000000  0.6024960  3
  16601  16593  16590  16602     1  0.0000000  4.9162000  2
  16601  16593  16590  16602     1  0.0000000  0.6024960  3
  16602  16590  16589  16603     1  0.0000000  0.6508444  3
  16602  16590  16589  16611     1  0.0000000  4.9162000  2
  16602  16590  16589  16611     1  0.0000000  0.6024960  3
  16609  16603  16589  16611     1  0.0000000  4.9162000  2
  16609  16603  16589  16611     1  0.0000000  0.6024960  3
  16612  16613  16616  16617     1  180.0000771  0.8368000  1
  16612  16613  16616  16617     1  180.0000771  1.0460000  2
  16612  16613  16616  16617     1  0.0000000  0.7531200  3
  16612  16613  16616  16624     1  0.0000000  0.6508444  3
  16612  16634  16618  16617     1  180.0000771  0.4184000  2
  16612  16634  16618  16617     1  0.0000000  1.6024720  3
  16612  16634  16618  16622     1  180.0000771  5.6484000  1
  16612  16634  16618  16622     1  180.0000771  3.5564000  2
  16612  16634  16618  16622     1  0.0000000  0.4184000  3
  16613  16612  16626  16632     1  0.0000000  0.6508444  3
  16613  16612  16634  16618     1  180.0000771  0.4184000  2
  16613  16612  16634  16618     1  0.0000000  1.6024720  3
  16613  16616  16617  16618     1  180.0000771  0.8368000  1
  16613  16616  16617  16618     1  180.0000771  1.0460000  2
  16613  16616  16617  16618     1  0.0000000  0.7531200  3
  16613  16616  16617  16623     1  0.0000000  0.6508444  3
  16616  16613  16612  16626     1  180.0000771  0.8368000  1
  16616  16613  16612  16626     1  180.0000771  1.0460000  2
  16616  16613  16612  16626     1  0.0000000  0.7531200  3
  16616  16613  16612  16634     1  0.0000000  0.6508444  3
  16616  16617  16618  16622     1  0.0000000  0.6508444  3
  16616  16617  16618  16634     1  0.0000000  0.6508444  3
  16617  16616  16613  16625     1  0.0000000  0.6508444  3
  16618  16617  16616  16624     1  0.0000000  0.6508444  3
  16618  16634  16612  16626     1  180.0000771  0.4184000  2
  16618  16634  16612  16626     1  0.0000000  1.6024720  3
  16622  16618  16617  16623     1  0.0000000  4.9162000  2
  16622  16618  16617  16623     1  0.0000000  0.6024960  3
  16623  16617  16616  16624     1  0.0000000  4.9162000  2
  16623  16617  16616  16624     1  0.0000000  0.6024960  3
  16623  16617  16618  16634     1  0.0000000  4.9162000  2
  16623  16617  16618  16634     1  0.0000000  0.6024960  3
  16624  16616  16613  16625     1  0.0000000  4.9162000  2
  16624  16616  16613  16625     1  0.0000000  0.6024960  3
  16625  16613  16612  16626     1  0.0000000  0.6508444  3
  16625  16613  16612  16634     1  0.0000000  4.9162000  2
  16625  16613  16612  16634     1  0.0000000  0.6024960  3
  16632  16626  16612  16634     1  0.0000000  4.9162000  2
  16632  16626  16612  16634     1  0.0000000  0.6024960  3
  16635  16636  16639  16640     1  180.0000771  0.8368000  1
  16635  16636  16639  16640     1  180.0000771  1.0460000  2
  16635  16636  16639  16640     1  0.0000000  0.7531200  3
  16635  16636  16639  16647     1  0.0000000  0.6508444  3
  16635  16657  16641  16645     1  180.0000771  5.6484000  1
  16635  16657  16641  16645     1  180.0000771  3.5564000  2
  16635  16657  16641  16645     1  0.0000000  0.4184000  3
  16635  16657  16641  16640     1  180.0000771  0.4184000  2
  16635  16657  16641  16640     1  0.0000000  1.6024720  3
  16636  16639  16640  16641     1  180.0000771  0.8368000  1
  16636  16639  16640  16641     1  180.0000771  1.0460000  2
  16636  16639  16640  16641     1  0.0000000  0.7531200  3
  16636  16639  16640  16646     1  0.0000000  0.6508444  3
  16636  16635  16649  16655     1  0.0000000  0.6508444  3
  16636  16635  16657  16641     1  180.0000771  0.4184000  2
  16636  16635  16657  16641     1  0.0000000  1.6024720  3
  16639  16640  16641  16645     1  0.0000000  0.6508444  3
  16639  16640  16641  16657     1  0.0000000  0.6508444  3
  16639  16636  16635  16649     1  180.0000771  0.8368000  1
  16639  16636  16635  16649     1  180.0000771  1.0460000  2
  16639  16636  16635  16649     1  0.0000000  0.7531200  3
  16639  16636  16635  16657     1  0.0000000  0.6508444  3
  16640  16639  16636  16648     1  0.0000000  0.6508444  3
  16641  16657  16635  16649     1  180.0000771  0.4184000  2
  16641  16657  16635  16649     1  0.0000000  1.6024720  3
  16641  16640  16639  16647     1  0.0000000  0.6508444  3
  16645  16641  16640  16646     1  0.0000000  4.9162000  2
  16645  16641  16640  16646     1  0.0000000  0.6024960  3
  16646  16640  16641  16657     1  0.0000000  4.9162000  2
  16646  16640  16641  16657     1  0.0000000  0.6024960  3
  16646  16640  16639  16647     1  0.0000000  4.9162000  2
  16646  16640  16639  16647     1  0.0000000  0.6024960  3
  16647  16639  16636  16648     1  0.0000000  4.9162000  2
  16647  16639  16636  16648     1  0.0000000  0.6024960  3
  16648  16636  16635  16649     1  0.0000000  0.6508444  3
  16648  16636  16635  16657     1  0.0000000  4.9162000  2
  16648  16636  16635  16657     1  0.0000000  0.6024960  3
  16655  16649  16635  16657     1  0.0000000  4.9162000  2
  16655  16649  16635  16657     1  0.0000000  0.6024960  3
  16658  16659  16662  16663     1  180.0000771  0.8368000  1
  16658  16659  16662  16663     1  180.0000771  1.0460000  2
  16658  16659  16662  16663     1  0.0000000  0.7531200  3
  16658  16659  16662  16670     1  0.0000000  0.6508444  3
  16658  16680  16664  16663     1  180.0000771  0.4184000  2
  16658  16680  16664  16663     1  0.0000000  1.6024720  3
  16658  16680  16664  16668     1  180.0000771  5.6484000  1
  16658  16680  16664  16668     1  180.0000771  3.5564000  2
  16658  16680  16664  16668     1  0.0000000  0.4184000  3
  16659  16658  16672  16678     1  0.0000000  0.6508444  3
  16659  16658  16680  16664     1  180.0000771  0.4184000  2
  16659  16658  16680  16664     1  0.0000000  1.6024720  3
  16659  16662  16663  16664     1  180.0000771  0.8368000  1
  16659  16662  16663  16664     1  180.0000771  1.0460000  2
  16659  16662  16663  16664     1  0.0000000  0.7531200  3
  16659  16662  16663  16669     1  0.0000000  0.6508444  3
  16662  16659  16658  16672     1  180.0000771  0.8368000  1
  16662  16659  16658  16672     1  180.0000771  1.0460000  2
  16662  16659  16658  16672     1  0.0000000  0.7531200  3
  16662  16659  16658  16680     1  0.0000000  0.6508444  3
  16662  16663  16664  16668     1  0.0000000  0.6508444  3
  16662  16663  16664  16680     1  0.0000000  0.6508444  3
  16663  16662  16659  16671     1  0.0000000  0.6508444  3
  16664  16663  16662  16670     1  0.0000000  0.6508444  3
  16664  16680  16658  16672     1  180.0000771  0.4184000  2
  16664  16680  16658  16672     1  0.0000000  1.6024720  3
  16668  16664  16663  16669     1  0.0000000  4.9162000  2
  16668  16664  16663  16669     1  0.0000000  0.6024960  3
  16669  16663  16662  16670     1  0.0000000  4.9162000  2
  16669  16663  16662  16670     1  0.0000000  0.6024960  3
  16669  16663  16664  16680     1  0.0000000  4.9162000  2
  16669  16663  16664  16680     1  0.0000000  0.6024960  3
  16670  16662  16659  16671     1  0.0000000  4.9162000  2
  16670  16662  16659  16671     1  0.0000000  0.6024960  3
  16671  16659  16658  16672     1  0.0000000  0.6508444  3
  16671  16659  16658  16680     1  0.0000000  4.9162000  2
  16671  16659  16658  16680     1  0.0000000  0.6024960  3
  16678  16672  16658  16680     1  0.0000000  4.9162000  2
  16678  16672  16658  16680     1  0.0000000  0.6024960  3
  16681  16682  16685  16686     1  180.0000771  0.8368000  1
  16681  16682  16685  16686     1  180.0000771  1.0460000  2
  16681  16682  16685  16686     1  0.0000000  0.7531200  3
  16681  16682  16685  16693     1  0.0000000  0.6508444  3
  16681  16703  16687  16691     1  180.0000771  5.6484000  1
  16681  16703  16687  16691     1  180.0000771  3.5564000  2
  16681  16703  16687  16691     1  0.0000000  0.4184000  3
  16681  16703  16687  16686     1  180.0000771  0.4184000  2
  16681  16703  16687  16686     1  0.0000000  1.6024720  3
  16682  16685  16686  16687     1  180.0000771  0.8368000  1
  16682  16685  16686  16687     1  180.0000771  1.0460000  2
  16682  16685  16686  16687     1  0.0000000  0.7531200  3
  16682  16685  16686  16692     1  0.0000000  0.6508444  3
  16682  16681  16695  16701     1  0.0000000  0.6508444  3
  16682  16681  16703  16687     1  180.0000771  0.4184000  2
  16682  16681  16703  16687     1  0.0000000  1.6024720  3
  16685  16686  16687  16691     1  0.0000000  0.6508444  3
  16685  16686  16687  16703     1  0.0000000  0.6508444  3
  16685  16682  16681  16695     1  180.0000771  0.8368000  1
  16685  16682  16681  16695     1  180.0000771  1.0460000  2
  16685  16682  16681  16695     1  0.0000000  0.7531200  3
  16685  16682  16681  16703     1  0.0000000  0.6508444  3
  16686  16685  16682  16694     1  0.0000000  0.6508444  3
  16687  16703  16681  16695     1  180.0000771  0.4184000  2
  16687  16703  16681  16695     1  0.0000000  1.6024720  3
  16687  16686  16685  16693     1  0.0000000  0.6508444  3
  16691  16687  16686  16692     1  0.0000000  4.9162000  2
  16691  16687  16686  16692     1  0.0000000  0.6024960  3
  16692  16686  16687  16703     1  0.0000000  4.9162000  2
  16692  16686  16687  16703     1  0.0000000  0.6024960  3
  16692  16686  16685  16693     1  0.0000000  4.9162000  2
  16692  16686  16685  16693     1  0.0000000  0.6024960  3
  16693  16685  16682  16694     1  0.0000000  4.9162000  2
  16693  16685  16682  16694     1  0.0000000  0.6024960  3
  16694  16682  16681  16695     1  0.0000000  0.6508444  3
  16694  16682  16681  16703     1  0.0000000  4.9162000  2
  16694  16682  16681  16703     1  0.0000000  0.6024960  3
  16701  16695  16681  16703     1  0.0000000  4.9162000  2
  16701  16695  16681  16703     1  0.0000000  0.6024960  3
  16704  16705  16708  16709     1  180.0000771  0.8368000  1
  16704  16705  16708  16709     1  180.0000771  1.0460000  2
  16704  16705  16708  16709     1  0.0000000  0.7531200  3
  16704  16705  16708  16716     1  0.0000000  0.6508444  3
  16704  16726  16710  16709     1  180.0000771  0.4184000  2
  16704  16726  16710  16709     1  0.0000000  1.6024720  3
  16704  16726  16710  16714     1  180.0000771  5.6484000  1
  16704  16726  16710  16714     1  180.0000771  3.5564000  2
  16704  16726  16710  16714     1  0.0000000  0.4184000  3
  16705  16704  16718  16724     1  0.0000000  0.6508444  3
  16705  16704  16726  16710     1  180.0000771  0.4184000  2
  16705  16704  16726  16710     1  0.0000000  1.6024720  3
  16705  16708  16709  16710     1  180.0000771  0.8368000  1
  16705  16708  16709  16710     1  180.0000771  1.0460000  2
  16705  16708  16709  16710     1  0.0000000  0.7531200  3
  16705  16708  16709  16715     1  0.0000000  0.6508444  3
  16708  16705  16704  16718     1  180.0000771  0.8368000  1
  16708  16705  16704  16718     1  180.0000771  1.0460000  2
  16708  16705  16704  16718     1  0.0000000  0.7531200  3
  16708  16705  16704  16726     1  0.0000000  0.6508444  3
  16708  16709  16710  16714     1  0.0000000  0.6508444  3
  16708  16709  16710  16726     1  0.0000000  0.6508444  3
  16709  16708  16705  16717     1  0.0000000  0.6508444  3
  16710  16709  16708  16716     1  0.0000000  0.6508444  3
  16710  16726  16704  16718     1  180.0000771  0.4184000  2
  16710  16726  16704  16718     1  0.0000000  1.6024720  3
  16714  16710  16709  16715     1  0.0000000  4.9162000  2
  16714  16710  16709  16715     1  0.0000000  0.6024960  3
  16715  16709  16708  16716     1  0.0000000  4.9162000  2
  16715  16709  16708  16716     1  0.0000000  0.6024960  3
  16715  16709  16710  16726     1  0.0000000  4.9162000  2
  16715  16709  16710  16726     1  0.0000000  0.6024960  3
  16716  16708  16705  16717     1  0.0000000  4.9162000  2
  16716  16708  16705  16717     1  0.0000000  0.6024960  3
  16717  16705  16704  16718     1  0.0000000  0.6508444  3
  16717  16705  16704  16726     1  0.0000000  4.9162000  2
  16717  16705  16704  16726     1  0.0000000  0.6024960  3
  16724  16718  16704  16726     1  0.0000000  4.9162000  2
  16724  16718  16704  16726     1  0.0000000  0.6024960  3
  16727  16728  16731  16732     1  180.0000771  0.8368000  1
  16727  16728  16731  16732     1  180.0000771  1.0460000  2
  16727  16728  16731  16732     1  0.0000000  0.7531200  3
  16727  16728  16731  16739     1  0.0000000  0.6508444  3
  16727  16749  16733  16737     1  180.0000771  5.6484000  1
  16727  16749  16733  16737     1  180.0000771  3.5564000  2
  16727  16749  16733  16737     1  0.0000000  0.4184000  3
  16727  16749  16733  16732     1  180.0000771  0.4184000  2
  16727  16749  16733  16732     1  0.0000000  1.6024720  3
  16728  16731  16732  16733     1  180.0000771  0.8368000  1
  16728  16731  16732  16733     1  180.0000771  1.0460000  2
  16728  16731  16732  16733     1  0.0000000  0.7531200  3
  16728  16731  16732  16738     1  0.0000000  0.6508444  3
  16728  16727  16741  16747     1  0.0000000  0.6508444  3
  16728  16727  16749  16733     1  180.0000771  0.4184000  2
  16728  16727  16749  16733     1  0.0000000  1.6024720  3
  16731  16732  16733  16737     1  0.0000000  0.6508444  3
  16731  16732  16733  16749     1  0.0000000  0.6508444  3
  16731  16728  16727  16741     1  180.0000771  0.8368000  1
  16731  16728  16727  16741     1  180.0000771  1.0460000  2
  16731  16728  16727  16741     1  0.0000000  0.7531200  3
  16731  16728  16727  16749     1  0.0000000  0.6508444  3
  16732  16731  16728  16740     1  0.0000000  0.6508444  3
  16733  16749  16727  16741     1  180.0000771  0.4184000  2
  16733  16749  16727  16741     1  0.0000000  1.6024720  3
  16733  16732  16731  16739     1  0.0000000  0.6508444  3
  16737  16733  16732  16738     1  0.0000000  4.9162000  2
  16737  16733  16732  16738     1  0.0000000  0.6024960  3
  16738  16732  16733  16749     1  0.0000000  4.9162000  2
  16738  16732  16733  16749     1  0.0000000  0.6024960  3
  16738  16732  16731  16739     1  0.0000000  4.9162000  2
  16738  16732  16731  16739     1  0.0000000  0.6024960  3
  16739  16731  16728  16740     1  0.0000000  4.9162000  2
  16739  16731  16728  16740     1  0.0000000  0.6024960  3
  16740  16728  16727  16741     1  0.0000000  0.6508444  3
  16740  16728  16727  16749     1  0.0000000  4.9162000  2
  16740  16728  16727  16749     1  0.0000000  0.6024960  3
  16747  16741  16727  16749     1  0.0000000  4.9162000  2
  16747  16741  16727  16749     1  0.0000000  0.6024960  3
  16750  16751  16754  16755     1  180.0000771  0.8368000  1
  16750  16751  16754  16755     1  180.0000771  1.0460000  2
  16750  16751  16754  16755     1  0.0000000  0.7531200  3
  16750  16751  16754  16762     1  0.0000000  0.6508444  3
  16750  16772  16756  16755     1  180.0000771  0.4184000  2
  16750  16772  16756  16755     1  0.0000000  1.6024720  3
  16750  16772  16756  16760     1  180.0000771  5.6484000  1
  16750  16772  16756  16760     1  180.0000771  3.5564000  2
  16750  16772  16756  16760     1  0.0000000  0.4184000  3
  16751  16750  16764  16770     1  0.0000000  0.6508444  3
  16751  16750  16772  16756     1  180.0000771  0.4184000  2
  16751  16750  16772  16756     1  0.0000000  1.6024720  3
  16751  16754  16755  16756     1  180.0000771  0.8368000  1
  16751  16754  16755  16756     1  180.0000771  1.0460000  2
  16751  16754  16755  16756     1  0.0000000  0.7531200  3
  16751  16754  16755  16761     1  0.0000000  0.6508444  3
  16754  16751  16750  16764     1  180.0000771  0.8368000  1
  16754  16751  16750  16764     1  180.0000771  1.0460000  2
  16754  16751  16750  16764     1  0.0000000  0.7531200  3
  16754  16751  16750  16772     1  0.0000000  0.6508444  3
  16754  16755  16756  16760     1  0.0000000  0.6508444  3
  16754  16755  16756  16772     1  0.0000000  0.6508444  3
  16755  16754  16751  16763     1  0.0000000  0.6508444  3
  16756  16755  16754  16762     1  0.0000000  0.6508444  3
  16756  16772  16750  16764     1  180.0000771  0.4184000  2
  16756  16772  16750  16764     1  0.0000000  1.6024720  3
  16760  16756  16755  16761     1  0.0000000  4.9162000  2
  16760  16756  16755  16761     1  0.0000000  0.6024960  3
  16761  16755  16754  16762     1  0.0000000  4.9162000  2
  16761  16755  16754  16762     1  0.0000000  0.6024960  3
  16761  16755  16756  16772     1  0.0000000  4.9162000  2
  16761  16755  16756  16772     1  0.0000000  0.6024960  3
  16762  16754  16751  16763     1  0.0000000  4.9162000  2
  16762  16754  16751  16763     1  0.0000000  0.6024960  3
  16763  16751  16750  16764     1  0.0000000  0.6508444  3
  16763  16751  16750  16772     1  0.0000000  4.9162000  2
  16763  16751  16750  16772     1  0.0000000  0.6024960  3
  16770  16764  16750  16772     1  0.0000000  4.9162000  2
  16770  16764  16750  16772     1  0.0000000  0.6024960  3
  16773  16774  16777  16778     1  180.0000771  0.8368000  1
  16773  16774  16777  16778     1  180.0000771  1.0460000  2
  16773  16774  16777  16778     1  0.0000000  0.7531200  3
  16773  16774  16777  16785     1  0.0000000  0.6508444  3
  16773  16795  16779  16783     1  180.0000771  5.6484000  1
  16773  16795  16779  16783     1  180.0000771  3.5564000  2
  16773  16795  16779  16783     1  0.0000000  0.4184000  3
  16773  16795  16779  16778     1  180.0000771  0.4184000  2
  16773  16795  16779  16778     1  0.0000000  1.6024720  3
  16774  16777  16778  16779     1  180.0000771  0.8368000  1
  16774  16777  16778  16779     1  180.0000771  1.0460000  2
  16774  16777  16778  16779     1  0.0000000  0.7531200  3
  16774  16777  16778  16784     1  0.0000000  0.6508444  3
  16774  16773  16787  16793     1  0.0000000  0.6508444  3
  16774  16773  16795  16779     1  180.0000771  0.4184000  2
  16774  16773  16795  16779     1  0.0000000  1.6024720  3
  16777  16778  16779  16783     1  0.0000000  0.6508444  3
  16777  16778  16779  16795     1  0.0000000  0.6508444  3
  16777  16774  16773  16787     1  180.0000771  0.8368000  1
  16777  16774  16773  16787     1  180.0000771  1.0460000  2
  16777  16774  16773  16787     1  0.0000000  0.7531200  3
  16777  16774  16773  16795     1  0.0000000  0.6508444  3
  16778  16777  16774  16786     1  0.0000000  0.6508444  3
  16779  16795  16773  16787     1  180.0000771  0.4184000  2
  16779  16795  16773  16787     1  0.0000000  1.6024720  3
  16779  16778  16777  16785     1  0.0000000  0.6508444  3
  16783  16779  16778  16784     1  0.0000000  4.9162000  2
  16783  16779  16778  16784     1  0.0000000  0.6024960  3
  16784  16778  16779  16795     1  0.0000000  4.9162000  2
  16784  16778  16779  16795     1  0.0000000  0.6024960  3
  16784  16778  16777  16785     1  0.0000000  4.9162000  2
  16784  16778  16777  16785     1  0.0000000  0.6024960  3
  16785  16777  16774  16786     1  0.0000000  4.9162000  2
  16785  16777  16774  16786     1  0.0000000  0.6024960  3
  16786  16774  16773  16787     1  0.0000000  0.6508444  3
  16786  16774  16773  16795     1  0.0000000  4.9162000  2
  16786  16774  16773  16795     1  0.0000000  0.6024960  3
  16793  16787  16773  16795     1  0.0000000  4.9162000  2
  16793  16787  16773  16795     1  0.0000000  0.6024960  3
  16796  16797  16800  16801     1  180.0000771  0.8368000  1
  16796  16797  16800  16801     1  180.0000771  1.0460000  2
  16796  16797  16800  16801     1  0.0000000  0.7531200  3
  16796  16797  16800  16808     1  0.0000000  0.6508444  3
  16796  16818  16802  16801     1  180.0000771  0.4184000  2
  16796  16818  16802  16801     1  0.0000000  1.6024720  3
  16796  16818  16802  16806     1  180.0000771  5.6484000  1
  16796  16818  16802  16806     1  180.0000771  3.5564000  2
  16796  16818  16802  16806     1  0.0000000  0.4184000  3
  16797  16796  16810  16816     1  0.0000000  0.6508444  3
  16797  16796  16818  16802     1  180.0000771  0.4184000  2
  16797  16796  16818  16802     1  0.0000000  1.6024720  3
  16797  16800  16801  16802     1  180.0000771  0.8368000  1
  16797  16800  16801  16802     1  180.0000771  1.0460000  2
  16797  16800  16801  16802     1  0.0000000  0.7531200  3
  16797  16800  16801  16807     1  0.0000000  0.6508444  3
  16800  16797  16796  16810     1  180.0000771  0.8368000  1
  16800  16797  16796  16810     1  180.0000771  1.0460000  2
  16800  16797  16796  16810     1  0.0000000  0.7531200  3
  16800  16797  16796  16818     1  0.0000000  0.6508444  3
  16800  16801  16802  16806     1  0.0000000  0.6508444  3
  16800  16801  16802  16818     1  0.0000000  0.6508444  3
  16801  16800  16797  16809     1  0.0000000  0.6508444  3
  16802  16801  16800  16808     1  0.0000000  0.6508444  3
  16802  16818  16796  16810     1  180.0000771  0.4184000  2
  16802  16818  16796  16810     1  0.0000000  1.6024720  3
  16806  16802  16801  16807     1  0.0000000  4.9162000  2
  16806  16802  16801  16807     1  0.0000000  0.6024960  3
  16807  16801  16800  16808     1  0.0000000  4.9162000  2
  16807  16801  16800  16808     1  0.0000000  0.6024960  3
  16807  16801  16802  16818     1  0.0000000  4.9162000  2
  16807  16801  16802  16818     1  0.0000000  0.6024960  3
  16808  16800  16797  16809     1  0.0000000  4.9162000  2
  16808  16800  16797  16809     1  0.0000000  0.6024960  3
  16809  16797  16796  16810     1  0.0000000  0.6508444  3
  16809  16797  16796  16818     1  0.0000000  4.9162000  2
  16809  16797  16796  16818     1  0.0000000  0.6024960  3
  16816  16810  16796  16818     1  0.0000000  4.9162000  2
  16816  16810  16796  16818     1  0.0000000  0.6024960  3
  16819  16820  16823  16824     1  180.0000771  0.8368000  1
  16819  16820  16823  16824     1  180.0000771  1.0460000  2
  16819  16820  16823  16824     1  0.0000000  0.7531200  3
  16819  16820  16823  16831     1  0.0000000  0.6508444  3
  16819  16841  16825  16829     1  180.0000771  5.6484000  1
  16819  16841  16825  16829     1  180.0000771  3.5564000  2
  16819  16841  16825  16829     1  0.0000000  0.4184000  3
  16819  16841  16825  16824     1  180.0000771  0.4184000  2
  16819  16841  16825  16824     1  0.0000000  1.6024720  3
  16820  16823  16824  16825     1  180.0000771  0.8368000  1
  16820  16823  16824  16825     1  180.0000771  1.0460000  2
  16820  16823  16824  16825     1  0.0000000  0.7531200  3
  16820  16823  16824  16830     1  0.0000000  0.6508444  3
  16820  16819  16833  16839     1  0.0000000  0.6508444  3
  16820  16819  16841  16825     1  180.0000771  0.4184000  2
  16820  16819  16841  16825     1  0.0000000  1.6024720  3
  16823  16824  16825  16829     1  0.0000000  0.6508444  3
  16823  16824  16825  16841     1  0.0000000  0.6508444  3
  16823  16820  16819  16833     1  180.0000771  0.8368000  1
  16823  16820  16819  16833     1  180.0000771  1.0460000  2
  16823  16820  16819  16833     1  0.0000000  0.7531200  3
  16823  16820  16819  16841     1  0.0000000  0.6508444  3
  16824  16823  16820  16832     1  0.0000000  0.6508444  3
  16825  16841  16819  16833     1  180.0000771  0.4184000  2
  16825  16841  16819  16833     1  0.0000000  1.6024720  3
  16825  16824  16823  16831     1  0.0000000  0.6508444  3
  16829  16825  16824  16830     1  0.0000000  4.9162000  2
  16829  16825  16824  16830     1  0.0000000  0.6024960  3
  16830  16824  16825  16841     1  0.0000000  4.9162000  2
  16830  16824  16825  16841     1  0.0000000  0.6024960  3
  16830  16824  16823  16831     1  0.0000000  4.9162000  2
  16830  16824  16823  16831     1  0.0000000  0.6024960  3
  16831  16823  16820  16832     1  0.0000000  4.9162000  2
  16831  16823  16820  16832     1  0.0000000  0.6024960  3
  16832  16820  16819  16833     1  0.0000000  0.6508444  3
  16832  16820  16819  16841     1  0.0000000  4.9162000  2
  16832  16820  16819  16841     1  0.0000000  0.6024960  3
  16839  16833  16819  16841     1  0.0000000  4.9162000  2
  16839  16833  16819  16841     1  0.0000000  0.6024960  3
  16842  16843  16846  16847     1  180.0000771  0.8368000  1
  16842  16843  16846  16847     1  180.0000771  1.0460000  2
  16842  16843  16846  16847     1  0.0000000  0.7531200  3
  16842  16843  16846  16854     1  0.0000000  0.6508444  3
  16842  16864  16848  16847     1  180.0000771  0.4184000  2
  16842  16864  16848  16847     1  0.0000000  1.6024720  3
  16842  16864  16848  16852     1  180.0000771  5.6484000  1
  16842  16864  16848  16852     1  180.0000771  3.5564000  2
  16842  16864  16848  16852     1  0.0000000  0.4184000  3
  16843  16842  16856  16862     1  0.0000000  0.6508444  3
  16843  16842  16864  16848     1  180.0000771  0.4184000  2
  16843  16842  16864  16848     1  0.0000000  1.6024720  3
  16843  16846  16847  16848     1  180.0000771  0.8368000  1
  16843  16846  16847  16848     1  180.0000771  1.0460000  2
  16843  16846  16847  16848     1  0.0000000  0.7531200  3
  16843  16846  16847  16853     1  0.0000000  0.6508444  3
  16846  16843  16842  16856     1  180.0000771  0.8368000  1
  16846  16843  16842  16856     1  180.0000771  1.0460000  2
  16846  16843  16842  16856     1  0.0000000  0.7531200  3
  16846  16843  16842  16864     1  0.0000000  0.6508444  3
  16846  16847  16848  16852     1  0.0000000  0.6508444  3
  16846  16847  16848  16864     1  0.0000000  0.6508444  3
  16847  16846  16843  16855     1  0.0000000  0.6508444  3
  16848  16847  16846  16854     1  0.0000000  0.6508444  3
  16848  16864  16842  16856     1  180.0000771  0.4184000  2
  16848  16864  16842  16856     1  0.0000000  1.6024720  3
  16852  16848  16847  16853     1  0.0000000  4.9162000  2
  16852  16848  16847  16853     1  0.0000000  0.6024960  3
  16853  16847  16846  16854     1  0.0000000  4.9162000  2
  16853  16847  16846  16854     1  0.0000000  0.6024960  3
  16853  16847  16848  16864     1  0.0000000  4.9162000  2
  16853  16847  16848  16864     1  0.0000000  0.6024960  3
  16854  16846  16843  16855     1  0.0000000  4.9162000  2
  16854  16846  16843  16855     1  0.0000000  0.6024960  3
  16855  16843  16842  16856     1  0.0000000  0.6508444  3
  16855  16843  16842  16864     1  0.0000000  4.9162000  2
  16855  16843  16842  16864     1  0.0000000  0.6024960  3
  16862  16856  16842  16864     1  0.0000000  4.9162000  2
  16862  16856  16842  16864     1  0.0000000  0.6024960  3
  16865  16866  16869  16870     1  180.0000771  0.8368000  1
  16865  16866  16869  16870     1  180.0000771  1.0460000  2
  16865  16866  16869  16870     1  0.0000000  0.7531200  3
  16865  16866  16869  16877     1  0.0000000  0.6508444  3
  16865  16887  16871  16875     1  180.0000771  5.6484000  1
  16865  16887  16871  16875     1  180.0000771  3.5564000  2
  16865  16887  16871  16875     1  0.0000000  0.4184000  3
  16865  16887  16871  16870     1  180.0000771  0.4184000  2
  16865  16887  16871  16870     1  0.0000000  1.6024720  3
  16866  16869  16870  16871     1  180.0000771  0.8368000  1
  16866  16869  16870  16871     1  180.0000771  1.0460000  2
  16866  16869  16870  16871     1  0.0000000  0.7531200  3
  16866  16869  16870  16876     1  0.0000000  0.6508444  3
  16866  16865  16879  16885     1  0.0000000  0.6508444  3
  16866  16865  16887  16871     1  180.0000771  0.4184000  2
  16866  16865  16887  16871     1  0.0000000  1.6024720  3
  16869  16870  16871  16875     1  0.0000000  0.6508444  3
  16869  16870  16871  16887     1  0.0000000  0.6508444  3
  16869  16866  16865  16879     1  180.0000771  0.8368000  1
  16869  16866  16865  16879     1  180.0000771  1.0460000  2
  16869  16866  16865  16879     1  0.0000000  0.7531200  3
  16869  16866  16865  16887     1  0.0000000  0.6508444  3
  16870  16869  16866  16878     1  0.0000000  0.6508444  3
  16871  16887  16865  16879     1  180.0000771  0.4184000  2
  16871  16887  16865  16879     1  0.0000000  1.6024720  3
  16871  16870  16869  16877     1  0.0000000  0.6508444  3
  16875  16871  16870  16876     1  0.0000000  4.9162000  2
  16875  16871  16870  16876     1  0.0000000  0.6024960  3
  16876  16870  16871  16887     1  0.0000000  4.9162000  2
  16876  16870  16871  16887     1  0.0000000  0.6024960  3
  16876  16870  16869  16877     1  0.0000000  4.9162000  2
  16876  16870  16869  16877     1  0.0000000  0.6024960  3
  16877  16869  16866  16878     1  0.0000000  4.9162000  2
  16877  16869  16866  16878     1  0.0000000  0.6024960  3
  16878  16866  16865  16879     1  0.0000000  0.6508444  3
  16878  16866  16865  16887     1  0.0000000  4.9162000  2
  16878  16866  16865  16887     1  0.0000000  0.6024960  3
  16885  16879  16865  16887     1  0.0000000  4.9162000  2
  16885  16879  16865  16887     1  0.0000000  0.6024960  3
  16888  16889  16892  16893     1  180.0000771  0.8368000  1
  16888  16889  16892  16893     1  180.0000771  1.0460000  2
  16888  16889  16892  16893     1  0.0000000  0.7531200  3
  16888  16889  16892  16900     1  0.0000000  0.6508444  3
  16888  16910  16894  16893     1  180.0000771  0.4184000  2
  16888  16910  16894  16893     1  0.0000000  1.6024720  3
  16888  16910  16894  16898     1  180.0000771  5.6484000  1
  16888  16910  16894  16898     1  180.0000771  3.5564000  2
  16888  16910  16894  16898     1  0.0000000  0.4184000  3
  16889  16888  16902  16908     1  0.0000000  0.6508444  3
  16889  16888  16910  16894     1  180.0000771  0.4184000  2
  16889  16888  16910  16894     1  0.0000000  1.6024720  3
  16889  16892  16893  16894     1  180.0000771  0.8368000  1
  16889  16892  16893  16894     1  180.0000771  1.0460000  2
  16889  16892  16893  16894     1  0.0000000  0.7531200  3
  16889  16892  16893  16899     1  0.0000000  0.6508444  3
  16892  16889  16888  16902     1  180.0000771  0.8368000  1
  16892  16889  16888  16902     1  180.0000771  1.0460000  2
  16892  16889  16888  16902     1  0.0000000  0.7531200  3
  16892  16889  16888  16910     1  0.0000000  0.6508444  3
  16892  16893  16894  16898     1  0.0000000  0.6508444  3
  16892  16893  16894  16910     1  0.0000000  0.6508444  3
  16893  16892  16889  16901     1  0.0000000  0.6508444  3
  16894  16893  16892  16900     1  0.0000000  0.6508444  3
  16894  16910  16888  16902     1  180.0000771  0.4184000  2
  16894  16910  16888  16902     1  0.0000000  1.6024720  3
  16898  16894  16893  16899     1  0.0000000  4.9162000  2
  16898  16894  16893  16899     1  0.0000000  0.6024960  3
  16899  16893  16892  16900     1  0.0000000  4.9162000  2
  16899  16893  16892  16900     1  0.0000000  0.6024960  3
  16899  16893  16894  16910     1  0.0000000  4.9162000  2
  16899  16893  16894  16910     1  0.0000000  0.6024960  3
  16900  16892  16889  16901     1  0.0000000  4.9162000  2
  16900  16892  16889  16901     1  0.0000000  0.6024960  3
  16901  16889  16888  16902     1  0.0000000  0.6508444  3
  16901  16889  16888  16910     1  0.0000000  4.9162000  2
  16901  16889  16888  16910     1  0.0000000  0.6024960  3
  16908  16902  16888  16910     1  0.0000000  4.9162000  2
  16908  16902  16888  16910     1  0.0000000  0.6024960  3
  16911  16912  16915  16916     1  180.0000771  0.8368000  1
  16911  16912  16915  16916     1  180.0000771  1.0460000  2
  16911  16912  16915  16916     1  0.0000000  0.7531200  3
  16911  16912  16915  16923     1  0.0000000  0.6508444  3
  16911  16933  16917  16921     1  180.0000771  5.6484000  1
  16911  16933  16917  16921     1  180.0000771  3.5564000  2
  16911  16933  16917  16921     1  0.0000000  0.4184000  3
  16911  16933  16917  16916     1  180.0000771  0.4184000  2
  16911  16933  16917  16916     1  0.0000000  1.6024720  3
  16912  16915  16916  16917     1  180.0000771  0.8368000  1
  16912  16915  16916  16917     1  180.0000771  1.0460000  2
  16912  16915  16916  16917     1  0.0000000  0.7531200  3
  16912  16915  16916  16922     1  0.0000000  0.6508444  3
  16912  16911  16925  16931     1  0.0000000  0.6508444  3
  16912  16911  16933  16917     1  180.0000771  0.4184000  2
  16912  16911  16933  16917     1  0.0000000  1.6024720  3
  16915  16916  16917  16921     1  0.0000000  0.6508444  3
  16915  16916  16917  16933     1  0.0000000  0.6508444  3
  16915  16912  16911  16925     1  180.0000771  0.8368000  1
  16915  16912  16911  16925     1  180.0000771  1.0460000  2
  16915  16912  16911  16925     1  0.0000000  0.7531200  3
  16915  16912  16911  16933     1  0.0000000  0.6508444  3
  16916  16915  16912  16924     1  0.0000000  0.6508444  3
  16917  16933  16911  16925     1  180.0000771  0.4184000  2
  16917  16933  16911  16925     1  0.0000000  1.6024720  3
  16917  16916  16915  16923     1  0.0000000  0.6508444  3
  16921  16917  16916  16922     1  0.0000000  4.9162000  2
  16921  16917  16916  16922     1  0.0000000  0.6024960  3
  16922  16916  16917  16933     1  0.0000000  4.9162000  2
  16922  16916  16917  16933     1  0.0000000  0.6024960  3
  16922  16916  16915  16923     1  0.0000000  4.9162000  2
  16922  16916  16915  16923     1  0.0000000  0.6024960  3
  16923  16915  16912  16924     1  0.0000000  4.9162000  2
  16923  16915  16912  16924     1  0.0000000  0.6024960  3
  16924  16912  16911  16925     1  0.0000000  0.6508444  3
  16924  16912  16911  16933     1  0.0000000  4.9162000  2
  16924  16912  16911  16933     1  0.0000000  0.6024960  3
  16931  16925  16911  16933     1  0.0000000  4.9162000  2
  16931  16925  16911  16933     1  0.0000000  0.6024960  3
  16934  16935  16938  16939     1  180.0000771  0.8368000  1
  16934  16935  16938  16939     1  180.0000771  1.0460000  2
  16934  16935  16938  16939     1  0.0000000  0.7531200  3
  16934  16935  16938  16946     1  0.0000000  0.6508444  3
  16934  16956  16940  16939     1  180.0000771  0.4184000  2
  16934  16956  16940  16939     1  0.0000000  1.6024720  3
  16934  16956  16940  16944     1  180.0000771  5.6484000  1
  16934  16956  16940  16944     1  180.0000771  3.5564000  2
  16934  16956  16940  16944     1  0.0000000  0.4184000  3
  16935  16934  16948  16954     1  0.0000000  0.6508444  3
  16935  16934  16956  16940     1  180.0000771  0.4184000  2
  16935  16934  16956  16940     1  0.0000000  1.6024720  3
  16935  16938  16939  16940     1  180.0000771  0.8368000  1
  16935  16938  16939  16940     1  180.0000771  1.0460000  2
  16935  16938  16939  16940     1  0.0000000  0.7531200  3
  16935  16938  16939  16945     1  0.0000000  0.6508444  3
  16938  16935  16934  16948     1  180.0000771  0.8368000  1
  16938  16935  16934  16948     1  180.0000771  1.0460000  2
  16938  16935  16934  16948     1  0.0000000  0.7531200  3
  16938  16935  16934  16956     1  0.0000000  0.6508444  3
  16938  16939  16940  16944     1  0.0000000  0.6508444  3
  16938  16939  16940  16956     1  0.0000000  0.6508444  3
  16939  16938  16935  16947     1  0.0000000  0.6508444  3
  16940  16939  16938  16946     1  0.0000000  0.6508444  3
  16940  16956  16934  16948     1  180.0000771  0.4184000  2
  16940  16956  16934  16948     1  0.0000000  1.6024720  3
  16944  16940  16939  16945     1  0.0000000  4.9162000  2
  16944  16940  16939  16945     1  0.0000000  0.6024960  3
  16945  16939  16938  16946     1  0.0000000  4.9162000  2
  16945  16939  16938  16946     1  0.0000000  0.6024960  3
  16945  16939  16940  16956     1  0.0000000  4.9162000  2
  16945  16939  16940  16956     1  0.0000000  0.6024960  3
  16946  16938  16935  16947     1  0.0000000  4.9162000  2
  16946  16938  16935  16947     1  0.0000000  0.6024960  3
  16947  16935  16934  16948     1  0.0000000  0.6508444  3
  16947  16935  16934  16956     1  0.0000000  4.9162000  2
  16947  16935  16934  16956     1  0.0000000  0.6024960  3
  16954  16948  16934  16956     1  0.0000000  4.9162000  2
  16954  16948  16934  16956     1  0.0000000  0.6024960  3
  16957  16958  16961  16962     1  180.0000771  0.8368000  1
  16957  16958  16961  16962     1  180.0000771  1.0460000  2
  16957  16958  16961  16962     1  0.0000000  0.7531200  3
  16957  16958  16961  16969     1  0.0000000  0.6508444  3
  16957  16979  16963  16967     1  180.0000771  5.6484000  1
  16957  16979  16963  16967     1  180.0000771  3.5564000  2
  16957  16979  16963  16967     1  0.0000000  0.4184000  3
  16957  16979  16963  16962     1  180.0000771  0.4184000  2
  16957  16979  16963  16962     1  0.0000000  1.6024720  3
  16958  16961  16962  16963     1  180.0000771  0.8368000  1
  16958  16961  16962  16963     1  180.0000771  1.0460000  2
  16958  16961  16962  16963     1  0.0000000  0.7531200  3
  16958  16961  16962  16968     1  0.0000000  0.6508444  3
  16958  16957  16971  16977     1  0.0000000  0.6508444  3
  16958  16957  16979  16963     1  180.0000771  0.4184000  2
  16958  16957  16979  16963     1  0.0000000  1.6024720  3
  16961  16962  16963  16967     1  0.0000000  0.6508444  3
  16961  16962  16963  16979     1  0.0000000  0.6508444  3
  16961  16958  16957  16971     1  180.0000771  0.8368000  1
  16961  16958  16957  16971     1  180.0000771  1.0460000  2
  16961  16958  16957  16971     1  0.0000000  0.7531200  3
  16961  16958  16957  16979     1  0.0000000  0.6508444  3
  16962  16961  16958  16970     1  0.0000000  0.6508444  3
  16963  16979  16957  16971     1  180.0000771  0.4184000  2
  16963  16979  16957  16971     1  0.0000000  1.6024720  3
  16963  16962  16961  16969     1  0.0000000  0.6508444  3
  16967  16963  16962  16968     1  0.0000000  4.9162000  2
  16967  16963  16962  16968     1  0.0000000  0.6024960  3
  16968  16962  16963  16979     1  0.0000000  4.9162000  2
  16968  16962  16963  16979     1  0.0000000  0.6024960  3
  16968  16962  16961  16969     1  0.0000000  4.9162000  2
  16968  16962  16961  16969     1  0.0000000  0.6024960  3
  16969  16961  16958  16970     1  0.0000000  4.9162000  2
  16969  16961  16958  16970     1  0.0000000  0.6024960  3
  16970  16958  16957  16971     1  0.0000000  0.6508444  3
  16970  16958  16957  16979     1  0.0000000  4.9162000  2
  16970  16958  16957  16979     1  0.0000000  0.6024960  3
  16977  16971  16957  16979     1  0.0000000  4.9162000  2
  16977  16971  16957  16979     1  0.0000000  0.6024960  3
  16980  16981  16984  16985     1  180.0000771  0.8368000  1
  16980  16981  16984  16985     1  180.0000771  1.0460000  2
  16980  16981  16984  16985     1  0.0000000  0.7531200  3
  16980  16981  16984  16992     1  0.0000000  0.6508444  3
  16980  17002  16986  16985     1  180.0000771  0.4184000  2
  16980  17002  16986  16985     1  0.0000000  1.6024720  3
  16980  17002  16986  16990     1  180.0000771  5.6484000  1
  16980  17002  16986  16990     1  180.0000771  3.5564000  2
  16980  17002  16986  16990     1  0.0000000  0.4184000  3
  16981  16980  16994  17000     1  0.0000000  0.6508444  3
  16981  16980  17002  16986     1  180.0000771  0.4184000  2
  16981  16980  17002  16986     1  0.0000000  1.6024720  3
  16981  16984  16985  16986     1  180.0000771  0.8368000  1
  16981  16984  16985  16986     1  180.0000771  1.0460000  2
  16981  16984  16985  16986     1  0.0000000  0.7531200  3
  16981  16984  16985  16991     1  0.0000000  0.6508444  3
  16984  16981  16980  16994     1  180.0000771  0.8368000  1
  16984  16981  16980  16994     1  180.0000771  1.0460000  2
  16984  16981  16980  16994     1  0.0000000  0.7531200  3
  16984  16981  16980  17002     1  0.0000000  0.6508444  3
  16984  16985  16986  16990     1  0.0000000  0.6508444  3
  16984  16985  16986  17002     1  0.0000000  0.6508444  3
  16985  16984  16981  16993     1  0.0000000  0.6508444  3
  16986  16985  16984  16992     1  0.0000000  0.6508444  3
  16986  17002  16980  16994     1  180.0000771  0.4184000  2
  16986  17002  16980  16994     1  0.0000000  1.6024720  3
  16990  16986  16985  16991     1  0.0000000  4.9162000  2
  16990  16986  16985  16991     1  0.0000000  0.6024960  3
  16991  16985  16984  16992     1  0.0000000  4.9162000  2
  16991  16985  16984  16992     1  0.0000000  0.6024960  3
  16991  16985  16986  17002     1  0.0000000  4.9162000  2
  16991  16985  16986  17002     1  0.0000000  0.6024960  3
  16992  16984  16981  16993     1  0.0000000  4.9162000  2
  16992  16984  16981  16993     1  0.0000000  0.6024960  3
  16993  16981  16980  16994     1  0.0000000  0.6508444  3
  16993  16981  16980  17002     1  0.0000000  4.9162000  2
  16993  16981  16980  17002     1  0.0000000  0.6024960  3
  17000  16994  16980  17002     1  0.0000000  4.9162000  2
  17000  16994  16980  17002     1  0.0000000  0.6024960  3
  17003  17004  17007  17008     1  180.0000771  0.8368000  1
  17003  17004  17007  17008     1  180.0000771  1.0460000  2
  17003  17004  17007  17008     1  0.0000000  0.7531200  3
  17003  17004  17007  17015     1  0.0000000  0.6508444  3
  17003  17025  17009  17013     1  180.0000771  5.6484000  1
  17003  17025  17009  17013     1  180.0000771  3.5564000  2
  17003  17025  17009  17013     1  0.0000000  0.4184000  3
  17003  17025  17009  17008     1  180.0000771  0.4184000  2
  17003  17025  17009  17008     1  0.0000000  1.6024720  3
  17004  17007  17008  17009     1  180.0000771  0.8368000  1
  17004  17007  17008  17009     1  180.0000771  1.0460000  2
  17004  17007  17008  17009     1  0.0000000  0.7531200  3
  17004  17007  17008  17014     1  0.0000000  0.6508444  3
  17004  17003  17017  17023     1  0.0000000  0.6508444  3
  17004  17003  17025  17009     1  180.0000771  0.4184000  2
  17004  17003  17025  17009     1  0.0000000  1.6024720  3
  17007  17008  17009  17013     1  0.0000000  0.6508444  3
  17007  17008  17009  17025     1  0.0000000  0.6508444  3
  17007  17004  17003  17017     1  180.0000771  0.8368000  1
  17007  17004  17003  17017     1  180.0000771  1.0460000  2
  17007  17004  17003  17017     1  0.0000000  0.7531200  3
  17007  17004  17003  17025     1  0.0000000  0.6508444  3
  17008  17007  17004  17016     1  0.0000000  0.6508444  3
  17009  17025  17003  17017     1  180.0000771  0.4184000  2
  17009  17025  17003  17017     1  0.0000000  1.6024720  3
  17009  17008  17007  17015     1  0.0000000  0.6508444  3
  17013  17009  17008  17014     1  0.0000000  4.9162000  2
  17013  17009  17008  17014     1  0.0000000  0.6024960  3
  17014  17008  17009  17025     1  0.0000000  4.9162000  2
  17014  17008  17009  17025     1  0.0000000  0.6024960  3
  17014  17008  17007  17015     1  0.0000000  4.9162000  2
  17014  17008  17007  17015     1  0.0000000  0.6024960  3
  17015  17007  17004  17016     1  0.0000000  4.9162000  2
  17015  17007  17004  17016     1  0.0000000  0.6024960  3
  17016  17004  17003  17017     1  0.0000000  0.6508444  3
  17016  17004  17003  17025     1  0.0000000  4.9162000  2
  17016  17004  17003  17025     1  0.0000000  0.6024960  3
  17023  17017  17003  17025     1  0.0000000  4.9162000  2
  17023  17017  17003  17025     1  0.0000000  0.6024960  3
  17026  17027  17030  17031     1  180.0000771  0.8368000  1
  17026  17027  17030  17031     1  180.0000771  1.0460000  2
  17026  17027  17030  17031     1  0.0000000  0.7531200  3
  17026  17027  17030  17038     1  0.0000000  0.6508444  3
  17026  17048  17032  17031     1  180.0000771  0.4184000  2
  17026  17048  17032  17031     1  0.0000000  1.6024720  3
  17026  17048  17032  17036     1  180.0000771  5.6484000  1
  17026  17048  17032  17036     1  180.0000771  3.5564000  2
  17026  17048  17032  17036     1  0.0000000  0.4184000  3
  17027  17026  17040  17046     1  0.0000000  0.6508444  3
  17027  17026  17048  17032     1  180.0000771  0.4184000  2
  17027  17026  17048  17032     1  0.0000000  1.6024720  3
  17027  17030  17031  17032     1  180.0000771  0.8368000  1
  17027  17030  17031  17032     1  180.0000771  1.0460000  2
  17027  17030  17031  17032     1  0.0000000  0.7531200  3
  17027  17030  17031  17037     1  0.0000000  0.6508444  3
  17030  17027  17026  17040     1  180.0000771  0.8368000  1
  17030  17027  17026  17040     1  180.0000771  1.0460000  2
  17030  17027  17026  17040     1  0.0000000  0.7531200  3
  17030  17027  17026  17048     1  0.0000000  0.6508444  3
  17030  17031  17032  17036     1  0.0000000  0.6508444  3
  17030  17031  17032  17048     1  0.0000000  0.6508444  3
  17031  17030  17027  17039     1  0.0000000  0.6508444  3
  17032  17031  17030  17038     1  0.0000000  0.6508444  3
  17032  17048  17026  17040     1  180.0000771  0.4184000  2
  17032  17048  17026  17040     1  0.0000000  1.6024720  3
  17036  17032  17031  17037     1  0.0000000  4.9162000  2
  17036  17032  17031  17037     1  0.0000000  0.6024960  3
  17037  17031  17030  17038     1  0.0000000  4.9162000  2
  17037  17031  17030  17038     1  0.0000000  0.6024960  3
  17037  17031  17032  17048     1  0.0000000  4.9162000  2
  17037  17031  17032  17048     1  0.0000000  0.6024960  3
  17038  17030  17027  17039     1  0.0000000  4.9162000  2
  17038  17030  17027  17039     1  0.0000000  0.6024960  3
  17039  17027  17026  17040     1  0.0000000  0.6508444  3
  17039  17027  17026  17048     1  0.0000000  4.9162000  2
  17039  17027  17026  17048     1  0.0000000  0.6024960  3
  17046  17040  17026  17048     1  0.0000000  4.9162000  2
  17046  17040  17026  17048     1  0.0000000  0.6024960  3
  17049  17050  17053  17054     1  180.0000771  0.8368000  1
  17049  17050  17053  17054     1  180.0000771  1.0460000  2
  17049  17050  17053  17054     1  0.0000000  0.7531200  3
  17049  17050  17053  17061     1  0.0000000  0.6508444  3
  17049  17071  17055  17059     1  180.0000771  5.6484000  1
  17049  17071  17055  17059     1  180.0000771  3.5564000  2
  17049  17071  17055  17059     1  0.0000000  0.4184000  3
  17049  17071  17055  17054     1  180.0000771  0.4184000  2
  17049  17071  17055  17054     1  0.0000000  1.6024720  3
  17050  17053  17054  17055     1  180.0000771  0.8368000  1
  17050  17053  17054  17055     1  180.0000771  1.0460000  2
  17050  17053  17054  17055     1  0.0000000  0.7531200  3
  17050  17053  17054  17060     1  0.0000000  0.6508444  3
  17050  17049  17063  17069     1  0.0000000  0.6508444  3
  17050  17049  17071  17055     1  180.0000771  0.4184000  2
  17050  17049  17071  17055     1  0.0000000  1.6024720  3
  17053  17054  17055  17059     1  0.0000000  0.6508444  3
  17053  17054  17055  17071     1  0.0000000  0.6508444  3
  17053  17050  17049  17063     1  180.0000771  0.8368000  1
  17053  17050  17049  17063     1  180.0000771  1.0460000  2
  17053  17050  17049  17063     1  0.0000000  0.7531200  3
  17053  17050  17049  17071     1  0.0000000  0.6508444  3
  17054  17053  17050  17062     1  0.0000000  0.6508444  3
  17055  17071  17049  17063     1  180.0000771  0.4184000  2
  17055  17071  17049  17063     1  0.0000000  1.6024720  3
  17055  17054  17053  17061     1  0.0000000  0.6508444  3
  17059  17055  17054  17060     1  0.0000000  4.9162000  2
  17059  17055  17054  17060     1  0.0000000  0.6024960  3
  17060  17054  17055  17071     1  0.0000000  4.9162000  2
  17060  17054  17055  17071     1  0.0000000  0.6024960  3
  17060  17054  17053  17061     1  0.0000000  4.9162000  2
  17060  17054  17053  17061     1  0.0000000  0.6024960  3
  17061  17053  17050  17062     1  0.0000000  4.9162000  2
  17061  17053  17050  17062     1  0.0000000  0.6024960  3
  17062  17050  17049  17063     1  0.0000000  0.6508444  3
  17062  17050  17049  17071     1  0.0000000  4.9162000  2
  17062  17050  17049  17071     1  0.0000000  0.6024960  3
  17069  17063  17049  17071     1  0.0000000  4.9162000  2
  17069  17063  17049  17071     1  0.0000000  0.6024960  3
  17072  17073  17076  17077     1  180.0000771  0.8368000  1
  17072  17073  17076  17077     1  180.0000771  1.0460000  2
  17072  17073  17076  17077     1  0.0000000  0.7531200  3
  17072  17073  17076  17084     1  0.0000000  0.6508444  3
  17072  17094  17078  17077     1  180.0000771  0.4184000  2
  17072  17094  17078  17077     1  0.0000000  1.6024720  3
  17072  17094  17078  17082     1  180.0000771  5.6484000  1
  17072  17094  17078  17082     1  180.0000771  3.5564000  2
  17072  17094  17078  17082     1  0.0000000  0.4184000  3
  17073  17072  17086  17092     1  0.0000000  0.6508444  3
  17073  17072  17094  17078     1  180.0000771  0.4184000  2
  17073  17072  17094  17078     1  0.0000000  1.6024720  3
  17073  17076  17077  17078     1  180.0000771  0.8368000  1
  17073  17076  17077  17078     1  180.0000771  1.0460000  2
  17073  17076  17077  17078     1  0.0000000  0.7531200  3
  17073  17076  17077  17083     1  0.0000000  0.6508444  3
  17076  17073  17072  17086     1  180.0000771  0.8368000  1
  17076  17073  17072  17086     1  180.0000771  1.0460000  2
  17076  17073  17072  17086     1  0.0000000  0.7531200  3
  17076  17073  17072  17094     1  0.0000000  0.6508444  3
  17076  17077  17078  17082     1  0.0000000  0.6508444  3
  17076  17077  17078  17094     1  0.0000000  0.6508444  3
  17077  17076  17073  17085     1  0.0000000  0.6508444  3
  17078  17077  17076  17084     1  0.0000000  0.6508444  3
  17078  17094  17072  17086     1  180.0000771  0.4184000  2
  17078  17094  17072  17086     1  0.0000000  1.6024720  3
  17082  17078  17077  17083     1  0.0000000  4.9162000  2
  17082  17078  17077  17083     1  0.0000000  0.6024960  3
  17083  17077  17076  17084     1  0.0000000  4.9162000  2
  17083  17077  17076  17084     1  0.0000000  0.6024960  3
  17083  17077  17078  17094     1  0.0000000  4.9162000  2
  17083  17077  17078  17094     1  0.0000000  0.6024960  3
  17084  17076  17073  17085     1  0.0000000  4.9162000  2
  17084  17076  17073  17085     1  0.0000000  0.6024960  3
  17085  17073  17072  17086     1  0.0000000  0.6508444  3
  17085  17073  17072  17094     1  0.0000000  4.9162000  2
  17085  17073  17072  17094     1  0.0000000  0.6024960  3
  17092  17086  17072  17094     1  0.0000000  4.9162000  2
  17092  17086  17072  17094     1  0.0000000  0.6024960  3
  17095  17096  17099  17100     1  180.0000771  0.8368000  1
  17095  17096  17099  17100     1  180.0000771  1.0460000  2
  17095  17096  17099  17100     1  0.0000000  0.7531200  3
  17095  17096  17099  17107     1  0.0000000  0.6508444  3
  17095  17117  17101  17105     1  180.0000771  5.6484000  1
  17095  17117  17101  17105     1  180.0000771  3.5564000  2
  17095  17117  17101  17105     1  0.0000000  0.4184000  3
  17095  17117  17101  17100     1  180.0000771  0.4184000  2
  17095  17117  17101  17100     1  0.0000000  1.6024720  3
  17096  17099  17100  17101     1  180.0000771  0.8368000  1
  17096  17099  17100  17101     1  180.0000771  1.0460000  2
  17096  17099  17100  17101     1  0.0000000  0.7531200  3
  17096  17099  17100  17106     1  0.0000000  0.6508444  3
  17096  17095  17109  17115     1  0.0000000  0.6508444  3
  17096  17095  17117  17101     1  180.0000771  0.4184000  2
  17096  17095  17117  17101     1  0.0000000  1.6024720  3
  17099  17100  17101  17105     1  0.0000000  0.6508444  3
  17099  17100  17101  17117     1  0.0000000  0.6508444  3
  17099  17096  17095  17109     1  180.0000771  0.8368000  1
  17099  17096  17095  17109     1  180.0000771  1.0460000  2
  17099  17096  17095  17109     1  0.0000000  0.7531200  3
  17099  17096  17095  17117     1  0.0000000  0.6508444  3
  17100  17099  17096  17108     1  0.0000000  0.6508444  3
  17101  17117  17095  17109     1  180.0000771  0.4184000  2
  17101  17117  17095  17109     1  0.0000000  1.6024720  3
  17101  17100  17099  17107     1  0.0000000  0.6508444  3
  17105  17101  17100  17106     1  0.0000000  4.9162000  2
  17105  17101  17100  17106     1  0.0000000  0.6024960  3
  17106  17100  17101  17117     1  0.0000000  4.9162000  2
  17106  17100  17101  17117     1  0.0000000  0.6024960  3
  17106  17100  17099  17107     1  0.0000000  4.9162000  2
  17106  17100  17099  17107     1  0.0000000  0.6024960  3
  17107  17099  17096  17108     1  0.0000000  4.9162000  2
  17107  17099  17096  17108     1  0.0000000  0.6024960  3
  17108  17096  17095  17109     1  0.0000000  0.6508444  3
  17108  17096  17095  17117     1  0.0000000  4.9162000  2
  17108  17096  17095  17117     1  0.0000000  0.6024960  3
  17115  17109  17095  17117     1  0.0000000  4.9162000  2
  17115  17109  17095  17117     1  0.0000000  0.6024960  3
  17118  17119  17122  17123     1  180.0000771  0.8368000  1
  17118  17119  17122  17123     1  180.0000771  1.0460000  2
  17118  17119  17122  17123     1  0.0000000  0.7531200  3
  17118  17119  17122  17130     1  0.0000000  0.6508444  3
  17118  17140  17124  17123     1  180.0000771  0.4184000  2
  17118  17140  17124  17123     1  0.0000000  1.6024720  3
  17118  17140  17124  17128     1  180.0000771  5.6484000  1
  17118  17140  17124  17128     1  180.0000771  3.5564000  2
  17118  17140  17124  17128     1  0.0000000  0.4184000  3
  17119  17118  17132  17138     1  0.0000000  0.6508444  3
  17119  17118  17140  17124     1  180.0000771  0.4184000  2
  17119  17118  17140  17124     1  0.0000000  1.6024720  3
  17119  17122  17123  17124     1  180.0000771  0.8368000  1
  17119  17122  17123  17124     1  180.0000771  1.0460000  2
  17119  17122  17123  17124     1  0.0000000  0.7531200  3
  17119  17122  17123  17129     1  0.0000000  0.6508444  3
  17122  17119  17118  17132     1  180.0000771  0.8368000  1
  17122  17119  17118  17132     1  180.0000771  1.0460000  2
  17122  17119  17118  17132     1  0.0000000  0.7531200  3
  17122  17119  17118  17140     1  0.0000000  0.6508444  3
  17122  17123  17124  17128     1  0.0000000  0.6508444  3
  17122  17123  17124  17140     1  0.0000000  0.6508444  3
  17123  17122  17119  17131     1  0.0000000  0.6508444  3
  17124  17123  17122  17130     1  0.0000000  0.6508444  3
  17124  17140  17118  17132     1  180.0000771  0.4184000  2
  17124  17140  17118  17132     1  0.0000000  1.6024720  3
  17128  17124  17123  17129     1  0.0000000  4.9162000  2
  17128  17124  17123  17129     1  0.0000000  0.6024960  3
  17129  17123  17122  17130     1  0.0000000  4.9162000  2
  17129  17123  17122  17130     1  0.0000000  0.6024960  3
  17129  17123  17124  17140     1  0.0000000  4.9162000  2
  17129  17123  17124  17140     1  0.0000000  0.6024960  3
  17130  17122  17119  17131     1  0.0000000  4.9162000  2
  17130  17122  17119  17131     1  0.0000000  0.6024960  3
  17131  17119  17118  17132     1  0.0000000  0.6508444  3
  17131  17119  17118  17140     1  0.0000000  4.9162000  2
  17131  17119  17118  17140     1  0.0000000  0.6024960  3
  17138  17132  17118  17140     1  0.0000000  4.9162000  2
  17138  17132  17118  17140     1  0.0000000  0.6024960  3
  17141  17142  17145  17146     1  180.0000771  0.8368000  1
  17141  17142  17145  17146     1  180.0000771  1.0460000  2
  17141  17142  17145  17146     1  0.0000000  0.7531200  3
  17141  17142  17145  17153     1  0.0000000  0.6508444  3
  17141  17163  17147  17151     1  180.0000771  5.6484000  1
  17141  17163  17147  17151     1  180.0000771  3.5564000  2
  17141  17163  17147  17151     1  0.0000000  0.4184000  3
  17141  17163  17147  17146     1  180.0000771  0.4184000  2
  17141  17163  17147  17146     1  0.0000000  1.6024720  3
  17142  17145  17146  17147     1  180.0000771  0.8368000  1
  17142  17145  17146  17147     1  180.0000771  1.0460000  2
  17142  17145  17146  17147     1  0.0000000  0.7531200  3
  17142  17145  17146  17152     1  0.0000000  0.6508444  3
  17142  17141  17155  17161     1  0.0000000  0.6508444  3
  17142  17141  17163  17147     1  180.0000771  0.4184000  2
  17142  17141  17163  17147     1  0.0000000  1.6024720  3
  17145  17146  17147  17151     1  0.0000000  0.6508444  3
  17145  17146  17147  17163     1  0.0000000  0.6508444  3
  17145  17142  17141  17155     1  180.0000771  0.8368000  1
  17145  17142  17141  17155     1  180.0000771  1.0460000  2
  17145  17142  17141  17155     1  0.0000000  0.7531200  3
  17145  17142  17141  17163     1  0.0000000  0.6508444  3
  17146  17145  17142  17154     1  0.0000000  0.6508444  3
  17147  17163  17141  17155     1  180.0000771  0.4184000  2
  17147  17163  17141  17155     1  0.0000000  1.6024720  3
  17147  17146  17145  17153     1  0.0000000  0.6508444  3
  17151  17147  17146  17152     1  0.0000000  4.9162000  2
  17151  17147  17146  17152     1  0.0000000  0.6024960  3
  17152  17146  17147  17163     1  0.0000000  4.9162000  2
  17152  17146  17147  17163     1  0.0000000  0.6024960  3
  17152  17146  17145  17153     1  0.0000000  4.9162000  2
  17152  17146  17145  17153     1  0.0000000  0.6024960  3
  17153  17145  17142  17154     1  0.0000000  4.9162000  2
  17153  17145  17142  17154     1  0.0000000  0.6024960  3
  17154  17142  17141  17155     1  0.0000000  0.6508444  3
  17154  17142  17141  17163     1  0.0000000  4.9162000  2
  17154  17142  17141  17163     1  0.0000000  0.6024960  3
  17161  17155  17141  17163     1  0.0000000  4.9162000  2
  17161  17155  17141  17163     1  0.0000000  0.6024960  3
  17164  17165  17168  17169     1  180.0000771  0.8368000  1
  17164  17165  17168  17169     1  180.0000771  1.0460000  2
  17164  17165  17168  17169     1  0.0000000  0.7531200  3
  17164  17165  17168  17176     1  0.0000000  0.6508444  3
  17164  17186  17170  17169     1  180.0000771  0.4184000  2
  17164  17186  17170  17169     1  0.0000000  1.6024720  3
  17164  17186  17170  17174     1  180.0000771  5.6484000  1
  17164  17186  17170  17174     1  180.0000771  3.5564000  2
  17164  17186  17170  17174     1  0.0000000  0.4184000  3
  17165  17164  17178  17184     1  0.0000000  0.6508444  3
  17165  17164  17186  17170     1  180.0000771  0.4184000  2
  17165  17164  17186  17170     1  0.0000000  1.6024720  3
  17165  17168  17169  17170     1  180.0000771  0.8368000  1
  17165  17168  17169  17170     1  180.0000771  1.0460000  2
  17165  17168  17169  17170     1  0.0000000  0.7531200  3
  17165  17168  17169  17175     1  0.0000000  0.6508444  3
  17168  17165  17164  17178     1  180.0000771  0.8368000  1
  17168  17165  17164  17178     1  180.0000771  1.0460000  2
  17168  17165  17164  17178     1  0.0000000  0.7531200  3
  17168  17165  17164  17186     1  0.0000000  0.6508444  3
  17168  17169  17170  17174     1  0.0000000  0.6508444  3
  17168  17169  17170  17186     1  0.0000000  0.6508444  3
  17169  17168  17165  17177     1  0.0000000  0.6508444  3
  17170  17169  17168  17176     1  0.0000000  0.6508444  3
  17170  17186  17164  17178     1  180.0000771  0.4184000  2
  17170  17186  17164  17178     1  0.0000000  1.6024720  3
  17174  17170  17169  17175     1  0.0000000  4.9162000  2
  17174  17170  17169  17175     1  0.0000000  0.6024960  3
  17175  17169  17168  17176     1  0.0000000  4.9162000  2
  17175  17169  17168  17176     1  0.0000000  0.6024960  3
  17175  17169  17170  17186     1  0.0000000  4.9162000  2
  17175  17169  17170  17186     1  0.0000000  0.6024960  3
  17176  17168  17165  17177     1  0.0000000  4.9162000  2
  17176  17168  17165  17177     1  0.0000000  0.6024960  3
  17177  17165  17164  17178     1  0.0000000  0.6508444  3
  17177  17165  17164  17186     1  0.0000000  4.9162000  2
  17177  17165  17164  17186     1  0.0000000  0.6024960  3
  17184  17178  17164  17186     1  0.0000000  4.9162000  2
  17184  17178  17164  17186     1  0.0000000  0.6024960  3
  17187  17188  17191  17192     1  180.0000771  0.8368000  1
  17187  17188  17191  17192     1  180.0000771  1.0460000  2
  17187  17188  17191  17192     1  0.0000000  0.7531200  3
  17187  17188  17191  17199     1  0.0000000  0.6508444  3
  17187  17209  17193  17197     1  180.0000771  5.6484000  1
  17187  17209  17193  17197     1  180.0000771  3.5564000  2
  17187  17209  17193  17197     1  0.0000000  0.4184000  3
  17187  17209  17193  17192     1  180.0000771  0.4184000  2
  17187  17209  17193  17192     1  0.0000000  1.6024720  3
  17188  17191  17192  17193     1  180.0000771  0.8368000  1
  17188  17191  17192  17193     1  180.0000771  1.0460000  2
  17188  17191  17192  17193     1  0.0000000  0.7531200  3
  17188  17191  17192  17198     1  0.0000000  0.6508444  3
  17188  17187  17201  17207     1  0.0000000  0.6508444  3
  17188  17187  17209  17193     1  180.0000771  0.4184000  2
  17188  17187  17209  17193     1  0.0000000  1.6024720  3
  17191  17192  17193  17197     1  0.0000000  0.6508444  3
  17191  17192  17193  17209     1  0.0000000  0.6508444  3
  17191  17188  17187  17201     1  180.0000771  0.8368000  1
  17191  17188  17187  17201     1  180.0000771  1.0460000  2
  17191  17188  17187  17201     1  0.0000000  0.7531200  3
  17191  17188  17187  17209     1  0.0000000  0.6508444  3
  17192  17191  17188  17200     1  0.0000000  0.6508444  3
  17193  17209  17187  17201     1  180.0000771  0.4184000  2
  17193  17209  17187  17201     1  0.0000000  1.6024720  3
  17193  17192  17191  17199     1  0.0000000  0.6508444  3
  17197  17193  17192  17198     1  0.0000000  4.9162000  2
  17197  17193  17192  17198     1  0.0000000  0.6024960  3
  17198  17192  17193  17209     1  0.0000000  4.9162000  2
  17198  17192  17193  17209     1  0.0000000  0.6024960  3
  17198  17192  17191  17199     1  0.0000000  4.9162000  2
  17198  17192  17191  17199     1  0.0000000  0.6024960  3
  17199  17191  17188  17200     1  0.0000000  4.9162000  2
  17199  17191  17188  17200     1  0.0000000  0.6024960  3
  17200  17188  17187  17201     1  0.0000000  0.6508444  3
  17200  17188  17187  17209     1  0.0000000  4.9162000  2
  17200  17188  17187  17209     1  0.0000000  0.6024960  3
  17207  17201  17187  17209     1  0.0000000  4.9162000  2
  17207  17201  17187  17209     1  0.0000000  0.6024960  3
  17210  17211  17214  17215     1  180.0000771  0.8368000  1
  17210  17211  17214  17215     1  180.0000771  1.0460000  2
  17210  17211  17214  17215     1  0.0000000  0.7531200  3
  17210  17211  17214  17222     1  0.0000000  0.6508444  3
  17210  17232  17216  17215     1  180.0000771  0.4184000  2
  17210  17232  17216  17215     1  0.0000000  1.6024720  3
  17210  17232  17216  17220     1  180.0000771  5.6484000  1
  17210  17232  17216  17220     1  180.0000771  3.5564000  2
  17210  17232  17216  17220     1  0.0000000  0.4184000  3
  17211  17210  17224  17230     1  0.0000000  0.6508444  3
  17211  17210  17232  17216     1  180.0000771  0.4184000  2
  17211  17210  17232  17216     1  0.0000000  1.6024720  3
  17211  17214  17215  17216     1  180.0000771  0.8368000  1
  17211  17214  17215  17216     1  180.0000771  1.0460000  2
  17211  17214  17215  17216     1  0.0000000  0.7531200  3
  17211  17214  17215  17221     1  0.0000000  0.6508444  3
  17214  17211  17210  17224     1  180.0000771  0.8368000  1
  17214  17211  17210  17224     1  180.0000771  1.0460000  2
  17214  17211  17210  17224     1  0.0000000  0.7531200  3
  17214  17211  17210  17232     1  0.0000000  0.6508444  3
  17214  17215  17216  17220     1  0.0000000  0.6508444  3
  17214  17215  17216  17232     1  0.0000000  0.6508444  3
  17215  17214  17211  17223     1  0.0000000  0.6508444  3
  17216  17215  17214  17222     1  0.0000000  0.6508444  3
  17216  17232  17210  17224     1  180.0000771  0.4184000  2
  17216  17232  17210  17224     1  0.0000000  1.6024720  3
  17220  17216  17215  17221     1  0.0000000  4.9162000  2
  17220  17216  17215  17221     1  0.0000000  0.6024960  3
  17221  17215  17214  17222     1  0.0000000  4.9162000  2
  17221  17215  17214  17222     1  0.0000000  0.6024960  3
  17221  17215  17216  17232     1  0.0000000  4.9162000  2
  17221  17215  17216  17232     1  0.0000000  0.6024960  3
  17222  17214  17211  17223     1  0.0000000  4.9162000  2
  17222  17214  17211  17223     1  0.0000000  0.6024960  3
  17223  17211  17210  17224     1  0.0000000  0.6508444  3
  17223  17211  17210  17232     1  0.0000000  4.9162000  2
  17223  17211  17210  17232     1  0.0000000  0.6024960  3
  17230  17224  17210  17232     1  0.0000000  4.9162000  2
  17230  17224  17210  17232     1  0.0000000  0.6024960  3
  17233  17234  17237  17238     1  180.0000771  0.8368000  1
  17233  17234  17237  17238     1  180.0000771  1.0460000  2
  17233  17234  17237  17238     1  0.0000000  0.7531200  3
  17233  17234  17237  17245     1  0.0000000  0.6508444  3
  17233  17255  17239  17243     1  180.0000771  5.6484000  1
  17233  17255  17239  17243     1  180.0000771  3.5564000  2
  17233  17255  17239  17243     1  0.0000000  0.4184000  3
  17233  17255  17239  17238     1  180.0000771  0.4184000  2
  17233  17255  17239  17238     1  0.0000000  1.6024720  3
  17234  17237  17238  17239     1  180.0000771  0.8368000  1
  17234  17237  17238  17239     1  180.0000771  1.0460000  2
  17234  17237  17238  17239     1  0.0000000  0.7531200  3
  17234  17237  17238  17244     1  0.0000000  0.6508444  3
  17234  17233  17247  17253     1  0.0000000  0.6508444  3
  17234  17233  17255  17239     1  180.0000771  0.4184000  2
  17234  17233  17255  17239     1  0.0000000  1.6024720  3
  17237  17238  17239  17243     1  0.0000000  0.6508444  3
  17237  17238  17239  17255     1  0.0000000  0.6508444  3
  17237  17234  17233  17247     1  180.0000771  0.8368000  1
  17237  17234  17233  17247     1  180.0000771  1.0460000  2
  17237  17234  17233  17247     1  0.0000000  0.7531200  3
  17237  17234  17233  17255     1  0.0000000  0.6508444  3
  17238  17237  17234  17246     1  0.0000000  0.6508444  3
  17239  17255  17233  17247     1  180.0000771  0.4184000  2
  17239  17255  17233  17247     1  0.0000000  1.6024720  3
  17239  17238  17237  17245     1  0.0000000  0.6508444  3
  17243  17239  17238  17244     1  0.0000000  4.9162000  2
  17243  17239  17238  17244     1  0.0000000  0.6024960  3
  17244  17238  17239  17255     1  0.0000000  4.9162000  2
  17244  17238  17239  17255     1  0.0000000  0.6024960  3
  17244  17238  17237  17245     1  0.0000000  4.9162000  2
  17244  17238  17237  17245     1  0.0000000  0.6024960  3
  17245  17237  17234  17246     1  0.0000000  4.9162000  2
  17245  17237  17234  17246     1  0.0000000  0.6024960  3
  17246  17234  17233  17247     1  0.0000000  0.6508444  3
  17246  17234  17233  17255     1  0.0000000  4.9162000  2
  17246  17234  17233  17255     1  0.0000000  0.6024960  3
  17253  17247  17233  17255     1  0.0000000  4.9162000  2
  17253  17247  17233  17255     1  0.0000000  0.6024960  3
  17256  17257  17260  17261     1  180.0000771  0.8368000  1
  17256  17257  17260  17261     1  180.0000771  1.0460000  2
  17256  17257  17260  17261     1  0.0000000  0.7531200  3
  17256  17257  17260  17268     1  0.0000000  0.6508444  3
  17256  17278  17262  17261     1  180.0000771  0.4184000  2
  17256  17278  17262  17261     1  0.0000000  1.6024720  3
  17256  17278  17262  17266     1  180.0000771  5.6484000  1
  17256  17278  17262  17266     1  180.0000771  3.5564000  2
  17256  17278  17262  17266     1  0.0000000  0.4184000  3
  17257  17256  17270  17276     1  0.0000000  0.6508444  3
  17257  17256  17278  17262     1  180.0000771  0.4184000  2
  17257  17256  17278  17262     1  0.0000000  1.6024720  3
  17257  17260  17261  17262     1  180.0000771  0.8368000  1
  17257  17260  17261  17262     1  180.0000771  1.0460000  2
  17257  17260  17261  17262     1  0.0000000  0.7531200  3
  17257  17260  17261  17267     1  0.0000000  0.6508444  3
  17260  17257  17256  17270     1  180.0000771  0.8368000  1
  17260  17257  17256  17270     1  180.0000771  1.0460000  2
  17260  17257  17256  17270     1  0.0000000  0.7531200  3
  17260  17257  17256  17278     1  0.0000000  0.6508444  3
  17260  17261  17262  17266     1  0.0000000  0.6508444  3
  17260  17261  17262  17278     1  0.0000000  0.6508444  3
  17261  17260  17257  17269     1  0.0000000  0.6508444  3
  17262  17261  17260  17268     1  0.0000000  0.6508444  3
  17262  17278  17256  17270     1  180.0000771  0.4184000  2
  17262  17278  17256  17270     1  0.0000000  1.6024720  3
  17266  17262  17261  17267     1  0.0000000  4.9162000  2
  17266  17262  17261  17267     1  0.0000000  0.6024960  3
  17267  17261  17260  17268     1  0.0000000  4.9162000  2
  17267  17261  17260  17268     1  0.0000000  0.6024960  3
  17267  17261  17262  17278     1  0.0000000  4.9162000  2
  17267  17261  17262  17278     1  0.0000000  0.6024960  3
  17268  17260  17257  17269     1  0.0000000  4.9162000  2
  17268  17260  17257  17269     1  0.0000000  0.6024960  3
  17269  17257  17256  17270     1  0.0000000  0.6508444  3
  17269  17257  17256  17278     1  0.0000000  4.9162000  2
  17269  17257  17256  17278     1  0.0000000  0.6024960  3
  17276  17270  17256  17278     1  0.0000000  4.9162000  2
  17276  17270  17256  17278     1  0.0000000  0.6024960  3
  17279  17280  17283  17284     1  180.0000771  0.8368000  1
  17279  17280  17283  17284     1  180.0000771  1.0460000  2
  17279  17280  17283  17284     1  0.0000000  0.7531200  3
  17279  17280  17283  17291     1  0.0000000  0.6508444  3
  17279  17301  17285  17289     1  180.0000771  5.6484000  1
  17279  17301  17285  17289     1  180.0000771  3.5564000  2
  17279  17301  17285  17289     1  0.0000000  0.4184000  3
  17279  17301  17285  17284     1  180.0000771  0.4184000  2
  17279  17301  17285  17284     1  0.0000000  1.6024720  3
  17280  17283  17284  17285     1  180.0000771  0.8368000  1
  17280  17283  17284  17285     1  180.0000771  1.0460000  2
  17280  17283  17284  17285     1  0.0000000  0.7531200  3
  17280  17283  17284  17290     1  0.0000000  0.6508444  3
  17280  17279  17293  17299     1  0.0000000  0.6508444  3
  17280  17279  17301  17285     1  180.0000771  0.4184000  2
  17280  17279  17301  17285     1  0.0000000  1.6024720  3
  17283  17284  17285  17289     1  0.0000000  0.6508444  3
  17283  17284  17285  17301     1  0.0000000  0.6508444  3
  17283  17280  17279  17293     1  180.0000771  0.8368000  1
  17283  17280  17279  17293     1  180.0000771  1.0460000  2
  17283  17280  17279  17293     1  0.0000000  0.7531200  3
  17283  17280  17279  17301     1  0.0000000  0.6508444  3
  17284  17283  17280  17292     1  0.0000000  0.6508444  3
  17285  17301  17279  17293     1  180.0000771  0.4184000  2
  17285  17301  17279  17293     1  0.0000000  1.6024720  3
  17285  17284  17283  17291     1  0.0000000  0.6508444  3
  17289  17285  17284  17290     1  0.0000000  4.9162000  2
  17289  17285  17284  17290     1  0.0000000  0.6024960  3
  17290  17284  17285  17301     1  0.0000000  4.9162000  2
  17290  17284  17285  17301     1  0.0000000  0.6024960  3
  17290  17284  17283  17291     1  0.0000000  4.9162000  2
  17290  17284  17283  17291     1  0.0000000  0.6024960  3
  17291  17283  17280  17292     1  0.0000000  4.9162000  2
  17291  17283  17280  17292     1  0.0000000  0.6024960  3
  17292  17280  17279  17293     1  0.0000000  0.6508444  3
  17292  17280  17279  17301     1  0.0000000  4.9162000  2
  17292  17280  17279  17301     1  0.0000000  0.6024960  3
  17299  17293  17279  17301     1  0.0000000  4.9162000  2
  17299  17293  17279  17301     1  0.0000000  0.6024960  3
  17302  17303  17306  17307     1  180.0000771  0.8368000  1
  17302  17303  17306  17307     1  180.0000771  1.0460000  2
  17302  17303  17306  17307     1  0.0000000  0.7531200  3
  17302  17303  17306  17314     1  0.0000000  0.6508444  3
  17302  17324  17308  17307     1  180.0000771  0.4184000  2
  17302  17324  17308  17307     1  0.0000000  1.6024720  3
  17302  17324  17308  17312     1  180.0000771  5.6484000  1
  17302  17324  17308  17312     1  180.0000771  3.5564000  2
  17302  17324  17308  17312     1  0.0000000  0.4184000  3
  17303  17302  17316  17322     1  0.0000000  0.6508444  3
  17303  17302  17324  17308     1  180.0000771  0.4184000  2
  17303  17302  17324  17308     1  0.0000000  1.6024720  3
  17303  17306  17307  17308     1  180.0000771  0.8368000  1
  17303  17306  17307  17308     1  180.0000771  1.0460000  2
  17303  17306  17307  17308     1  0.0000000  0.7531200  3
  17303  17306  17307  17313     1  0.0000000  0.6508444  3
  17306  17303  17302  17316     1  180.0000771  0.8368000  1
  17306  17303  17302  17316     1  180.0000771  1.0460000  2
  17306  17303  17302  17316     1  0.0000000  0.7531200  3
  17306  17303  17302  17324     1  0.0000000  0.6508444  3
  17306  17307  17308  17312     1  0.0000000  0.6508444  3
  17306  17307  17308  17324     1  0.0000000  0.6508444  3
  17307  17306  17303  17315     1  0.0000000  0.6508444  3
  17308  17307  17306  17314     1  0.0000000  0.6508444  3
  17308  17324  17302  17316     1  180.0000771  0.4184000  2
  17308  17324  17302  17316     1  0.0000000  1.6024720  3
  17312  17308  17307  17313     1  0.0000000  4.9162000  2
  17312  17308  17307  17313     1  0.0000000  0.6024960  3
  17313  17307  17306  17314     1  0.0000000  4.9162000  2
  17313  17307  17306  17314     1  0.0000000  0.6024960  3
  17313  17307  17308  17324     1  0.0000000  4.9162000  2
  17313  17307  17308  17324     1  0.0000000  0.6024960  3
  17314  17306  17303  17315     1  0.0000000  4.9162000  2
  17314  17306  17303  17315     1  0.0000000  0.6024960  3
  17315  17303  17302  17316     1  0.0000000  0.6508444  3
  17315  17303  17302  17324     1  0.0000000  4.9162000  2
  17315  17303  17302  17324     1  0.0000000  0.6024960  3
  17322  17316  17302  17324     1  0.0000000  4.9162000  2
  17322  17316  17302  17324     1  0.0000000  0.6024960  3
  17325  17326  17329  17330     1  180.0000771  0.8368000  1
  17325  17326  17329  17330     1  180.0000771  1.0460000  2
  17325  17326  17329  17330     1  0.0000000  0.7531200  3
  17325  17326  17329  17337     1  0.0000000  0.6508444  3
  17325  17347  17331  17335     1  180.0000771  5.6484000  1
  17325  17347  17331  17335     1  180.0000771  3.5564000  2
  17325  17347  17331  17335     1  0.0000000  0.4184000  3
  17325  17347  17331  17330     1  180.0000771  0.4184000  2
  17325  17347  17331  17330     1  0.0000000  1.6024720  3
  17326  17329  17330  17331     1  180.0000771  0.8368000  1
  17326  17329  17330  17331     1  180.0000771  1.0460000  2
  17326  17329  17330  17331     1  0.0000000  0.7531200  3
  17326  17329  17330  17336     1  0.0000000  0.6508444  3
  17326  17325  17339  17345     1  0.0000000  0.6508444  3
  17326  17325  17347  17331     1  180.0000771  0.4184000  2
  17326  17325  17347  17331     1  0.0000000  1.6024720  3
  17329  17330  17331  17335     1  0.0000000  0.6508444  3
  17329  17330  17331  17347     1  0.0000000  0.6508444  3
  17329  17326  17325  17339     1  180.0000771  0.8368000  1
  17329  17326  17325  17339     1  180.0000771  1.0460000  2
  17329  17326  17325  17339     1  0.0000000  0.7531200  3
  17329  17326  17325  17347     1  0.0000000  0.6508444  3
  17330  17329  17326  17338     1  0.0000000  0.6508444  3
  17331  17347  17325  17339     1  180.0000771  0.4184000  2
  17331  17347  17325  17339     1  0.0000000  1.6024720  3
  17331  17330  17329  17337     1  0.0000000  0.6508444  3
  17335  17331  17330  17336     1  0.0000000  4.9162000  2
  17335  17331  17330  17336     1  0.0000000  0.6024960  3
  17336  17330  17331  17347     1  0.0000000  4.9162000  2
  17336  17330  17331  17347     1  0.0000000  0.6024960  3
  17336  17330  17329  17337     1  0.0000000  4.9162000  2
  17336  17330  17329  17337     1  0.0000000  0.6024960  3
  17337  17329  17326  17338     1  0.0000000  4.9162000  2
  17337  17329  17326  17338     1  0.0000000  0.6024960  3
  17338  17326  17325  17339     1  0.0000000  0.6508444  3
  17338  17326  17325  17347     1  0.0000000  4.9162000  2
  17338  17326  17325  17347     1  0.0000000  0.6024960  3
  17345  17339  17325  17347     1  0.0000000  4.9162000  2
  17345  17339  17325  17347     1  0.0000000  0.6024960  3
  17348  17349  17352  17353     1  180.0000771  0.8368000  1
  17348  17349  17352  17353     1  180.0000771  1.0460000  2
  17348  17349  17352  17353     1  0.0000000  0.7531200  3
  17348  17349  17352  17360     1  0.0000000  0.6508444  3
  17348  17370  17354  17353     1  180.0000771  0.4184000  2
  17348  17370  17354  17353     1  0.0000000  1.6024720  3
  17348  17370  17354  17358     1  180.0000771  5.6484000  1
  17348  17370  17354  17358     1  180.0000771  3.5564000  2
  17348  17370  17354  17358     1  0.0000000  0.4184000  3
  17349  17348  17362  17368     1  0.0000000  0.6508444  3
  17349  17348  17370  17354     1  180.0000771  0.4184000  2
  17349  17348  17370  17354     1  0.0000000  1.6024720  3
  17349  17352  17353  17354     1  180.0000771  0.8368000  1
  17349  17352  17353  17354     1  180.0000771  1.0460000  2
  17349  17352  17353  17354     1  0.0000000  0.7531200  3
  17349  17352  17353  17359     1  0.0000000  0.6508444  3
  17352  17349  17348  17362     1  180.0000771  0.8368000  1
  17352  17349  17348  17362     1  180.0000771  1.0460000  2
  17352  17349  17348  17362     1  0.0000000  0.7531200  3
  17352  17349  17348  17370     1  0.0000000  0.6508444  3
  17352  17353  17354  17358     1  0.0000000  0.6508444  3
  17352  17353  17354  17370     1  0.0000000  0.6508444  3
  17353  17352  17349  17361     1  0.0000000  0.6508444  3
  17354  17353  17352  17360     1  0.0000000  0.6508444  3
  17354  17370  17348  17362     1  180.0000771  0.4184000  2
  17354  17370  17348  17362     1  0.0000000  1.6024720  3
  17358  17354  17353  17359     1  0.0000000  4.9162000  2
  17358  17354  17353  17359     1  0.0000000  0.6024960  3
  17359  17353  17352  17360     1  0.0000000  4.9162000  2
  17359  17353  17352  17360     1  0.0000000  0.6024960  3
  17359  17353  17354  17370     1  0.0000000  4.9162000  2
  17359  17353  17354  17370     1  0.0000000  0.6024960  3
  17360  17352  17349  17361     1  0.0000000  4.9162000  2
  17360  17352  17349  17361     1  0.0000000  0.6024960  3
  17361  17349  17348  17362     1  0.0000000  0.6508444  3
  17361  17349  17348  17370     1  0.0000000  4.9162000  2
  17361  17349  17348  17370     1  0.0000000  0.6024960  3
  17368  17362  17348  17370     1  0.0000000  4.9162000  2
  17368  17362  17348  17370     1  0.0000000  0.6024960  3
  17371  17372  17375  17376     1  180.0000771  0.8368000  1
  17371  17372  17375  17376     1  180.0000771  1.0460000  2
  17371  17372  17375  17376     1  0.0000000  0.7531200  3
  17371  17372  17375  17383     1  0.0000000  0.6508444  3
  17371  17393  17377  17381     1  180.0000771  5.6484000  1
  17371  17393  17377  17381     1  180.0000771  3.5564000  2
  17371  17393  17377  17381     1  0.0000000  0.4184000  3
  17371  17393  17377  17376     1  180.0000771  0.4184000  2
  17371  17393  17377  17376     1  0.0000000  1.6024720  3
  17372  17375  17376  17377     1  180.0000771  0.8368000  1
  17372  17375  17376  17377     1  180.0000771  1.0460000  2
  17372  17375  17376  17377     1  0.0000000  0.7531200  3
  17372  17375  17376  17382     1  0.0000000  0.6508444  3
  17372  17371  17385  17391     1  0.0000000  0.6508444  3
  17372  17371  17393  17377     1  180.0000771  0.4184000  2
  17372  17371  17393  17377     1  0.0000000  1.6024720  3
  17375  17376  17377  17381     1  0.0000000  0.6508444  3
  17375  17376  17377  17393     1  0.0000000  0.6508444  3
  17375  17372  17371  17385     1  180.0000771  0.8368000  1
  17375  17372  17371  17385     1  180.0000771  1.0460000  2
  17375  17372  17371  17385     1  0.0000000  0.7531200  3
  17375  17372  17371  17393     1  0.0000000  0.6508444  3
  17376  17375  17372  17384     1  0.0000000  0.6508444  3
  17377  17393  17371  17385     1  180.0000771  0.4184000  2
  17377  17393  17371  17385     1  0.0000000  1.6024720  3
  17377  17376  17375  17383     1  0.0000000  0.6508444  3
  17381  17377  17376  17382     1  0.0000000  4.9162000  2
  17381  17377  17376  17382     1  0.0000000  0.6024960  3
  17382  17376  17377  17393     1  0.0000000  4.9162000  2
  17382  17376  17377  17393     1  0.0000000  0.6024960  3
  17382  17376  17375  17383     1  0.0000000  4.9162000  2
  17382  17376  17375  17383     1  0.0000000  0.6024960  3
  17383  17375  17372  17384     1  0.0000000  4.9162000  2
  17383  17375  17372  17384     1  0.0000000  0.6024960  3
  17384  17372  17371  17385     1  0.0000000  0.6508444  3
  17384  17372  17371  17393     1  0.0000000  4.9162000  2
  17384  17372  17371  17393     1  0.0000000  0.6024960  3
  17391  17385  17371  17393     1  0.0000000  4.9162000  2
  17391  17385  17371  17393     1  0.0000000  0.6024960  3
  17394  17395  17398  17399     1  180.0000771  0.8368000  1
  17394  17395  17398  17399     1  180.0000771  1.0460000  2
  17394  17395  17398  17399     1  0.0000000  0.7531200  3
  17394  17395  17398  17406     1  0.0000000  0.6508444  3
  17394  17416  17400  17399     1  180.0000771  0.4184000  2
  17394  17416  17400  17399     1  0.0000000  1.6024720  3
  17394  17416  17400  17404     1  180.0000771  5.6484000  1
  17394  17416  17400  17404     1  180.0000771  3.5564000  2
  17394  17416  17400  17404     1  0.0000000  0.4184000  3
  17395  17394  17408  17414     1  0.0000000  0.6508444  3
  17395  17394  17416  17400     1  180.0000771  0.4184000  2
  17395  17394  17416  17400     1  0.0000000  1.6024720  3
  17395  17398  17399  17400     1  180.0000771  0.8368000  1
  17395  17398  17399  17400     1  180.0000771  1.0460000  2
  17395  17398  17399  17400     1  0.0000000  0.7531200  3
  17395  17398  17399  17405     1  0.0000000  0.6508444  3
  17398  17395  17394  17408     1  180.0000771  0.8368000  1
  17398  17395  17394  17408     1  180.0000771  1.0460000  2
  17398  17395  17394  17408     1  0.0000000  0.7531200  3
  17398  17395  17394  17416     1  0.0000000  0.6508444  3
  17398  17399  17400  17404     1  0.0000000  0.6508444  3
  17398  17399  17400  17416     1  0.0000000  0.6508444  3
  17399  17398  17395  17407     1  0.0000000  0.6508444  3
  17400  17399  17398  17406     1  0.0000000  0.6508444  3
  17400  17416  17394  17408     1  180.0000771  0.4184000  2
  17400  17416  17394  17408     1  0.0000000  1.6024720  3
  17404  17400  17399  17405     1  0.0000000  4.9162000  2
  17404  17400  17399  17405     1  0.0000000  0.6024960  3
  17405  17399  17398  17406     1  0.0000000  4.9162000  2
  17405  17399  17398  17406     1  0.0000000  0.6024960  3
  17405  17399  17400  17416     1  0.0000000  4.9162000  2
  17405  17399  17400  17416     1  0.0000000  0.6024960  3
  17406  17398  17395  17407     1  0.0000000  4.9162000  2
  17406  17398  17395  17407     1  0.0000000  0.6024960  3
  17407  17395  17394  17408     1  0.0000000  0.6508444  3
  17407  17395  17394  17416     1  0.0000000  4.9162000  2
  17407  17395  17394  17416     1  0.0000000  0.6024960  3
  17414  17408  17394  17416     1  0.0000000  4.9162000  2
  17414  17408  17394  17416     1  0.0000000  0.6024960  3
  17417  17418  17421  17422     1  180.0000771  0.8368000  1
  17417  17418  17421  17422     1  180.0000771  1.0460000  2
  17417  17418  17421  17422     1  0.0000000  0.7531200  3
  17417  17418  17421  17429     1  0.0000000  0.6508444  3
  17417  17439  17423  17427     1  180.0000771  5.6484000  1
  17417  17439  17423  17427     1  180.0000771  3.5564000  2
  17417  17439  17423  17427     1  0.0000000  0.4184000  3
  17417  17439  17423  17422     1  180.0000771  0.4184000  2
  17417  17439  17423  17422     1  0.0000000  1.6024720  3
  17418  17421  17422  17423     1  180.0000771  0.8368000  1
  17418  17421  17422  17423     1  180.0000771  1.0460000  2
  17418  17421  17422  17423     1  0.0000000  0.7531200  3
  17418  17421  17422  17428     1  0.0000000  0.6508444  3
  17418  17417  17431  17437     1  0.0000000  0.6508444  3
  17418  17417  17439  17423     1  180.0000771  0.4184000  2
  17418  17417  17439  17423     1  0.0000000  1.6024720  3
  17421  17422  17423  17427     1  0.0000000  0.6508444  3
  17421  17422  17423  17439     1  0.0000000  0.6508444  3
  17421  17418  17417  17431     1  180.0000771  0.8368000  1
  17421  17418  17417  17431     1  180.0000771  1.0460000  2
  17421  17418  17417  17431     1  0.0000000  0.7531200  3
  17421  17418  17417  17439     1  0.0000000  0.6508444  3
  17422  17421  17418  17430     1  0.0000000  0.6508444  3
  17423  17439  17417  17431     1  180.0000771  0.4184000  2
  17423  17439  17417  17431     1  0.0000000  1.6024720  3
  17423  17422  17421  17429     1  0.0000000  0.6508444  3
  17427  17423  17422  17428     1  0.0000000  4.9162000  2
  17427  17423  17422  17428     1  0.0000000  0.6024960  3
  17428  17422  17423  17439     1  0.0000000  4.9162000  2
  17428  17422  17423  17439     1  0.0000000  0.6024960  3
  17428  17422  17421  17429     1  0.0000000  4.9162000  2
  17428  17422  17421  17429     1  0.0000000  0.6024960  3
  17429  17421  17418  17430     1  0.0000000  4.9162000  2
  17429  17421  17418  17430     1  0.0000000  0.6024960  3
  17430  17418  17417  17431     1  0.0000000  0.6508444  3
  17430  17418  17417  17439     1  0.0000000  4.9162000  2
  17430  17418  17417  17439     1  0.0000000  0.6024960  3
  17437  17431  17417  17439     1  0.0000000  4.9162000  2
  17437  17431  17417  17439     1  0.0000000  0.6024960  3
  17440  17441  17444  17445     1  180.0000771  0.8368000  1
  17440  17441  17444  17445     1  180.0000771  1.0460000  2
  17440  17441  17444  17445     1  0.0000000  0.7531200  3
  17440  17441  17444  17452     1  0.0000000  0.6508444  3
  17440  17462  17446  17445     1  180.0000771  0.4184000  2
  17440  17462  17446  17445     1  0.0000000  1.6024720  3
  17440  17462  17446  17450     1  180.0000771  5.6484000  1
  17440  17462  17446  17450     1  180.0000771  3.5564000  2
  17440  17462  17446  17450     1  0.0000000  0.4184000  3
  17441  17440  17454  17460     1  0.0000000  0.6508444  3
  17441  17440  17462  17446     1  180.0000771  0.4184000  2
  17441  17440  17462  17446     1  0.0000000  1.6024720  3
  17441  17444  17445  17446     1  180.0000771  0.8368000  1
  17441  17444  17445  17446     1  180.0000771  1.0460000  2
  17441  17444  17445  17446     1  0.0000000  0.7531200  3
  17441  17444  17445  17451     1  0.0000000  0.6508444  3
  17444  17441  17440  17454     1  180.0000771  0.8368000  1
  17444  17441  17440  17454     1  180.0000771  1.0460000  2
  17444  17441  17440  17454     1  0.0000000  0.7531200  3
  17444  17441  17440  17462     1  0.0000000  0.6508444  3
  17444  17445  17446  17450     1  0.0000000  0.6508444  3
  17444  17445  17446  17462     1  0.0000000  0.6508444  3
  17445  17444  17441  17453     1  0.0000000  0.6508444  3
  17446  17445  17444  17452     1  0.0000000  0.6508444  3
  17446  17462  17440  17454     1  180.0000771  0.4184000  2
  17446  17462  17440  17454     1  0.0000000  1.6024720  3
  17450  17446  17445  17451     1  0.0000000  4.9162000  2
  17450  17446  17445  17451     1  0.0000000  0.6024960  3
  17451  17445  17444  17452     1  0.0000000  4.9162000  2
  17451  17445  17444  17452     1  0.0000000  0.6024960  3
  17451  17445  17446  17462     1  0.0000000  4.9162000  2
  17451  17445  17446  17462     1  0.0000000  0.6024960  3
  17452  17444  17441  17453     1  0.0000000  4.9162000  2
  17452  17444  17441  17453     1  0.0000000  0.6024960  3
  17453  17441  17440  17454     1  0.0000000  0.6508444  3
  17453  17441  17440  17462     1  0.0000000  4.9162000  2
  17453  17441  17440  17462     1  0.0000000  0.6024960  3
  17460  17454  17440  17462     1  0.0000000  4.9162000  2
  17460  17454  17440  17462     1  0.0000000  0.6024960  3
  17463  17464  17467  17468     1  180.0000771  0.8368000  1
  17463  17464  17467  17468     1  180.0000771  1.0460000  2
  17463  17464  17467  17468     1  0.0000000  0.7531200  3
  17463  17464  17467  17475     1  0.0000000  0.6508444  3
  17463  17485  17469  17473     1  180.0000771  5.6484000  1
  17463  17485  17469  17473     1  180.0000771  3.5564000  2
  17463  17485  17469  17473     1  0.0000000  0.4184000  3
  17463  17485  17469  17468     1  180.0000771  0.4184000  2
  17463  17485  17469  17468     1  0.0000000  1.6024720  3
  17464  17467  17468  17469     1  180.0000771  0.8368000  1
  17464  17467  17468  17469     1  180.0000771  1.0460000  2
  17464  17467  17468  17469     1  0.0000000  0.7531200  3
  17464  17467  17468  17474     1  0.0000000  0.6508444  3
  17464  17463  17477  17483     1  0.0000000  0.6508444  3
  17464  17463  17485  17469     1  180.0000771  0.4184000  2
  17464  17463  17485  17469     1  0.0000000  1.6024720  3
  17467  17468  17469  17473     1  0.0000000  0.6508444  3
  17467  17468  17469  17485     1  0.0000000  0.6508444  3
  17467  17464  17463  17477     1  180.0000771  0.8368000  1
  17467  17464  17463  17477     1  180.0000771  1.0460000  2
  17467  17464  17463  17477     1  0.0000000  0.7531200  3
  17467  17464  17463  17485     1  0.0000000  0.6508444  3
  17468  17467  17464  17476     1  0.0000000  0.6508444  3
  17469  17485  17463  17477     1  180.0000771  0.4184000  2
  17469  17485  17463  17477     1  0.0000000  1.6024720  3
  17469  17468  17467  17475     1  0.0000000  0.6508444  3
  17473  17469  17468  17474     1  0.0000000  4.9162000  2
  17473  17469  17468  17474     1  0.0000000  0.6024960  3
  17474  17468  17469  17485     1  0.0000000  4.9162000  2
  17474  17468  17469  17485     1  0.0000000  0.6024960  3
  17474  17468  17467  17475     1  0.0000000  4.9162000  2
  17474  17468  17467  17475     1  0.0000000  0.6024960  3
  17475  17467  17464  17476     1  0.0000000  4.9162000  2
  17475  17467  17464  17476     1  0.0000000  0.6024960  3
  17476  17464  17463  17477     1  0.0000000  0.6508444  3
  17476  17464  17463  17485     1  0.0000000  4.9162000  2
  17476  17464  17463  17485     1  0.0000000  0.6024960  3
  17483  17477  17463  17485     1  0.0000000  4.9162000  2
  17483  17477  17463  17485     1  0.0000000  0.6024960  3
  17486  17487  17490  17491     1  180.0000771  0.8368000  1
  17486  17487  17490  17491     1  180.0000771  1.0460000  2
  17486  17487  17490  17491     1  0.0000000  0.7531200  3
  17486  17487  17490  17498     1  0.0000000  0.6508444  3
  17486  17508  17492  17491     1  180.0000771  0.4184000  2
  17486  17508  17492  17491     1  0.0000000  1.6024720  3
  17486  17508  17492  17496     1  180.0000771  5.6484000  1
  17486  17508  17492  17496     1  180.0000771  3.5564000  2
  17486  17508  17492  17496     1  0.0000000  0.4184000  3
  17487  17486  17500  17506     1  0.0000000  0.6508444  3
  17487  17486  17508  17492     1  180.0000771  0.4184000  2
  17487  17486  17508  17492     1  0.0000000  1.6024720  3
  17487  17490  17491  17492     1  180.0000771  0.8368000  1
  17487  17490  17491  17492     1  180.0000771  1.0460000  2
  17487  17490  17491  17492     1  0.0000000  0.7531200  3
  17487  17490  17491  17497     1  0.0000000  0.6508444  3
  17490  17487  17486  17500     1  180.0000771  0.8368000  1
  17490  17487  17486  17500     1  180.0000771  1.0460000  2
  17490  17487  17486  17500     1  0.0000000  0.7531200  3
  17490  17487  17486  17508     1  0.0000000  0.6508444  3
  17490  17491  17492  17496     1  0.0000000  0.6508444  3
  17490  17491  17492  17508     1  0.0000000  0.6508444  3
  17491  17490  17487  17499     1  0.0000000  0.6508444  3
  17492  17491  17490  17498     1  0.0000000  0.6508444  3
  17492  17508  17486  17500     1  180.0000771  0.4184000  2
  17492  17508  17486  17500     1  0.0000000  1.6024720  3
  17496  17492  17491  17497     1  0.0000000  4.9162000  2
  17496  17492  17491  17497     1  0.0000000  0.6024960  3
  17497  17491  17490  17498     1  0.0000000  4.9162000  2
  17497  17491  17490  17498     1  0.0000000  0.6024960  3
  17497  17491  17492  17508     1  0.0000000  4.9162000  2
  17497  17491  17492  17508     1  0.0000000  0.6024960  3
  17498  17490  17487  17499     1  0.0000000  4.9162000  2
  17498  17490  17487  17499     1  0.0000000  0.6024960  3
  17499  17487  17486  17500     1  0.0000000  0.6508444  3
  17499  17487  17486  17508     1  0.0000000  4.9162000  2
  17499  17487  17486  17508     1  0.0000000  0.6024960  3
  17506  17500  17486  17508     1  0.0000000  4.9162000  2
  17506  17500  17486  17508     1  0.0000000  0.6024960  3
  17509  17510  17513  17514     1  180.0000771  0.8368000  1
  17509  17510  17513  17514     1  180.0000771  1.0460000  2
  17509  17510  17513  17514     1  0.0000000  0.7531200  3
  17509  17510  17513  17521     1  0.0000000  0.6508444  3
  17509  17531  17515  17519     1  180.0000771  5.6484000  1
  17509  17531  17515  17519     1  180.0000771  3.5564000  2
  17509  17531  17515  17519     1  0.0000000  0.4184000  3
  17509  17531  17515  17514     1  180.0000771  0.4184000  2
  17509  17531  17515  17514     1  0.0000000  1.6024720  3
  17510  17513  17514  17515     1  180.0000771  0.8368000  1
  17510  17513  17514  17515     1  180.0000771  1.0460000  2
  17510  17513  17514  17515     1  0.0000000  0.7531200  3
  17510  17513  17514  17520     1  0.0000000  0.6508444  3
  17510  17509  17523  17529     1  0.0000000  0.6508444  3
  17510  17509  17531  17515     1  180.0000771  0.4184000  2
  17510  17509  17531  17515     1  0.0000000  1.6024720  3
  17513  17514  17515  17519     1  0.0000000  0.6508444  3
  17513  17514  17515  17531     1  0.0000000  0.6508444  3
  17513  17510  17509  17523     1  180.0000771  0.8368000  1
  17513  17510  17509  17523     1  180.0000771  1.0460000  2
  17513  17510  17509  17523     1  0.0000000  0.7531200  3
  17513  17510  17509  17531     1  0.0000000  0.6508444  3
  17514  17513  17510  17522     1  0.0000000  0.6508444  3
  17515  17531  17509  17523     1  180.0000771  0.4184000  2
  17515  17531  17509  17523     1  0.0000000  1.6024720  3
  17515  17514  17513  17521     1  0.0000000  0.6508444  3
  17519  17515  17514  17520     1  0.0000000  4.9162000  2
  17519  17515  17514  17520     1  0.0000000  0.6024960  3
  17520  17514  17515  17531     1  0.0000000  4.9162000  2
  17520  17514  17515  17531     1  0.0000000  0.6024960  3
  17520  17514  17513  17521     1  0.0000000  4.9162000  2
  17520  17514  17513  17521     1  0.0000000  0.6024960  3
  17521  17513  17510  17522     1  0.0000000  4.9162000  2
  17521  17513  17510  17522     1  0.0000000  0.6024960  3
  17522  17510  17509  17523     1  0.0000000  0.6508444  3
  17522  17510  17509  17531     1  0.0000000  4.9162000  2
  17522  17510  17509  17531     1  0.0000000  0.6024960  3
  17529  17523  17509  17531     1  0.0000000  4.9162000  2
  17529  17523  17509  17531     1  0.0000000  0.6024960  3
  17532  17533  17536  17537     1  180.0000771  0.8368000  1
  17532  17533  17536  17537     1  180.0000771  1.0460000  2
  17532  17533  17536  17537     1  0.0000000  0.7531200  3
  17532  17533  17536  17544     1  0.0000000  0.6508444  3
  17532  17554  17538  17537     1  180.0000771  0.4184000  2
  17532  17554  17538  17537     1  0.0000000  1.6024720  3
  17532  17554  17538  17542     1  180.0000771  5.6484000  1
  17532  17554  17538  17542     1  180.0000771  3.5564000  2
  17532  17554  17538  17542     1  0.0000000  0.4184000  3
  17533  17532  17546  17552     1  0.0000000  0.6508444  3
  17533  17532  17554  17538     1  180.0000771  0.4184000  2
  17533  17532  17554  17538     1  0.0000000  1.6024720  3
  17533  17536  17537  17538     1  180.0000771  0.8368000  1
  17533  17536  17537  17538     1  180.0000771  1.0460000  2
  17533  17536  17537  17538     1  0.0000000  0.7531200  3
  17533  17536  17537  17543     1  0.0000000  0.6508444  3
  17536  17533  17532  17546     1  180.0000771  0.8368000  1
  17536  17533  17532  17546     1  180.0000771  1.0460000  2
  17536  17533  17532  17546     1  0.0000000  0.7531200  3
  17536  17533  17532  17554     1  0.0000000  0.6508444  3
  17536  17537  17538  17542     1  0.0000000  0.6508444  3
  17536  17537  17538  17554     1  0.0000000  0.6508444  3
  17537  17536  17533  17545     1  0.0000000  0.6508444  3
  17538  17537  17536  17544     1  0.0000000  0.6508444  3
  17538  17554  17532  17546     1  180.0000771  0.4184000  2
  17538  17554  17532  17546     1  0.0000000  1.6024720  3
  17542  17538  17537  17543     1  0.0000000  4.9162000  2
  17542  17538  17537  17543     1  0.0000000  0.6024960  3
  17543  17537  17536  17544     1  0.0000000  4.9162000  2
  17543  17537  17536  17544     1  0.0000000  0.6024960  3
  17543  17537  17538  17554     1  0.0000000  4.9162000  2
  17543  17537  17538  17554     1  0.0000000  0.6024960  3
  17544  17536  17533  17545     1  0.0000000  4.9162000  2
  17544  17536  17533  17545     1  0.0000000  0.6024960  3
  17545  17533  17532  17546     1  0.0000000  0.6508444  3
  17545  17533  17532  17554     1  0.0000000  4.9162000  2
  17545  17533  17532  17554     1  0.0000000  0.6024960  3
  17552  17546  17532  17554     1  0.0000000  4.9162000  2
  17552  17546  17532  17554     1  0.0000000  0.6024960  3
  17555  17556  17559  17560     1  180.0000771  0.8368000  1
  17555  17556  17559  17560     1  180.0000771  1.0460000  2
  17555  17556  17559  17560     1  0.0000000  0.7531200  3
  17555  17556  17559  17567     1  0.0000000  0.6508444  3
  17555  17577  17561  17565     1  180.0000771  5.6484000  1
  17555  17577  17561  17565     1  180.0000771  3.5564000  2
  17555  17577  17561  17565     1  0.0000000  0.4184000  3
  17555  17577  17561  17560     1  180.0000771  0.4184000  2
  17555  17577  17561  17560     1  0.0000000  1.6024720  3
  17556  17559  17560  17561     1  180.0000771  0.8368000  1
  17556  17559  17560  17561     1  180.0000771  1.0460000  2
  17556  17559  17560  17561     1  0.0000000  0.7531200  3
  17556  17559  17560  17566     1  0.0000000  0.6508444  3
  17556  17555  17569  17575     1  0.0000000  0.6508444  3
  17556  17555  17577  17561     1  180.0000771  0.4184000  2
  17556  17555  17577  17561     1  0.0000000  1.6024720  3
  17559  17560  17561  17565     1  0.0000000  0.6508444  3
  17559  17560  17561  17577     1  0.0000000  0.6508444  3
  17559  17556  17555  17569     1  180.0000771  0.8368000  1
  17559  17556  17555  17569     1  180.0000771  1.0460000  2
  17559  17556  17555  17569     1  0.0000000  0.7531200  3
  17559  17556  17555  17577     1  0.0000000  0.6508444  3
  17560  17559  17556  17568     1  0.0000000  0.6508444  3
  17561  17577  17555  17569     1  180.0000771  0.4184000  2
  17561  17577  17555  17569     1  0.0000000  1.6024720  3
  17561  17560  17559  17567     1  0.0000000  0.6508444  3
  17565  17561  17560  17566     1  0.0000000  4.9162000  2
  17565  17561  17560  17566     1  0.0000000  0.6024960  3
  17566  17560  17561  17577     1  0.0000000  4.9162000  2
  17566  17560  17561  17577     1  0.0000000  0.6024960  3
  17566  17560  17559  17567     1  0.0000000  4.9162000  2
  17566  17560  17559  17567     1  0.0000000  0.6024960  3
  17567  17559  17556  17568     1  0.0000000  4.9162000  2
  17567  17559  17556  17568     1  0.0000000  0.6024960  3
  17568  17556  17555  17569     1  0.0000000  0.6508444  3
  17568  17556  17555  17577     1  0.0000000  4.9162000  2
  17568  17556  17555  17577     1  0.0000000  0.6024960  3
  17575  17569  17555  17577     1  0.0000000  4.9162000  2
  17575  17569  17555  17577     1  0.0000000  0.6024960  3
  17578  17579  17582  17583     1  180.0000771  0.8368000  1
  17578  17579  17582  17583     1  180.0000771  1.0460000  2
  17578  17579  17582  17583     1  0.0000000  0.7531200  3
  17578  17579  17582  17590     1  0.0000000  0.6508444  3
  17578  17600  17584  17583     1  180.0000771  0.4184000  2
  17578  17600  17584  17583     1  0.0000000  1.6024720  3
  17578  17600  17584  17588     1  180.0000771  5.6484000  1
  17578  17600  17584  17588     1  180.0000771  3.5564000  2
  17578  17600  17584  17588     1  0.0000000  0.4184000  3
  17579  17578  17592  17598     1  0.0000000  0.6508444  3
  17579  17578  17600  17584     1  180.0000771  0.4184000  2
  17579  17578  17600  17584     1  0.0000000  1.6024720  3
  17579  17582  17583  17584     1  180.0000771  0.8368000  1
  17579  17582  17583  17584     1  180.0000771  1.0460000  2
  17579  17582  17583  17584     1  0.0000000  0.7531200  3
  17579  17582  17583  17589     1  0.0000000  0.6508444  3
  17582  17579  17578  17592     1  180.0000771  0.8368000  1
  17582  17579  17578  17592     1  180.0000771  1.0460000  2
  17582  17579  17578  17592     1  0.0000000  0.7531200  3
  17582  17579  17578  17600     1  0.0000000  0.6508444  3
  17582  17583  17584  17588     1  0.0000000  0.6508444  3
  17582  17583  17584  17600     1  0.0000000  0.6508444  3
  17583  17582  17579  17591     1  0.0000000  0.6508444  3
  17584  17583  17582  17590     1  0.0000000  0.6508444  3
  17584  17600  17578  17592     1  180.0000771  0.4184000  2
  17584  17600  17578  17592     1  0.0000000  1.6024720  3
  17588  17584  17583  17589     1  0.0000000  4.9162000  2
  17588  17584  17583  17589     1  0.0000000  0.6024960  3
  17589  17583  17582  17590     1  0.0000000  4.9162000  2
  17589  17583  17582  17590     1  0.0000000  0.6024960  3
  17589  17583  17584  17600     1  0.0000000  4.9162000  2
  17589  17583  17584  17600     1  0.0000000  0.6024960  3
  17590  17582  17579  17591     1  0.0000000  4.9162000  2
  17590  17582  17579  17591     1  0.0000000  0.6024960  3
  17591  17579  17578  17592     1  0.0000000  0.6508444  3
  17591  17579  17578  17600     1  0.0000000  4.9162000  2
  17591  17579  17578  17600     1  0.0000000  0.6024960  3
  17598  17592  17578  17600     1  0.0000000  4.9162000  2
  17598  17592  17578  17600     1  0.0000000  0.6024960  3
  17601  17602  17605  17606     1  180.0000771  0.8368000  1
  17601  17602  17605  17606     1  180.0000771  1.0460000  2
  17601  17602  17605  17606     1  0.0000000  0.7531200  3
  17601  17602  17605  17613     1  0.0000000  0.6508444  3
  17601  17623  17607  17611     1  180.0000771  5.6484000  1
  17601  17623  17607  17611     1  180.0000771  3.5564000  2
  17601  17623  17607  17611     1  0.0000000  0.4184000  3
  17601  17623  17607  17606     1  180.0000771  0.4184000  2
  17601  17623  17607  17606     1  0.0000000  1.6024720  3
  17602  17605  17606  17607     1  180.0000771  0.8368000  1
  17602  17605  17606  17607     1  180.0000771  1.0460000  2
  17602  17605  17606  17607     1  0.0000000  0.7531200  3
  17602  17605  17606  17612     1  0.0000000  0.6508444  3
  17602  17601  17615  17621     1  0.0000000  0.6508444  3
  17602  17601  17623  17607     1  180.0000771  0.4184000  2
  17602  17601  17623  17607     1  0.0000000  1.6024720  3
  17605  17606  17607  17611     1  0.0000000  0.6508444  3
  17605  17606  17607  17623     1  0.0000000  0.6508444  3
  17605  17602  17601  17615     1  180.0000771  0.8368000  1
  17605  17602  17601  17615     1  180.0000771  1.0460000  2
  17605  17602  17601  17615     1  0.0000000  0.7531200  3
  17605  17602  17601  17623     1  0.0000000  0.6508444  3
  17606  17605  17602  17614     1  0.0000000  0.6508444  3
  17607  17623  17601  17615     1  180.0000771  0.4184000  2
  17607  17623  17601  17615     1  0.0000000  1.6024720  3
  17607  17606  17605  17613     1  0.0000000  0.6508444  3
  17611  17607  17606  17612     1  0.0000000  4.9162000  2
  17611  17607  17606  17612     1  0.0000000  0.6024960  3
  17612  17606  17607  17623     1  0.0000000  4.9162000  2
  17612  17606  17607  17623     1  0.0000000  0.6024960  3
  17612  17606  17605  17613     1  0.0000000  4.9162000  2
  17612  17606  17605  17613     1  0.0000000  0.6024960  3
  17613  17605  17602  17614     1  0.0000000  4.9162000  2
  17613  17605  17602  17614     1  0.0000000  0.6024960  3
  17614  17602  17601  17615     1  0.0000000  0.6508444  3
  17614  17602  17601  17623     1  0.0000000  4.9162000  2
  17614  17602  17601  17623     1  0.0000000  0.6024960  3
  17621  17615  17601  17623     1  0.0000000  4.9162000  2
  17621  17615  17601  17623     1  0.0000000  0.6024960  3
  17624  17625  17628  17629     1  180.0000771  0.8368000  1
  17624  17625  17628  17629     1  180.0000771  1.0460000  2
  17624  17625  17628  17629     1  0.0000000  0.7531200  3
  17624  17625  17628  17636     1  0.0000000  0.6508444  3
  17624  17646  17630  17629     1  180.0000771  0.4184000  2
  17624  17646  17630  17629     1  0.0000000  1.6024720  3
  17624  17646  17630  17634     1  180.0000771  5.6484000  1
  17624  17646  17630  17634     1  180.0000771  3.5564000  2
  17624  17646  17630  17634     1  0.0000000  0.4184000  3
  17625  17624  17638  17644     1  0.0000000  0.6508444  3
  17625  17624  17646  17630     1  180.0000771  0.4184000  2
  17625  17624  17646  17630     1  0.0000000  1.6024720  3
  17625  17628  17629  17630     1  180.0000771  0.8368000  1
  17625  17628  17629  17630     1  180.0000771  1.0460000  2
  17625  17628  17629  17630     1  0.0000000  0.7531200  3
  17625  17628  17629  17635     1  0.0000000  0.6508444  3
  17628  17625  17624  17638     1  180.0000771  0.8368000  1
  17628  17625  17624  17638     1  180.0000771  1.0460000  2
  17628  17625  17624  17638     1  0.0000000  0.7531200  3
  17628  17625  17624  17646     1  0.0000000  0.6508444  3
  17628  17629  17630  17634     1  0.0000000  0.6508444  3
  17628  17629  17630  17646     1  0.0000000  0.6508444  3
  17629  17628  17625  17637     1  0.0000000  0.6508444  3
  17630  17629  17628  17636     1  0.0000000  0.6508444  3
  17630  17646  17624  17638     1  180.0000771  0.4184000  2
  17630  17646  17624  17638     1  0.0000000  1.6024720  3
  17634  17630  17629  17635     1  0.0000000  4.9162000  2
  17634  17630  17629  17635     1  0.0000000  0.6024960  3
  17635  17629  17628  17636     1  0.0000000  4.9162000  2
  17635  17629  17628  17636     1  0.0000000  0.6024960  3
  17635  17629  17630  17646     1  0.0000000  4.9162000  2
  17635  17629  17630  17646     1  0.0000000  0.6024960  3
  17636  17628  17625  17637     1  0.0000000  4.9162000  2
  17636  17628  17625  17637     1  0.0000000  0.6024960  3
  17637  17625  17624  17638     1  0.0000000  0.6508444  3
  17637  17625  17624  17646     1  0.0000000  4.9162000  2
  17637  17625  17624  17646     1  0.0000000  0.6024960  3
  17644  17638  17624  17646     1  0.0000000  4.9162000  2
  17644  17638  17624  17646     1  0.0000000  0.6024960  3
  17647  17648  17651  17652     1  180.0000771  0.8368000  1
  17647  17648  17651  17652     1  180.0000771  1.0460000  2
  17647  17648  17651  17652     1  0.0000000  0.7531200  3
  17647  17648  17651  17659     1  0.0000000  0.6508444  3
  17647  17669  17653  17657     1  180.0000771  5.6484000  1
  17647  17669  17653  17657     1  180.0000771  3.5564000  2
  17647  17669  17653  17657     1  0.0000000  0.4184000  3
  17647  17669  17653  17652     1  180.0000771  0.4184000  2
  17647  17669  17653  17652     1  0.0000000  1.6024720  3
  17648  17651  17652  17653     1  180.0000771  0.8368000  1
  17648  17651  17652  17653     1  180.0000771  1.0460000  2
  17648  17651  17652  17653     1  0.0000000  0.7531200  3
  17648  17651  17652  17658     1  0.0000000  0.6508444  3
  17648  17647  17661  17667     1  0.0000000  0.6508444  3
  17648  17647  17669  17653     1  180.0000771  0.4184000  2
  17648  17647  17669  17653     1  0.0000000  1.6024720  3
  17651  17652  17653  17657     1  0.0000000  0.6508444  3
  17651  17652  17653  17669     1  0.0000000  0.6508444  3
  17651  17648  17647  17661     1  180.0000771  0.8368000  1
  17651  17648  17647  17661     1  180.0000771  1.0460000  2
  17651  17648  17647  17661     1  0.0000000  0.7531200  3
  17651  17648  17647  17669     1  0.0000000  0.6508444  3
  17652  17651  17648  17660     1  0.0000000  0.6508444  3
  17653  17669  17647  17661     1  180.0000771  0.4184000  2
  17653  17669  17647  17661     1  0.0000000  1.6024720  3
  17653  17652  17651  17659     1  0.0000000  0.6508444  3
  17657  17653  17652  17658     1  0.0000000  4.9162000  2
  17657  17653  17652  17658     1  0.0000000  0.6024960  3
  17658  17652  17653  17669     1  0.0000000  4.9162000  2
  17658  17652  17653  17669     1  0.0000000  0.6024960  3
  17658  17652  17651  17659     1  0.0000000  4.9162000  2
  17658  17652  17651  17659     1  0.0000000  0.6024960  3
  17659  17651  17648  17660     1  0.0000000  4.9162000  2
  17659  17651  17648  17660     1  0.0000000  0.6024960  3
  17660  17648  17647  17661     1  0.0000000  0.6508444  3
  17660  17648  17647  17669     1  0.0000000  4.9162000  2
  17660  17648  17647  17669     1  0.0000000  0.6024960  3
  17667  17661  17647  17669     1  0.0000000  4.9162000  2
  17667  17661  17647  17669     1  0.0000000  0.6024960  3
  17670  17671  17674  17675     1  180.0000771  0.8368000  1
  17670  17671  17674  17675     1  180.0000771  1.0460000  2
  17670  17671  17674  17675     1  0.0000000  0.7531200  3
  17670  17671  17674  17682     1  0.0000000  0.6508444  3
  17670  17692  17676  17675     1  180.0000771  0.4184000  2
  17670  17692  17676  17675     1  0.0000000  1.6024720  3
  17670  17692  17676  17680     1  180.0000771  5.6484000  1
  17670  17692  17676  17680     1  180.0000771  3.5564000  2
  17670  17692  17676  17680     1  0.0000000  0.4184000  3
  17671  17670  17684  17690     1  0.0000000  0.6508444  3
  17671  17670  17692  17676     1  180.0000771  0.4184000  2
  17671  17670  17692  17676     1  0.0000000  1.6024720  3
  17671  17674  17675  17676     1  180.0000771  0.8368000  1
  17671  17674  17675  17676     1  180.0000771  1.0460000  2
  17671  17674  17675  17676     1  0.0000000  0.7531200  3
  17671  17674  17675  17681     1  0.0000000  0.6508444  3
  17674  17671  17670  17684     1  180.0000771  0.8368000  1
  17674  17671  17670  17684     1  180.0000771  1.0460000  2
  17674  17671  17670  17684     1  0.0000000  0.7531200  3
  17674  17671  17670  17692     1  0.0000000  0.6508444  3
  17674  17675  17676  17680     1  0.0000000  0.6508444  3
  17674  17675  17676  17692     1  0.0000000  0.6508444  3
  17675  17674  17671  17683     1  0.0000000  0.6508444  3
  17676  17675  17674  17682     1  0.0000000  0.6508444  3
  17676  17692  17670  17684     1  180.0000771  0.4184000  2
  17676  17692  17670  17684     1  0.0000000  1.6024720  3
  17680  17676  17675  17681     1  0.0000000  4.9162000  2
  17680  17676  17675  17681     1  0.0000000  0.6024960  3
  17681  17675  17674  17682     1  0.0000000  4.9162000  2
  17681  17675  17674  17682     1  0.0000000  0.6024960  3
  17681  17675  17676  17692     1  0.0000000  4.9162000  2
  17681  17675  17676  17692     1  0.0000000  0.6024960  3
  17682  17674  17671  17683     1  0.0000000  4.9162000  2
  17682  17674  17671  17683     1  0.0000000  0.6024960  3
  17683  17671  17670  17684     1  0.0000000  0.6508444  3
  17683  17671  17670  17692     1  0.0000000  4.9162000  2
  17683  17671  17670  17692     1  0.0000000  0.6024960  3
  17690  17684  17670  17692     1  0.0000000  4.9162000  2
  17690  17684  17670  17692     1  0.0000000  0.6024960  3
  17693  17694  17697  17698     1  180.0000771  0.8368000  1
  17693  17694  17697  17698     1  180.0000771  1.0460000  2
  17693  17694  17697  17698     1  0.0000000  0.7531200  3
  17693  17694  17697  17705     1  0.0000000  0.6508444  3
  17693  17715  17699  17703     1  180.0000771  5.6484000  1
  17693  17715  17699  17703     1  180.0000771  3.5564000  2
  17693  17715  17699  17703     1  0.0000000  0.4184000  3
  17693  17715  17699  17698     1  180.0000771  0.4184000  2
  17693  17715  17699  17698     1  0.0000000  1.6024720  3
  17694  17697  17698  17699     1  180.0000771  0.8368000  1
  17694  17697  17698  17699     1  180.0000771  1.0460000  2
  17694  17697  17698  17699     1  0.0000000  0.7531200  3
  17694  17697  17698  17704     1  0.0000000  0.6508444  3
  17694  17693  17707  17713     1  0.0000000  0.6508444  3
  17694  17693  17715  17699     1  180.0000771  0.4184000  2
  17694  17693  17715  17699     1  0.0000000  1.6024720  3
  17697  17698  17699  17703     1  0.0000000  0.6508444  3
  17697  17698  17699  17715     1  0.0000000  0.6508444  3
  17697  17694  17693  17707     1  180.0000771  0.8368000  1
  17697  17694  17693  17707     1  180.0000771  1.0460000  2
  17697  17694  17693  17707     1  0.0000000  0.7531200  3
  17697  17694  17693  17715     1  0.0000000  0.6508444  3
  17698  17697  17694  17706     1  0.0000000  0.6508444  3
  17699  17715  17693  17707     1  180.0000771  0.4184000  2
  17699  17715  17693  17707     1  0.0000000  1.6024720  3
  17699  17698  17697  17705     1  0.0000000  0.6508444  3
  17703  17699  17698  17704     1  0.0000000  4.9162000  2
  17703  17699  17698  17704     1  0.0000000  0.6024960  3
  17704  17698  17699  17715     1  0.0000000  4.9162000  2
  17704  17698  17699  17715     1  0.0000000  0.6024960  3
  17704  17698  17697  17705     1  0.0000000  4.9162000  2
  17704  17698  17697  17705     1  0.0000000  0.6024960  3
  17705  17697  17694  17706     1  0.0000000  4.9162000  2
  17705  17697  17694  17706     1  0.0000000  0.6024960  3
  17706  17694  17693  17707     1  0.0000000  0.6508444  3
  17706  17694  17693  17715     1  0.0000000  4.9162000  2
  17706  17694  17693  17715     1  0.0000000  0.6024960  3
  17713  17707  17693  17715     1  0.0000000  4.9162000  2
  17713  17707  17693  17715     1  0.0000000  0.6024960  3
  17716  17717  17720  17721     1  180.0000771  0.8368000  1
  17716  17717  17720  17721     1  180.0000771  1.0460000  2
  17716  17717  17720  17721     1  0.0000000  0.7531200  3
  17716  17717  17720  17728     1  0.0000000  0.6508444  3
  17716  17738  17722  17721     1  180.0000771  0.4184000  2
  17716  17738  17722  17721     1  0.0000000  1.6024720  3
  17716  17738  17722  17726     1  180.0000771  5.6484000  1
  17716  17738  17722  17726     1  180.0000771  3.5564000  2
  17716  17738  17722  17726     1  0.0000000  0.4184000  3
  17717  17716  17730  17736     1  0.0000000  0.6508444  3
  17717  17716  17738  17722     1  180.0000771  0.4184000  2
  17717  17716  17738  17722     1  0.0000000  1.6024720  3
  17717  17720  17721  17722     1  180.0000771  0.8368000  1
  17717  17720  17721  17722     1  180.0000771  1.0460000  2
  17717  17720  17721  17722     1  0.0000000  0.7531200  3
  17717  17720  17721  17727     1  0.0000000  0.6508444  3
  17720  17717  17716  17730     1  180.0000771  0.8368000  1
  17720  17717  17716  17730     1  180.0000771  1.0460000  2
  17720  17717  17716  17730     1  0.0000000  0.7531200  3
  17720  17717  17716  17738     1  0.0000000  0.6508444  3
  17720  17721  17722  17726     1  0.0000000  0.6508444  3
  17720  17721  17722  17738     1  0.0000000  0.6508444  3
  17721  17720  17717  17729     1  0.0000000  0.6508444  3
  17722  17721  17720  17728     1  0.0000000  0.6508444  3
  17722  17738  17716  17730     1  180.0000771  0.4184000  2
  17722  17738  17716  17730     1  0.0000000  1.6024720  3
  17726  17722  17721  17727     1  0.0000000  4.9162000  2
  17726  17722  17721  17727     1  0.0000000  0.6024960  3
  17727  17721  17720  17728     1  0.0000000  4.9162000  2
  17727  17721  17720  17728     1  0.0000000  0.6024960  3
  17727  17721  17722  17738     1  0.0000000  4.9162000  2
  17727  17721  17722  17738     1  0.0000000  0.6024960  3
  17728  17720  17717  17729     1  0.0000000  4.9162000  2
  17728  17720  17717  17729     1  0.0000000  0.6024960  3
  17729  17717  17716  17730     1  0.0000000  0.6508444  3
  17729  17717  17716  17738     1  0.0000000  4.9162000  2
  17729  17717  17716  17738     1  0.0000000  0.6024960  3
  17736  17730  17716  17738     1  0.0000000  4.9162000  2
  17736  17730  17716  17738     1  0.0000000  0.6024960  3
  17739  17740  17743  17744     1  180.0000771  0.8368000  1
  17739  17740  17743  17744     1  180.0000771  1.0460000  2
  17739  17740  17743  17744     1  0.0000000  0.7531200  3
  17739  17740  17743  17751     1  0.0000000  0.6508444  3
  17739  17761  17745  17749     1  180.0000771  5.6484000  1
  17739  17761  17745  17749     1  180.0000771  3.5564000  2
  17739  17761  17745  17749     1  0.0000000  0.4184000  3
  17739  17761  17745  17744     1  180.0000771  0.4184000  2
  17739  17761  17745  17744     1  0.0000000  1.6024720  3
  17740  17743  17744  17745     1  180.0000771  0.8368000  1
  17740  17743  17744  17745     1  180.0000771  1.0460000  2
  17740  17743  17744  17745     1  0.0000000  0.7531200  3
  17740  17743  17744  17750     1  0.0000000  0.6508444  3
  17740  17739  17753  17759     1  0.0000000  0.6508444  3
  17740  17739  17761  17745     1  180.0000771  0.4184000  2
  17740  17739  17761  17745     1  0.0000000  1.6024720  3
  17743  17744  17745  17749     1  0.0000000  0.6508444  3
  17743  17744  17745  17761     1  0.0000000  0.6508444  3
  17743  17740  17739  17753     1  180.0000771  0.8368000  1
  17743  17740  17739  17753     1  180.0000771  1.0460000  2
  17743  17740  17739  17753     1  0.0000000  0.7531200  3
  17743  17740  17739  17761     1  0.0000000  0.6508444  3
  17744  17743  17740  17752     1  0.0000000  0.6508444  3
  17745  17761  17739  17753     1  180.0000771  0.4184000  2
  17745  17761  17739  17753     1  0.0000000  1.6024720  3
  17745  17744  17743  17751     1  0.0000000  0.6508444  3
  17749  17745  17744  17750     1  0.0000000  4.9162000  2
  17749  17745  17744  17750     1  0.0000000  0.6024960  3
  17750  17744  17745  17761     1  0.0000000  4.9162000  2
  17750  17744  17745  17761     1  0.0000000  0.6024960  3
  17750  17744  17743  17751     1  0.0000000  4.9162000  2
  17750  17744  17743  17751     1  0.0000000  0.6024960  3
  17751  17743  17740  17752     1  0.0000000  4.9162000  2
  17751  17743  17740  17752     1  0.0000000  0.6024960  3
  17752  17740  17739  17753     1  0.0000000  0.6508444  3
  17752  17740  17739  17761     1  0.0000000  4.9162000  2
  17752  17740  17739  17761     1  0.0000000  0.6024960  3
  17759  17753  17739  17761     1  0.0000000  4.9162000  2
  17759  17753  17739  17761     1  0.0000000  0.6024960  3
  17762  17763  17766  17767     1  180.0000771  0.8368000  1
  17762  17763  17766  17767     1  180.0000771  1.0460000  2
  17762  17763  17766  17767     1  0.0000000  0.7531200  3
  17762  17763  17766  17774     1  0.0000000  0.6508444  3
  17762  17784  17768  17767     1  180.0000771  0.4184000  2
  17762  17784  17768  17767     1  0.0000000  1.6024720  3
  17762  17784  17768  17772     1  180.0000771  5.6484000  1
  17762  17784  17768  17772     1  180.0000771  3.5564000  2
  17762  17784  17768  17772     1  0.0000000  0.4184000  3
  17763  17762  17776  17782     1  0.0000000  0.6508444  3
  17763  17762  17784  17768     1  180.0000771  0.4184000  2
  17763  17762  17784  17768     1  0.0000000  1.6024720  3
  17763  17766  17767  17768     1  180.0000771  0.8368000  1
  17763  17766  17767  17768     1  180.0000771  1.0460000  2
  17763  17766  17767  17768     1  0.0000000  0.7531200  3
  17763  17766  17767  17773     1  0.0000000  0.6508444  3
  17766  17763  17762  17776     1  180.0000771  0.8368000  1
  17766  17763  17762  17776     1  180.0000771  1.0460000  2
  17766  17763  17762  17776     1  0.0000000  0.7531200  3
  17766  17763  17762  17784     1  0.0000000  0.6508444  3
  17766  17767  17768  17772     1  0.0000000  0.6508444  3
  17766  17767  17768  17784     1  0.0000000  0.6508444  3
  17767  17766  17763  17775     1  0.0000000  0.6508444  3
  17768  17767  17766  17774     1  0.0000000  0.6508444  3
  17768  17784  17762  17776     1  180.0000771  0.4184000  2
  17768  17784  17762  17776     1  0.0000000  1.6024720  3
  17772  17768  17767  17773     1  0.0000000  4.9162000  2
  17772  17768  17767  17773     1  0.0000000  0.6024960  3
  17773  17767  17766  17774     1  0.0000000  4.9162000  2
  17773  17767  17766  17774     1  0.0000000  0.6024960  3
  17773  17767  17768  17784     1  0.0000000  4.9162000  2
  17773  17767  17768  17784     1  0.0000000  0.6024960  3
  17774  17766  17763  17775     1  0.0000000  4.9162000  2
  17774  17766  17763  17775     1  0.0000000  0.6024960  3
  17775  17763  17762  17776     1  0.0000000  0.6508444  3
  17775  17763  17762  17784     1  0.0000000  4.9162000  2
  17775  17763  17762  17784     1  0.0000000  0.6024960  3
  17782  17776  17762  17784     1  0.0000000  4.9162000  2
  17782  17776  17762  17784     1  0.0000000  0.6024960  3
  17785  17786  17789  17790     1  180.0000771  0.8368000  1
  17785  17786  17789  17790     1  180.0000771  1.0460000  2
  17785  17786  17789  17790     1  0.0000000  0.7531200  3
  17785  17786  17789  17797     1  0.0000000  0.6508444  3
  17785  17807  17791  17795     1  180.0000771  5.6484000  1
  17785  17807  17791  17795     1  180.0000771  3.5564000  2
  17785  17807  17791  17795     1  0.0000000  0.4184000  3
  17785  17807  17791  17790     1  180.0000771  0.4184000  2
  17785  17807  17791  17790     1  0.0000000  1.6024720  3
  17786  17789  17790  17791     1  180.0000771  0.8368000  1
  17786  17789  17790  17791     1  180.0000771  1.0460000  2
  17786  17789  17790  17791     1  0.0000000  0.7531200  3
  17786  17789  17790  17796     1  0.0000000  0.6508444  3
  17786  17785  17799  17805     1  0.0000000  0.6508444  3
  17786  17785  17807  17791     1  180.0000771  0.4184000  2
  17786  17785  17807  17791     1  0.0000000  1.6024720  3
  17789  17790  17791  17795     1  0.0000000  0.6508444  3
  17789  17790  17791  17807     1  0.0000000  0.6508444  3
  17789  17786  17785  17799     1  180.0000771  0.8368000  1
  17789  17786  17785  17799     1  180.0000771  1.0460000  2
  17789  17786  17785  17799     1  0.0000000  0.7531200  3
  17789  17786  17785  17807     1  0.0000000  0.6508444  3
  17790  17789  17786  17798     1  0.0000000  0.6508444  3
  17791  17807  17785  17799     1  180.0000771  0.4184000  2
  17791  17807  17785  17799     1  0.0000000  1.6024720  3
  17791  17790  17789  17797     1  0.0000000  0.6508444  3
  17795  17791  17790  17796     1  0.0000000  4.9162000  2
  17795  17791  17790  17796     1  0.0000000  0.6024960  3
  17796  17790  17791  17807     1  0.0000000  4.9162000  2
  17796  17790  17791  17807     1  0.0000000  0.6024960  3
  17796  17790  17789  17797     1  0.0000000  4.9162000  2
  17796  17790  17789  17797     1  0.0000000  0.6024960  3
  17797  17789  17786  17798     1  0.0000000  4.9162000  2
  17797  17789  17786  17798     1  0.0000000  0.6024960  3
  17798  17786  17785  17799     1  0.0000000  0.6508444  3
  17798  17786  17785  17807     1  0.0000000  4.9162000  2
  17798  17786  17785  17807     1  0.0000000  0.6024960  3
  17805  17799  17785  17807     1  0.0000000  4.9162000  2
  17805  17799  17785  17807     1  0.0000000  0.6024960  3
  17808  17809  17812  17813     1  180.0000771  0.8368000  1
  17808  17809  17812  17813     1  180.0000771  1.0460000  2
  17808  17809  17812  17813     1  0.0000000  0.7531200  3
  17808  17809  17812  17820     1  0.0000000  0.6508444  3
  17808  17830  17814  17813     1  180.0000771  0.4184000  2
  17808  17830  17814  17813     1  0.0000000  1.6024720  3
  17808  17830  17814  17818     1  180.0000771  5.6484000  1
  17808  17830  17814  17818     1  180.0000771  3.5564000  2
  17808  17830  17814  17818     1  0.0000000  0.4184000  3
  17809  17808  17822  17828     1  0.0000000  0.6508444  3
  17809  17808  17830  17814     1  180.0000771  0.4184000  2
  17809  17808  17830  17814     1  0.0000000  1.6024720  3
  17809  17812  17813  17814     1  180.0000771  0.8368000  1
  17809  17812  17813  17814     1  180.0000771  1.0460000  2
  17809  17812  17813  17814     1  0.0000000  0.7531200  3
  17809  17812  17813  17819     1  0.0000000  0.6508444  3
  17812  17809  17808  17822     1  180.0000771  0.8368000  1
  17812  17809  17808  17822     1  180.0000771  1.0460000  2
  17812  17809  17808  17822     1  0.0000000  0.7531200  3
  17812  17809  17808  17830     1  0.0000000  0.6508444  3
  17812  17813  17814  17818     1  0.0000000  0.6508444  3
  17812  17813  17814  17830     1  0.0000000  0.6508444  3
  17813  17812  17809  17821     1  0.0000000  0.6508444  3
  17814  17813  17812  17820     1  0.0000000  0.6508444  3
  17814  17830  17808  17822     1  180.0000771  0.4184000  2
  17814  17830  17808  17822     1  0.0000000  1.6024720  3
  17818  17814  17813  17819     1  0.0000000  4.9162000  2
  17818  17814  17813  17819     1  0.0000000  0.6024960  3
  17819  17813  17812  17820     1  0.0000000  4.9162000  2
  17819  17813  17812  17820     1  0.0000000  0.6024960  3
  17819  17813  17814  17830     1  0.0000000  4.9162000  2
  17819  17813  17814  17830     1  0.0000000  0.6024960  3
  17820  17812  17809  17821     1  0.0000000  4.9162000  2
  17820  17812  17809  17821     1  0.0000000  0.6024960  3
  17821  17809  17808  17822     1  0.0000000  0.6508444  3
  17821  17809  17808  17830     1  0.0000000  4.9162000  2
  17821  17809  17808  17830     1  0.0000000  0.6024960  3
  17828  17822  17808  17830     1  0.0000000  4.9162000  2
  17828  17822  17808  17830     1  0.0000000  0.6024960  3
  17831  17832  17835  17836     1  180.0000771  0.8368000  1
  17831  17832  17835  17836     1  180.0000771  1.0460000  2
  17831  17832  17835  17836     1  0.0000000  0.7531200  3
  17831  17832  17835  17843     1  0.0000000  0.6508444  3
  17831  17853  17837  17841     1  180.0000771  5.6484000  1
  17831  17853  17837  17841     1  180.0000771  3.5564000  2
  17831  17853  17837  17841     1  0.0000000  0.4184000  3
  17831  17853  17837  17836     1  180.0000771  0.4184000  2
  17831  17853  17837  17836     1  0.0000000  1.6024720  3
  17832  17835  17836  17837     1  180.0000771  0.8368000  1
  17832  17835  17836  17837     1  180.0000771  1.0460000  2
  17832  17835  17836  17837     1  0.0000000  0.7531200  3
  17832  17835  17836  17842     1  0.0000000  0.6508444  3
  17832  17831  17845  17851     1  0.0000000  0.6508444  3
  17832  17831  17853  17837     1  180.0000771  0.4184000  2
  17832  17831  17853  17837     1  0.0000000  1.6024720  3
  17835  17836  17837  17841     1  0.0000000  0.6508444  3
  17835  17836  17837  17853     1  0.0000000  0.6508444  3
  17835  17832  17831  17845     1  180.0000771  0.8368000  1
  17835  17832  17831  17845     1  180.0000771  1.0460000  2
  17835  17832  17831  17845     1  0.0000000  0.7531200  3
  17835  17832  17831  17853     1  0.0000000  0.6508444  3
  17836  17835  17832  17844     1  0.0000000  0.6508444  3
  17837  17853  17831  17845     1  180.0000771  0.4184000  2
  17837  17853  17831  17845     1  0.0000000  1.6024720  3
  17837  17836  17835  17843     1  0.0000000  0.6508444  3
  17841  17837  17836  17842     1  0.0000000  4.9162000  2
  17841  17837  17836  17842     1  0.0000000  0.6024960  3
  17842  17836  17837  17853     1  0.0000000  4.9162000  2
  17842  17836  17837  17853     1  0.0000000  0.6024960  3
  17842  17836  17835  17843     1  0.0000000  4.9162000  2
  17842  17836  17835  17843     1  0.0000000  0.6024960  3
  17843  17835  17832  17844     1  0.0000000  4.9162000  2
  17843  17835  17832  17844     1  0.0000000  0.6024960  3
  17844  17832  17831  17845     1  0.0000000  0.6508444  3
  17844  17832  17831  17853     1  0.0000000  4.9162000  2
  17844  17832  17831  17853     1  0.0000000  0.6024960  3
  17851  17845  17831  17853     1  0.0000000  4.9162000  2
  17851  17845  17831  17853     1  0.0000000  0.6024960  3
  17854  17855  17858  17859     1  180.0000771  0.8368000  1
  17854  17855  17858  17859     1  180.0000771  1.0460000  2
  17854  17855  17858  17859     1  0.0000000  0.7531200  3
  17854  17855  17858  17866     1  0.0000000  0.6508444  3
  17854  17876  17860  17859     1  180.0000771  0.4184000  2
  17854  17876  17860  17859     1  0.0000000  1.6024720  3
  17854  17876  17860  17864     1  180.0000771  5.6484000  1
  17854  17876  17860  17864     1  180.0000771  3.5564000  2
  17854  17876  17860  17864     1  0.0000000  0.4184000  3
  17855  17854  17868  17874     1  0.0000000  0.6508444  3
  17855  17854  17876  17860     1  180.0000771  0.4184000  2
  17855  17854  17876  17860     1  0.0000000  1.6024720  3
  17855  17858  17859  17860     1  180.0000771  0.8368000  1
  17855  17858  17859  17860     1  180.0000771  1.0460000  2
  17855  17858  17859  17860     1  0.0000000  0.7531200  3
  17855  17858  17859  17865     1  0.0000000  0.6508444  3
  17858  17855  17854  17868     1  180.0000771  0.8368000  1
  17858  17855  17854  17868     1  180.0000771  1.0460000  2
  17858  17855  17854  17868     1  0.0000000  0.7531200  3
  17858  17855  17854  17876     1  0.0000000  0.6508444  3
  17858  17859  17860  17864     1  0.0000000  0.6508444  3
  17858  17859  17860  17876     1  0.0000000  0.6508444  3
  17859  17858  17855  17867     1  0.0000000  0.6508444  3
  17860  17859  17858  17866     1  0.0000000  0.6508444  3
  17860  17876  17854  17868     1  180.0000771  0.4184000  2
  17860  17876  17854  17868     1  0.0000000  1.6024720  3
  17864  17860  17859  17865     1  0.0000000  4.9162000  2
  17864  17860  17859  17865     1  0.0000000  0.6024960  3
  17865  17859  17858  17866     1  0.0000000  4.9162000  2
  17865  17859  17858  17866     1  0.0000000  0.6024960  3
  17865  17859  17860  17876     1  0.0000000  4.9162000  2
  17865  17859  17860  17876     1  0.0000000  0.6024960  3
  17866  17858  17855  17867     1  0.0000000  4.9162000  2
  17866  17858  17855  17867     1  0.0000000  0.6024960  3
  17867  17855  17854  17868     1  0.0000000  0.6508444  3
  17867  17855  17854  17876     1  0.0000000  4.9162000  2
  17867  17855  17854  17876     1  0.0000000  0.6024960  3
  17874  17868  17854  17876     1  0.0000000  4.9162000  2
  17874  17868  17854  17876     1  0.0000000  0.6024960  3
  17877  17878  17881  17882     1  180.0000771  0.8368000  1
  17877  17878  17881  17882     1  180.0000771  1.0460000  2
  17877  17878  17881  17882     1  0.0000000  0.7531200  3
  17877  17878  17881  17889     1  0.0000000  0.6508444  3
  17877  17899  17883  17887     1  180.0000771  5.6484000  1
  17877  17899  17883  17887     1  180.0000771  3.5564000  2
  17877  17899  17883  17887     1  0.0000000  0.4184000  3
  17877  17899  17883  17882     1  180.0000771  0.4184000  2
  17877  17899  17883  17882     1  0.0000000  1.6024720  3
  17878  17881  17882  17883     1  180.0000771  0.8368000  1
  17878  17881  17882  17883     1  180.0000771  1.0460000  2
  17878  17881  17882  17883     1  0.0000000  0.7531200  3
  17878  17881  17882  17888     1  0.0000000  0.6508444  3
  17878  17877  17891  17897     1  0.0000000  0.6508444  3
  17878  17877  17899  17883     1  180.0000771  0.4184000  2
  17878  17877  17899  17883     1  0.0000000  1.6024720  3
  17881  17882  17883  17887     1  0.0000000  0.6508444  3
  17881  17882  17883  17899     1  0.0000000  0.6508444  3
  17881  17878  17877  17891     1  180.0000771  0.8368000  1
  17881  17878  17877  17891     1  180.0000771  1.0460000  2
  17881  17878  17877  17891     1  0.0000000  0.7531200  3
  17881  17878  17877  17899     1  0.0000000  0.6508444  3
  17882  17881  17878  17890     1  0.0000000  0.6508444  3
  17883  17899  17877  17891     1  180.0000771  0.4184000  2
  17883  17899  17877  17891     1  0.0000000  1.6024720  3
  17883  17882  17881  17889     1  0.0000000  0.6508444  3
  17887  17883  17882  17888     1  0.0000000  4.9162000  2
  17887  17883  17882  17888     1  0.0000000  0.6024960  3
  17888  17882  17883  17899     1  0.0000000  4.9162000  2
  17888  17882  17883  17899     1  0.0000000  0.6024960  3
  17888  17882  17881  17889     1  0.0000000  4.9162000  2
  17888  17882  17881  17889     1  0.0000000  0.6024960  3
  17889  17881  17878  17890     1  0.0000000  4.9162000  2
  17889  17881  17878  17890     1  0.0000000  0.6024960  3
  17890  17878  17877  17891     1  0.0000000  0.6508444  3
  17890  17878  17877  17899     1  0.0000000  4.9162000  2
  17890  17878  17877  17899     1  0.0000000  0.6024960  3
  17897  17891  17877  17899     1  0.0000000  4.9162000  2
  17897  17891  17877  17899     1  0.0000000  0.6024960  3
  17900  17901  17904  17905     1  180.0000771  0.8368000  1
  17900  17901  17904  17905     1  180.0000771  1.0460000  2
  17900  17901  17904  17905     1  0.0000000  0.7531200  3
  17900  17901  17904  17912     1  0.0000000  0.6508444  3
  17900  17922  17906  17905     1  180.0000771  0.4184000  2
  17900  17922  17906  17905     1  0.0000000  1.6024720  3
  17900  17922  17906  17910     1  180.0000771  5.6484000  1
  17900  17922  17906  17910     1  180.0000771  3.5564000  2
  17900  17922  17906  17910     1  0.0000000  0.4184000  3
  17901  17900  17914  17920     1  0.0000000  0.6508444  3
  17901  17900  17922  17906     1  180.0000771  0.4184000  2
  17901  17900  17922  17906     1  0.0000000  1.6024720  3
  17901  17904  17905  17906     1  180.0000771  0.8368000  1
  17901  17904  17905  17906     1  180.0000771  1.0460000  2
  17901  17904  17905  17906     1  0.0000000  0.7531200  3
  17901  17904  17905  17911     1  0.0000000  0.6508444  3
  17904  17901  17900  17914     1  180.0000771  0.8368000  1
  17904  17901  17900  17914     1  180.0000771  1.0460000  2
  17904  17901  17900  17914     1  0.0000000  0.7531200  3
  17904  17901  17900  17922     1  0.0000000  0.6508444  3
  17904  17905  17906  17910     1  0.0000000  0.6508444  3
  17904  17905  17906  17922     1  0.0000000  0.6508444  3
  17905  17904  17901  17913     1  0.0000000  0.6508444  3
  17906  17905  17904  17912     1  0.0000000  0.6508444  3
  17906  17922  17900  17914     1  180.0000771  0.4184000  2
  17906  17922  17900  17914     1  0.0000000  1.6024720  3
  17910  17906  17905  17911     1  0.0000000  4.9162000  2
  17910  17906  17905  17911     1  0.0000000  0.6024960  3
  17911  17905  17904  17912     1  0.0000000  4.9162000  2
  17911  17905  17904  17912     1  0.0000000  0.6024960  3
  17911  17905  17906  17922     1  0.0000000  4.9162000  2
  17911  17905  17906  17922     1  0.0000000  0.6024960  3
  17912  17904  17901  17913     1  0.0000000  4.9162000  2
  17912  17904  17901  17913     1  0.0000000  0.6024960  3
  17913  17901  17900  17914     1  0.0000000  0.6508444  3
  17913  17901  17900  17922     1  0.0000000  4.9162000  2
  17913  17901  17900  17922     1  0.0000000  0.6024960  3
  17920  17914  17900  17922     1  0.0000000  4.9162000  2
  17920  17914  17900  17922     1  0.0000000  0.6024960  3
  17923  17924  17927  17928     1  180.0000771  0.8368000  1
  17923  17924  17927  17928     1  180.0000771  1.0460000  2
  17923  17924  17927  17928     1  0.0000000  0.7531200  3
  17923  17924  17927  17935     1  0.0000000  0.6508444  3
  17923  17945  17929  17933     1  180.0000771  5.6484000  1
  17923  17945  17929  17933     1  180.0000771  3.5564000  2
  17923  17945  17929  17933     1  0.0000000  0.4184000  3
  17923  17945  17929  17928     1  180.0000771  0.4184000  2
  17923  17945  17929  17928     1  0.0000000  1.6024720  3
  17924  17927  17928  17929     1  180.0000771  0.8368000  1
  17924  17927  17928  17929     1  180.0000771  1.0460000  2
  17924  17927  17928  17929     1  0.0000000  0.7531200  3
  17924  17927  17928  17934     1  0.0000000  0.6508444  3
  17924  17923  17937  17943     1  0.0000000  0.6508444  3
  17924  17923  17945  17929     1  180.0000771  0.4184000  2
  17924  17923  17945  17929     1  0.0000000  1.6024720  3
  17927  17928  17929  17933     1  0.0000000  0.6508444  3
  17927  17928  17929  17945     1  0.0000000  0.6508444  3
  17927  17924  17923  17937     1  180.0000771  0.8368000  1
  17927  17924  17923  17937     1  180.0000771  1.0460000  2
  17927  17924  17923  17937     1  0.0000000  0.7531200  3
  17927  17924  17923  17945     1  0.0000000  0.6508444  3
  17928  17927  17924  17936     1  0.0000000  0.6508444  3
  17929  17945  17923  17937     1  180.0000771  0.4184000  2
  17929  17945  17923  17937     1  0.0000000  1.6024720  3
  17929  17928  17927  17935     1  0.0000000  0.6508444  3
  17933  17929  17928  17934     1  0.0000000  4.9162000  2
  17933  17929  17928  17934     1  0.0000000  0.6024960  3
  17934  17928  17929  17945     1  0.0000000  4.9162000  2
  17934  17928  17929  17945     1  0.0000000  0.6024960  3
  17934  17928  17927  17935     1  0.0000000  4.9162000  2
  17934  17928  17927  17935     1  0.0000000  0.6024960  3
  17935  17927  17924  17936     1  0.0000000  4.9162000  2
  17935  17927  17924  17936     1  0.0000000  0.6024960  3
  17936  17924  17923  17937     1  0.0000000  0.6508444  3
  17936  17924  17923  17945     1  0.0000000  4.9162000  2
  17936  17924  17923  17945     1  0.0000000  0.6024960  3
  17943  17937  17923  17945     1  0.0000000  4.9162000  2
  17943  17937  17923  17945     1  0.0000000  0.6024960  3
  17946  17947  17950  17951     1  180.0000771  0.8368000  1
  17946  17947  17950  17951     1  180.0000771  1.0460000  2
  17946  17947  17950  17951     1  0.0000000  0.7531200  3
  17946  17947  17950  17958     1  0.0000000  0.6508444  3
  17946  17968  17952  17951     1  180.0000771  0.4184000  2
  17946  17968  17952  17951     1  0.0000000  1.6024720  3
  17946  17968  17952  17956     1  180.0000771  5.6484000  1
  17946  17968  17952  17956     1  180.0000771  3.5564000  2
  17946  17968  17952  17956     1  0.0000000  0.4184000  3
  17947  17946  17960  17966     1  0.0000000  0.6508444  3
  17947  17946  17968  17952     1  180.0000771  0.4184000  2
  17947  17946  17968  17952     1  0.0000000  1.6024720  3
  17947  17950  17951  17952     1  180.0000771  0.8368000  1
  17947  17950  17951  17952     1  180.0000771  1.0460000  2
  17947  17950  17951  17952     1  0.0000000  0.7531200  3
  17947  17950  17951  17957     1  0.0000000  0.6508444  3
  17950  17947  17946  17960     1  180.0000771  0.8368000  1
  17950  17947  17946  17960     1  180.0000771  1.0460000  2
  17950  17947  17946  17960     1  0.0000000  0.7531200  3
  17950  17947  17946  17968     1  0.0000000  0.6508444  3
  17950  17951  17952  17956     1  0.0000000  0.6508444  3
  17950  17951  17952  17968     1  0.0000000  0.6508444  3
  17951  17950  17947  17959     1  0.0000000  0.6508444  3
  17952  17951  17950  17958     1  0.0000000  0.6508444  3
  17952  17968  17946  17960     1  180.0000771  0.4184000  2
  17952  17968  17946  17960     1  0.0000000  1.6024720  3
  17956  17952  17951  17957     1  0.0000000  4.9162000  2
  17956  17952  17951  17957     1  0.0000000  0.6024960  3
  17957  17951  17950  17958     1  0.0000000  4.9162000  2
  17957  17951  17950  17958     1  0.0000000  0.6024960  3
  17957  17951  17952  17968     1  0.0000000  4.9162000  2
  17957  17951  17952  17968     1  0.0000000  0.6024960  3
  17958  17950  17947  17959     1  0.0000000  4.9162000  2
  17958  17950  17947  17959     1  0.0000000  0.6024960  3
  17959  17947  17946  17960     1  0.0000000  0.6508444  3
  17959  17947  17946  17968     1  0.0000000  4.9162000  2
  17959  17947  17946  17968     1  0.0000000  0.6024960  3
  17966  17960  17946  17968     1  0.0000000  4.9162000  2
  17966  17960  17946  17968     1  0.0000000  0.6024960  3
  17969  17970  17973  17974     1  180.0000771  0.8368000  1
  17969  17970  17973  17974     1  180.0000771  1.0460000  2
  17969  17970  17973  17974     1  0.0000000  0.7531200  3
  17969  17970  17973  17981     1  0.0000000  0.6508444  3
  17969  17991  17975  17979     1  180.0000771  5.6484000  1
  17969  17991  17975  17979     1  180.0000771  3.5564000  2
  17969  17991  17975  17979     1  0.0000000  0.4184000  3
  17969  17991  17975  17974     1  180.0000771  0.4184000  2
  17969  17991  17975  17974     1  0.0000000  1.6024720  3
  17970  17973  17974  17975     1  180.0000771  0.8368000  1
  17970  17973  17974  17975     1  180.0000771  1.0460000  2
  17970  17973  17974  17975     1  0.0000000  0.7531200  3
  17970  17973  17974  17980     1  0.0000000  0.6508444  3
  17970  17969  17983  17989     1  0.0000000  0.6508444  3
  17970  17969  17991  17975     1  180.0000771  0.4184000  2
  17970  17969  17991  17975     1  0.0000000  1.6024720  3
  17973  17974  17975  17979     1  0.0000000  0.6508444  3
  17973  17974  17975  17991     1  0.0000000  0.6508444  3
  17973  17970  17969  17983     1  180.0000771  0.8368000  1
  17973  17970  17969  17983     1  180.0000771  1.0460000  2
  17973  17970  17969  17983     1  0.0000000  0.7531200  3
  17973  17970  17969  17991     1  0.0000000  0.6508444  3
  17974  17973  17970  17982     1  0.0000000  0.6508444  3
  17975  17991  17969  17983     1  180.0000771  0.4184000  2
  17975  17991  17969  17983     1  0.0000000  1.6024720  3
  17975  17974  17973  17981     1  0.0000000  0.6508444  3
  17979  17975  17974  17980     1  0.0000000  4.9162000  2
  17979  17975  17974  17980     1  0.0000000  0.6024960  3
  17980  17974  17975  17991     1  0.0000000  4.9162000  2
  17980  17974  17975  17991     1  0.0000000  0.6024960  3
  17980  17974  17973  17981     1  0.0000000  4.9162000  2
  17980  17974  17973  17981     1  0.0000000  0.6024960  3
  17981  17973  17970  17982     1  0.0000000  4.9162000  2
  17981  17973  17970  17982     1  0.0000000  0.6024960  3
  17982  17970  17969  17983     1  0.0000000  0.6508444  3
  17982  17970  17969  17991     1  0.0000000  4.9162000  2
  17982  17970  17969  17991     1  0.0000000  0.6024960  3
  17989  17983  17969  17991     1  0.0000000  4.9162000  2
  17989  17983  17969  17991     1  0.0000000  0.6024960  3
  17992  17993  17996  17997     1  180.0000771  0.8368000  1
  17992  17993  17996  17997     1  180.0000771  1.0460000  2
  17992  17993  17996  17997     1  0.0000000  0.7531200  3
  17992  17993  17996  18004     1  0.0000000  0.6508444  3
  17992  18014  17998  17997     1  180.0000771  0.4184000  2
  17992  18014  17998  17997     1  0.0000000  1.6024720  3
  17992  18014  17998  18002     1  180.0000771  5.6484000  1
  17992  18014  17998  18002     1  180.0000771  3.5564000  2
  17992  18014  17998  18002     1  0.0000000  0.4184000  3
  17993  17992  18006  18012     1  0.0000000  0.6508444  3
  17993  17992  18014  17998     1  180.0000771  0.4184000  2
  17993  17992  18014  17998     1  0.0000000  1.6024720  3
  17993  17996  17997  17998     1  180.0000771  0.8368000  1
  17993  17996  17997  17998     1  180.0000771  1.0460000  2
  17993  17996  17997  17998     1  0.0000000  0.7531200  3
  17993  17996  17997  18003     1  0.0000000  0.6508444  3
  17996  17993  17992  18006     1  180.0000771  0.8368000  1
  17996  17993  17992  18006     1  180.0000771  1.0460000  2
  17996  17993  17992  18006     1  0.0000000  0.7531200  3
  17996  17993  17992  18014     1  0.0000000  0.6508444  3
  17996  17997  17998  18002     1  0.0000000  0.6508444  3
  17996  17997  17998  18014     1  0.0000000  0.6508444  3
  17997  17996  17993  18005     1  0.0000000  0.6508444  3
  17998  17997  17996  18004     1  0.0000000  0.6508444  3
  17998  18014  17992  18006     1  180.0000771  0.4184000  2
  17998  18014  17992  18006     1  0.0000000  1.6024720  3
  18002  17998  17997  18003     1  0.0000000  4.9162000  2
  18002  17998  17997  18003     1  0.0000000  0.6024960  3
  18003  17997  17996  18004     1  0.0000000  4.9162000  2
  18003  17997  17996  18004     1  0.0000000  0.6024960  3
  18003  17997  17998  18014     1  0.0000000  4.9162000  2
  18003  17997  17998  18014     1  0.0000000  0.6024960  3
  18004  17996  17993  18005     1  0.0000000  4.9162000  2
  18004  17996  17993  18005     1  0.0000000  0.6024960  3
  18005  17993  17992  18006     1  0.0000000  0.6508444  3
  18005  17993  17992  18014     1  0.0000000  4.9162000  2
  18005  17993  17992  18014     1  0.0000000  0.6024960  3
  18012  18006  17992  18014     1  0.0000000  4.9162000  2
  18012  18006  17992  18014     1  0.0000000  0.6024960  3
  18015  18016  18019  18020     1  180.0000771  0.8368000  1
  18015  18016  18019  18020     1  180.0000771  1.0460000  2
  18015  18016  18019  18020     1  0.0000000  0.7531200  3
  18015  18016  18019  18027     1  0.0000000  0.6508444  3
  18015  18037  18021  18025     1  180.0000771  5.6484000  1
  18015  18037  18021  18025     1  180.0000771  3.5564000  2
  18015  18037  18021  18025     1  0.0000000  0.4184000  3
  18015  18037  18021  18020     1  180.0000771  0.4184000  2
  18015  18037  18021  18020     1  0.0000000  1.6024720  3
  18016  18019  18020  18021     1  180.0000771  0.8368000  1
  18016  18019  18020  18021     1  180.0000771  1.0460000  2
  18016  18019  18020  18021     1  0.0000000  0.7531200  3
  18016  18019  18020  18026     1  0.0000000  0.6508444  3
  18016  18015  18029  18035     1  0.0000000  0.6508444  3
  18016  18015  18037  18021     1  180.0000771  0.4184000  2
  18016  18015  18037  18021     1  0.0000000  1.6024720  3
  18019  18020  18021  18025     1  0.0000000  0.6508444  3
  18019  18020  18021  18037     1  0.0000000  0.6508444  3
  18019  18016  18015  18029     1  180.0000771  0.8368000  1
  18019  18016  18015  18029     1  180.0000771  1.0460000  2
  18019  18016  18015  18029     1  0.0000000  0.7531200  3
  18019  18016  18015  18037     1  0.0000000  0.6508444  3
  18020  18019  18016  18028     1  0.0000000  0.6508444  3
  18021  18037  18015  18029     1  180.0000771  0.4184000  2
  18021  18037  18015  18029     1  0.0000000  1.6024720  3
  18021  18020  18019  18027     1  0.0000000  0.6508444  3
  18025  18021  18020  18026     1  0.0000000  4.9162000  2
  18025  18021  18020  18026     1  0.0000000  0.6024960  3
  18026  18020  18021  18037     1  0.0000000  4.9162000  2
  18026  18020  18021  18037     1  0.0000000  0.6024960  3
  18026  18020  18019  18027     1  0.0000000  4.9162000  2
  18026  18020  18019  18027     1  0.0000000  0.6024960  3
  18027  18019  18016  18028     1  0.0000000  4.9162000  2
  18027  18019  18016  18028     1  0.0000000  0.6024960  3
  18028  18016  18015  18029     1  0.0000000  0.6508444  3
  18028  18016  18015  18037     1  0.0000000  4.9162000  2
  18028  18016  18015  18037     1  0.0000000  0.6024960  3
  18035  18029  18015  18037     1  0.0000000  4.9162000  2
  18035  18029  18015  18037     1  0.0000000  0.6024960  3
  18038  18039  18042  18043     1  180.0000771  0.8368000  1
  18038  18039  18042  18043     1  180.0000771  1.0460000  2
  18038  18039  18042  18043     1  0.0000000  0.7531200  3
  18038  18039  18042  18050     1  0.0000000  0.6508444  3
  18038  18060  18044  18043     1  180.0000771  0.4184000  2
  18038  18060  18044  18043     1  0.0000000  1.6024720  3
  18038  18060  18044  18048     1  180.0000771  5.6484000  1
  18038  18060  18044  18048     1  180.0000771  3.5564000  2
  18038  18060  18044  18048     1  0.0000000  0.4184000  3
  18039  18038  18052  18058     1  0.0000000  0.6508444  3
  18039  18038  18060  18044     1  180.0000771  0.4184000  2
  18039  18038  18060  18044     1  0.0000000  1.6024720  3
  18039  18042  18043  18044     1  180.0000771  0.8368000  1
  18039  18042  18043  18044     1  180.0000771  1.0460000  2
  18039  18042  18043  18044     1  0.0000000  0.7531200  3
  18039  18042  18043  18049     1  0.0000000  0.6508444  3
  18042  18039  18038  18052     1  180.0000771  0.8368000  1
  18042  18039  18038  18052     1  180.0000771  1.0460000  2
  18042  18039  18038  18052     1  0.0000000  0.7531200  3
  18042  18039  18038  18060     1  0.0000000  0.6508444  3
  18042  18043  18044  18048     1  0.0000000  0.6508444  3
  18042  18043  18044  18060     1  0.0000000  0.6508444  3
  18043  18042  18039  18051     1  0.0000000  0.6508444  3
  18044  18043  18042  18050     1  0.0000000  0.6508444  3
  18044  18060  18038  18052     1  180.0000771  0.4184000  2
  18044  18060  18038  18052     1  0.0000000  1.6024720  3
  18048  18044  18043  18049     1  0.0000000  4.9162000  2
  18048  18044  18043  18049     1  0.0000000  0.6024960  3
  18049  18043  18042  18050     1  0.0000000  4.9162000  2
  18049  18043  18042  18050     1  0.0000000  0.6024960  3
  18049  18043  18044  18060     1  0.0000000  4.9162000  2
  18049  18043  18044  18060     1  0.0000000  0.6024960  3
  18050  18042  18039  18051     1  0.0000000  4.9162000  2
  18050  18042  18039  18051     1  0.0000000  0.6024960  3
  18051  18039  18038  18052     1  0.0000000  0.6508444  3
  18051  18039  18038  18060     1  0.0000000  4.9162000  2
  18051  18039  18038  18060     1  0.0000000  0.6024960  3
  18058  18052  18038  18060     1  0.0000000  4.9162000  2
  18058  18052  18038  18060     1  0.0000000  0.6024960  3
  18061  18062  18065  18066     1  180.0000771  0.8368000  1
  18061  18062  18065  18066     1  180.0000771  1.0460000  2
  18061  18062  18065  18066     1  0.0000000  0.7531200  3
  18061  18062  18065  18073     1  0.0000000  0.6508444  3
  18061  18083  18067  18071     1  180.0000771  5.6484000  1
  18061  18083  18067  18071     1  180.0000771  3.5564000  2
  18061  18083  18067  18071     1  0.0000000  0.4184000  3
  18061  18083  18067  18066     1  180.0000771  0.4184000  2
  18061  18083  18067  18066     1  0.0000000  1.6024720  3
  18062  18065  18066  18067     1  180.0000771  0.8368000  1
  18062  18065  18066  18067     1  180.0000771  1.0460000  2
  18062  18065  18066  18067     1  0.0000000  0.7531200  3
  18062  18065  18066  18072     1  0.0000000  0.6508444  3
  18062  18061  18075  18081     1  0.0000000  0.6508444  3
  18062  18061  18083  18067     1  180.0000771  0.4184000  2
  18062  18061  18083  18067     1  0.0000000  1.6024720  3
  18065  18066  18067  18071     1  0.0000000  0.6508444  3
  18065  18066  18067  18083     1  0.0000000  0.6508444  3
  18065  18062  18061  18075     1  180.0000771  0.8368000  1
  18065  18062  18061  18075     1  180.0000771  1.0460000  2
  18065  18062  18061  18075     1  0.0000000  0.7531200  3
  18065  18062  18061  18083     1  0.0000000  0.6508444  3
  18066  18065  18062  18074     1  0.0000000  0.6508444  3
  18067  18083  18061  18075     1  180.0000771  0.4184000  2
  18067  18083  18061  18075     1  0.0000000  1.6024720  3
  18067  18066  18065  18073     1  0.0000000  0.6508444  3
  18071  18067  18066  18072     1  0.0000000  4.9162000  2
  18071  18067  18066  18072     1  0.0000000  0.6024960  3
  18072  18066  18067  18083     1  0.0000000  4.9162000  2
  18072  18066  18067  18083     1  0.0000000  0.6024960  3
  18072  18066  18065  18073     1  0.0000000  4.9162000  2
  18072  18066  18065  18073     1  0.0000000  0.6024960  3
  18073  18065  18062  18074     1  0.0000000  4.9162000  2
  18073  18065  18062  18074     1  0.0000000  0.6024960  3
  18074  18062  18061  18075     1  0.0000000  0.6508444  3
  18074  18062  18061  18083     1  0.0000000  4.9162000  2
  18074  18062  18061  18083     1  0.0000000  0.6024960  3
  18081  18075  18061  18083     1  0.0000000  4.9162000  2
  18081  18075  18061  18083     1  0.0000000  0.6024960  3
  18084  18085  18088  18089     1  180.0000771  0.8368000  1
  18084  18085  18088  18089     1  180.0000771  1.0460000  2
  18084  18085  18088  18089     1  0.0000000  0.7531200  3
  18084  18085  18088  18096     1  0.0000000  0.6508444  3
  18084  18106  18090  18089     1  180.0000771  0.4184000  2
  18084  18106  18090  18089     1  0.0000000  1.6024720  3
  18084  18106  18090  18094     1  180.0000771  5.6484000  1
  18084  18106  18090  18094     1  180.0000771  3.5564000  2
  18084  18106  18090  18094     1  0.0000000  0.4184000  3
  18085  18084  18098  18104     1  0.0000000  0.6508444  3
  18085  18084  18106  18090     1  180.0000771  0.4184000  2
  18085  18084  18106  18090     1  0.0000000  1.6024720  3
  18085  18088  18089  18090     1  180.0000771  0.8368000  1
  18085  18088  18089  18090     1  180.0000771  1.0460000  2
  18085  18088  18089  18090     1  0.0000000  0.7531200  3
  18085  18088  18089  18095     1  0.0000000  0.6508444  3
  18088  18085  18084  18098     1  180.0000771  0.8368000  1
  18088  18085  18084  18098     1  180.0000771  1.0460000  2
  18088  18085  18084  18098     1  0.0000000  0.7531200  3
  18088  18085  18084  18106     1  0.0000000  0.6508444  3
  18088  18089  18090  18094     1  0.0000000  0.6508444  3
  18088  18089  18090  18106     1  0.0000000  0.6508444  3
  18089  18088  18085  18097     1  0.0000000  0.6508444  3
  18090  18089  18088  18096     1  0.0000000  0.6508444  3
  18090  18106  18084  18098     1  180.0000771  0.4184000  2
  18090  18106  18084  18098     1  0.0000000  1.6024720  3
  18094  18090  18089  18095     1  0.0000000  4.9162000  2
  18094  18090  18089  18095     1  0.0000000  0.6024960  3
  18095  18089  18088  18096     1  0.0000000  4.9162000  2
  18095  18089  18088  18096     1  0.0000000  0.6024960  3
  18095  18089  18090  18106     1  0.0000000  4.9162000  2
  18095  18089  18090  18106     1  0.0000000  0.6024960  3
  18096  18088  18085  18097     1  0.0000000  4.9162000  2
  18096  18088  18085  18097     1  0.0000000  0.6024960  3
  18097  18085  18084  18098     1  0.0000000  0.6508444  3
  18097  18085  18084  18106     1  0.0000000  4.9162000  2
  18097  18085  18084  18106     1  0.0000000  0.6024960  3
  18104  18098  18084  18106     1  0.0000000  4.9162000  2
  18104  18098  18084  18106     1  0.0000000  0.6024960  3
  18107  18108  18111  18112     1  180.0000771  0.8368000  1
  18107  18108  18111  18112     1  180.0000771  1.0460000  2
  18107  18108  18111  18112     1  0.0000000  0.7531200  3
  18107  18108  18111  18119     1  0.0000000  0.6508444  3
  18107  18129  18113  18117     1  180.0000771  5.6484000  1
  18107  18129  18113  18117     1  180.0000771  3.5564000  2
  18107  18129  18113  18117     1  0.0000000  0.4184000  3
  18107  18129  18113  18112     1  180.0000771  0.4184000  2
  18107  18129  18113  18112     1  0.0000000  1.6024720  3
  18108  18111  18112  18113     1  180.0000771  0.8368000  1
  18108  18111  18112  18113     1  180.0000771  1.0460000  2
  18108  18111  18112  18113     1  0.0000000  0.7531200  3
  18108  18111  18112  18118     1  0.0000000  0.6508444  3
  18108  18107  18121  18127     1  0.0000000  0.6508444  3
  18108  18107  18129  18113     1  180.0000771  0.4184000  2
  18108  18107  18129  18113     1  0.0000000  1.6024720  3
  18111  18112  18113  18117     1  0.0000000  0.6508444  3
  18111  18112  18113  18129     1  0.0000000  0.6508444  3
  18111  18108  18107  18121     1  180.0000771  0.8368000  1
  18111  18108  18107  18121     1  180.0000771  1.0460000  2
  18111  18108  18107  18121     1  0.0000000  0.7531200  3
  18111  18108  18107  18129     1  0.0000000  0.6508444  3
  18112  18111  18108  18120     1  0.0000000  0.6508444  3
  18113  18129  18107  18121     1  180.0000771  0.4184000  2
  18113  18129  18107  18121     1  0.0000000  1.6024720  3
  18113  18112  18111  18119     1  0.0000000  0.6508444  3
  18117  18113  18112  18118     1  0.0000000  4.9162000  2
  18117  18113  18112  18118     1  0.0000000  0.6024960  3
  18118  18112  18113  18129     1  0.0000000  4.9162000  2
  18118  18112  18113  18129     1  0.0000000  0.6024960  3
  18118  18112  18111  18119     1  0.0000000  4.9162000  2
  18118  18112  18111  18119     1  0.0000000  0.6024960  3
  18119  18111  18108  18120     1  0.0000000  4.9162000  2
  18119  18111  18108  18120     1  0.0000000  0.6024960  3
  18120  18108  18107  18121     1  0.0000000  0.6508444  3
  18120  18108  18107  18129     1  0.0000000  4.9162000  2
  18120  18108  18107  18129     1  0.0000000  0.6024960  3
  18127  18121  18107  18129     1  0.0000000  4.9162000  2
  18127  18121  18107  18129     1  0.0000000  0.6024960  3
  18130  18131  18134  18135     1  180.0000771  0.8368000  1
  18130  18131  18134  18135     1  180.0000771  1.0460000  2
  18130  18131  18134  18135     1  0.0000000  0.7531200  3
  18130  18131  18134  18142     1  0.0000000  0.6508444  3
  18130  18152  18136  18135     1  180.0000771  0.4184000  2
  18130  18152  18136  18135     1  0.0000000  1.6024720  3
  18130  18152  18136  18140     1  180.0000771  5.6484000  1
  18130  18152  18136  18140     1  180.0000771  3.5564000  2
  18130  18152  18136  18140     1  0.0000000  0.4184000  3
  18131  18130  18144  18150     1  0.0000000  0.6508444  3
  18131  18130  18152  18136     1  180.0000771  0.4184000  2
  18131  18130  18152  18136     1  0.0000000  1.6024720  3
  18131  18134  18135  18136     1  180.0000771  0.8368000  1
  18131  18134  18135  18136     1  180.0000771  1.0460000  2
  18131  18134  18135  18136     1  0.0000000  0.7531200  3
  18131  18134  18135  18141     1  0.0000000  0.6508444  3
  18134  18131  18130  18144     1  180.0000771  0.8368000  1
  18134  18131  18130  18144     1  180.0000771  1.0460000  2
  18134  18131  18130  18144     1  0.0000000  0.7531200  3
  18134  18131  18130  18152     1  0.0000000  0.6508444  3
  18134  18135  18136  18140     1  0.0000000  0.6508444  3
  18134  18135  18136  18152     1  0.0000000  0.6508444  3
  18135  18134  18131  18143     1  0.0000000  0.6508444  3
  18136  18135  18134  18142     1  0.0000000  0.6508444  3
  18136  18152  18130  18144     1  180.0000771  0.4184000  2
  18136  18152  18130  18144     1  0.0000000  1.6024720  3
  18140  18136  18135  18141     1  0.0000000  4.9162000  2
  18140  18136  18135  18141     1  0.0000000  0.6024960  3
  18141  18135  18134  18142     1  0.0000000  4.9162000  2
  18141  18135  18134  18142     1  0.0000000  0.6024960  3
  18141  18135  18136  18152     1  0.0000000  4.9162000  2
  18141  18135  18136  18152     1  0.0000000  0.6024960  3
  18142  18134  18131  18143     1  0.0000000  4.9162000  2
  18142  18134  18131  18143     1  0.0000000  0.6024960  3
  18143  18131  18130  18144     1  0.0000000  0.6508444  3
  18143  18131  18130  18152     1  0.0000000  4.9162000  2
  18143  18131  18130  18152     1  0.0000000  0.6024960  3
  18150  18144  18130  18152     1  0.0000000  4.9162000  2
  18150  18144  18130  18152     1  0.0000000  0.6024960  3
  18153  18154  18157  18158     1  180.0000771  0.8368000  1
  18153  18154  18157  18158     1  180.0000771  1.0460000  2
  18153  18154  18157  18158     1  0.0000000  0.7531200  3
  18153  18154  18157  18165     1  0.0000000  0.6508444  3
  18153  18175  18159  18163     1  180.0000771  5.6484000  1
  18153  18175  18159  18163     1  180.0000771  3.5564000  2
  18153  18175  18159  18163     1  0.0000000  0.4184000  3
  18153  18175  18159  18158     1  180.0000771  0.4184000  2
  18153  18175  18159  18158     1  0.0000000  1.6024720  3
  18154  18157  18158  18159     1  180.0000771  0.8368000  1
  18154  18157  18158  18159     1  180.0000771  1.0460000  2
  18154  18157  18158  18159     1  0.0000000  0.7531200  3
  18154  18157  18158  18164     1  0.0000000  0.6508444  3
  18154  18153  18167  18173     1  0.0000000  0.6508444  3
  18154  18153  18175  18159     1  180.0000771  0.4184000  2
  18154  18153  18175  18159     1  0.0000000  1.6024720  3
  18157  18158  18159  18163     1  0.0000000  0.6508444  3
  18157  18158  18159  18175     1  0.0000000  0.6508444  3
  18157  18154  18153  18167     1  180.0000771  0.8368000  1
  18157  18154  18153  18167     1  180.0000771  1.0460000  2
  18157  18154  18153  18167     1  0.0000000  0.7531200  3
  18157  18154  18153  18175     1  0.0000000  0.6508444  3
  18158  18157  18154  18166     1  0.0000000  0.6508444  3
  18159  18175  18153  18167     1  180.0000771  0.4184000  2
  18159  18175  18153  18167     1  0.0000000  1.6024720  3
  18159  18158  18157  18165     1  0.0000000  0.6508444  3
  18163  18159  18158  18164     1  0.0000000  4.9162000  2
  18163  18159  18158  18164     1  0.0000000  0.6024960  3
  18164  18158  18159  18175     1  0.0000000  4.9162000  2
  18164  18158  18159  18175     1  0.0000000  0.6024960  3
  18164  18158  18157  18165     1  0.0000000  4.9162000  2
  18164  18158  18157  18165     1  0.0000000  0.6024960  3
  18165  18157  18154  18166     1  0.0000000  4.9162000  2
  18165  18157  18154  18166     1  0.0000000  0.6024960  3
  18166  18154  18153  18167     1  0.0000000  0.6508444  3
  18166  18154  18153  18175     1  0.0000000  4.9162000  2
  18166  18154  18153  18175     1  0.0000000  0.6024960  3
  18173  18167  18153  18175     1  0.0000000  4.9162000  2
  18173  18167  18153  18175     1  0.0000000  0.6024960  3
  18176  18177  18180  18181     1  180.0000771  0.8368000  1
  18176  18177  18180  18181     1  180.0000771  1.0460000  2
  18176  18177  18180  18181     1  0.0000000  0.7531200  3
  18176  18177  18180  18188     1  0.0000000  0.6508444  3
  18176  18198  18182  18181     1  180.0000771  0.4184000  2
  18176  18198  18182  18181     1  0.0000000  1.6024720  3
  18176  18198  18182  18186     1  180.0000771  5.6484000  1
  18176  18198  18182  18186     1  180.0000771  3.5564000  2
  18176  18198  18182  18186     1  0.0000000  0.4184000  3
  18177  18176  18190  18196     1  0.0000000  0.6508444  3
  18177  18176  18198  18182     1  180.0000771  0.4184000  2
  18177  18176  18198  18182     1  0.0000000  1.6024720  3
  18177  18180  18181  18182     1  180.0000771  0.8368000  1
  18177  18180  18181  18182     1  180.0000771  1.0460000  2
  18177  18180  18181  18182     1  0.0000000  0.7531200  3
  18177  18180  18181  18187     1  0.0000000  0.6508444  3
  18180  18177  18176  18190     1  180.0000771  0.8368000  1
  18180  18177  18176  18190     1  180.0000771  1.0460000  2
  18180  18177  18176  18190     1  0.0000000  0.7531200  3
  18180  18177  18176  18198     1  0.0000000  0.6508444  3
  18180  18181  18182  18186     1  0.0000000  0.6508444  3
  18180  18181  18182  18198     1  0.0000000  0.6508444  3
  18181  18180  18177  18189     1  0.0000000  0.6508444  3
  18182  18181  18180  18188     1  0.0000000  0.6508444  3
  18182  18198  18176  18190     1  180.0000771  0.4184000  2
  18182  18198  18176  18190     1  0.0000000  1.6024720  3
  18186  18182  18181  18187     1  0.0000000  4.9162000  2
  18186  18182  18181  18187     1  0.0000000  0.6024960  3
  18187  18181  18180  18188     1  0.0000000  4.9162000  2
  18187  18181  18180  18188     1  0.0000000  0.6024960  3
  18187  18181  18182  18198     1  0.0000000  4.9162000  2
  18187  18181  18182  18198     1  0.0000000  0.6024960  3
  18188  18180  18177  18189     1  0.0000000  4.9162000  2
  18188  18180  18177  18189     1  0.0000000  0.6024960  3
  18189  18177  18176  18190     1  0.0000000  0.6508444  3
  18189  18177  18176  18198     1  0.0000000  4.9162000  2
  18189  18177  18176  18198     1  0.0000000  0.6024960  3
  18196  18190  18176  18198     1  0.0000000  4.9162000  2
  18196  18190  18176  18198     1  0.0000000  0.6024960  3
  18199  18200  18203  18204     1  180.0000771  0.8368000  1
  18199  18200  18203  18204     1  180.0000771  1.0460000  2
  18199  18200  18203  18204     1  0.0000000  0.7531200  3
  18199  18200  18203  18211     1  0.0000000  0.6508444  3
  18199  18221  18205  18209     1  180.0000771  5.6484000  1
  18199  18221  18205  18209     1  180.0000771  3.5564000  2
  18199  18221  18205  18209     1  0.0000000  0.4184000  3
  18199  18221  18205  18204     1  180.0000771  0.4184000  2
  18199  18221  18205  18204     1  0.0000000  1.6024720  3
  18200  18203  18204  18205     1  180.0000771  0.8368000  1
  18200  18203  18204  18205     1  180.0000771  1.0460000  2
  18200  18203  18204  18205     1  0.0000000  0.7531200  3
  18200  18203  18204  18210     1  0.0000000  0.6508444  3
  18200  18199  18213  18219     1  0.0000000  0.6508444  3
  18200  18199  18221  18205     1  180.0000771  0.4184000  2
  18200  18199  18221  18205     1  0.0000000  1.6024720  3
  18203  18204  18205  18209     1  0.0000000  0.6508444  3
  18203  18204  18205  18221     1  0.0000000  0.6508444  3
  18203  18200  18199  18213     1  180.0000771  0.8368000  1
  18203  18200  18199  18213     1  180.0000771  1.0460000  2
  18203  18200  18199  18213     1  0.0000000  0.7531200  3
  18203  18200  18199  18221     1  0.0000000  0.6508444  3
  18204  18203  18200  18212     1  0.0000000  0.6508444  3
  18205  18221  18199  18213     1  180.0000771  0.4184000  2
  18205  18221  18199  18213     1  0.0000000  1.6024720  3
  18205  18204  18203  18211     1  0.0000000  0.6508444  3
  18209  18205  18204  18210     1  0.0000000  4.9162000  2
  18209  18205  18204  18210     1  0.0000000  0.6024960  3
  18210  18204  18205  18221     1  0.0000000  4.9162000  2
  18210  18204  18205  18221     1  0.0000000  0.6024960  3
  18210  18204  18203  18211     1  0.0000000  4.9162000  2
  18210  18204  18203  18211     1  0.0000000  0.6024960  3
  18211  18203  18200  18212     1  0.0000000  4.9162000  2
  18211  18203  18200  18212     1  0.0000000  0.6024960  3
  18212  18200  18199  18213     1  0.0000000  0.6508444  3
  18212  18200  18199  18221     1  0.0000000  4.9162000  2
  18212  18200  18199  18221     1  0.0000000  0.6024960  3
  18219  18213  18199  18221     1  0.0000000  4.9162000  2
  18219  18213  18199  18221     1  0.0000000  0.6024960  3
  18222  18223  18226  18227     1  180.0000771  0.8368000  1
  18222  18223  18226  18227     1  180.0000771  1.0460000  2
  18222  18223  18226  18227     1  0.0000000  0.7531200  3
  18222  18223  18226  18234     1  0.0000000  0.6508444  3
  18222  18244  18228  18227     1  180.0000771  0.4184000  2
  18222  18244  18228  18227     1  0.0000000  1.6024720  3
  18222  18244  18228  18232     1  180.0000771  5.6484000  1
  18222  18244  18228  18232     1  180.0000771  3.5564000  2
  18222  18244  18228  18232     1  0.0000000  0.4184000  3
  18223  18222  18236  18242     1  0.0000000  0.6508444  3
  18223  18222  18244  18228     1  180.0000771  0.4184000  2
  18223  18222  18244  18228     1  0.0000000  1.6024720  3
  18223  18226  18227  18228     1  180.0000771  0.8368000  1
  18223  18226  18227  18228     1  180.0000771  1.0460000  2
  18223  18226  18227  18228     1  0.0000000  0.7531200  3
  18223  18226  18227  18233     1  0.0000000  0.6508444  3
  18226  18223  18222  18236     1  180.0000771  0.8368000  1
  18226  18223  18222  18236     1  180.0000771  1.0460000  2
  18226  18223  18222  18236     1  0.0000000  0.7531200  3
  18226  18223  18222  18244     1  0.0000000  0.6508444  3
  18226  18227  18228  18232     1  0.0000000  0.6508444  3
  18226  18227  18228  18244     1  0.0000000  0.6508444  3
  18227  18226  18223  18235     1  0.0000000  0.6508444  3
  18228  18227  18226  18234     1  0.0000000  0.6508444  3
  18228  18244  18222  18236     1  180.0000771  0.4184000  2
  18228  18244  18222  18236     1  0.0000000  1.6024720  3
  18232  18228  18227  18233     1  0.0000000  4.9162000  2
  18232  18228  18227  18233     1  0.0000000  0.6024960  3
  18233  18227  18226  18234     1  0.0000000  4.9162000  2
  18233  18227  18226  18234     1  0.0000000  0.6024960  3
  18233  18227  18228  18244     1  0.0000000  4.9162000  2
  18233  18227  18228  18244     1  0.0000000  0.6024960  3
  18234  18226  18223  18235     1  0.0000000  4.9162000  2
  18234  18226  18223  18235     1  0.0000000  0.6024960  3
  18235  18223  18222  18236     1  0.0000000  0.6508444  3
  18235  18223  18222  18244     1  0.0000000  4.9162000  2
  18235  18223  18222  18244     1  0.0000000  0.6024960  3
  18242  18236  18222  18244     1  0.0000000  4.9162000  2
  18242  18236  18222  18244     1  0.0000000  0.6024960  3
  18245  18246  18249  18250     1  180.0000771  0.8368000  1
  18245  18246  18249  18250     1  180.0000771  1.0460000  2
  18245  18246  18249  18250     1  0.0000000  0.7531200  3
  18245  18246  18249  18257     1  0.0000000  0.6508444  3
  18245  18267  18251  18255     1  180.0000771  5.6484000  1
  18245  18267  18251  18255     1  180.0000771  3.5564000  2
  18245  18267  18251  18255     1  0.0000000  0.4184000  3
  18245  18267  18251  18250     1  180.0000771  0.4184000  2
  18245  18267  18251  18250     1  0.0000000  1.6024720  3
  18246  18249  18250  18251     1  180.0000771  0.8368000  1
  18246  18249  18250  18251     1  180.0000771  1.0460000  2
  18246  18249  18250  18251     1  0.0000000  0.7531200  3
  18246  18249  18250  18256     1  0.0000000  0.6508444  3
  18246  18245  18259  18265     1  0.0000000  0.6508444  3
  18246  18245  18267  18251     1  180.0000771  0.4184000  2
  18246  18245  18267  18251     1  0.0000000  1.6024720  3
  18249  18250  18251  18255     1  0.0000000  0.6508444  3
  18249  18250  18251  18267     1  0.0000000  0.6508444  3
  18249  18246  18245  18259     1  180.0000771  0.8368000  1
  18249  18246  18245  18259     1  180.0000771  1.0460000  2
  18249  18246  18245  18259     1  0.0000000  0.7531200  3
  18249  18246  18245  18267     1  0.0000000  0.6508444  3
  18250  18249  18246  18258     1  0.0000000  0.6508444  3
  18251  18267  18245  18259     1  180.0000771  0.4184000  2
  18251  18267  18245  18259     1  0.0000000  1.6024720  3
  18251  18250  18249  18257     1  0.0000000  0.6508444  3
  18255  18251  18250  18256     1  0.0000000  4.9162000  2
  18255  18251  18250  18256     1  0.0000000  0.6024960  3
  18256  18250  18251  18267     1  0.0000000  4.9162000  2
  18256  18250  18251  18267     1  0.0000000  0.6024960  3
  18256  18250  18249  18257     1  0.0000000  4.9162000  2
  18256  18250  18249  18257     1  0.0000000  0.6024960  3
  18257  18249  18246  18258     1  0.0000000  4.9162000  2
  18257  18249  18246  18258     1  0.0000000  0.6024960  3
  18258  18246  18245  18259     1  0.0000000  0.6508444  3
  18258  18246  18245  18267     1  0.0000000  4.9162000  2
  18258  18246  18245  18267     1  0.0000000  0.6024960  3
  18265  18259  18245  18267     1  0.0000000  4.9162000  2
  18265  18259  18245  18267     1  0.0000000  0.6024960  3
  18268  18269  18272  18273     1  180.0000771  0.8368000  1
  18268  18269  18272  18273     1  180.0000771  1.0460000  2
  18268  18269  18272  18273     1  0.0000000  0.7531200  3
  18268  18269  18272  18280     1  0.0000000  0.6508444  3
  18268  18290  18274  18273     1  180.0000771  0.4184000  2
  18268  18290  18274  18273     1  0.0000000  1.6024720  3
  18268  18290  18274  18278     1  180.0000771  5.6484000  1
  18268  18290  18274  18278     1  180.0000771  3.5564000  2
  18268  18290  18274  18278     1  0.0000000  0.4184000  3
  18269  18268  18282  18288     1  0.0000000  0.6508444  3
  18269  18268  18290  18274     1  180.0000771  0.4184000  2
  18269  18268  18290  18274     1  0.0000000  1.6024720  3
  18269  18272  18273  18274     1  180.0000771  0.8368000  1
  18269  18272  18273  18274     1  180.0000771  1.0460000  2
  18269  18272  18273  18274     1  0.0000000  0.7531200  3
  18269  18272  18273  18279     1  0.0000000  0.6508444  3
  18272  18269  18268  18282     1  180.0000771  0.8368000  1
  18272  18269  18268  18282     1  180.0000771  1.0460000  2
  18272  18269  18268  18282     1  0.0000000  0.7531200  3
  18272  18269  18268  18290     1  0.0000000  0.6508444  3
  18272  18273  18274  18278     1  0.0000000  0.6508444  3
  18272  18273  18274  18290     1  0.0000000  0.6508444  3
  18273  18272  18269  18281     1  0.0000000  0.6508444  3
  18274  18273  18272  18280     1  0.0000000  0.6508444  3
  18274  18290  18268  18282     1  180.0000771  0.4184000  2
  18274  18290  18268  18282     1  0.0000000  1.6024720  3
  18278  18274  18273  18279     1  0.0000000  4.9162000  2
  18278  18274  18273  18279     1  0.0000000  0.6024960  3
  18279  18273  18272  18280     1  0.0000000  4.9162000  2
  18279  18273  18272  18280     1  0.0000000  0.6024960  3
  18279  18273  18274  18290     1  0.0000000  4.9162000  2
  18279  18273  18274  18290     1  0.0000000  0.6024960  3
  18280  18272  18269  18281     1  0.0000000  4.9162000  2
  18280  18272  18269  18281     1  0.0000000  0.6024960  3
  18281  18269  18268  18282     1  0.0000000  0.6508444  3
  18281  18269  18268  18290     1  0.0000000  4.9162000  2
  18281  18269  18268  18290     1  0.0000000  0.6024960  3
  18288  18282  18268  18290     1  0.0000000  4.9162000  2
  18288  18282  18268  18290     1  0.0000000  0.6024960  3
  18291  18292  18295  18296     1  180.0000771  0.8368000  1
  18291  18292  18295  18296     1  180.0000771  1.0460000  2
  18291  18292  18295  18296     1  0.0000000  0.7531200  3
  18291  18292  18295  18303     1  0.0000000  0.6508444  3
  18291  18313  18297  18301     1  180.0000771  5.6484000  1
  18291  18313  18297  18301     1  180.0000771  3.5564000  2
  18291  18313  18297  18301     1  0.0000000  0.4184000  3
  18291  18313  18297  18296     1  180.0000771  0.4184000  2
  18291  18313  18297  18296     1  0.0000000  1.6024720  3
  18292  18295  18296  18297     1  180.0000771  0.8368000  1
  18292  18295  18296  18297     1  180.0000771  1.0460000  2
  18292  18295  18296  18297     1  0.0000000  0.7531200  3
  18292  18295  18296  18302     1  0.0000000  0.6508444  3
  18292  18291  18305  18311     1  0.0000000  0.6508444  3
  18292  18291  18313  18297     1  180.0000771  0.4184000  2
  18292  18291  18313  18297     1  0.0000000  1.6024720  3
  18295  18296  18297  18301     1  0.0000000  0.6508444  3
  18295  18296  18297  18313     1  0.0000000  0.6508444  3
  18295  18292  18291  18305     1  180.0000771  0.8368000  1
  18295  18292  18291  18305     1  180.0000771  1.0460000  2
  18295  18292  18291  18305     1  0.0000000  0.7531200  3
  18295  18292  18291  18313     1  0.0000000  0.6508444  3
  18296  18295  18292  18304     1  0.0000000  0.6508444  3
  18297  18313  18291  18305     1  180.0000771  0.4184000  2
  18297  18313  18291  18305     1  0.0000000  1.6024720  3
  18297  18296  18295  18303     1  0.0000000  0.6508444  3
  18301  18297  18296  18302     1  0.0000000  4.9162000  2
  18301  18297  18296  18302     1  0.0000000  0.6024960  3
  18302  18296  18297  18313     1  0.0000000  4.9162000  2
  18302  18296  18297  18313     1  0.0000000  0.6024960  3
  18302  18296  18295  18303     1  0.0000000  4.9162000  2
  18302  18296  18295  18303     1  0.0000000  0.6024960  3
  18303  18295  18292  18304     1  0.0000000  4.9162000  2
  18303  18295  18292  18304     1  0.0000000  0.6024960  3
  18304  18292  18291  18305     1  0.0000000  0.6508444  3
  18304  18292  18291  18313     1  0.0000000  4.9162000  2
  18304  18292  18291  18313     1  0.0000000  0.6024960  3
  18311  18305  18291  18313     1  0.0000000  4.9162000  2
  18311  18305  18291  18313     1  0.0000000  0.6024960  3
  18314  18315  18318  18319     1  180.0000771  0.8368000  1
  18314  18315  18318  18319     1  180.0000771  1.0460000  2
  18314  18315  18318  18319     1  0.0000000  0.7531200  3
  18314  18315  18318  18326     1  0.0000000  0.6508444  3
  18314  18336  18320  18319     1  180.0000771  0.4184000  2
  18314  18336  18320  18319     1  0.0000000  1.6024720  3
  18314  18336  18320  18324     1  180.0000771  5.6484000  1
  18314  18336  18320  18324     1  180.0000771  3.5564000  2
  18314  18336  18320  18324     1  0.0000000  0.4184000  3
  18315  18314  18328  18334     1  0.0000000  0.6508444  3
  18315  18314  18336  18320     1  180.0000771  0.4184000  2
  18315  18314  18336  18320     1  0.0000000  1.6024720  3
  18315  18318  18319  18320     1  180.0000771  0.8368000  1
  18315  18318  18319  18320     1  180.0000771  1.0460000  2
  18315  18318  18319  18320     1  0.0000000  0.7531200  3
  18315  18318  18319  18325     1  0.0000000  0.6508444  3
  18318  18315  18314  18328     1  180.0000771  0.8368000  1
  18318  18315  18314  18328     1  180.0000771  1.0460000  2
  18318  18315  18314  18328     1  0.0000000  0.7531200  3
  18318  18315  18314  18336     1  0.0000000  0.6508444  3
  18318  18319  18320  18324     1  0.0000000  0.6508444  3
  18318  18319  18320  18336     1  0.0000000  0.6508444  3
  18319  18318  18315  18327     1  0.0000000  0.6508444  3
  18320  18319  18318  18326     1  0.0000000  0.6508444  3
  18320  18336  18314  18328     1  180.0000771  0.4184000  2
  18320  18336  18314  18328     1  0.0000000  1.6024720  3
  18324  18320  18319  18325     1  0.0000000  4.9162000  2
  18324  18320  18319  18325     1  0.0000000  0.6024960  3
  18325  18319  18318  18326     1  0.0000000  4.9162000  2
  18325  18319  18318  18326     1  0.0000000  0.6024960  3
  18325  18319  18320  18336     1  0.0000000  4.9162000  2
  18325  18319  18320  18336     1  0.0000000  0.6024960  3
  18326  18318  18315  18327     1  0.0000000  4.9162000  2
  18326  18318  18315  18327     1  0.0000000  0.6024960  3
  18327  18315  18314  18328     1  0.0000000  0.6508444  3
  18327  18315  18314  18336     1  0.0000000  4.9162000  2
  18327  18315  18314  18336     1  0.0000000  0.6024960  3
  18334  18328  18314  18336     1  0.0000000  4.9162000  2
  18334  18328  18314  18336     1  0.0000000  0.6024960  3
  18337  18338  18341  18342     1  180.0000771  0.8368000  1
  18337  18338  18341  18342     1  180.0000771  1.0460000  2
  18337  18338  18341  18342     1  0.0000000  0.7531200  3
  18337  18338  18341  18349     1  0.0000000  0.6508444  3
  18337  18359  18343  18347     1  180.0000771  5.6484000  1
  18337  18359  18343  18347     1  180.0000771  3.5564000  2
  18337  18359  18343  18347     1  0.0000000  0.4184000  3
  18337  18359  18343  18342     1  180.0000771  0.4184000  2
  18337  18359  18343  18342     1  0.0000000  1.6024720  3
  18338  18341  18342  18343     1  180.0000771  0.8368000  1
  18338  18341  18342  18343     1  180.0000771  1.0460000  2
  18338  18341  18342  18343     1  0.0000000  0.7531200  3
  18338  18341  18342  18348     1  0.0000000  0.6508444  3
  18338  18337  18351  18357     1  0.0000000  0.6508444  3
  18338  18337  18359  18343     1  180.0000771  0.4184000  2
  18338  18337  18359  18343     1  0.0000000  1.6024720  3
  18341  18342  18343  18347     1  0.0000000  0.6508444  3
  18341  18342  18343  18359     1  0.0000000  0.6508444  3
  18341  18338  18337  18351     1  180.0000771  0.8368000  1
  18341  18338  18337  18351     1  180.0000771  1.0460000  2
  18341  18338  18337  18351     1  0.0000000  0.7531200  3
  18341  18338  18337  18359     1  0.0000000  0.6508444  3
  18342  18341  18338  18350     1  0.0000000  0.6508444  3
  18343  18359  18337  18351     1  180.0000771  0.4184000  2
  18343  18359  18337  18351     1  0.0000000  1.6024720  3
  18343  18342  18341  18349     1  0.0000000  0.6508444  3
  18347  18343  18342  18348     1  0.0000000  4.9162000  2
  18347  18343  18342  18348     1  0.0000000  0.6024960  3
  18348  18342  18343  18359     1  0.0000000  4.9162000  2
  18348  18342  18343  18359     1  0.0000000  0.6024960  3
  18348  18342  18341  18349     1  0.0000000  4.9162000  2
  18348  18342  18341  18349     1  0.0000000  0.6024960  3
  18349  18341  18338  18350     1  0.0000000  4.9162000  2
  18349  18341  18338  18350     1  0.0000000  0.6024960  3
  18350  18338  18337  18351     1  0.0000000  0.6508444  3
  18350  18338  18337  18359     1  0.0000000  4.9162000  2
  18350  18338  18337  18359     1  0.0000000  0.6024960  3
  18357  18351  18337  18359     1  0.0000000  4.9162000  2
  18357  18351  18337  18359     1  0.0000000  0.6024960  3
  18360  18361  18364  18365     1  180.0000771  0.8368000  1
  18360  18361  18364  18365     1  180.0000771  1.0460000  2
  18360  18361  18364  18365     1  0.0000000  0.7531200  3
  18360  18361  18364  18372     1  0.0000000  0.6508444  3
  18360  18382  18366  18365     1  180.0000771  0.4184000  2
  18360  18382  18366  18365     1  0.0000000  1.6024720  3
  18360  18382  18366  18370     1  180.0000771  5.6484000  1
  18360  18382  18366  18370     1  180.0000771  3.5564000  2
  18360  18382  18366  18370     1  0.0000000  0.4184000  3
  18361  18360  18374  18380     1  0.0000000  0.6508444  3
  18361  18360  18382  18366     1  180.0000771  0.4184000  2
  18361  18360  18382  18366     1  0.0000000  1.6024720  3
  18361  18364  18365  18366     1  180.0000771  0.8368000  1
  18361  18364  18365  18366     1  180.0000771  1.0460000  2
  18361  18364  18365  18366     1  0.0000000  0.7531200  3
  18361  18364  18365  18371     1  0.0000000  0.6508444  3
  18364  18361  18360  18374     1  180.0000771  0.8368000  1
  18364  18361  18360  18374     1  180.0000771  1.0460000  2
  18364  18361  18360  18374     1  0.0000000  0.7531200  3
  18364  18361  18360  18382     1  0.0000000  0.6508444  3
  18364  18365  18366  18370     1  0.0000000  0.6508444  3
  18364  18365  18366  18382     1  0.0000000  0.6508444  3
  18365  18364  18361  18373     1  0.0000000  0.6508444  3
  18366  18365  18364  18372     1  0.0000000  0.6508444  3
  18366  18382  18360  18374     1  180.0000771  0.4184000  2
  18366  18382  18360  18374     1  0.0000000  1.6024720  3
  18370  18366  18365  18371     1  0.0000000  4.9162000  2
  18370  18366  18365  18371     1  0.0000000  0.6024960  3
  18371  18365  18364  18372     1  0.0000000  4.9162000  2
  18371  18365  18364  18372     1  0.0000000  0.6024960  3
  18371  18365  18366  18382     1  0.0000000  4.9162000  2
  18371  18365  18366  18382     1  0.0000000  0.6024960  3
  18372  18364  18361  18373     1  0.0000000  4.9162000  2
  18372  18364  18361  18373     1  0.0000000  0.6024960  3
  18373  18361  18360  18374     1  0.0000000  0.6508444  3
  18373  18361  18360  18382     1  0.0000000  4.9162000  2
  18373  18361  18360  18382     1  0.0000000  0.6024960  3
  18380  18374  18360  18382     1  0.0000000  4.9162000  2
  18380  18374  18360  18382     1  0.0000000  0.6024960  3
  18383  18384  18387  18388     1  180.0000771  0.8368000  1
  18383  18384  18387  18388     1  180.0000771  1.0460000  2
  18383  18384  18387  18388     1  0.0000000  0.7531200  3
  18383  18384  18387  18395     1  0.0000000  0.6508444  3
  18383  18405  18389  18393     1  180.0000771  5.6484000  1
  18383  18405  18389  18393     1  180.0000771  3.5564000  2
  18383  18405  18389  18393     1  0.0000000  0.4184000  3
  18383  18405  18389  18388     1  180.0000771  0.4184000  2
  18383  18405  18389  18388     1  0.0000000  1.6024720  3
  18384  18387  18388  18389     1  180.0000771  0.8368000  1
  18384  18387  18388  18389     1  180.0000771  1.0460000  2
  18384  18387  18388  18389     1  0.0000000  0.7531200  3
  18384  18387  18388  18394     1  0.0000000  0.6508444  3
  18384  18383  18397  18403     1  0.0000000  0.6508444  3
  18384  18383  18405  18389     1  180.0000771  0.4184000  2
  18384  18383  18405  18389     1  0.0000000  1.6024720  3
  18387  18388  18389  18393     1  0.0000000  0.6508444  3
  18387  18388  18389  18405     1  0.0000000  0.6508444  3
  18387  18384  18383  18397     1  180.0000771  0.8368000  1
  18387  18384  18383  18397     1  180.0000771  1.0460000  2
  18387  18384  18383  18397     1  0.0000000  0.7531200  3
  18387  18384  18383  18405     1  0.0000000  0.6508444  3
  18388  18387  18384  18396     1  0.0000000  0.6508444  3
  18389  18405  18383  18397     1  180.0000771  0.4184000  2
  18389  18405  18383  18397     1  0.0000000  1.6024720  3
  18389  18388  18387  18395     1  0.0000000  0.6508444  3
  18393  18389  18388  18394     1  0.0000000  4.9162000  2
  18393  18389  18388  18394     1  0.0000000  0.6024960  3
  18394  18388  18389  18405     1  0.0000000  4.9162000  2
  18394  18388  18389  18405     1  0.0000000  0.6024960  3
  18394  18388  18387  18395     1  0.0000000  4.9162000  2
  18394  18388  18387  18395     1  0.0000000  0.6024960  3
  18395  18387  18384  18396     1  0.0000000  4.9162000  2
  18395  18387  18384  18396     1  0.0000000  0.6024960  3
  18396  18384  18383  18397     1  0.0000000  0.6508444  3
  18396  18384  18383  18405     1  0.0000000  4.9162000  2
  18396  18384  18383  18405     1  0.0000000  0.6024960  3
  18403  18397  18383  18405     1  0.0000000  4.9162000  2
  18403  18397  18383  18405     1  0.0000000  0.6024960  3
  18406  18407  18410  18411     1  180.0000771  0.8368000  1
  18406  18407  18410  18411     1  180.0000771  1.0460000  2
  18406  18407  18410  18411     1  0.0000000  0.7531200  3
  18406  18407  18410  18418     1  0.0000000  0.6508444  3
  18406  18428  18412  18411     1  180.0000771  0.4184000  2
  18406  18428  18412  18411     1  0.0000000  1.6024720  3
  18406  18428  18412  18416     1  180.0000771  5.6484000  1
  18406  18428  18412  18416     1  180.0000771  3.5564000  2
  18406  18428  18412  18416     1  0.0000000  0.4184000  3
  18407  18406  18420  18426     1  0.0000000  0.6508444  3
  18407  18406  18428  18412     1  180.0000771  0.4184000  2
  18407  18406  18428  18412     1  0.0000000  1.6024720  3
  18407  18410  18411  18412     1  180.0000771  0.8368000  1
  18407  18410  18411  18412     1  180.0000771  1.0460000  2
  18407  18410  18411  18412     1  0.0000000  0.7531200  3
  18407  18410  18411  18417     1  0.0000000  0.6508444  3
  18410  18407  18406  18420     1  180.0000771  0.8368000  1
  18410  18407  18406  18420     1  180.0000771  1.0460000  2
  18410  18407  18406  18420     1  0.0000000  0.7531200  3
  18410  18407  18406  18428     1  0.0000000  0.6508444  3
  18410  18411  18412  18416     1  0.0000000  0.6508444  3
  18410  18411  18412  18428     1  0.0000000  0.6508444  3
  18411  18410  18407  18419     1  0.0000000  0.6508444  3
  18412  18411  18410  18418     1  0.0000000  0.6508444  3
  18412  18428  18406  18420     1  180.0000771  0.4184000  2
  18412  18428  18406  18420     1  0.0000000  1.6024720  3
  18416  18412  18411  18417     1  0.0000000  4.9162000  2
  18416  18412  18411  18417     1  0.0000000  0.6024960  3
  18417  18411  18410  18418     1  0.0000000  4.9162000  2
  18417  18411  18410  18418     1  0.0000000  0.6024960  3
  18417  18411  18412  18428     1  0.0000000  4.9162000  2
  18417  18411  18412  18428     1  0.0000000  0.6024960  3
  18418  18410  18407  18419     1  0.0000000  4.9162000  2
  18418  18410  18407  18419     1  0.0000000  0.6024960  3
  18419  18407  18406  18420     1  0.0000000  0.6508444  3
  18419  18407  18406  18428     1  0.0000000  4.9162000  2
  18419  18407  18406  18428     1  0.0000000  0.6024960  3
  18426  18420  18406  18428     1  0.0000000  4.9162000  2
  18426  18420  18406  18428     1  0.0000000  0.6024960  3
  18429  18430  18433  18434     1  180.0000771  0.8368000  1
  18429  18430  18433  18434     1  180.0000771  1.0460000  2
  18429  18430  18433  18434     1  0.0000000  0.7531200  3
  18429  18430  18433  18441     1  0.0000000  0.6508444  3
  18429  18451  18435  18439     1  180.0000771  5.6484000  1
  18429  18451  18435  18439     1  180.0000771  3.5564000  2
  18429  18451  18435  18439     1  0.0000000  0.4184000  3
  18429  18451  18435  18434     1  180.0000771  0.4184000  2
  18429  18451  18435  18434     1  0.0000000  1.6024720  3
  18430  18433  18434  18435     1  180.0000771  0.8368000  1
  18430  18433  18434  18435     1  180.0000771  1.0460000  2
  18430  18433  18434  18435     1  0.0000000  0.7531200  3
  18430  18433  18434  18440     1  0.0000000  0.6508444  3
  18430  18429  18443  18449     1  0.0000000  0.6508444  3
  18430  18429  18451  18435     1  180.0000771  0.4184000  2
  18430  18429  18451  18435     1  0.0000000  1.6024720  3
  18433  18434  18435  18439     1  0.0000000  0.6508444  3
  18433  18434  18435  18451     1  0.0000000  0.6508444  3
  18433  18430  18429  18443     1  180.0000771  0.8368000  1
  18433  18430  18429  18443     1  180.0000771  1.0460000  2
  18433  18430  18429  18443     1  0.0000000  0.7531200  3
  18433  18430  18429  18451     1  0.0000000  0.6508444  3
  18434  18433  18430  18442     1  0.0000000  0.6508444  3
  18435  18451  18429  18443     1  180.0000771  0.4184000  2
  18435  18451  18429  18443     1  0.0000000  1.6024720  3
  18435  18434  18433  18441     1  0.0000000  0.6508444  3
  18439  18435  18434  18440     1  0.0000000  4.9162000  2
  18439  18435  18434  18440     1  0.0000000  0.6024960  3
  18440  18434  18435  18451     1  0.0000000  4.9162000  2
  18440  18434  18435  18451     1  0.0000000  0.6024960  3
  18440  18434  18433  18441     1  0.0000000  4.9162000  2
  18440  18434  18433  18441     1  0.0000000  0.6024960  3
  18441  18433  18430  18442     1  0.0000000  4.9162000  2
  18441  18433  18430  18442     1  0.0000000  0.6024960  3
  18442  18430  18429  18443     1  0.0000000  0.6508444  3
  18442  18430  18429  18451     1  0.0000000  4.9162000  2
  18442  18430  18429  18451     1  0.0000000  0.6024960  3
  18449  18443  18429  18451     1  0.0000000  4.9162000  2
  18449  18443  18429  18451     1  0.0000000  0.6024960  3
  18452  18453  18456  18457     1  180.0000771  0.8368000  1
  18452  18453  18456  18457     1  180.0000771  1.0460000  2
  18452  18453  18456  18457     1  0.0000000  0.7531200  3
  18452  18453  18456  18464     1  0.0000000  0.6508444  3
  18452  18474  18458  18457     1  180.0000771  0.4184000  2
  18452  18474  18458  18457     1  0.0000000  1.6024720  3
  18452  18474  18458  18462     1  180.0000771  5.6484000  1
  18452  18474  18458  18462     1  180.0000771  3.5564000  2
  18452  18474  18458  18462     1  0.0000000  0.4184000  3
  18453  18452  18466  18472     1  0.0000000  0.6508444  3
  18453  18452  18474  18458     1  180.0000771  0.4184000  2
  18453  18452  18474  18458     1  0.0000000  1.6024720  3
  18453  18456  18457  18458     1  180.0000771  0.8368000  1
  18453  18456  18457  18458     1  180.0000771  1.0460000  2
  18453  18456  18457  18458     1  0.0000000  0.7531200  3
  18453  18456  18457  18463     1  0.0000000  0.6508444  3
  18456  18453  18452  18466     1  180.0000771  0.8368000  1
  18456  18453  18452  18466     1  180.0000771  1.0460000  2
  18456  18453  18452  18466     1  0.0000000  0.7531200  3
  18456  18453  18452  18474     1  0.0000000  0.6508444  3
  18456  18457  18458  18462     1  0.0000000  0.6508444  3
  18456  18457  18458  18474     1  0.0000000  0.6508444  3
  18457  18456  18453  18465     1  0.0000000  0.6508444  3
  18458  18457  18456  18464     1  0.0000000  0.6508444  3
  18458  18474  18452  18466     1  180.0000771  0.4184000  2
  18458  18474  18452  18466     1  0.0000000  1.6024720  3
  18462  18458  18457  18463     1  0.0000000  4.9162000  2
  18462  18458  18457  18463     1  0.0000000  0.6024960  3
  18463  18457  18456  18464     1  0.0000000  4.9162000  2
  18463  18457  18456  18464     1  0.0000000  0.6024960  3
  18463  18457  18458  18474     1  0.0000000  4.9162000  2
  18463  18457  18458  18474     1  0.0000000  0.6024960  3
  18464  18456  18453  18465     1  0.0000000  4.9162000  2
  18464  18456  18453  18465     1  0.0000000  0.6024960  3
  18465  18453  18452  18466     1  0.0000000  0.6508444  3
  18465  18453  18452  18474     1  0.0000000  4.9162000  2
  18465  18453  18452  18474     1  0.0000000  0.6024960  3
  18472  18466  18452  18474     1  0.0000000  4.9162000  2
  18472  18466  18452  18474     1  0.0000000  0.6024960  3
  18475  18476  18479  18480     1  180.0000771  0.8368000  1
  18475  18476  18479  18480     1  180.0000771  1.0460000  2
  18475  18476  18479  18480     1  0.0000000  0.7531200  3
  18475  18476  18479  18487     1  0.0000000  0.6508444  3
  18475  18497  18481  18485     1  180.0000771  5.6484000  1
  18475  18497  18481  18485     1  180.0000771  3.5564000  2
  18475  18497  18481  18485     1  0.0000000  0.4184000  3
  18475  18497  18481  18480     1  180.0000771  0.4184000  2
  18475  18497  18481  18480     1  0.0000000  1.6024720  3
  18476  18479  18480  18481     1  180.0000771  0.8368000  1
  18476  18479  18480  18481     1  180.0000771  1.0460000  2
  18476  18479  18480  18481     1  0.0000000  0.7531200  3
  18476  18479  18480  18486     1  0.0000000  0.6508444  3
  18476  18475  18489  18495     1  0.0000000  0.6508444  3
  18476  18475  18497  18481     1  180.0000771  0.4184000  2
  18476  18475  18497  18481     1  0.0000000  1.6024720  3
  18479  18480  18481  18485     1  0.0000000  0.6508444  3
  18479  18480  18481  18497     1  0.0000000  0.6508444  3
  18479  18476  18475  18489     1  180.0000771  0.8368000  1
  18479  18476  18475  18489     1  180.0000771  1.0460000  2
  18479  18476  18475  18489     1  0.0000000  0.7531200  3
  18479  18476  18475  18497     1  0.0000000  0.6508444  3
  18480  18479  18476  18488     1  0.0000000  0.6508444  3
  18481  18497  18475  18489     1  180.0000771  0.4184000  2
  18481  18497  18475  18489     1  0.0000000  1.6024720  3
  18481  18480  18479  18487     1  0.0000000  0.6508444  3
  18485  18481  18480  18486     1  0.0000000  4.9162000  2
  18485  18481  18480  18486     1  0.0000000  0.6024960  3
  18486  18480  18481  18497     1  0.0000000  4.9162000  2
  18486  18480  18481  18497     1  0.0000000  0.6024960  3
  18486  18480  18479  18487     1  0.0000000  4.9162000  2
  18486  18480  18479  18487     1  0.0000000  0.6024960  3
  18487  18479  18476  18488     1  0.0000000  4.9162000  2
  18487  18479  18476  18488     1  0.0000000  0.6024960  3
  18488  18476  18475  18489     1  0.0000000  0.6508444  3
  18488  18476  18475  18497     1  0.0000000  4.9162000  2
  18488  18476  18475  18497     1  0.0000000  0.6024960  3
  18495  18489  18475  18497     1  0.0000000  4.9162000  2
  18495  18489  18475  18497     1  0.0000000  0.6024960  3
  18498  18499  18502  18503     1  180.0000771  0.8368000  1
  18498  18499  18502  18503     1  180.0000771  1.0460000  2
  18498  18499  18502  18503     1  0.0000000  0.7531200  3
  18498  18499  18502  18510     1  0.0000000  0.6508444  3
  18498  18520  18504  18503     1  180.0000771  0.4184000  2
  18498  18520  18504  18503     1  0.0000000  1.6024720  3
  18498  18520  18504  18508     1  180.0000771  5.6484000  1
  18498  18520  18504  18508     1  180.0000771  3.5564000  2
  18498  18520  18504  18508     1  0.0000000  0.4184000  3
  18499  18498  18512  18518     1  0.0000000  0.6508444  3
  18499  18498  18520  18504     1  180.0000771  0.4184000  2
  18499  18498  18520  18504     1  0.0000000  1.6024720  3
  18499  18502  18503  18504     1  180.0000771  0.8368000  1
  18499  18502  18503  18504     1  180.0000771  1.0460000  2
  18499  18502  18503  18504     1  0.0000000  0.7531200  3
  18499  18502  18503  18509     1  0.0000000  0.6508444  3
  18502  18499  18498  18512     1  180.0000771  0.8368000  1
  18502  18499  18498  18512     1  180.0000771  1.0460000  2
  18502  18499  18498  18512     1  0.0000000  0.7531200  3
  18502  18499  18498  18520     1  0.0000000  0.6508444  3
  18502  18503  18504  18508     1  0.0000000  0.6508444  3
  18502  18503  18504  18520     1  0.0000000  0.6508444  3
  18503  18502  18499  18511     1  0.0000000  0.6508444  3
  18504  18503  18502  18510     1  0.0000000  0.6508444  3
  18504  18520  18498  18512     1  180.0000771  0.4184000  2
  18504  18520  18498  18512     1  0.0000000  1.6024720  3
  18508  18504  18503  18509     1  0.0000000  4.9162000  2
  18508  18504  18503  18509     1  0.0000000  0.6024960  3
  18509  18503  18502  18510     1  0.0000000  4.9162000  2
  18509  18503  18502  18510     1  0.0000000  0.6024960  3
  18509  18503  18504  18520     1  0.0000000  4.9162000  2
  18509  18503  18504  18520     1  0.0000000  0.6024960  3
  18510  18502  18499  18511     1  0.0000000  4.9162000  2
  18510  18502  18499  18511     1  0.0000000  0.6024960  3
  18511  18499  18498  18512     1  0.0000000  0.6508444  3
  18511  18499  18498  18520     1  0.0000000  4.9162000  2
  18511  18499  18498  18520     1  0.0000000  0.6024960  3
  18518  18512  18498  18520     1  0.0000000  4.9162000  2
  18518  18512  18498  18520     1  0.0000000  0.6024960  3
  18521  18522  18525  18526     1  180.0000771  0.8368000  1
  18521  18522  18525  18526     1  180.0000771  1.0460000  2
  18521  18522  18525  18526     1  0.0000000  0.7531200  3
  18521  18522  18525  18533     1  0.0000000  0.6508444  3
  18521  18543  18527  18531     1  180.0000771  5.6484000  1
  18521  18543  18527  18531     1  180.0000771  3.5564000  2
  18521  18543  18527  18531     1  0.0000000  0.4184000  3
  18521  18543  18527  18526     1  180.0000771  0.4184000  2
  18521  18543  18527  18526     1  0.0000000  1.6024720  3
  18522  18525  18526  18527     1  180.0000771  0.8368000  1
  18522  18525  18526  18527     1  180.0000771  1.0460000  2
  18522  18525  18526  18527     1  0.0000000  0.7531200  3
  18522  18525  18526  18532     1  0.0000000  0.6508444  3
  18522  18521  18535  18541     1  0.0000000  0.6508444  3
  18522  18521  18543  18527     1  180.0000771  0.4184000  2
  18522  18521  18543  18527     1  0.0000000  1.6024720  3
  18525  18526  18527  18531     1  0.0000000  0.6508444  3
  18525  18526  18527  18543     1  0.0000000  0.6508444  3
  18525  18522  18521  18535     1  180.0000771  0.8368000  1
  18525  18522  18521  18535     1  180.0000771  1.0460000  2
  18525  18522  18521  18535     1  0.0000000  0.7531200  3
  18525  18522  18521  18543     1  0.0000000  0.6508444  3
  18526  18525  18522  18534     1  0.0000000  0.6508444  3
  18527  18543  18521  18535     1  180.0000771  0.4184000  2
  18527  18543  18521  18535     1  0.0000000  1.6024720  3
  18527  18526  18525  18533     1  0.0000000  0.6508444  3
  18531  18527  18526  18532     1  0.0000000  4.9162000  2
  18531  18527  18526  18532     1  0.0000000  0.6024960  3
  18532  18526  18527  18543     1  0.0000000  4.9162000  2
  18532  18526  18527  18543     1  0.0000000  0.6024960  3
  18532  18526  18525  18533     1  0.0000000  4.9162000  2
  18532  18526  18525  18533     1  0.0000000  0.6024960  3
  18533  18525  18522  18534     1  0.0000000  4.9162000  2
  18533  18525  18522  18534     1  0.0000000  0.6024960  3
  18534  18522  18521  18535     1  0.0000000  0.6508444  3
  18534  18522  18521  18543     1  0.0000000  4.9162000  2
  18534  18522  18521  18543     1  0.0000000  0.6024960  3
  18541  18535  18521  18543     1  0.0000000  4.9162000  2
  18541  18535  18521  18543     1  0.0000000  0.6024960  3
  18544  18545  18548  18549     1  180.0000771  0.8368000  1
  18544  18545  18548  18549     1  180.0000771  1.0460000  2
  18544  18545  18548  18549     1  0.0000000  0.7531200  3
  18544  18545  18548  18556     1  0.0000000  0.6508444  3
  18544  18566  18550  18549     1  180.0000771  0.4184000  2
  18544  18566  18550  18549     1  0.0000000  1.6024720  3
  18544  18566  18550  18554     1  180.0000771  5.6484000  1
  18544  18566  18550  18554     1  180.0000771  3.5564000  2
  18544  18566  18550  18554     1  0.0000000  0.4184000  3
  18545  18544  18558  18564     1  0.0000000  0.6508444  3
  18545  18544  18566  18550     1  180.0000771  0.4184000  2
  18545  18544  18566  18550     1  0.0000000  1.6024720  3
  18545  18548  18549  18550     1  180.0000771  0.8368000  1
  18545  18548  18549  18550     1  180.0000771  1.0460000  2
  18545  18548  18549  18550     1  0.0000000  0.7531200  3
  18545  18548  18549  18555     1  0.0000000  0.6508444  3
  18548  18545  18544  18558     1  180.0000771  0.8368000  1
  18548  18545  18544  18558     1  180.0000771  1.0460000  2
  18548  18545  18544  18558     1  0.0000000  0.7531200  3
  18548  18545  18544  18566     1  0.0000000  0.6508444  3
  18548  18549  18550  18554     1  0.0000000  0.6508444  3
  18548  18549  18550  18566     1  0.0000000  0.6508444  3
  18549  18548  18545  18557     1  0.0000000  0.6508444  3
  18550  18549  18548  18556     1  0.0000000  0.6508444  3
  18550  18566  18544  18558     1  180.0000771  0.4184000  2
  18550  18566  18544  18558     1  0.0000000  1.6024720  3
  18554  18550  18549  18555     1  0.0000000  4.9162000  2
  18554  18550  18549  18555     1  0.0000000  0.6024960  3
  18555  18549  18548  18556     1  0.0000000  4.9162000  2
  18555  18549  18548  18556     1  0.0000000  0.6024960  3
  18555  18549  18550  18566     1  0.0000000  4.9162000  2
  18555  18549  18550  18566     1  0.0000000  0.6024960  3
  18556  18548  18545  18557     1  0.0000000  4.9162000  2
  18556  18548  18545  18557     1  0.0000000  0.6024960  3
  18557  18545  18544  18558     1  0.0000000  0.6508444  3
  18557  18545  18544  18566     1  0.0000000  4.9162000  2
  18557  18545  18544  18566     1  0.0000000  0.6024960  3
  18564  18558  18544  18566     1  0.0000000  4.9162000  2
  18564  18558  18544  18566     1  0.0000000  0.6024960  3
  18567  18568  18571  18572     1  180.0000771  0.8368000  1
  18567  18568  18571  18572     1  180.0000771  1.0460000  2
  18567  18568  18571  18572     1  0.0000000  0.7531200  3
  18567  18568  18571  18579     1  0.0000000  0.6508444  3
  18567  18589  18573  18577     1  180.0000771  5.6484000  1
  18567  18589  18573  18577     1  180.0000771  3.5564000  2
  18567  18589  18573  18577     1  0.0000000  0.4184000  3
  18567  18589  18573  18572     1  180.0000771  0.4184000  2
  18567  18589  18573  18572     1  0.0000000  1.6024720  3
  18568  18571  18572  18573     1  180.0000771  0.8368000  1
  18568  18571  18572  18573     1  180.0000771  1.0460000  2
  18568  18571  18572  18573     1  0.0000000  0.7531200  3
  18568  18571  18572  18578     1  0.0000000  0.6508444  3
  18568  18567  18581  18587     1  0.0000000  0.6508444  3
  18568  18567  18589  18573     1  180.0000771  0.4184000  2
  18568  18567  18589  18573     1  0.0000000  1.6024720  3
  18571  18572  18573  18577     1  0.0000000  0.6508444  3
  18571  18572  18573  18589     1  0.0000000  0.6508444  3
  18571  18568  18567  18581     1  180.0000771  0.8368000  1
  18571  18568  18567  18581     1  180.0000771  1.0460000  2
  18571  18568  18567  18581     1  0.0000000  0.7531200  3
  18571  18568  18567  18589     1  0.0000000  0.6508444  3
  18572  18571  18568  18580     1  0.0000000  0.6508444  3
  18573  18589  18567  18581     1  180.0000771  0.4184000  2
  18573  18589  18567  18581     1  0.0000000  1.6024720  3
  18573  18572  18571  18579     1  0.0000000  0.6508444  3
  18577  18573  18572  18578     1  0.0000000  4.9162000  2
  18577  18573  18572  18578     1  0.0000000  0.6024960  3
  18578  18572  18573  18589     1  0.0000000  4.9162000  2
  18578  18572  18573  18589     1  0.0000000  0.6024960  3
  18578  18572  18571  18579     1  0.0000000  4.9162000  2
  18578  18572  18571  18579     1  0.0000000  0.6024960  3
  18579  18571  18568  18580     1  0.0000000  4.9162000  2
  18579  18571  18568  18580     1  0.0000000  0.6024960  3
  18580  18568  18567  18581     1  0.0000000  0.6508444  3
  18580  18568  18567  18589     1  0.0000000  4.9162000  2
  18580  18568  18567  18589     1  0.0000000  0.6024960  3
  18587  18581  18567  18589     1  0.0000000  4.9162000  2
  18587  18581  18567  18589     1  0.0000000  0.6024960  3
  18590  18591  18594  18595     1  180.0000771  0.8368000  1
  18590  18591  18594  18595     1  180.0000771  1.0460000  2
  18590  18591  18594  18595     1  0.0000000  0.7531200  3
  18590  18591  18594  18602     1  0.0000000  0.6508444  3
  18590  18612  18596  18595     1  180.0000771  0.4184000  2
  18590  18612  18596  18595     1  0.0000000  1.6024720  3
  18590  18612  18596  18600     1  180.0000771  5.6484000  1
  18590  18612  18596  18600     1  180.0000771  3.5564000  2
  18590  18612  18596  18600     1  0.0000000  0.4184000  3
  18591  18590  18604  18610     1  0.0000000  0.6508444  3
  18591  18590  18612  18596     1  180.0000771  0.4184000  2
  18591  18590  18612  18596     1  0.0000000  1.6024720  3
  18591  18594  18595  18596     1  180.0000771  0.8368000  1
  18591  18594  18595  18596     1  180.0000771  1.0460000  2
  18591  18594  18595  18596     1  0.0000000  0.7531200  3
  18591  18594  18595  18601     1  0.0000000  0.6508444  3
  18594  18591  18590  18604     1  180.0000771  0.8368000  1
  18594  18591  18590  18604     1  180.0000771  1.0460000  2
  18594  18591  18590  18604     1  0.0000000  0.7531200  3
  18594  18591  18590  18612     1  0.0000000  0.6508444  3
  18594  18595  18596  18600     1  0.0000000  0.6508444  3
  18594  18595  18596  18612     1  0.0000000  0.6508444  3
  18595  18594  18591  18603     1  0.0000000  0.6508444  3
  18596  18595  18594  18602     1  0.0000000  0.6508444  3
  18596  18612  18590  18604     1  180.0000771  0.4184000  2
  18596  18612  18590  18604     1  0.0000000  1.6024720  3
  18600  18596  18595  18601     1  0.0000000  4.9162000  2
  18600  18596  18595  18601     1  0.0000000  0.6024960  3
  18601  18595  18594  18602     1  0.0000000  4.9162000  2
  18601  18595  18594  18602     1  0.0000000  0.6024960  3
  18601  18595  18596  18612     1  0.0000000  4.9162000  2
  18601  18595  18596  18612     1  0.0000000  0.6024960  3
  18602  18594  18591  18603     1  0.0000000  4.9162000  2
  18602  18594  18591  18603     1  0.0000000  0.6024960  3
  18603  18591  18590  18604     1  0.0000000  0.6508444  3
  18603  18591  18590  18612     1  0.0000000  4.9162000  2
  18603  18591  18590  18612     1  0.0000000  0.6024960  3
  18610  18604  18590  18612     1  0.0000000  4.9162000  2
  18610  18604  18590  18612     1  0.0000000  0.6024960  3
  18613  18614  18617  18618     1  180.0000771  0.8368000  1
  18613  18614  18617  18618     1  180.0000771  1.0460000  2
  18613  18614  18617  18618     1  0.0000000  0.7531200  3
  18613  18614  18617  18625     1  0.0000000  0.6508444  3
  18613  18635  18619  18623     1  180.0000771  5.6484000  1
  18613  18635  18619  18623     1  180.0000771  3.5564000  2
  18613  18635  18619  18623     1  0.0000000  0.4184000  3
  18613  18635  18619  18618     1  180.0000771  0.4184000  2
  18613  18635  18619  18618     1  0.0000000  1.6024720  3
  18614  18617  18618  18619     1  180.0000771  0.8368000  1
  18614  18617  18618  18619     1  180.0000771  1.0460000  2
  18614  18617  18618  18619     1  0.0000000  0.7531200  3
  18614  18617  18618  18624     1  0.0000000  0.6508444  3
  18614  18613  18627  18633     1  0.0000000  0.6508444  3
  18614  18613  18635  18619     1  180.0000771  0.4184000  2
  18614  18613  18635  18619     1  0.0000000  1.6024720  3
  18617  18618  18619  18623     1  0.0000000  0.6508444  3
  18617  18618  18619  18635     1  0.0000000  0.6508444  3
  18617  18614  18613  18627     1  180.0000771  0.8368000  1
  18617  18614  18613  18627     1  180.0000771  1.0460000  2
  18617  18614  18613  18627     1  0.0000000  0.7531200  3
  18617  18614  18613  18635     1  0.0000000  0.6508444  3
  18618  18617  18614  18626     1  0.0000000  0.6508444  3
  18619  18635  18613  18627     1  180.0000771  0.4184000  2
  18619  18635  18613  18627     1  0.0000000  1.6024720  3
  18619  18618  18617  18625     1  0.0000000  0.6508444  3
  18623  18619  18618  18624     1  0.0000000  4.9162000  2
  18623  18619  18618  18624     1  0.0000000  0.6024960  3
  18624  18618  18619  18635     1  0.0000000  4.9162000  2
  18624  18618  18619  18635     1  0.0000000  0.6024960  3
  18624  18618  18617  18625     1  0.0000000  4.9162000  2
  18624  18618  18617  18625     1  0.0000000  0.6024960  3
  18625  18617  18614  18626     1  0.0000000  4.9162000  2
  18625  18617  18614  18626     1  0.0000000  0.6024960  3
  18626  18614  18613  18627     1  0.0000000  0.6508444  3
  18626  18614  18613  18635     1  0.0000000  4.9162000  2
  18626  18614  18613  18635     1  0.0000000  0.6024960  3
  18633  18627  18613  18635     1  0.0000000  4.9162000  2
  18633  18627  18613  18635     1  0.0000000  0.6024960  3
  18636  18637  18640  18641     1  180.0000771  0.8368000  1
  18636  18637  18640  18641     1  180.0000771  1.0460000  2
  18636  18637  18640  18641     1  0.0000000  0.7531200  3
  18636  18637  18640  18648     1  0.0000000  0.6508444  3
  18636  18658  18642  18641     1  180.0000771  0.4184000  2
  18636  18658  18642  18641     1  0.0000000  1.6024720  3
  18636  18658  18642  18646     1  180.0000771  5.6484000  1
  18636  18658  18642  18646     1  180.0000771  3.5564000  2
  18636  18658  18642  18646     1  0.0000000  0.4184000  3
  18637  18636  18650  18656     1  0.0000000  0.6508444  3
  18637  18636  18658  18642     1  180.0000771  0.4184000  2
  18637  18636  18658  18642     1  0.0000000  1.6024720  3
  18637  18640  18641  18642     1  180.0000771  0.8368000  1
  18637  18640  18641  18642     1  180.0000771  1.0460000  2
  18637  18640  18641  18642     1  0.0000000  0.7531200  3
  18637  18640  18641  18647     1  0.0000000  0.6508444  3
  18640  18637  18636  18650     1  180.0000771  0.8368000  1
  18640  18637  18636  18650     1  180.0000771  1.0460000  2
  18640  18637  18636  18650     1  0.0000000  0.7531200  3
  18640  18637  18636  18658     1  0.0000000  0.6508444  3
  18640  18641  18642  18646     1  0.0000000  0.6508444  3
  18640  18641  18642  18658     1  0.0000000  0.6508444  3
  18641  18640  18637  18649     1  0.0000000  0.6508444  3
  18642  18641  18640  18648     1  0.0000000  0.6508444  3
  18642  18658  18636  18650     1  180.0000771  0.4184000  2
  18642  18658  18636  18650     1  0.0000000  1.6024720  3
  18646  18642  18641  18647     1  0.0000000  4.9162000  2
  18646  18642  18641  18647     1  0.0000000  0.6024960  3
  18647  18641  18640  18648     1  0.0000000  4.9162000  2
  18647  18641  18640  18648     1  0.0000000  0.6024960  3
  18647  18641  18642  18658     1  0.0000000  4.9162000  2
  18647  18641  18642  18658     1  0.0000000  0.6024960  3
  18648  18640  18637  18649     1  0.0000000  4.9162000  2
  18648  18640  18637  18649     1  0.0000000  0.6024960  3
  18649  18637  18636  18650     1  0.0000000  0.6508444  3
  18649  18637  18636  18658     1  0.0000000  4.9162000  2
  18649  18637  18636  18658     1  0.0000000  0.6024960  3
  18656  18650  18636  18658     1  0.0000000  4.9162000  2
  18656  18650  18636  18658     1  0.0000000  0.6024960  3
  18659  18660  18663  18664     1  180.0000771  0.8368000  1
  18659  18660  18663  18664     1  180.0000771  1.0460000  2
  18659  18660  18663  18664     1  0.0000000  0.7531200  3
  18659  18660  18663  18671     1  0.0000000  0.6508444  3
  18659  18681  18665  18669     1  180.0000771  5.6484000  1
  18659  18681  18665  18669     1  180.0000771  3.5564000  2
  18659  18681  18665  18669     1  0.0000000  0.4184000  3
  18659  18681  18665  18664     1  180.0000771  0.4184000  2
  18659  18681  18665  18664     1  0.0000000  1.6024720  3
  18660  18663  18664  18665     1  180.0000771  0.8368000  1
  18660  18663  18664  18665     1  180.0000771  1.0460000  2
  18660  18663  18664  18665     1  0.0000000  0.7531200  3
  18660  18663  18664  18670     1  0.0000000  0.6508444  3
  18660  18659  18673  18679     1  0.0000000  0.6508444  3
  18660  18659  18681  18665     1  180.0000771  0.4184000  2
  18660  18659  18681  18665     1  0.0000000  1.6024720  3
  18663  18664  18665  18669     1  0.0000000  0.6508444  3
  18663  18664  18665  18681     1  0.0000000  0.6508444  3
  18663  18660  18659  18673     1  180.0000771  0.8368000  1
  18663  18660  18659  18673     1  180.0000771  1.0460000  2
  18663  18660  18659  18673     1  0.0000000  0.7531200  3
  18663  18660  18659  18681     1  0.0000000  0.6508444  3
  18664  18663  18660  18672     1  0.0000000  0.6508444  3
  18665  18681  18659  18673     1  180.0000771  0.4184000  2
  18665  18681  18659  18673     1  0.0000000  1.6024720  3
  18665  18664  18663  18671     1  0.0000000  0.6508444  3
  18669  18665  18664  18670     1  0.0000000  4.9162000  2
  18669  18665  18664  18670     1  0.0000000  0.6024960  3
  18670  18664  18665  18681     1  0.0000000  4.9162000  2
  18670  18664  18665  18681     1  0.0000000  0.6024960  3
  18670  18664  18663  18671     1  0.0000000  4.9162000  2
  18670  18664  18663  18671     1  0.0000000  0.6024960  3
  18671  18663  18660  18672     1  0.0000000  4.9162000  2
  18671  18663  18660  18672     1  0.0000000  0.6024960  3
  18672  18660  18659  18673     1  0.0000000  0.6508444  3
  18672  18660  18659  18681     1  0.0000000  4.9162000  2
  18672  18660  18659  18681     1  0.0000000  0.6024960  3
  18679  18673  18659  18681     1  0.0000000  4.9162000  2
  18679  18673  18659  18681     1  0.0000000  0.6024960  3
  18682  18683  18686  18687     1  180.0000771  0.8368000  1
  18682  18683  18686  18687     1  180.0000771  1.0460000  2
  18682  18683  18686  18687     1  0.0000000  0.7531200  3
  18682  18683  18686  18694     1  0.0000000  0.6508444  3
  18682  18704  18688  18687     1  180.0000771  0.4184000  2
  18682  18704  18688  18687     1  0.0000000  1.6024720  3
  18682  18704  18688  18692     1  180.0000771  5.6484000  1
  18682  18704  18688  18692     1  180.0000771  3.5564000  2
  18682  18704  18688  18692     1  0.0000000  0.4184000  3
  18683  18682  18696  18702     1  0.0000000  0.6508444  3
  18683  18682  18704  18688     1  180.0000771  0.4184000  2
  18683  18682  18704  18688     1  0.0000000  1.6024720  3
  18683  18686  18687  18688     1  180.0000771  0.8368000  1
  18683  18686  18687  18688     1  180.0000771  1.0460000  2
  18683  18686  18687  18688     1  0.0000000  0.7531200  3
  18683  18686  18687  18693     1  0.0000000  0.6508444  3
  18686  18683  18682  18696     1  180.0000771  0.8368000  1
  18686  18683  18682  18696     1  180.0000771  1.0460000  2
  18686  18683  18682  18696     1  0.0000000  0.7531200  3
  18686  18683  18682  18704     1  0.0000000  0.6508444  3
  18686  18687  18688  18692     1  0.0000000  0.6508444  3
  18686  18687  18688  18704     1  0.0000000  0.6508444  3
  18687  18686  18683  18695     1  0.0000000  0.6508444  3
  18688  18687  18686  18694     1  0.0000000  0.6508444  3
  18688  18704  18682  18696     1  180.0000771  0.4184000  2
  18688  18704  18682  18696     1  0.0000000  1.6024720  3
  18692  18688  18687  18693     1  0.0000000  4.9162000  2
  18692  18688  18687  18693     1  0.0000000  0.6024960  3
  18693  18687  18686  18694     1  0.0000000  4.9162000  2
  18693  18687  18686  18694     1  0.0000000  0.6024960  3
  18693  18687  18688  18704     1  0.0000000  4.9162000  2
  18693  18687  18688  18704     1  0.0000000  0.6024960  3
  18694  18686  18683  18695     1  0.0000000  4.9162000  2
  18694  18686  18683  18695     1  0.0000000  0.6024960  3
  18695  18683  18682  18696     1  0.0000000  0.6508444  3
  18695  18683  18682  18704     1  0.0000000  4.9162000  2
  18695  18683  18682  18704     1  0.0000000  0.6024960  3
  18702  18696  18682  18704     1  0.0000000  4.9162000  2
  18702  18696  18682  18704     1  0.0000000  0.6024960  3
  18705  18706  18709  18710     1  180.0000771  0.8368000  1
  18705  18706  18709  18710     1  180.0000771  1.0460000  2
  18705  18706  18709  18710     1  0.0000000  0.7531200  3
  18705  18706  18709  18717     1  0.0000000  0.6508444  3
  18705  18727  18711  18715     1  180.0000771  5.6484000  1
  18705  18727  18711  18715     1  180.0000771  3.5564000  2
  18705  18727  18711  18715     1  0.0000000  0.4184000  3
  18705  18727  18711  18710     1  180.0000771  0.4184000  2
  18705  18727  18711  18710     1  0.0000000  1.6024720  3
  18706  18709  18710  18711     1  180.0000771  0.8368000  1
  18706  18709  18710  18711     1  180.0000771  1.0460000  2
  18706  18709  18710  18711     1  0.0000000  0.7531200  3
  18706  18709  18710  18716     1  0.0000000  0.6508444  3
  18706  18705  18719  18725     1  0.0000000  0.6508444  3
  18706  18705  18727  18711     1  180.0000771  0.4184000  2
  18706  18705  18727  18711     1  0.0000000  1.6024720  3
  18709  18710  18711  18715     1  0.0000000  0.6508444  3
  18709  18710  18711  18727     1  0.0000000  0.6508444  3
  18709  18706  18705  18719     1  180.0000771  0.8368000  1
  18709  18706  18705  18719     1  180.0000771  1.0460000  2
  18709  18706  18705  18719     1  0.0000000  0.7531200  3
  18709  18706  18705  18727     1  0.0000000  0.6508444  3
  18710  18709  18706  18718     1  0.0000000  0.6508444  3
  18711  18727  18705  18719     1  180.0000771  0.4184000  2
  18711  18727  18705  18719     1  0.0000000  1.6024720  3
  18711  18710  18709  18717     1  0.0000000  0.6508444  3
  18715  18711  18710  18716     1  0.0000000  4.9162000  2
  18715  18711  18710  18716     1  0.0000000  0.6024960  3
  18716  18710  18711  18727     1  0.0000000  4.9162000  2
  18716  18710  18711  18727     1  0.0000000  0.6024960  3
  18716  18710  18709  18717     1  0.0000000  4.9162000  2
  18716  18710  18709  18717     1  0.0000000  0.6024960  3
  18717  18709  18706  18718     1  0.0000000  4.9162000  2
  18717  18709  18706  18718     1  0.0000000  0.6024960  3
  18718  18706  18705  18719     1  0.0000000  0.6508444  3
  18718  18706  18705  18727     1  0.0000000  4.9162000  2
  18718  18706  18705  18727     1  0.0000000  0.6024960  3
  18725  18719  18705  18727     1  0.0000000  4.9162000  2
  18725  18719  18705  18727     1  0.0000000  0.6024960  3
  18728  18729  18732  18733     1  180.0000771  0.8368000  1
  18728  18729  18732  18733     1  180.0000771  1.0460000  2
  18728  18729  18732  18733     1  0.0000000  0.7531200  3
  18728  18729  18732  18740     1  0.0000000  0.6508444  3
  18728  18750  18734  18733     1  180.0000771  0.4184000  2
  18728  18750  18734  18733     1  0.0000000  1.6024720  3
  18728  18750  18734  18738     1  180.0000771  5.6484000  1
  18728  18750  18734  18738     1  180.0000771  3.5564000  2
  18728  18750  18734  18738     1  0.0000000  0.4184000  3
  18729  18728  18742  18748     1  0.0000000  0.6508444  3
  18729  18728  18750  18734     1  180.0000771  0.4184000  2
  18729  18728  18750  18734     1  0.0000000  1.6024720  3
  18729  18732  18733  18734     1  180.0000771  0.8368000  1
  18729  18732  18733  18734     1  180.0000771  1.0460000  2
  18729  18732  18733  18734     1  0.0000000  0.7531200  3
  18729  18732  18733  18739     1  0.0000000  0.6508444  3
  18732  18729  18728  18742     1  180.0000771  0.8368000  1
  18732  18729  18728  18742     1  180.0000771  1.0460000  2
  18732  18729  18728  18742     1  0.0000000  0.7531200  3
  18732  18729  18728  18750     1  0.0000000  0.6508444  3
  18732  18733  18734  18738     1  0.0000000  0.6508444  3
  18732  18733  18734  18750     1  0.0000000  0.6508444  3
  18733  18732  18729  18741     1  0.0000000  0.6508444  3
  18734  18733  18732  18740     1  0.0000000  0.6508444  3
  18734  18750  18728  18742     1  180.0000771  0.4184000  2
  18734  18750  18728  18742     1  0.0000000  1.6024720  3
  18738  18734  18733  18739     1  0.0000000  4.9162000  2
  18738  18734  18733  18739     1  0.0000000  0.6024960  3
  18739  18733  18732  18740     1  0.0000000  4.9162000  2
  18739  18733  18732  18740     1  0.0000000  0.6024960  3
  18739  18733  18734  18750     1  0.0000000  4.9162000  2
  18739  18733  18734  18750     1  0.0000000  0.6024960  3
  18740  18732  18729  18741     1  0.0000000  4.9162000  2
  18740  18732  18729  18741     1  0.0000000  0.6024960  3
  18741  18729  18728  18742     1  0.0000000  0.6508444  3
  18741  18729  18728  18750     1  0.0000000  4.9162000  2
  18741  18729  18728  18750     1  0.0000000  0.6024960  3
  18748  18742  18728  18750     1  0.0000000  4.9162000  2
  18748  18742  18728  18750     1  0.0000000  0.6024960  3
  18751  18752  18755  18756     1  180.0000771  0.8368000  1
  18751  18752  18755  18756     1  180.0000771  1.0460000  2
  18751  18752  18755  18756     1  0.0000000  0.7531200  3
  18751  18752  18755  18763     1  0.0000000  0.6508444  3
  18751  18773  18757  18761     1  180.0000771  5.6484000  1
  18751  18773  18757  18761     1  180.0000771  3.5564000  2
  18751  18773  18757  18761     1  0.0000000  0.4184000  3
  18751  18773  18757  18756     1  180.0000771  0.4184000  2
  18751  18773  18757  18756     1  0.0000000  1.6024720  3
  18752  18755  18756  18757     1  180.0000771  0.8368000  1
  18752  18755  18756  18757     1  180.0000771  1.0460000  2
  18752  18755  18756  18757     1  0.0000000  0.7531200  3
  18752  18755  18756  18762     1  0.0000000  0.6508444  3
  18752  18751  18765  18771     1  0.0000000  0.6508444  3
  18752  18751  18773  18757     1  180.0000771  0.4184000  2
  18752  18751  18773  18757     1  0.0000000  1.6024720  3
  18755  18756  18757  18761     1  0.0000000  0.6508444  3
  18755  18756  18757  18773     1  0.0000000  0.6508444  3
  18755  18752  18751  18765     1  180.0000771  0.8368000  1
  18755  18752  18751  18765     1  180.0000771  1.0460000  2
  18755  18752  18751  18765     1  0.0000000  0.7531200  3
  18755  18752  18751  18773     1  0.0000000  0.6508444  3
  18756  18755  18752  18764     1  0.0000000  0.6508444  3
  18757  18773  18751  18765     1  180.0000771  0.4184000  2
  18757  18773  18751  18765     1  0.0000000  1.6024720  3
  18757  18756  18755  18763     1  0.0000000  0.6508444  3
  18761  18757  18756  18762     1  0.0000000  4.9162000  2
  18761  18757  18756  18762     1  0.0000000  0.6024960  3
  18762  18756  18757  18773     1  0.0000000  4.9162000  2
  18762  18756  18757  18773     1  0.0000000  0.6024960  3
  18762  18756  18755  18763     1  0.0000000  4.9162000  2
  18762  18756  18755  18763     1  0.0000000  0.6024960  3
  18763  18755  18752  18764     1  0.0000000  4.9162000  2
  18763  18755  18752  18764     1  0.0000000  0.6024960  3
  18764  18752  18751  18765     1  0.0000000  0.6508444  3
  18764  18752  18751  18773     1  0.0000000  4.9162000  2
  18764  18752  18751  18773     1  0.0000000  0.6024960  3
  18771  18765  18751  18773     1  0.0000000  4.9162000  2
  18771  18765  18751  18773     1  0.0000000  0.6024960  3
  18774  18775  18778  18779     1  180.0000771  0.8368000  1
  18774  18775  18778  18779     1  180.0000771  1.0460000  2
  18774  18775  18778  18779     1  0.0000000  0.7531200  3
  18774  18775  18778  18786     1  0.0000000  0.6508444  3
  18774  18796  18780  18779     1  180.0000771  0.4184000  2
  18774  18796  18780  18779     1  0.0000000  1.6024720  3
  18774  18796  18780  18784     1  180.0000771  5.6484000  1
  18774  18796  18780  18784     1  180.0000771  3.5564000  2
  18774  18796  18780  18784     1  0.0000000  0.4184000  3
  18775  18774  18788  18794     1  0.0000000  0.6508444  3
  18775  18774  18796  18780     1  180.0000771  0.4184000  2
  18775  18774  18796  18780     1  0.0000000  1.6024720  3
  18775  18778  18779  18780     1  180.0000771  0.8368000  1
  18775  18778  18779  18780     1  180.0000771  1.0460000  2
  18775  18778  18779  18780     1  0.0000000  0.7531200  3
  18775  18778  18779  18785     1  0.0000000  0.6508444  3
  18778  18775  18774  18788     1  180.0000771  0.8368000  1
  18778  18775  18774  18788     1  180.0000771  1.0460000  2
  18778  18775  18774  18788     1  0.0000000  0.7531200  3
  18778  18775  18774  18796     1  0.0000000  0.6508444  3
  18778  18779  18780  18784     1  0.0000000  0.6508444  3
  18778  18779  18780  18796     1  0.0000000  0.6508444  3
  18779  18778  18775  18787     1  0.0000000  0.6508444  3
  18780  18779  18778  18786     1  0.0000000  0.6508444  3
  18780  18796  18774  18788     1  180.0000771  0.4184000  2
  18780  18796  18774  18788     1  0.0000000  1.6024720  3
  18784  18780  18779  18785     1  0.0000000  4.9162000  2
  18784  18780  18779  18785     1  0.0000000  0.6024960  3
  18785  18779  18778  18786     1  0.0000000  4.9162000  2
  18785  18779  18778  18786     1  0.0000000  0.6024960  3
  18785  18779  18780  18796     1  0.0000000  4.9162000  2
  18785  18779  18780  18796     1  0.0000000  0.6024960  3
  18786  18778  18775  18787     1  0.0000000  4.9162000  2
  18786  18778  18775  18787     1  0.0000000  0.6024960  3
  18787  18775  18774  18788     1  0.0000000  0.6508444  3
  18787  18775  18774  18796     1  0.0000000  4.9162000  2
  18787  18775  18774  18796     1  0.0000000  0.6024960  3
  18794  18788  18774  18796     1  0.0000000  4.9162000  2
  18794  18788  18774  18796     1  0.0000000  0.6024960  3
  18797  18798  18801  18802     1  180.0000771  0.8368000  1
  18797  18798  18801  18802     1  180.0000771  1.0460000  2
  18797  18798  18801  18802     1  0.0000000  0.7531200  3
  18797  18798  18801  18809     1  0.0000000  0.6508444  3
  18797  18819  18803  18807     1  180.0000771  5.6484000  1
  18797  18819  18803  18807     1  180.0000771  3.5564000  2
  18797  18819  18803  18807     1  0.0000000  0.4184000  3
  18797  18819  18803  18802     1  180.0000771  0.4184000  2
  18797  18819  18803  18802     1  0.0000000  1.6024720  3
  18798  18801  18802  18803     1  180.0000771  0.8368000  1
  18798  18801  18802  18803     1  180.0000771  1.0460000  2
  18798  18801  18802  18803     1  0.0000000  0.7531200  3
  18798  18801  18802  18808     1  0.0000000  0.6508444  3
  18798  18797  18811  18817     1  0.0000000  0.6508444  3
  18798  18797  18819  18803     1  180.0000771  0.4184000  2
  18798  18797  18819  18803     1  0.0000000  1.6024720  3
  18801  18802  18803  18807     1  0.0000000  0.6508444  3
  18801  18802  18803  18819     1  0.0000000  0.6508444  3
  18801  18798  18797  18811     1  180.0000771  0.8368000  1
  18801  18798  18797  18811     1  180.0000771  1.0460000  2
  18801  18798  18797  18811     1  0.0000000  0.7531200  3
  18801  18798  18797  18819     1  0.0000000  0.6508444  3
  18802  18801  18798  18810     1  0.0000000  0.6508444  3
  18803  18819  18797  18811     1  180.0000771  0.4184000  2
  18803  18819  18797  18811     1  0.0000000  1.6024720  3
  18803  18802  18801  18809     1  0.0000000  0.6508444  3
  18807  18803  18802  18808     1  0.0000000  4.9162000  2
  18807  18803  18802  18808     1  0.0000000  0.6024960  3
  18808  18802  18803  18819     1  0.0000000  4.9162000  2
  18808  18802  18803  18819     1  0.0000000  0.6024960  3
  18808  18802  18801  18809     1  0.0000000  4.9162000  2
  18808  18802  18801  18809     1  0.0000000  0.6024960  3
  18809  18801  18798  18810     1  0.0000000  4.9162000  2
  18809  18801  18798  18810     1  0.0000000  0.6024960  3
  18810  18798  18797  18811     1  0.0000000  0.6508444  3
  18810  18798  18797  18819     1  0.0000000  4.9162000  2
  18810  18798  18797  18819     1  0.0000000  0.6024960  3
  18817  18811  18797  18819     1  0.0000000  4.9162000  2
  18817  18811  18797  18819     1  0.0000000  0.6024960  3
  18820  18821  18824  18825     1  180.0000771  0.8368000  1
  18820  18821  18824  18825     1  180.0000771  1.0460000  2
  18820  18821  18824  18825     1  0.0000000  0.7531200  3
  18820  18821  18824  18832     1  0.0000000  0.6508444  3
  18820  18842  18826  18825     1  180.0000771  0.4184000  2
  18820  18842  18826  18825     1  0.0000000  1.6024720  3
  18820  18842  18826  18830     1  180.0000771  5.6484000  1
  18820  18842  18826  18830     1  180.0000771  3.5564000  2
  18820  18842  18826  18830     1  0.0000000  0.4184000  3
  18821  18820  18834  18840     1  0.0000000  0.6508444  3
  18821  18820  18842  18826     1  180.0000771  0.4184000  2
  18821  18820  18842  18826     1  0.0000000  1.6024720  3
  18821  18824  18825  18826     1  180.0000771  0.8368000  1
  18821  18824  18825  18826     1  180.0000771  1.0460000  2
  18821  18824  18825  18826     1  0.0000000  0.7531200  3
  18821  18824  18825  18831     1  0.0000000  0.6508444  3
  18824  18821  18820  18834     1  180.0000771  0.8368000  1
  18824  18821  18820  18834     1  180.0000771  1.0460000  2
  18824  18821  18820  18834     1  0.0000000  0.7531200  3
  18824  18821  18820  18842     1  0.0000000  0.6508444  3
  18824  18825  18826  18830     1  0.0000000  0.6508444  3
  18824  18825  18826  18842     1  0.0000000  0.6508444  3
  18825  18824  18821  18833     1  0.0000000  0.6508444  3
  18826  18825  18824  18832     1  0.0000000  0.6508444  3
  18826  18842  18820  18834     1  180.0000771  0.4184000  2
  18826  18842  18820  18834     1  0.0000000  1.6024720  3
  18830  18826  18825  18831     1  0.0000000  4.9162000  2
  18830  18826  18825  18831     1  0.0000000  0.6024960  3
  18831  18825  18824  18832     1  0.0000000  4.9162000  2
  18831  18825  18824  18832     1  0.0000000  0.6024960  3
  18831  18825  18826  18842     1  0.0000000  4.9162000  2
  18831  18825  18826  18842     1  0.0000000  0.6024960  3
  18832  18824  18821  18833     1  0.0000000  4.9162000  2
  18832  18824  18821  18833     1  0.0000000  0.6024960  3
  18833  18821  18820  18834     1  0.0000000  0.6508444  3
  18833  18821  18820  18842     1  0.0000000  4.9162000  2
  18833  18821  18820  18842     1  0.0000000  0.6024960  3
  18840  18834  18820  18842     1  0.0000000  4.9162000  2
  18840  18834  18820  18842     1  0.0000000  0.6024960  3
  18843  18844  18847  18848     1  180.0000771  0.8368000  1
  18843  18844  18847  18848     1  180.0000771  1.0460000  2
  18843  18844  18847  18848     1  0.0000000  0.7531200  3
  18843  18844  18847  18855     1  0.0000000  0.6508444  3
  18843  18865  18849  18853     1  180.0000771  5.6484000  1
  18843  18865  18849  18853     1  180.0000771  3.5564000  2
  18843  18865  18849  18853     1  0.0000000  0.4184000  3
  18843  18865  18849  18848     1  180.0000771  0.4184000  2
  18843  18865  18849  18848     1  0.0000000  1.6024720  3
  18844  18847  18848  18849     1  180.0000771  0.8368000  1
  18844  18847  18848  18849     1  180.0000771  1.0460000  2
  18844  18847  18848  18849     1  0.0000000  0.7531200  3
  18844  18847  18848  18854     1  0.0000000  0.6508444  3
  18844  18843  18857  18863     1  0.0000000  0.6508444  3
  18844  18843  18865  18849     1  180.0000771  0.4184000  2
  18844  18843  18865  18849     1  0.0000000  1.6024720  3
  18847  18848  18849  18853     1  0.0000000  0.6508444  3
  18847  18848  18849  18865     1  0.0000000  0.6508444  3
  18847  18844  18843  18857     1  180.0000771  0.8368000  1
  18847  18844  18843  18857     1  180.0000771  1.0460000  2
  18847  18844  18843  18857     1  0.0000000  0.7531200  3
  18847  18844  18843  18865     1  0.0000000  0.6508444  3
  18848  18847  18844  18856     1  0.0000000  0.6508444  3
  18849  18865  18843  18857     1  180.0000771  0.4184000  2
  18849  18865  18843  18857     1  0.0000000  1.6024720  3
  18849  18848  18847  18855     1  0.0000000  0.6508444  3
  18853  18849  18848  18854     1  0.0000000  4.9162000  2
  18853  18849  18848  18854     1  0.0000000  0.6024960  3
  18854  18848  18849  18865     1  0.0000000  4.9162000  2
  18854  18848  18849  18865     1  0.0000000  0.6024960  3
  18854  18848  18847  18855     1  0.0000000  4.9162000  2
  18854  18848  18847  18855     1  0.0000000  0.6024960  3
  18855  18847  18844  18856     1  0.0000000  4.9162000  2
  18855  18847  18844  18856     1  0.0000000  0.6024960  3
  18856  18844  18843  18857     1  0.0000000  0.6508444  3
  18856  18844  18843  18865     1  0.0000000  4.9162000  2
  18856  18844  18843  18865     1  0.0000000  0.6024960  3
  18863  18857  18843  18865     1  0.0000000  4.9162000  2
  18863  18857  18843  18865     1  0.0000000  0.6024960  3
  18866  18867  18870  18871     1  180.0000771  0.8368000  1
  18866  18867  18870  18871     1  180.0000771  1.0460000  2
  18866  18867  18870  18871     1  0.0000000  0.7531200  3
  18866  18867  18870  18878     1  0.0000000  0.6508444  3
  18866  18888  18872  18871     1  180.0000771  0.4184000  2
  18866  18888  18872  18871     1  0.0000000  1.6024720  3
  18866  18888  18872  18876     1  180.0000771  5.6484000  1
  18866  18888  18872  18876     1  180.0000771  3.5564000  2
  18866  18888  18872  18876     1  0.0000000  0.4184000  3
  18867  18866  18880  18886     1  0.0000000  0.6508444  3
  18867  18866  18888  18872     1  180.0000771  0.4184000  2
  18867  18866  18888  18872     1  0.0000000  1.6024720  3
  18867  18870  18871  18872     1  180.0000771  0.8368000  1
  18867  18870  18871  18872     1  180.0000771  1.0460000  2
  18867  18870  18871  18872     1  0.0000000  0.7531200  3
  18867  18870  18871  18877     1  0.0000000  0.6508444  3
  18870  18867  18866  18880     1  180.0000771  0.8368000  1
  18870  18867  18866  18880     1  180.0000771  1.0460000  2
  18870  18867  18866  18880     1  0.0000000  0.7531200  3
  18870  18867  18866  18888     1  0.0000000  0.6508444  3
  18870  18871  18872  18876     1  0.0000000  0.6508444  3
  18870  18871  18872  18888     1  0.0000000  0.6508444  3
  18871  18870  18867  18879     1  0.0000000  0.6508444  3
  18872  18871  18870  18878     1  0.0000000  0.6508444  3
  18872  18888  18866  18880     1  180.0000771  0.4184000  2
  18872  18888  18866  18880     1  0.0000000  1.6024720  3
  18876  18872  18871  18877     1  0.0000000  4.9162000  2
  18876  18872  18871  18877     1  0.0000000  0.6024960  3
  18877  18871  18870  18878     1  0.0000000  4.9162000  2
  18877  18871  18870  18878     1  0.0000000  0.6024960  3
  18877  18871  18872  18888     1  0.0000000  4.9162000  2
  18877  18871  18872  18888     1  0.0000000  0.6024960  3
  18878  18870  18867  18879     1  0.0000000  4.9162000  2
  18878  18870  18867  18879     1  0.0000000  0.6024960  3
  18879  18867  18866  18880     1  0.0000000  0.6508444  3
  18879  18867  18866  18888     1  0.0000000  4.9162000  2
  18879  18867  18866  18888     1  0.0000000  0.6024960  3
  18886  18880  18866  18888     1  0.0000000  4.9162000  2
  18886  18880  18866  18888     1  0.0000000  0.6024960  3
  18889  18890  18893  18894     1  180.0000771  0.8368000  1
  18889  18890  18893  18894     1  180.0000771  1.0460000  2
  18889  18890  18893  18894     1  0.0000000  0.7531200  3
  18889  18890  18893  18901     1  0.0000000  0.6508444  3
  18889  18911  18895  18899     1  180.0000771  5.6484000  1
  18889  18911  18895  18899     1  180.0000771  3.5564000  2
  18889  18911  18895  18899     1  0.0000000  0.4184000  3
  18889  18911  18895  18894     1  180.0000771  0.4184000  2
  18889  18911  18895  18894     1  0.0000000  1.6024720  3
  18890  18893  18894  18895     1  180.0000771  0.8368000  1
  18890  18893  18894  18895     1  180.0000771  1.0460000  2
  18890  18893  18894  18895     1  0.0000000  0.7531200  3
  18890  18893  18894  18900     1  0.0000000  0.6508444  3
  18890  18889  18903  18909     1  0.0000000  0.6508444  3
  18890  18889  18911  18895     1  180.0000771  0.4184000  2
  18890  18889  18911  18895     1  0.0000000  1.6024720  3
  18893  18894  18895  18899     1  0.0000000  0.6508444  3
  18893  18894  18895  18911     1  0.0000000  0.6508444  3
  18893  18890  18889  18903     1  180.0000771  0.8368000  1
  18893  18890  18889  18903     1  180.0000771  1.0460000  2
  18893  18890  18889  18903     1  0.0000000  0.7531200  3
  18893  18890  18889  18911     1  0.0000000  0.6508444  3
  18894  18893  18890  18902     1  0.0000000  0.6508444  3
  18895  18911  18889  18903     1  180.0000771  0.4184000  2
  18895  18911  18889  18903     1  0.0000000  1.6024720  3
  18895  18894  18893  18901     1  0.0000000  0.6508444  3
  18899  18895  18894  18900     1  0.0000000  4.9162000  2
  18899  18895  18894  18900     1  0.0000000  0.6024960  3
  18900  18894  18895  18911     1  0.0000000  4.9162000  2
  18900  18894  18895  18911     1  0.0000000  0.6024960  3
  18900  18894  18893  18901     1  0.0000000  4.9162000  2
  18900  18894  18893  18901     1  0.0000000  0.6024960  3
  18901  18893  18890  18902     1  0.0000000  4.9162000  2
  18901  18893  18890  18902     1  0.0000000  0.6024960  3
  18902  18890  18889  18903     1  0.0000000  0.6508444  3
  18902  18890  18889  18911     1  0.0000000  4.9162000  2
  18902  18890  18889  18911     1  0.0000000  0.6024960  3
  18909  18903  18889  18911     1  0.0000000  4.9162000  2
  18909  18903  18889  18911     1  0.0000000  0.6024960  3
  18912  18913  18916  18917     1  180.0000771  0.8368000  1
  18912  18913  18916  18917     1  180.0000771  1.0460000  2
  18912  18913  18916  18917     1  0.0000000  0.7531200  3
  18912  18913  18916  18924     1  0.0000000  0.6508444  3
  18912  18934  18918  18917     1  180.0000771  0.4184000  2
  18912  18934  18918  18917     1  0.0000000  1.6024720  3
  18912  18934  18918  18922     1  180.0000771  5.6484000  1
  18912  18934  18918  18922     1  180.0000771  3.5564000  2
  18912  18934  18918  18922     1  0.0000000  0.4184000  3
  18913  18912  18926  18932     1  0.0000000  0.6508444  3
  18913  18912  18934  18918     1  180.0000771  0.4184000  2
  18913  18912  18934  18918     1  0.0000000  1.6024720  3
  18913  18916  18917  18918     1  180.0000771  0.8368000  1
  18913  18916  18917  18918     1  180.0000771  1.0460000  2
  18913  18916  18917  18918     1  0.0000000  0.7531200  3
  18913  18916  18917  18923     1  0.0000000  0.6508444  3
  18916  18913  18912  18926     1  180.0000771  0.8368000  1
  18916  18913  18912  18926     1  180.0000771  1.0460000  2
  18916  18913  18912  18926     1  0.0000000  0.7531200  3
  18916  18913  18912  18934     1  0.0000000  0.6508444  3
  18916  18917  18918  18922     1  0.0000000  0.6508444  3
  18916  18917  18918  18934     1  0.0000000  0.6508444  3
  18917  18916  18913  18925     1  0.0000000  0.6508444  3
  18918  18917  18916  18924     1  0.0000000  0.6508444  3
  18918  18934  18912  18926     1  180.0000771  0.4184000  2
  18918  18934  18912  18926     1  0.0000000  1.6024720  3
  18922  18918  18917  18923     1  0.0000000  4.9162000  2
  18922  18918  18917  18923     1  0.0000000  0.6024960  3
  18923  18917  18916  18924     1  0.0000000  4.9162000  2
  18923  18917  18916  18924     1  0.0000000  0.6024960  3
  18923  18917  18918  18934     1  0.0000000  4.9162000  2
  18923  18917  18918  18934     1  0.0000000  0.6024960  3
  18924  18916  18913  18925     1  0.0000000  4.9162000  2
  18924  18916  18913  18925     1  0.0000000  0.6024960  3
  18925  18913  18912  18926     1  0.0000000  0.6508444  3
  18925  18913  18912  18934     1  0.0000000  4.9162000  2
  18925  18913  18912  18934     1  0.0000000  0.6024960  3
  18932  18926  18912  18934     1  0.0000000  4.9162000  2
  18932  18926  18912  18934     1  0.0000000  0.6024960  3
  18935  18936  18939  18940     1  180.0000771  0.8368000  1
  18935  18936  18939  18940     1  180.0000771  1.0460000  2
  18935  18936  18939  18940     1  0.0000000  0.7531200  3
  18935  18936  18939  18947     1  0.0000000  0.6508444  3
  18935  18957  18941  18945     1  180.0000771  5.6484000  1
  18935  18957  18941  18945     1  180.0000771  3.5564000  2
  18935  18957  18941  18945     1  0.0000000  0.4184000  3
  18935  18957  18941  18940     1  180.0000771  0.4184000  2
  18935  18957  18941  18940     1  0.0000000  1.6024720  3
  18936  18939  18940  18941     1  180.0000771  0.8368000  1
  18936  18939  18940  18941     1  180.0000771  1.0460000  2
  18936  18939  18940  18941     1  0.0000000  0.7531200  3
  18936  18939  18940  18946     1  0.0000000  0.6508444  3
  18936  18935  18949  18955     1  0.0000000  0.6508444  3
  18936  18935  18957  18941     1  180.0000771  0.4184000  2
  18936  18935  18957  18941     1  0.0000000  1.6024720  3
  18939  18940  18941  18945     1  0.0000000  0.6508444  3
  18939  18940  18941  18957     1  0.0000000  0.6508444  3
  18939  18936  18935  18949     1  180.0000771  0.8368000  1
  18939  18936  18935  18949     1  180.0000771  1.0460000  2
  18939  18936  18935  18949     1  0.0000000  0.7531200  3
  18939  18936  18935  18957     1  0.0000000  0.6508444  3
  18940  18939  18936  18948     1  0.0000000  0.6508444  3
  18941  18957  18935  18949     1  180.0000771  0.4184000  2
  18941  18957  18935  18949     1  0.0000000  1.6024720  3
  18941  18940  18939  18947     1  0.0000000  0.6508444  3
  18945  18941  18940  18946     1  0.0000000  4.9162000  2
  18945  18941  18940  18946     1  0.0000000  0.6024960  3
  18946  18940  18941  18957     1  0.0000000  4.9162000  2
  18946  18940  18941  18957     1  0.0000000  0.6024960  3
  18946  18940  18939  18947     1  0.0000000  4.9162000  2
  18946  18940  18939  18947     1  0.0000000  0.6024960  3
  18947  18939  18936  18948     1  0.0000000  4.9162000  2
  18947  18939  18936  18948     1  0.0000000  0.6024960  3
  18948  18936  18935  18949     1  0.0000000  0.6508444  3
  18948  18936  18935  18957     1  0.0000000  4.9162000  2
  18948  18936  18935  18957     1  0.0000000  0.6024960  3
  18955  18949  18935  18957     1  0.0000000  4.9162000  2
  18955  18949  18935  18957     1  0.0000000  0.6024960  3
  18958  18959  18962  18963     1  180.0000771  0.8368000  1
  18958  18959  18962  18963     1  180.0000771  1.0460000  2
  18958  18959  18962  18963     1  0.0000000  0.7531200  3
  18958  18959  18962  18970     1  0.0000000  0.6508444  3
  18958  18980  18964  18963     1  180.0000771  0.4184000  2
  18958  18980  18964  18963     1  0.0000000  1.6024720  3
  18958  18980  18964  18968     1  180.0000771  5.6484000  1
  18958  18980  18964  18968     1  180.0000771  3.5564000  2
  18958  18980  18964  18968     1  0.0000000  0.4184000  3
  18959  18958  18972  18978     1  0.0000000  0.6508444  3
  18959  18958  18980  18964     1  180.0000771  0.4184000  2
  18959  18958  18980  18964     1  0.0000000  1.6024720  3
  18959  18962  18963  18964     1  180.0000771  0.8368000  1
  18959  18962  18963  18964     1  180.0000771  1.0460000  2
  18959  18962  18963  18964     1  0.0000000  0.7531200  3
  18959  18962  18963  18969     1  0.0000000  0.6508444  3
  18962  18959  18958  18972     1  180.0000771  0.8368000  1
  18962  18959  18958  18972     1  180.0000771  1.0460000  2
  18962  18959  18958  18972     1  0.0000000  0.7531200  3
  18962  18959  18958  18980     1  0.0000000  0.6508444  3
  18962  18963  18964  18968     1  0.0000000  0.6508444  3
  18962  18963  18964  18980     1  0.0000000  0.6508444  3
  18963  18962  18959  18971     1  0.0000000  0.6508444  3
  18964  18963  18962  18970     1  0.0000000  0.6508444  3
  18964  18980  18958  18972     1  180.0000771  0.4184000  2
  18964  18980  18958  18972     1  0.0000000  1.6024720  3
  18968  18964  18963  18969     1  0.0000000  4.9162000  2
  18968  18964  18963  18969     1  0.0000000  0.6024960  3
  18969  18963  18962  18970     1  0.0000000  4.9162000  2
  18969  18963  18962  18970     1  0.0000000  0.6024960  3
  18969  18963  18964  18980     1  0.0000000  4.9162000  2
  18969  18963  18964  18980     1  0.0000000  0.6024960  3
  18970  18962  18959  18971     1  0.0000000  4.9162000  2
  18970  18962  18959  18971     1  0.0000000  0.6024960  3
  18971  18959  18958  18972     1  0.0000000  0.6508444  3
  18971  18959  18958  18980     1  0.0000000  4.9162000  2
  18971  18959  18958  18980     1  0.0000000  0.6024960  3
  18978  18972  18958  18980     1  0.0000000  4.9162000  2
  18978  18972  18958  18980     1  0.0000000  0.6024960  3
  18981  18982  18985  18986     1  180.0000771  0.8368000  1
  18981  18982  18985  18986     1  180.0000771  1.0460000  2
  18981  18982  18985  18986     1  0.0000000  0.7531200  3
  18981  18982  18985  18993     1  0.0000000  0.6508444  3
  18981  19003  18987  18991     1  180.0000771  5.6484000  1
  18981  19003  18987  18991     1  180.0000771  3.5564000  2
  18981  19003  18987  18991     1  0.0000000  0.4184000  3
  18981  19003  18987  18986     1  180.0000771  0.4184000  2
  18981  19003  18987  18986     1  0.0000000  1.6024720  3
  18982  18985  18986  18987     1  180.0000771  0.8368000  1
  18982  18985  18986  18987     1  180.0000771  1.0460000  2
  18982  18985  18986  18987     1  0.0000000  0.7531200  3
  18982  18985  18986  18992     1  0.0000000  0.6508444  3
  18982  18981  18995  19001     1  0.0000000  0.6508444  3
  18982  18981  19003  18987     1  180.0000771  0.4184000  2
  18982  18981  19003  18987     1  0.0000000  1.6024720  3
  18985  18986  18987  18991     1  0.0000000  0.6508444  3
  18985  18986  18987  19003     1  0.0000000  0.6508444  3
  18985  18982  18981  18995     1  180.0000771  0.8368000  1
  18985  18982  18981  18995     1  180.0000771  1.0460000  2
  18985  18982  18981  18995     1  0.0000000  0.7531200  3
  18985  18982  18981  19003     1  0.0000000  0.6508444  3
  18986  18985  18982  18994     1  0.0000000  0.6508444  3
  18987  19003  18981  18995     1  180.0000771  0.4184000  2
  18987  19003  18981  18995     1  0.0000000  1.6024720  3
  18987  18986  18985  18993     1  0.0000000  0.6508444  3
  18991  18987  18986  18992     1  0.0000000  4.9162000  2
  18991  18987  18986  18992     1  0.0000000  0.6024960  3
  18992  18986  18987  19003     1  0.0000000  4.9162000  2
  18992  18986  18987  19003     1  0.0000000  0.6024960  3
  18992  18986  18985  18993     1  0.0000000  4.9162000  2
  18992  18986  18985  18993     1  0.0000000  0.6024960  3
  18993  18985  18982  18994     1  0.0000000  4.9162000  2
  18993  18985  18982  18994     1  0.0000000  0.6024960  3
  18994  18982  18981  18995     1  0.0000000  0.6508444  3
  18994  18982  18981  19003     1  0.0000000  4.9162000  2
  18994  18982  18981  19003     1  0.0000000  0.6024960  3
  19001  18995  18981  19003     1  0.0000000  4.9162000  2
  19001  18995  18981  19003     1  0.0000000  0.6024960  3
  19004  19005  19008  19009     1  180.0000771  0.8368000  1
  19004  19005  19008  19009     1  180.0000771  1.0460000  2
  19004  19005  19008  19009     1  0.0000000  0.7531200  3
  19004  19005  19008  19016     1  0.0000000  0.6508444  3
  19004  19026  19010  19009     1  180.0000771  0.4184000  2
  19004  19026  19010  19009     1  0.0000000  1.6024720  3
  19004  19026  19010  19014     1  180.0000771  5.6484000  1
  19004  19026  19010  19014     1  180.0000771  3.5564000  2
  19004  19026  19010  19014     1  0.0000000  0.4184000  3
  19005  19004  19018  19024     1  0.0000000  0.6508444  3
  19005  19004  19026  19010     1  180.0000771  0.4184000  2
  19005  19004  19026  19010     1  0.0000000  1.6024720  3
  19005  19008  19009  19010     1  180.0000771  0.8368000  1
  19005  19008  19009  19010     1  180.0000771  1.0460000  2
  19005  19008  19009  19010     1  0.0000000  0.7531200  3
  19005  19008  19009  19015     1  0.0000000  0.6508444  3
  19008  19005  19004  19018     1  180.0000771  0.8368000  1
  19008  19005  19004  19018     1  180.0000771  1.0460000  2
  19008  19005  19004  19018     1  0.0000000  0.7531200  3
  19008  19005  19004  19026     1  0.0000000  0.6508444  3
  19008  19009  19010  19014     1  0.0000000  0.6508444  3
  19008  19009  19010  19026     1  0.0000000  0.6508444  3
  19009  19008  19005  19017     1  0.0000000  0.6508444  3
  19010  19009  19008  19016     1  0.0000000  0.6508444  3
  19010  19026  19004  19018     1  180.0000771  0.4184000  2
  19010  19026  19004  19018     1  0.0000000  1.6024720  3
  19014  19010  19009  19015     1  0.0000000  4.9162000  2
  19014  19010  19009  19015     1  0.0000000  0.6024960  3
  19015  19009  19008  19016     1  0.0000000  4.9162000  2
  19015  19009  19008  19016     1  0.0000000  0.6024960  3
  19015  19009  19010  19026     1  0.0000000  4.9162000  2
  19015  19009  19010  19026     1  0.0000000  0.6024960  3
  19016  19008  19005  19017     1  0.0000000  4.9162000  2
  19016  19008  19005  19017     1  0.0000000  0.6024960  3
  19017  19005  19004  19018     1  0.0000000  0.6508444  3
  19017  19005  19004  19026     1  0.0000000  4.9162000  2
  19017  19005  19004  19026     1  0.0000000  0.6024960  3
  19024  19018  19004  19026     1  0.0000000  4.9162000  2
  19024  19018  19004  19026     1  0.0000000  0.6024960  3
  19027  19028  19031  19032     1  180.0000771  0.8368000  1
  19027  19028  19031  19032     1  180.0000771  1.0460000  2
  19027  19028  19031  19032     1  0.0000000  0.7531200  3
  19027  19028  19031  19039     1  0.0000000  0.6508444  3
  19027  19049  19033  19037     1  180.0000771  5.6484000  1
  19027  19049  19033  19037     1  180.0000771  3.5564000  2
  19027  19049  19033  19037     1  0.0000000  0.4184000  3
  19027  19049  19033  19032     1  180.0000771  0.4184000  2
  19027  19049  19033  19032     1  0.0000000  1.6024720  3
  19028  19031  19032  19033     1  180.0000771  0.8368000  1
  19028  19031  19032  19033     1  180.0000771  1.0460000  2
  19028  19031  19032  19033     1  0.0000000  0.7531200  3
  19028  19031  19032  19038     1  0.0000000  0.6508444  3
  19028  19027  19041  19047     1  0.0000000  0.6508444  3
  19028  19027  19049  19033     1  180.0000771  0.4184000  2
  19028  19027  19049  19033     1  0.0000000  1.6024720  3
  19031  19032  19033  19037     1  0.0000000  0.6508444  3
  19031  19032  19033  19049     1  0.0000000  0.6508444  3
  19031  19028  19027  19041     1  180.0000771  0.8368000  1
  19031  19028  19027  19041     1  180.0000771  1.0460000  2
  19031  19028  19027  19041     1  0.0000000  0.7531200  3
  19031  19028  19027  19049     1  0.0000000  0.6508444  3
  19032  19031  19028  19040     1  0.0000000  0.6508444  3
  19033  19049  19027  19041     1  180.0000771  0.4184000  2
  19033  19049  19027  19041     1  0.0000000  1.6024720  3
  19033  19032  19031  19039     1  0.0000000  0.6508444  3
  19037  19033  19032  19038     1  0.0000000  4.9162000  2
  19037  19033  19032  19038     1  0.0000000  0.6024960  3
  19038  19032  19033  19049     1  0.0000000  4.9162000  2
  19038  19032  19033  19049     1  0.0000000  0.6024960  3
  19038  19032  19031  19039     1  0.0000000  4.9162000  2
  19038  19032  19031  19039     1  0.0000000  0.6024960  3
  19039  19031  19028  19040     1  0.0000000  4.9162000  2
  19039  19031  19028  19040     1  0.0000000  0.6024960  3
  19040  19028  19027  19041     1  0.0000000  0.6508444  3
  19040  19028  19027  19049     1  0.0000000  4.9162000  2
  19040  19028  19027  19049     1  0.0000000  0.6024960  3
  19047  19041  19027  19049     1  0.0000000  4.9162000  2
  19047  19041  19027  19049     1  0.0000000  0.6024960  3
  19050  19051  19054  19055     1  180.0000771  0.8368000  1
  19050  19051  19054  19055     1  180.0000771  1.0460000  2
  19050  19051  19054  19055     1  0.0000000  0.7531200  3
  19050  19051  19054  19062     1  0.0000000  0.6508444  3
  19050  19072  19056  19055     1  180.0000771  0.4184000  2
  19050  19072  19056  19055     1  0.0000000  1.6024720  3
  19050  19072  19056  19060     1  180.0000771  5.6484000  1
  19050  19072  19056  19060     1  180.0000771  3.5564000  2
  19050  19072  19056  19060     1  0.0000000  0.4184000  3
  19051  19050  19064  19070     1  0.0000000  0.6508444  3
  19051  19050  19072  19056     1  180.0000771  0.4184000  2
  19051  19050  19072  19056     1  0.0000000  1.6024720  3
  19051  19054  19055  19056     1  180.0000771  0.8368000  1
  19051  19054  19055  19056     1  180.0000771  1.0460000  2
  19051  19054  19055  19056     1  0.0000000  0.7531200  3
  19051  19054  19055  19061     1  0.0000000  0.6508444  3
  19054  19051  19050  19064     1  180.0000771  0.8368000  1
  19054  19051  19050  19064     1  180.0000771  1.0460000  2
  19054  19051  19050  19064     1  0.0000000  0.7531200  3
  19054  19051  19050  19072     1  0.0000000  0.6508444  3
  19054  19055  19056  19060     1  0.0000000  0.6508444  3
  19054  19055  19056  19072     1  0.0000000  0.6508444  3
  19055  19054  19051  19063     1  0.0000000  0.6508444  3
  19056  19055  19054  19062     1  0.0000000  0.6508444  3
  19056  19072  19050  19064     1  180.0000771  0.4184000  2
  19056  19072  19050  19064     1  0.0000000  1.6024720  3
  19060  19056  19055  19061     1  0.0000000  4.9162000  2
  19060  19056  19055  19061     1  0.0000000  0.6024960  3
  19061  19055  19054  19062     1  0.0000000  4.9162000  2
  19061  19055  19054  19062     1  0.0000000  0.6024960  3
  19061  19055  19056  19072     1  0.0000000  4.9162000  2
  19061  19055  19056  19072     1  0.0000000  0.6024960  3
  19062  19054  19051  19063     1  0.0000000  4.9162000  2
  19062  19054  19051  19063     1  0.0000000  0.6024960  3
  19063  19051  19050  19064     1  0.0000000  0.6508444  3
  19063  19051  19050  19072     1  0.0000000  4.9162000  2
  19063  19051  19050  19072     1  0.0000000  0.6024960  3
  19070  19064  19050  19072     1  0.0000000  4.9162000  2
  19070  19064  19050  19072     1  0.0000000  0.6024960  3
  19073  19074  19077  19078     1  180.0000771  0.8368000  1
  19073  19074  19077  19078     1  180.0000771  1.0460000  2
  19073  19074  19077  19078     1  0.0000000  0.7531200  3
  19073  19074  19077  19085     1  0.0000000  0.6508444  3
  19073  19095  19079  19083     1  180.0000771  5.6484000  1
  19073  19095  19079  19083     1  180.0000771  3.5564000  2
  19073  19095  19079  19083     1  0.0000000  0.4184000  3
  19073  19095  19079  19078     1  180.0000771  0.4184000  2
  19073  19095  19079  19078     1  0.0000000  1.6024720  3
  19074  19077  19078  19079     1  180.0000771  0.8368000  1
  19074  19077  19078  19079     1  180.0000771  1.0460000  2
  19074  19077  19078  19079     1  0.0000000  0.7531200  3
  19074  19077  19078  19084     1  0.0000000  0.6508444  3
  19074  19073  19087  19093     1  0.0000000  0.6508444  3
  19074  19073  19095  19079     1  180.0000771  0.4184000  2
  19074  19073  19095  19079     1  0.0000000  1.6024720  3
  19077  19078  19079  19083     1  0.0000000  0.6508444  3
  19077  19078  19079  19095     1  0.0000000  0.6508444  3
  19077  19074  19073  19087     1  180.0000771  0.8368000  1
  19077  19074  19073  19087     1  180.0000771  1.0460000  2
  19077  19074  19073  19087     1  0.0000000  0.7531200  3
  19077  19074  19073  19095     1  0.0000000  0.6508444  3
  19078  19077  19074  19086     1  0.0000000  0.6508444  3
  19079  19095  19073  19087     1  180.0000771  0.4184000  2
  19079  19095  19073  19087     1  0.0000000  1.6024720  3
  19079  19078  19077  19085     1  0.0000000  0.6508444  3
  19083  19079  19078  19084     1  0.0000000  4.9162000  2
  19083  19079  19078  19084     1  0.0000000  0.6024960  3
  19084  19078  19079  19095     1  0.0000000  4.9162000  2
  19084  19078  19079  19095     1  0.0000000  0.6024960  3
  19084  19078  19077  19085     1  0.0000000  4.9162000  2
  19084  19078  19077  19085     1  0.0000000  0.6024960  3
  19085  19077  19074  19086     1  0.0000000  4.9162000  2
  19085  19077  19074  19086     1  0.0000000  0.6024960  3
  19086  19074  19073  19087     1  0.0000000  0.6508444  3
  19086  19074  19073  19095     1  0.0000000  4.9162000  2
  19086  19074  19073  19095     1  0.0000000  0.6024960  3
  19093  19087  19073  19095     1  0.0000000  4.9162000  2
  19093  19087  19073  19095     1  0.0000000  0.6024960  3
  19096  19097  19100  19101     1  180.0000771  0.8368000  1
  19096  19097  19100  19101     1  180.0000771  1.0460000  2
  19096  19097  19100  19101     1  0.0000000  0.7531200  3
  19096  19097  19100  19108     1  0.0000000  0.6508444  3
  19096  19118  19102  19101     1  180.0000771  0.4184000  2
  19096  19118  19102  19101     1  0.0000000  1.6024720  3
  19096  19118  19102  19106     1  180.0000771  5.6484000  1
  19096  19118  19102  19106     1  180.0000771  3.5564000  2
  19096  19118  19102  19106     1  0.0000000  0.4184000  3
  19097  19096  19110  19116     1  0.0000000  0.6508444  3
  19097  19096  19118  19102     1  180.0000771  0.4184000  2
  19097  19096  19118  19102     1  0.0000000  1.6024720  3
  19097  19100  19101  19102     1  180.0000771  0.8368000  1
  19097  19100  19101  19102     1  180.0000771  1.0460000  2
  19097  19100  19101  19102     1  0.0000000  0.7531200  3
  19097  19100  19101  19107     1  0.0000000  0.6508444  3
  19100  19097  19096  19110     1  180.0000771  0.8368000  1
  19100  19097  19096  19110     1  180.0000771  1.0460000  2
  19100  19097  19096  19110     1  0.0000000  0.7531200  3
  19100  19097  19096  19118     1  0.0000000  0.6508444  3
  19100  19101  19102  19106     1  0.0000000  0.6508444  3
  19100  19101  19102  19118     1  0.0000000  0.6508444  3
  19101  19100  19097  19109     1  0.0000000  0.6508444  3
  19102  19101  19100  19108     1  0.0000000  0.6508444  3
  19102  19118  19096  19110     1  180.0000771  0.4184000  2
  19102  19118  19096  19110     1  0.0000000  1.6024720  3
  19106  19102  19101  19107     1  0.0000000  4.9162000  2
  19106  19102  19101  19107     1  0.0000000  0.6024960  3
  19107  19101  19100  19108     1  0.0000000  4.9162000  2
  19107  19101  19100  19108     1  0.0000000  0.6024960  3
  19107  19101  19102  19118     1  0.0000000  4.9162000  2
  19107  19101  19102  19118     1  0.0000000  0.6024960  3
  19108  19100  19097  19109     1  0.0000000  4.9162000  2
  19108  19100  19097  19109     1  0.0000000  0.6024960  3
  19109  19097  19096  19110     1  0.0000000  0.6508444  3
  19109  19097  19096  19118     1  0.0000000  4.9162000  2
  19109  19097  19096  19118     1  0.0000000  0.6024960  3
  19116  19110  19096  19118     1  0.0000000  4.9162000  2
  19116  19110  19096  19118     1  0.0000000  0.6024960  3
  19119  19120  19123  19124     1  180.0000771  0.8368000  1
  19119  19120  19123  19124     1  180.0000771  1.0460000  2
  19119  19120  19123  19124     1  0.0000000  0.7531200  3
  19119  19120  19123  19131     1  0.0000000  0.6508444  3
  19119  19141  19125  19129     1  180.0000771  5.6484000  1
  19119  19141  19125  19129     1  180.0000771  3.5564000  2
  19119  19141  19125  19129     1  0.0000000  0.4184000  3
  19119  19141  19125  19124     1  180.0000771  0.4184000  2
  19119  19141  19125  19124     1  0.0000000  1.6024720  3
  19120  19123  19124  19125     1  180.0000771  0.8368000  1
  19120  19123  19124  19125     1  180.0000771  1.0460000  2
  19120  19123  19124  19125     1  0.0000000  0.7531200  3
  19120  19123  19124  19130     1  0.0000000  0.6508444  3
  19120  19119  19133  19139     1  0.0000000  0.6508444  3
  19120  19119  19141  19125     1  180.0000771  0.4184000  2
  19120  19119  19141  19125     1  0.0000000  1.6024720  3
  19123  19124  19125  19129     1  0.0000000  0.6508444  3
  19123  19124  19125  19141     1  0.0000000  0.6508444  3
  19123  19120  19119  19133     1  180.0000771  0.8368000  1
  19123  19120  19119  19133     1  180.0000771  1.0460000  2
  19123  19120  19119  19133     1  0.0000000  0.7531200  3
  19123  19120  19119  19141     1  0.0000000  0.6508444  3
  19124  19123  19120  19132     1  0.0000000  0.6508444  3
  19125  19141  19119  19133     1  180.0000771  0.4184000  2
  19125  19141  19119  19133     1  0.0000000  1.6024720  3
  19125  19124  19123  19131     1  0.0000000  0.6508444  3
  19129  19125  19124  19130     1  0.0000000  4.9162000  2
  19129  19125  19124  19130     1  0.0000000  0.6024960  3
  19130  19124  19125  19141     1  0.0000000  4.9162000  2
  19130  19124  19125  19141     1  0.0000000  0.6024960  3
  19130  19124  19123  19131     1  0.0000000  4.9162000  2
  19130  19124  19123  19131     1  0.0000000  0.6024960  3
  19131  19123  19120  19132     1  0.0000000  4.9162000  2
  19131  19123  19120  19132     1  0.0000000  0.6024960  3
  19132  19120  19119  19133     1  0.0000000  0.6508444  3
  19132  19120  19119  19141     1  0.0000000  4.9162000  2
  19132  19120  19119  19141     1  0.0000000  0.6024960  3
  19139  19133  19119  19141     1  0.0000000  4.9162000  2
  19139  19133  19119  19141     1  0.0000000  0.6024960  3
  19142  19143  19146  19147     1  180.0000771  0.8368000  1
  19142  19143  19146  19147     1  180.0000771  1.0460000  2
  19142  19143  19146  19147     1  0.0000000  0.7531200  3
  19142  19143  19146  19154     1  0.0000000  0.6508444  3
  19142  19164  19148  19147     1  180.0000771  0.4184000  2
  19142  19164  19148  19147     1  0.0000000  1.6024720  3
  19142  19164  19148  19152     1  180.0000771  5.6484000  1
  19142  19164  19148  19152     1  180.0000771  3.5564000  2
  19142  19164  19148  19152     1  0.0000000  0.4184000  3
  19143  19142  19156  19162     1  0.0000000  0.6508444  3
  19143  19142  19164  19148     1  180.0000771  0.4184000  2
  19143  19142  19164  19148     1  0.0000000  1.6024720  3
  19143  19146  19147  19148     1  180.0000771  0.8368000  1
  19143  19146  19147  19148     1  180.0000771  1.0460000  2
  19143  19146  19147  19148     1  0.0000000  0.7531200  3
  19143  19146  19147  19153     1  0.0000000  0.6508444  3
  19146  19143  19142  19156     1  180.0000771  0.8368000  1
  19146  19143  19142  19156     1  180.0000771  1.0460000  2
  19146  19143  19142  19156     1  0.0000000  0.7531200  3
  19146  19143  19142  19164     1  0.0000000  0.6508444  3
  19146  19147  19148  19152     1  0.0000000  0.6508444  3
  19146  19147  19148  19164     1  0.0000000  0.6508444  3
  19147  19146  19143  19155     1  0.0000000  0.6508444  3
  19148  19147  19146  19154     1  0.0000000  0.6508444  3
  19148  19164  19142  19156     1  180.0000771  0.4184000  2
  19148  19164  19142  19156     1  0.0000000  1.6024720  3
  19152  19148  19147  19153     1  0.0000000  4.9162000  2
  19152  19148  19147  19153     1  0.0000000  0.6024960  3
  19153  19147  19146  19154     1  0.0000000  4.9162000  2
  19153  19147  19146  19154     1  0.0000000  0.6024960  3
  19153  19147  19148  19164     1  0.0000000  4.9162000  2
  19153  19147  19148  19164     1  0.0000000  0.6024960  3
  19154  19146  19143  19155     1  0.0000000  4.9162000  2
  19154  19146  19143  19155     1  0.0000000  0.6024960  3
  19155  19143  19142  19156     1  0.0000000  0.6508444  3
  19155  19143  19142  19164     1  0.0000000  4.9162000  2
  19155  19143  19142  19164     1  0.0000000  0.6024960  3
  19162  19156  19142  19164     1  0.0000000  4.9162000  2
  19162  19156  19142  19164     1  0.0000000  0.6024960  3
  19165  19166  19169  19170     1  180.0000771  0.8368000  1
  19165  19166  19169  19170     1  180.0000771  1.0460000  2
  19165  19166  19169  19170     1  0.0000000  0.7531200  3
  19165  19166  19169  19177     1  0.0000000  0.6508444  3
  19165  19187  19171  19175     1  180.0000771  5.6484000  1
  19165  19187  19171  19175     1  180.0000771  3.5564000  2
  19165  19187  19171  19175     1  0.0000000  0.4184000  3
  19165  19187  19171  19170     1  180.0000771  0.4184000  2
  19165  19187  19171  19170     1  0.0000000  1.6024720  3
  19166  19169  19170  19171     1  180.0000771  0.8368000  1
  19166  19169  19170  19171     1  180.0000771  1.0460000  2
  19166  19169  19170  19171     1  0.0000000  0.7531200  3
  19166  19169  19170  19176     1  0.0000000  0.6508444  3
  19166  19165  19179  19185     1  0.0000000  0.6508444  3
  19166  19165  19187  19171     1  180.0000771  0.4184000  2
  19166  19165  19187  19171     1  0.0000000  1.6024720  3
  19169  19170  19171  19175     1  0.0000000  0.6508444  3
  19169  19170  19171  19187     1  0.0000000  0.6508444  3
  19169  19166  19165  19179     1  180.0000771  0.8368000  1
  19169  19166  19165  19179     1  180.0000771  1.0460000  2
  19169  19166  19165  19179     1  0.0000000  0.7531200  3
  19169  19166  19165  19187     1  0.0000000  0.6508444  3
  19170  19169  19166  19178     1  0.0000000  0.6508444  3
  19171  19187  19165  19179     1  180.0000771  0.4184000  2
  19171  19187  19165  19179     1  0.0000000  1.6024720  3
  19171  19170  19169  19177     1  0.0000000  0.6508444  3
  19175  19171  19170  19176     1  0.0000000  4.9162000  2
  19175  19171  19170  19176     1  0.0000000  0.6024960  3
  19176  19170  19171  19187     1  0.0000000  4.9162000  2
  19176  19170  19171  19187     1  0.0000000  0.6024960  3
  19176  19170  19169  19177     1  0.0000000  4.9162000  2
  19176  19170  19169  19177     1  0.0000000  0.6024960  3
  19177  19169  19166  19178     1  0.0000000  4.9162000  2
  19177  19169  19166  19178     1  0.0000000  0.6024960  3
  19178  19166  19165  19179     1  0.0000000  0.6508444  3
  19178  19166  19165  19187     1  0.0000000  4.9162000  2
  19178  19166  19165  19187     1  0.0000000  0.6024960  3
  19185  19179  19165  19187     1  0.0000000  4.9162000  2
  19185  19179  19165  19187     1  0.0000000  0.6024960  3
  19188  19189  19192  19193     1  180.0000771  0.8368000  1
  19188  19189  19192  19193     1  180.0000771  1.0460000  2
  19188  19189  19192  19193     1  0.0000000  0.7531200  3
  19188  19189  19192  19200     1  0.0000000  0.6508444  3
  19188  19210  19194  19193     1  180.0000771  0.4184000  2
  19188  19210  19194  19193     1  0.0000000  1.6024720  3
  19188  19210  19194  19198     1  180.0000771  5.6484000  1
  19188  19210  19194  19198     1  180.0000771  3.5564000  2
  19188  19210  19194  19198     1  0.0000000  0.4184000  3
  19189  19188  19202  19208     1  0.0000000  0.6508444  3
  19189  19188  19210  19194     1  180.0000771  0.4184000  2
  19189  19188  19210  19194     1  0.0000000  1.6024720  3
  19189  19192  19193  19194     1  180.0000771  0.8368000  1
  19189  19192  19193  19194     1  180.0000771  1.0460000  2
  19189  19192  19193  19194     1  0.0000000  0.7531200  3
  19189  19192  19193  19199     1  0.0000000  0.6508444  3
  19192  19189  19188  19202     1  180.0000771  0.8368000  1
  19192  19189  19188  19202     1  180.0000771  1.0460000  2
  19192  19189  19188  19202     1  0.0000000  0.7531200  3
  19192  19189  19188  19210     1  0.0000000  0.6508444  3
  19192  19193  19194  19198     1  0.0000000  0.6508444  3
  19192  19193  19194  19210     1  0.0000000  0.6508444  3
  19193  19192  19189  19201     1  0.0000000  0.6508444  3
  19194  19193  19192  19200     1  0.0000000  0.6508444  3
  19194  19210  19188  19202     1  180.0000771  0.4184000  2
  19194  19210  19188  19202     1  0.0000000  1.6024720  3
  19198  19194  19193  19199     1  0.0000000  4.9162000  2
  19198  19194  19193  19199     1  0.0000000  0.6024960  3
  19199  19193  19192  19200     1  0.0000000  4.9162000  2
  19199  19193  19192  19200     1  0.0000000  0.6024960  3
  19199  19193  19194  19210     1  0.0000000  4.9162000  2
  19199  19193  19194  19210     1  0.0000000  0.6024960  3
  19200  19192  19189  19201     1  0.0000000  4.9162000  2
  19200  19192  19189  19201     1  0.0000000  0.6024960  3
  19201  19189  19188  19202     1  0.0000000  0.6508444  3
  19201  19189  19188  19210     1  0.0000000  4.9162000  2
  19201  19189  19188  19210     1  0.0000000  0.6024960  3
  19208  19202  19188  19210     1  0.0000000  4.9162000  2
  19208  19202  19188  19210     1  0.0000000  0.6024960  3
  19211  19212  19215  19216     1  180.0000771  0.8368000  1
  19211  19212  19215  19216     1  180.0000771  1.0460000  2
  19211  19212  19215  19216     1  0.0000000  0.7531200  3
  19211  19212  19215  19223     1  0.0000000  0.6508444  3
  19211  19233  19217  19221     1  180.0000771  5.6484000  1
  19211  19233  19217  19221     1  180.0000771  3.5564000  2
  19211  19233  19217  19221     1  0.0000000  0.4184000  3
  19211  19233  19217  19216     1  180.0000771  0.4184000  2
  19211  19233  19217  19216     1  0.0000000  1.6024720  3
  19212  19215  19216  19217     1  180.0000771  0.8368000  1
  19212  19215  19216  19217     1  180.0000771  1.0460000  2
  19212  19215  19216  19217     1  0.0000000  0.7531200  3
  19212  19215  19216  19222     1  0.0000000  0.6508444  3
  19212  19211  19225  19231     1  0.0000000  0.6508444  3
  19212  19211  19233  19217     1  180.0000771  0.4184000  2
  19212  19211  19233  19217     1  0.0000000  1.6024720  3
  19215  19216  19217  19221     1  0.0000000  0.6508444  3
  19215  19216  19217  19233     1  0.0000000  0.6508444  3
  19215  19212  19211  19225     1  180.0000771  0.8368000  1
  19215  19212  19211  19225     1  180.0000771  1.0460000  2
  19215  19212  19211  19225     1  0.0000000  0.7531200  3
  19215  19212  19211  19233     1  0.0000000  0.6508444  3
  19216  19215  19212  19224     1  0.0000000  0.6508444  3
  19217  19233  19211  19225     1  180.0000771  0.4184000  2
  19217  19233  19211  19225     1  0.0000000  1.6024720  3
  19217  19216  19215  19223     1  0.0000000  0.6508444  3
  19221  19217  19216  19222     1  0.0000000  4.9162000  2
  19221  19217  19216  19222     1  0.0000000  0.6024960  3
  19222  19216  19217  19233     1  0.0000000  4.9162000  2
  19222  19216  19217  19233     1  0.0000000  0.6024960  3
  19222  19216  19215  19223     1  0.0000000  4.9162000  2
  19222  19216  19215  19223     1  0.0000000  0.6024960  3
  19223  19215  19212  19224     1  0.0000000  4.9162000  2
  19223  19215  19212  19224     1  0.0000000  0.6024960  3
  19224  19212  19211  19225     1  0.0000000  0.6508444  3
  19224  19212  19211  19233     1  0.0000000  4.9162000  2
  19224  19212  19211  19233     1  0.0000000  0.6024960  3
  19231  19225  19211  19233     1  0.0000000  4.9162000  2
  19231  19225  19211  19233     1  0.0000000  0.6024960  3
  19234  19235  19238  19239     1  180.0000771  0.8368000  1
  19234  19235  19238  19239     1  180.0000771  1.0460000  2
  19234  19235  19238  19239     1  0.0000000  0.7531200  3
  19234  19235  19238  19246     1  0.0000000  0.6508444  3
  19234  19256  19240  19239     1  180.0000771  0.4184000  2
  19234  19256  19240  19239     1  0.0000000  1.6024720  3
  19234  19256  19240  19244     1  180.0000771  5.6484000  1
  19234  19256  19240  19244     1  180.0000771  3.5564000  2
  19234  19256  19240  19244     1  0.0000000  0.4184000  3
  19235  19234  19248  19254     1  0.0000000  0.6508444  3
  19235  19234  19256  19240     1  180.0000771  0.4184000  2
  19235  19234  19256  19240     1  0.0000000  1.6024720  3
  19235  19238  19239  19240     1  180.0000771  0.8368000  1
  19235  19238  19239  19240     1  180.0000771  1.0460000  2
  19235  19238  19239  19240     1  0.0000000  0.7531200  3
  19235  19238  19239  19245     1  0.0000000  0.6508444  3
  19238  19235  19234  19248     1  180.0000771  0.8368000  1
  19238  19235  19234  19248     1  180.0000771  1.0460000  2
  19238  19235  19234  19248     1  0.0000000  0.7531200  3
  19238  19235  19234  19256     1  0.0000000  0.6508444  3
  19238  19239  19240  19244     1  0.0000000  0.6508444  3
  19238  19239  19240  19256     1  0.0000000  0.6508444  3
  19239  19238  19235  19247     1  0.0000000  0.6508444  3
  19240  19239  19238  19246     1  0.0000000  0.6508444  3
  19240  19256  19234  19248     1  180.0000771  0.4184000  2
  19240  19256  19234  19248     1  0.0000000  1.6024720  3
  19244  19240  19239  19245     1  0.0000000  4.9162000  2
  19244  19240  19239  19245     1  0.0000000  0.6024960  3
  19245  19239  19238  19246     1  0.0000000  4.9162000  2
  19245  19239  19238  19246     1  0.0000000  0.6024960  3
  19245  19239  19240  19256     1  0.0000000  4.9162000  2
  19245  19239  19240  19256     1  0.0000000  0.6024960  3
  19246  19238  19235  19247     1  0.0000000  4.9162000  2
  19246  19238  19235  19247     1  0.0000000  0.6024960  3
  19247  19235  19234  19248     1  0.0000000  0.6508444  3
  19247  19235  19234  19256     1  0.0000000  4.9162000  2
  19247  19235  19234  19256     1  0.0000000  0.6024960  3
  19254  19248  19234  19256     1  0.0000000  4.9162000  2
  19254  19248  19234  19256     1  0.0000000  0.6024960  3
  19257  19258  19261  19262     1  180.0000771  0.8368000  1
  19257  19258  19261  19262     1  180.0000771  1.0460000  2
  19257  19258  19261  19262     1  0.0000000  0.7531200  3
  19257  19258  19261  19269     1  0.0000000  0.6508444  3
  19257  19279  19263  19267     1  180.0000771  5.6484000  1
  19257  19279  19263  19267     1  180.0000771  3.5564000  2
  19257  19279  19263  19267     1  0.0000000  0.4184000  3
  19257  19279  19263  19262     1  180.0000771  0.4184000  2
  19257  19279  19263  19262     1  0.0000000  1.6024720  3
  19258  19261  19262  19263     1  180.0000771  0.8368000  1
  19258  19261  19262  19263     1  180.0000771  1.0460000  2
  19258  19261  19262  19263     1  0.0000000  0.7531200  3
  19258  19261  19262  19268     1  0.0000000  0.6508444  3
  19258  19257  19271  19277     1  0.0000000  0.6508444  3
  19258  19257  19279  19263     1  180.0000771  0.4184000  2
  19258  19257  19279  19263     1  0.0000000  1.6024720  3
  19261  19262  19263  19267     1  0.0000000  0.6508444  3
  19261  19262  19263  19279     1  0.0000000  0.6508444  3
  19261  19258  19257  19271     1  180.0000771  0.8368000  1
  19261  19258  19257  19271     1  180.0000771  1.0460000  2
  19261  19258  19257  19271     1  0.0000000  0.7531200  3
  19261  19258  19257  19279     1  0.0000000  0.6508444  3
  19262  19261  19258  19270     1  0.0000000  0.6508444  3
  19263  19279  19257  19271     1  180.0000771  0.4184000  2
  19263  19279  19257  19271     1  0.0000000  1.6024720  3
  19263  19262  19261  19269     1  0.0000000  0.6508444  3
  19267  19263  19262  19268     1  0.0000000  4.9162000  2
  19267  19263  19262  19268     1  0.0000000  0.6024960  3
  19268  19262  19263  19279     1  0.0000000  4.9162000  2
  19268  19262  19263  19279     1  0.0000000  0.6024960  3
  19268  19262  19261  19269     1  0.0000000  4.9162000  2
  19268  19262  19261  19269     1  0.0000000  0.6024960  3
  19269  19261  19258  19270     1  0.0000000  4.9162000  2
  19269  19261  19258  19270     1  0.0000000  0.6024960  3
  19270  19258  19257  19271     1  0.0000000  0.6508444  3
  19270  19258  19257  19279     1  0.0000000  4.9162000  2
  19270  19258  19257  19279     1  0.0000000  0.6024960  3
  19277  19271  19257  19279     1  0.0000000  4.9162000  2
  19277  19271  19257  19279     1  0.0000000  0.6024960  3
  19280  19281  19284  19285     1  180.0000771  0.8368000  1
  19280  19281  19284  19285     1  180.0000771  1.0460000  2
  19280  19281  19284  19285     1  0.0000000  0.7531200  3
  19280  19281  19284  19292     1  0.0000000  0.6508444  3
  19280  19302  19286  19285     1  180.0000771  0.4184000  2
  19280  19302  19286  19285     1  0.0000000  1.6024720  3
  19280  19302  19286  19290     1  180.0000771  5.6484000  1
  19280  19302  19286  19290     1  180.0000771  3.5564000  2
  19280  19302  19286  19290     1  0.0000000  0.4184000  3
  19281  19280  19294  19300     1  0.0000000  0.6508444  3
  19281  19280  19302  19286     1  180.0000771  0.4184000  2
  19281  19280  19302  19286     1  0.0000000  1.6024720  3
  19281  19284  19285  19286     1  180.0000771  0.8368000  1
  19281  19284  19285  19286     1  180.0000771  1.0460000  2
  19281  19284  19285  19286     1  0.0000000  0.7531200  3
  19281  19284  19285  19291     1  0.0000000  0.6508444  3
  19284  19281  19280  19294     1  180.0000771  0.8368000  1
  19284  19281  19280  19294     1  180.0000771  1.0460000  2
  19284  19281  19280  19294     1  0.0000000  0.7531200  3
  19284  19281  19280  19302     1  0.0000000  0.6508444  3
  19284  19285  19286  19290     1  0.0000000  0.6508444  3
  19284  19285  19286  19302     1  0.0000000  0.6508444  3
  19285  19284  19281  19293     1  0.0000000  0.6508444  3
  19286  19285  19284  19292     1  0.0000000  0.6508444  3
  19286  19302  19280  19294     1  180.0000771  0.4184000  2
  19286  19302  19280  19294     1  0.0000000  1.6024720  3
  19290  19286  19285  19291     1  0.0000000  4.9162000  2
  19290  19286  19285  19291     1  0.0000000  0.6024960  3
  19291  19285  19284  19292     1  0.0000000  4.9162000  2
  19291  19285  19284  19292     1  0.0000000  0.6024960  3
  19291  19285  19286  19302     1  0.0000000  4.9162000  2
  19291  19285  19286  19302     1  0.0000000  0.6024960  3
  19292  19284  19281  19293     1  0.0000000  4.9162000  2
  19292  19284  19281  19293     1  0.0000000  0.6024960  3
  19293  19281  19280  19294     1  0.0000000  0.6508444  3
  19293  19281  19280  19302     1  0.0000000  4.9162000  2
  19293  19281  19280  19302     1  0.0000000  0.6024960  3
  19300  19294  19280  19302     1  0.0000000  4.9162000  2
  19300  19294  19280  19302     1  0.0000000  0.6024960  3
  19303  19304  19307  19308     1  180.0000771  0.8368000  1
  19303  19304  19307  19308     1  180.0000771  1.0460000  2
  19303  19304  19307  19308     1  0.0000000  0.7531200  3
  19303  19304  19307  19315     1  0.0000000  0.6508444  3
  19303  19325  19309  19313     1  180.0000771  5.6484000  1
  19303  19325  19309  19313     1  180.0000771  3.5564000  2
  19303  19325  19309  19313     1  0.0000000  0.4184000  3
  19303  19325  19309  19308     1  180.0000771  0.4184000  2
  19303  19325  19309  19308     1  0.0000000  1.6024720  3
  19304  19307  19308  19309     1  180.0000771  0.8368000  1
  19304  19307  19308  19309     1  180.0000771  1.0460000  2
  19304  19307  19308  19309     1  0.0000000  0.7531200  3
  19304  19307  19308  19314     1  0.0000000  0.6508444  3
  19304  19303  19317  19323     1  0.0000000  0.6508444  3
  19304  19303  19325  19309     1  180.0000771  0.4184000  2
  19304  19303  19325  19309     1  0.0000000  1.6024720  3
  19307  19308  19309  19313     1  0.0000000  0.6508444  3
  19307  19308  19309  19325     1  0.0000000  0.6508444  3
  19307  19304  19303  19317     1  180.0000771  0.8368000  1
  19307  19304  19303  19317     1  180.0000771  1.0460000  2
  19307  19304  19303  19317     1  0.0000000  0.7531200  3
  19307  19304  19303  19325     1  0.0000000  0.6508444  3
  19308  19307  19304  19316     1  0.0000000  0.6508444  3
  19309  19325  19303  19317     1  180.0000771  0.4184000  2
  19309  19325  19303  19317     1  0.0000000  1.6024720  3
  19309  19308  19307  19315     1  0.0000000  0.6508444  3
  19313  19309  19308  19314     1  0.0000000  4.9162000  2
  19313  19309  19308  19314     1  0.0000000  0.6024960  3
  19314  19308  19309  19325     1  0.0000000  4.9162000  2
  19314  19308  19309  19325     1  0.0000000  0.6024960  3
  19314  19308  19307  19315     1  0.0000000  4.9162000  2
  19314  19308  19307  19315     1  0.0000000  0.6024960  3
  19315  19307  19304  19316     1  0.0000000  4.9162000  2
  19315  19307  19304  19316     1  0.0000000  0.6024960  3
  19316  19304  19303  19317     1  0.0000000  0.6508444  3
  19316  19304  19303  19325     1  0.0000000  4.9162000  2
  19316  19304  19303  19325     1  0.0000000  0.6024960  3
  19323  19317  19303  19325     1  0.0000000  4.9162000  2
  19323  19317  19303  19325     1  0.0000000  0.6024960  3
  19326  19327  19330  19331     1  180.0000771  0.8368000  1
  19326  19327  19330  19331     1  180.0000771  1.0460000  2
  19326  19327  19330  19331     1  0.0000000  0.7531200  3
  19326  19327  19330  19338     1  0.0000000  0.6508444  3
  19326  19348  19332  19331     1  180.0000771  0.4184000  2
  19326  19348  19332  19331     1  0.0000000  1.6024720  3
  19326  19348  19332  19336     1  180.0000771  5.6484000  1
  19326  19348  19332  19336     1  180.0000771  3.5564000  2
  19326  19348  19332  19336     1  0.0000000  0.4184000  3
  19327  19326  19340  19346     1  0.0000000  0.6508444  3
  19327  19326  19348  19332     1  180.0000771  0.4184000  2
  19327  19326  19348  19332     1  0.0000000  1.6024720  3
  19327  19330  19331  19332     1  180.0000771  0.8368000  1
  19327  19330  19331  19332     1  180.0000771  1.0460000  2
  19327  19330  19331  19332     1  0.0000000  0.7531200  3
  19327  19330  19331  19337     1  0.0000000  0.6508444  3
  19330  19327  19326  19340     1  180.0000771  0.8368000  1
  19330  19327  19326  19340     1  180.0000771  1.0460000  2
  19330  19327  19326  19340     1  0.0000000  0.7531200  3
  19330  19327  19326  19348     1  0.0000000  0.6508444  3
  19330  19331  19332  19336     1  0.0000000  0.6508444  3
  19330  19331  19332  19348     1  0.0000000  0.6508444  3
  19331  19330  19327  19339     1  0.0000000  0.6508444  3
  19332  19331  19330  19338     1  0.0000000  0.6508444  3
  19332  19348  19326  19340     1  180.0000771  0.4184000  2
  19332  19348  19326  19340     1  0.0000000  1.6024720  3
  19336  19332  19331  19337     1  0.0000000  4.9162000  2
  19336  19332  19331  19337     1  0.0000000  0.6024960  3
  19337  19331  19330  19338     1  0.0000000  4.9162000  2
  19337  19331  19330  19338     1  0.0000000  0.6024960  3
  19337  19331  19332  19348     1  0.0000000  4.9162000  2
  19337  19331  19332  19348     1  0.0000000  0.6024960  3
  19338  19330  19327  19339     1  0.0000000  4.9162000  2
  19338  19330  19327  19339     1  0.0000000  0.6024960  3
  19339  19327  19326  19340     1  0.0000000  0.6508444  3
  19339  19327  19326  19348     1  0.0000000  4.9162000  2
  19339  19327  19326  19348     1  0.0000000  0.6024960  3
  19346  19340  19326  19348     1  0.0000000  4.9162000  2
  19346  19340  19326  19348     1  0.0000000  0.6024960  3
  19349  19350  19353  19354     1  180.0000771  0.8368000  1
  19349  19350  19353  19354     1  180.0000771  1.0460000  2
  19349  19350  19353  19354     1  0.0000000  0.7531200  3
  19349  19350  19353  19361     1  0.0000000  0.6508444  3
  19349  19371  19355  19359     1  180.0000771  5.6484000  1
  19349  19371  19355  19359     1  180.0000771  3.5564000  2
  19349  19371  19355  19359     1  0.0000000  0.4184000  3
  19349  19371  19355  19354     1  180.0000771  0.4184000  2
  19349  19371  19355  19354     1  0.0000000  1.6024720  3
  19350  19353  19354  19355     1  180.0000771  0.8368000  1
  19350  19353  19354  19355     1  180.0000771  1.0460000  2
  19350  19353  19354  19355     1  0.0000000  0.7531200  3
  19350  19353  19354  19360     1  0.0000000  0.6508444  3
  19350  19349  19363  19369     1  0.0000000  0.6508444  3
  19350  19349  19371  19355     1  180.0000771  0.4184000  2
  19350  19349  19371  19355     1  0.0000000  1.6024720  3
  19353  19354  19355  19359     1  0.0000000  0.6508444  3
  19353  19354  19355  19371     1  0.0000000  0.6508444  3
  19353  19350  19349  19363     1  180.0000771  0.8368000  1
  19353  19350  19349  19363     1  180.0000771  1.0460000  2
  19353  19350  19349  19363     1  0.0000000  0.7531200  3
  19353  19350  19349  19371     1  0.0000000  0.6508444  3
  19354  19353  19350  19362     1  0.0000000  0.6508444  3
  19355  19371  19349  19363     1  180.0000771  0.4184000  2
  19355  19371  19349  19363     1  0.0000000  1.6024720  3
  19355  19354  19353  19361     1  0.0000000  0.6508444  3
  19359  19355  19354  19360     1  0.0000000  4.9162000  2
  19359  19355  19354  19360     1  0.0000000  0.6024960  3
  19360  19354  19355  19371     1  0.0000000  4.9162000  2
  19360  19354  19355  19371     1  0.0000000  0.6024960  3
  19360  19354  19353  19361     1  0.0000000  4.9162000  2
  19360  19354  19353  19361     1  0.0000000  0.6024960  3
  19361  19353  19350  19362     1  0.0000000  4.9162000  2
  19361  19353  19350  19362     1  0.0000000  0.6024960  3
  19362  19350  19349  19363     1  0.0000000  0.6508444  3
  19362  19350  19349  19371     1  0.0000000  4.9162000  2
  19362  19350  19349  19371     1  0.0000000  0.6024960  3
  19369  19363  19349  19371     1  0.0000000  4.9162000  2
  19369  19363  19349  19371     1  0.0000000  0.6024960  3
  19372  19373  19376  19377     1  180.0000771  0.8368000  1
  19372  19373  19376  19377     1  180.0000771  1.0460000  2
  19372  19373  19376  19377     1  0.0000000  0.7531200  3
  19372  19373  19376  19384     1  0.0000000  0.6508444  3
  19372  19394  19378  19377     1  180.0000771  0.4184000  2
  19372  19394  19378  19377     1  0.0000000  1.6024720  3
  19372  19394  19378  19382     1  180.0000771  5.6484000  1
  19372  19394  19378  19382     1  180.0000771  3.5564000  2
  19372  19394  19378  19382     1  0.0000000  0.4184000  3
  19373  19372  19386  19392     1  0.0000000  0.6508444  3
  19373  19372  19394  19378     1  180.0000771  0.4184000  2
  19373  19372  19394  19378     1  0.0000000  1.6024720  3
  19373  19376  19377  19378     1  180.0000771  0.8368000  1
  19373  19376  19377  19378     1  180.0000771  1.0460000  2
  19373  19376  19377  19378     1  0.0000000  0.7531200  3
  19373  19376  19377  19383     1  0.0000000  0.6508444  3
  19376  19373  19372  19386     1  180.0000771  0.8368000  1
  19376  19373  19372  19386     1  180.0000771  1.0460000  2
  19376  19373  19372  19386     1  0.0000000  0.7531200  3
  19376  19373  19372  19394     1  0.0000000  0.6508444  3
  19376  19377  19378  19382     1  0.0000000  0.6508444  3
  19376  19377  19378  19394     1  0.0000000  0.6508444  3
  19377  19376  19373  19385     1  0.0000000  0.6508444  3
  19378  19377  19376  19384     1  0.0000000  0.6508444  3
  19378  19394  19372  19386     1  180.0000771  0.4184000  2
  19378  19394  19372  19386     1  0.0000000  1.6024720  3
  19382  19378  19377  19383     1  0.0000000  4.9162000  2
  19382  19378  19377  19383     1  0.0000000  0.6024960  3
  19383  19377  19376  19384     1  0.0000000  4.9162000  2
  19383  19377  19376  19384     1  0.0000000  0.6024960  3
  19383  19377  19378  19394     1  0.0000000  4.9162000  2
  19383  19377  19378  19394     1  0.0000000  0.6024960  3
  19384  19376  19373  19385     1  0.0000000  4.9162000  2
  19384  19376  19373  19385     1  0.0000000  0.6024960  3
  19385  19373  19372  19386     1  0.0000000  0.6508444  3
  19385  19373  19372  19394     1  0.0000000  4.9162000  2
  19385  19373  19372  19394     1  0.0000000  0.6024960  3
  19392  19386  19372  19394     1  0.0000000  4.9162000  2
  19392  19386  19372  19394     1  0.0000000  0.6024960  3
  19395  19396  19399  19400     1  180.0000771  0.8368000  1
  19395  19396  19399  19400     1  180.0000771  1.0460000  2
  19395  19396  19399  19400     1  0.0000000  0.7531200  3
  19395  19396  19399  19407     1  0.0000000  0.6508444  3
  19395  19417  19401  19405     1  180.0000771  5.6484000  1
  19395  19417  19401  19405     1  180.0000771  3.5564000  2
  19395  19417  19401  19405     1  0.0000000  0.4184000  3
  19395  19417  19401  19400     1  180.0000771  0.4184000  2
  19395  19417  19401  19400     1  0.0000000  1.6024720  3
  19396  19399  19400  19401     1  180.0000771  0.8368000  1
  19396  19399  19400  19401     1  180.0000771  1.0460000  2
  19396  19399  19400  19401     1  0.0000000  0.7531200  3
  19396  19399  19400  19406     1  0.0000000  0.6508444  3
  19396  19395  19409  19415     1  0.0000000  0.6508444  3
  19396  19395  19417  19401     1  180.0000771  0.4184000  2
  19396  19395  19417  19401     1  0.0000000  1.6024720  3
  19399  19400  19401  19405     1  0.0000000  0.6508444  3
  19399  19400  19401  19417     1  0.0000000  0.6508444  3
  19399  19396  19395  19409     1  180.0000771  0.8368000  1
  19399  19396  19395  19409     1  180.0000771  1.0460000  2
  19399  19396  19395  19409     1  0.0000000  0.7531200  3
  19399  19396  19395  19417     1  0.0000000  0.6508444  3
  19400  19399  19396  19408     1  0.0000000  0.6508444  3
  19401  19417  19395  19409     1  180.0000771  0.4184000  2
  19401  19417  19395  19409     1  0.0000000  1.6024720  3
  19401  19400  19399  19407     1  0.0000000  0.6508444  3
  19405  19401  19400  19406     1  0.0000000  4.9162000  2
  19405  19401  19400  19406     1  0.0000000  0.6024960  3
  19406  19400  19401  19417     1  0.0000000  4.9162000  2
  19406  19400  19401  19417     1  0.0000000  0.6024960  3
  19406  19400  19399  19407     1  0.0000000  4.9162000  2
  19406  19400  19399  19407     1  0.0000000  0.6024960  3
  19407  19399  19396  19408     1  0.0000000  4.9162000  2
  19407  19399  19396  19408     1  0.0000000  0.6024960  3
  19408  19396  19395  19409     1  0.0000000  0.6508444  3
  19408  19396  19395  19417     1  0.0000000  4.9162000  2
  19408  19396  19395  19417     1  0.0000000  0.6024960  3
  19415  19409  19395  19417     1  0.0000000  4.9162000  2
  19415  19409  19395  19417     1  0.0000000  0.6024960  3
  19418  19419  19422  19423     1  180.0000771  0.8368000  1
  19418  19419  19422  19423     1  180.0000771  1.0460000  2
  19418  19419  19422  19423     1  0.0000000  0.7531200  3
  19418  19419  19422  19430     1  0.0000000  0.6508444  3
  19418  19440  19424  19423     1  180.0000771  0.4184000  2
  19418  19440  19424  19423     1  0.0000000  1.6024720  3
  19418  19440  19424  19428     1  180.0000771  5.6484000  1
  19418  19440  19424  19428     1  180.0000771  3.5564000  2
  19418  19440  19424  19428     1  0.0000000  0.4184000  3
  19419  19418  19432  19438     1  0.0000000  0.6508444  3
  19419  19418  19440  19424     1  180.0000771  0.4184000  2
  19419  19418  19440  19424     1  0.0000000  1.6024720  3
  19419  19422  19423  19424     1  180.0000771  0.8368000  1
  19419  19422  19423  19424     1  180.0000771  1.0460000  2
  19419  19422  19423  19424     1  0.0000000  0.7531200  3
  19419  19422  19423  19429     1  0.0000000  0.6508444  3
  19422  19419  19418  19432     1  180.0000771  0.8368000  1
  19422  19419  19418  19432     1  180.0000771  1.0460000  2
  19422  19419  19418  19432     1  0.0000000  0.7531200  3
  19422  19419  19418  19440     1  0.0000000  0.6508444  3
  19422  19423  19424  19428     1  0.0000000  0.6508444  3
  19422  19423  19424  19440     1  0.0000000  0.6508444  3
  19423  19422  19419  19431     1  0.0000000  0.6508444  3
  19424  19423  19422  19430     1  0.0000000  0.6508444  3
  19424  19440  19418  19432     1  180.0000771  0.4184000  2
  19424  19440  19418  19432     1  0.0000000  1.6024720  3
  19428  19424  19423  19429     1  0.0000000  4.9162000  2
  19428  19424  19423  19429     1  0.0000000  0.6024960  3
  19429  19423  19422  19430     1  0.0000000  4.9162000  2
  19429  19423  19422  19430     1  0.0000000  0.6024960  3
  19429  19423  19424  19440     1  0.0000000  4.9162000  2
  19429  19423  19424  19440     1  0.0000000  0.6024960  3
  19430  19422  19419  19431     1  0.0000000  4.9162000  2
  19430  19422  19419  19431     1  0.0000000  0.6024960  3
  19431  19419  19418  19432     1  0.0000000  0.6508444  3
  19431  19419  19418  19440     1  0.0000000  4.9162000  2
  19431  19419  19418  19440     1  0.0000000  0.6024960  3
  19438  19432  19418  19440     1  0.0000000  4.9162000  2
  19438  19432  19418  19440     1  0.0000000  0.6024960  3
  19441  19442  19445  19446     1  180.0000771  0.8368000  1
  19441  19442  19445  19446     1  180.0000771  1.0460000  2
  19441  19442  19445  19446     1  0.0000000  0.7531200  3
  19441  19442  19445  19453     1  0.0000000  0.6508444  3
  19441  19463  19447  19451     1  180.0000771  5.6484000  1
  19441  19463  19447  19451     1  180.0000771  3.5564000  2
  19441  19463  19447  19451     1  0.0000000  0.4184000  3
  19441  19463  19447  19446     1  180.0000771  0.4184000  2
  19441  19463  19447  19446     1  0.0000000  1.6024720  3
  19442  19445  19446  19447     1  180.0000771  0.8368000  1
  19442  19445  19446  19447     1  180.0000771  1.0460000  2
  19442  19445  19446  19447     1  0.0000000  0.7531200  3
  19442  19445  19446  19452     1  0.0000000  0.6508444  3
  19442  19441  19455  19461     1  0.0000000  0.6508444  3
  19442  19441  19463  19447     1  180.0000771  0.4184000  2
  19442  19441  19463  19447     1  0.0000000  1.6024720  3
  19445  19446  19447  19451     1  0.0000000  0.6508444  3
  19445  19446  19447  19463     1  0.0000000  0.6508444  3
  19445  19442  19441  19455     1  180.0000771  0.8368000  1
  19445  19442  19441  19455     1  180.0000771  1.0460000  2
  19445  19442  19441  19455     1  0.0000000  0.7531200  3
  19445  19442  19441  19463     1  0.0000000  0.6508444  3
  19446  19445  19442  19454     1  0.0000000  0.6508444  3
  19447  19463  19441  19455     1  180.0000771  0.4184000  2
  19447  19463  19441  19455     1  0.0000000  1.6024720  3
  19447  19446  19445  19453     1  0.0000000  0.6508444  3
  19451  19447  19446  19452     1  0.0000000  4.9162000  2
  19451  19447  19446  19452     1  0.0000000  0.6024960  3
  19452  19446  19447  19463     1  0.0000000  4.9162000  2
  19452  19446  19447  19463     1  0.0000000  0.6024960  3
  19452  19446  19445  19453     1  0.0000000  4.9162000  2
  19452  19446  19445  19453     1  0.0000000  0.6024960  3
  19453  19445  19442  19454     1  0.0000000  4.9162000  2
  19453  19445  19442  19454     1  0.0000000  0.6024960  3
  19454  19442  19441  19455     1  0.0000000  0.6508444  3
  19454  19442  19441  19463     1  0.0000000  4.9162000  2
  19454  19442  19441  19463     1  0.0000000  0.6024960  3
  19461  19455  19441  19463     1  0.0000000  4.9162000  2
  19461  19455  19441  19463     1  0.0000000  0.6024960  3
  19464  19465  19468  19469     1  180.0000771  0.8368000  1
  19464  19465  19468  19469     1  180.0000771  1.0460000  2
  19464  19465  19468  19469     1  0.0000000  0.7531200  3
  19464  19465  19468  19476     1  0.0000000  0.6508444  3
  19464  19486  19470  19469     1  180.0000771  0.4184000  2
  19464  19486  19470  19469     1  0.0000000  1.6024720  3
  19464  19486  19470  19474     1  180.0000771  5.6484000  1
  19464  19486  19470  19474     1  180.0000771  3.5564000  2
  19464  19486  19470  19474     1  0.0000000  0.4184000  3
  19465  19464  19478  19484     1  0.0000000  0.6508444  3
  19465  19464  19486  19470     1  180.0000771  0.4184000  2
  19465  19464  19486  19470     1  0.0000000  1.6024720  3
  19465  19468  19469  19470     1  180.0000771  0.8368000  1
  19465  19468  19469  19470     1  180.0000771  1.0460000  2
  19465  19468  19469  19470     1  0.0000000  0.7531200  3
  19465  19468  19469  19475     1  0.0000000  0.6508444  3
  19468  19465  19464  19478     1  180.0000771  0.8368000  1
  19468  19465  19464  19478     1  180.0000771  1.0460000  2
  19468  19465  19464  19478     1  0.0000000  0.7531200  3
  19468  19465  19464  19486     1  0.0000000  0.6508444  3
  19468  19469  19470  19474     1  0.0000000  0.6508444  3
  19468  19469  19470  19486     1  0.0000000  0.6508444  3
  19469  19468  19465  19477     1  0.0000000  0.6508444  3
  19470  19469  19468  19476     1  0.0000000  0.6508444  3
  19470  19486  19464  19478     1  180.0000771  0.4184000  2
  19470  19486  19464  19478     1  0.0000000  1.6024720  3
  19474  19470  19469  19475     1  0.0000000  4.9162000  2
  19474  19470  19469  19475     1  0.0000000  0.6024960  3
  19475  19469  19468  19476     1  0.0000000  4.9162000  2
  19475  19469  19468  19476     1  0.0000000  0.6024960  3
  19475  19469  19470  19486     1  0.0000000  4.9162000  2
  19475  19469  19470  19486     1  0.0000000  0.6024960  3
  19476  19468  19465  19477     1  0.0000000  4.9162000  2
  19476  19468  19465  19477     1  0.0000000  0.6024960  3
  19477  19465  19464  19478     1  0.0000000  0.6508444  3
  19477  19465  19464  19486     1  0.0000000  4.9162000  2
  19477  19465  19464  19486     1  0.0000000  0.6024960  3
  19484  19478  19464  19486     1  0.0000000  4.9162000  2
  19484  19478  19464  19486     1  0.0000000  0.6024960  3
  19487  19488  19491  19492     1  180.0000771  0.8368000  1
  19487  19488  19491  19492     1  180.0000771  1.0460000  2
  19487  19488  19491  19492     1  0.0000000  0.7531200  3
  19487  19488  19491  19499     1  0.0000000  0.6508444  3
  19487  19509  19493  19497     1  180.0000771  5.6484000  1
  19487  19509  19493  19497     1  180.0000771  3.5564000  2
  19487  19509  19493  19497     1  0.0000000  0.4184000  3
  19487  19509  19493  19492     1  180.0000771  0.4184000  2
  19487  19509  19493  19492     1  0.0000000  1.6024720  3
  19488  19491  19492  19493     1  180.0000771  0.8368000  1
  19488  19491  19492  19493     1  180.0000771  1.0460000  2
  19488  19491  19492  19493     1  0.0000000  0.7531200  3
  19488  19491  19492  19498     1  0.0000000  0.6508444  3
  19488  19487  19501  19507     1  0.0000000  0.6508444  3
  19488  19487  19509  19493     1  180.0000771  0.4184000  2
  19488  19487  19509  19493     1  0.0000000  1.6024720  3
  19491  19492  19493  19497     1  0.0000000  0.6508444  3
  19491  19492  19493  19509     1  0.0000000  0.6508444  3
  19491  19488  19487  19501     1  180.0000771  0.8368000  1
  19491  19488  19487  19501     1  180.0000771  1.0460000  2
  19491  19488  19487  19501     1  0.0000000  0.7531200  3
  19491  19488  19487  19509     1  0.0000000  0.6508444  3
  19492  19491  19488  19500     1  0.0000000  0.6508444  3
  19493  19509  19487  19501     1  180.0000771  0.4184000  2
  19493  19509  19487  19501     1  0.0000000  1.6024720  3
  19493  19492  19491  19499     1  0.0000000  0.6508444  3
  19497  19493  19492  19498     1  0.0000000  4.9162000  2
  19497  19493  19492  19498     1  0.0000000  0.6024960  3
  19498  19492  19493  19509     1  0.0000000  4.9162000  2
  19498  19492  19493  19509     1  0.0000000  0.6024960  3
  19498  19492  19491  19499     1  0.0000000  4.9162000  2
  19498  19492  19491  19499     1  0.0000000  0.6024960  3
  19499  19491  19488  19500     1  0.0000000  4.9162000  2
  19499  19491  19488  19500     1  0.0000000  0.6024960  3
  19500  19488  19487  19501     1  0.0000000  0.6508444  3
  19500  19488  19487  19509     1  0.0000000  4.9162000  2
  19500  19488  19487  19509     1  0.0000000  0.6024960  3
  19507  19501  19487  19509     1  0.0000000  4.9162000  2
  19507  19501  19487  19509     1  0.0000000  0.6024960  3
  19510  19511  19514  19515     1  180.0000771  0.8368000  1
  19510  19511  19514  19515     1  180.0000771  1.0460000  2
  19510  19511  19514  19515     1  0.0000000  0.7531200  3
  19510  19511  19514  19522     1  0.0000000  0.6508444  3
  19510  19532  19516  19515     1  180.0000771  0.4184000  2
  19510  19532  19516  19515     1  0.0000000  1.6024720  3
  19510  19532  19516  19520     1  180.0000771  5.6484000  1
  19510  19532  19516  19520     1  180.0000771  3.5564000  2
  19510  19532  19516  19520     1  0.0000000  0.4184000  3
  19511  19510  19524  19530     1  0.0000000  0.6508444  3
  19511  19510  19532  19516     1  180.0000771  0.4184000  2
  19511  19510  19532  19516     1  0.0000000  1.6024720  3
  19511  19514  19515  19516     1  180.0000771  0.8368000  1
  19511  19514  19515  19516     1  180.0000771  1.0460000  2
  19511  19514  19515  19516     1  0.0000000  0.7531200  3
  19511  19514  19515  19521     1  0.0000000  0.6508444  3
  19514  19511  19510  19524     1  180.0000771  0.8368000  1
  19514  19511  19510  19524     1  180.0000771  1.0460000  2
  19514  19511  19510  19524     1  0.0000000  0.7531200  3
  19514  19511  19510  19532     1  0.0000000  0.6508444  3
  19514  19515  19516  19520     1  0.0000000  0.6508444  3
  19514  19515  19516  19532     1  0.0000000  0.6508444  3
  19515  19514  19511  19523     1  0.0000000  0.6508444  3
  19516  19515  19514  19522     1  0.0000000  0.6508444  3
  19516  19532  19510  19524     1  180.0000771  0.4184000  2
  19516  19532  19510  19524     1  0.0000000  1.6024720  3
  19520  19516  19515  19521     1  0.0000000  4.9162000  2
  19520  19516  19515  19521     1  0.0000000  0.6024960  3
  19521  19515  19514  19522     1  0.0000000  4.9162000  2
  19521  19515  19514  19522     1  0.0000000  0.6024960  3
  19521  19515  19516  19532     1  0.0000000  4.9162000  2
  19521  19515  19516  19532     1  0.0000000  0.6024960  3
  19522  19514  19511  19523     1  0.0000000  4.9162000  2
  19522  19514  19511  19523     1  0.0000000  0.6024960  3
  19523  19511  19510  19524     1  0.0000000  0.6508444  3
  19523  19511  19510  19532     1  0.0000000  4.9162000  2
  19523  19511  19510  19532     1  0.0000000  0.6024960  3
  19530  19524  19510  19532     1  0.0000000  4.9162000  2
  19530  19524  19510  19532     1  0.0000000  0.6024960  3
  19533  19534  19537  19538     1  180.0000771  0.8368000  1
  19533  19534  19537  19538     1  180.0000771  1.0460000  2
  19533  19534  19537  19538     1  0.0000000  0.7531200  3
  19533  19534  19537  19545     1  0.0000000  0.6508444  3
  19533  19555  19539  19543     1  180.0000771  5.6484000  1
  19533  19555  19539  19543     1  180.0000771  3.5564000  2
  19533  19555  19539  19543     1  0.0000000  0.4184000  3
  19533  19555  19539  19538     1  180.0000771  0.4184000  2
  19533  19555  19539  19538     1  0.0000000  1.6024720  3
  19534  19537  19538  19539     1  180.0000771  0.8368000  1
  19534  19537  19538  19539     1  180.0000771  1.0460000  2
  19534  19537  19538  19539     1  0.0000000  0.7531200  3
  19534  19537  19538  19544     1  0.0000000  0.6508444  3
  19534  19533  19547  19553     1  0.0000000  0.6508444  3
  19534  19533  19555  19539     1  180.0000771  0.4184000  2
  19534  19533  19555  19539     1  0.0000000  1.6024720  3
  19537  19538  19539  19543     1  0.0000000  0.6508444  3
  19537  19538  19539  19555     1  0.0000000  0.6508444  3
  19537  19534  19533  19547     1  180.0000771  0.8368000  1
  19537  19534  19533  19547     1  180.0000771  1.0460000  2
  19537  19534  19533  19547     1  0.0000000  0.7531200  3
  19537  19534  19533  19555     1  0.0000000  0.6508444  3
  19538  19537  19534  19546     1  0.0000000  0.6508444  3
  19539  19555  19533  19547     1  180.0000771  0.4184000  2
  19539  19555  19533  19547     1  0.0000000  1.6024720  3
  19539  19538  19537  19545     1  0.0000000  0.6508444  3
  19543  19539  19538  19544     1  0.0000000  4.9162000  2
  19543  19539  19538  19544     1  0.0000000  0.6024960  3
  19544  19538  19539  19555     1  0.0000000  4.9162000  2
  19544  19538  19539  19555     1  0.0000000  0.6024960  3
  19544  19538  19537  19545     1  0.0000000  4.9162000  2
  19544  19538  19537  19545     1  0.0000000  0.6024960  3
  19545  19537  19534  19546     1  0.0000000  4.9162000  2
  19545  19537  19534  19546     1  0.0000000  0.6024960  3
  19546  19534  19533  19547     1  0.0000000  0.6508444  3
  19546  19534  19533  19555     1  0.0000000  4.9162000  2
  19546  19534  19533  19555     1  0.0000000  0.6024960  3
  19553  19547  19533  19555     1  0.0000000  4.9162000  2
  19553  19547  19533  19555     1  0.0000000  0.6024960  3
  19556  19557  19560  19561     1  180.0000771  0.8368000  1
  19556  19557  19560  19561     1  180.0000771  1.0460000  2
  19556  19557  19560  19561     1  0.0000000  0.7531200  3
  19556  19557  19560  19568     1  0.0000000  0.6508444  3
  19556  19578  19562  19561     1  180.0000771  0.4184000  2
  19556  19578  19562  19561     1  0.0000000  1.6024720  3
  19556  19578  19562  19566     1  180.0000771  5.6484000  1
  19556  19578  19562  19566     1  180.0000771  3.5564000  2
  19556  19578  19562  19566     1  0.0000000  0.4184000  3
  19557  19556  19570  19576     1  0.0000000  0.6508444  3
  19557  19556  19578  19562     1  180.0000771  0.4184000  2
  19557  19556  19578  19562     1  0.0000000  1.6024720  3
  19557  19560  19561  19562     1  180.0000771  0.8368000  1
  19557  19560  19561  19562     1  180.0000771  1.0460000  2
  19557  19560  19561  19562     1  0.0000000  0.7531200  3
  19557  19560  19561  19567     1  0.0000000  0.6508444  3
  19560  19557  19556  19570     1  180.0000771  0.8368000  1
  19560  19557  19556  19570     1  180.0000771  1.0460000  2
  19560  19557  19556  19570     1  0.0000000  0.7531200  3
  19560  19557  19556  19578     1  0.0000000  0.6508444  3
  19560  19561  19562  19566     1  0.0000000  0.6508444  3
  19560  19561  19562  19578     1  0.0000000  0.6508444  3
  19561  19560  19557  19569     1  0.0000000  0.6508444  3
  19562  19561  19560  19568     1  0.0000000  0.6508444  3
  19562  19578  19556  19570     1  180.0000771  0.4184000  2
  19562  19578  19556  19570     1  0.0000000  1.6024720  3
  19566  19562  19561  19567     1  0.0000000  4.9162000  2
  19566  19562  19561  19567     1  0.0000000  0.6024960  3
  19567  19561  19560  19568     1  0.0000000  4.9162000  2
  19567  19561  19560  19568     1  0.0000000  0.6024960  3
  19567  19561  19562  19578     1  0.0000000  4.9162000  2
  19567  19561  19562  19578     1  0.0000000  0.6024960  3
  19568  19560  19557  19569     1  0.0000000  4.9162000  2
  19568  19560  19557  19569     1  0.0000000  0.6024960  3
  19569  19557  19556  19570     1  0.0000000  0.6508444  3
  19569  19557  19556  19578     1  0.0000000  4.9162000  2
  19569  19557  19556  19578     1  0.0000000  0.6024960  3
  19576  19570  19556  19578     1  0.0000000  4.9162000  2
  19576  19570  19556  19578     1  0.0000000  0.6024960  3
  19579  19580  19583  19584     1  180.0000771  0.8368000  1
  19579  19580  19583  19584     1  180.0000771  1.0460000  2
  19579  19580  19583  19584     1  0.0000000  0.7531200  3
  19579  19580  19583  19591     1  0.0000000  0.6508444  3
  19579  19601  19585  19589     1  180.0000771  5.6484000  1
  19579  19601  19585  19589     1  180.0000771  3.5564000  2
  19579  19601  19585  19589     1  0.0000000  0.4184000  3
  19579  19601  19585  19584     1  180.0000771  0.4184000  2
  19579  19601  19585  19584     1  0.0000000  1.6024720  3
  19580  19583  19584  19585     1  180.0000771  0.8368000  1
  19580  19583  19584  19585     1  180.0000771  1.0460000  2
  19580  19583  19584  19585     1  0.0000000  0.7531200  3
  19580  19583  19584  19590     1  0.0000000  0.6508444  3
  19580  19579  19593  19599     1  0.0000000  0.6508444  3
  19580  19579  19601  19585     1  180.0000771  0.4184000  2
  19580  19579  19601  19585     1  0.0000000  1.6024720  3
  19583  19584  19585  19589     1  0.0000000  0.6508444  3
  19583  19584  19585  19601     1  0.0000000  0.6508444  3
  19583  19580  19579  19593     1  180.0000771  0.8368000  1
  19583  19580  19579  19593     1  180.0000771  1.0460000  2
  19583  19580  19579  19593     1  0.0000000  0.7531200  3
  19583  19580  19579  19601     1  0.0000000  0.6508444  3
  19584  19583  19580  19592     1  0.0000000  0.6508444  3
  19585  19601  19579  19593     1  180.0000771  0.4184000  2
  19585  19601  19579  19593     1  0.0000000  1.6024720  3
  19585  19584  19583  19591     1  0.0000000  0.6508444  3
  19589  19585  19584  19590     1  0.0000000  4.9162000  2
  19589  19585  19584  19590     1  0.0000000  0.6024960  3
  19590  19584  19585  19601     1  0.0000000  4.9162000  2
  19590  19584  19585  19601     1  0.0000000  0.6024960  3
  19590  19584  19583  19591     1  0.0000000  4.9162000  2
  19590  19584  19583  19591     1  0.0000000  0.6024960  3
  19591  19583  19580  19592     1  0.0000000  4.9162000  2
  19591  19583  19580  19592     1  0.0000000  0.6024960  3
  19592  19580  19579  19593     1  0.0000000  0.6508444  3
  19592  19580  19579  19601     1  0.0000000  4.9162000  2
  19592  19580  19579  19601     1  0.0000000  0.6024960  3
  19599  19593  19579  19601     1  0.0000000  4.9162000  2
  19599  19593  19579  19601     1  0.0000000  0.6024960  3
  19602  19603  19606  19607     1  180.0000771  0.8368000  1
  19602  19603  19606  19607     1  180.0000771  1.0460000  2
  19602  19603  19606  19607     1  0.0000000  0.7531200  3
  19602  19603  19606  19614     1  0.0000000  0.6508444  3
  19602  19624  19608  19607     1  180.0000771  0.4184000  2
  19602  19624  19608  19607     1  0.0000000  1.6024720  3
  19602  19624  19608  19612     1  180.0000771  5.6484000  1
  19602  19624  19608  19612     1  180.0000771  3.5564000  2
  19602  19624  19608  19612     1  0.0000000  0.4184000  3
  19603  19602  19616  19622     1  0.0000000  0.6508444  3
  19603  19602  19624  19608     1  180.0000771  0.4184000  2
  19603  19602  19624  19608     1  0.0000000  1.6024720  3
  19603  19606  19607  19608     1  180.0000771  0.8368000  1
  19603  19606  19607  19608     1  180.0000771  1.0460000  2
  19603  19606  19607  19608     1  0.0000000  0.7531200  3
  19603  19606  19607  19613     1  0.0000000  0.6508444  3
  19606  19603  19602  19616     1  180.0000771  0.8368000  1
  19606  19603  19602  19616     1  180.0000771  1.0460000  2
  19606  19603  19602  19616     1  0.0000000  0.7531200  3
  19606  19603  19602  19624     1  0.0000000  0.6508444  3
  19606  19607  19608  19612     1  0.0000000  0.6508444  3
  19606  19607  19608  19624     1  0.0000000  0.6508444  3
  19607  19606  19603  19615     1  0.0000000  0.6508444  3
  19608  19607  19606  19614     1  0.0000000  0.6508444  3
  19608  19624  19602  19616     1  180.0000771  0.4184000  2
  19608  19624  19602  19616     1  0.0000000  1.6024720  3
  19612  19608  19607  19613     1  0.0000000  4.9162000  2
  19612  19608  19607  19613     1  0.0000000  0.6024960  3
  19613  19607  19606  19614     1  0.0000000  4.9162000  2
  19613  19607  19606  19614     1  0.0000000  0.6024960  3
  19613  19607  19608  19624     1  0.0000000  4.9162000  2
  19613  19607  19608  19624     1  0.0000000  0.6024960  3
  19614  19606  19603  19615     1  0.0000000  4.9162000  2
  19614  19606  19603  19615     1  0.0000000  0.6024960  3
  19615  19603  19602  19616     1  0.0000000  0.6508444  3
  19615  19603  19602  19624     1  0.0000000  4.9162000  2
  19615  19603  19602  19624     1  0.0000000  0.6024960  3
  19622  19616  19602  19624     1  0.0000000  4.9162000  2
  19622  19616  19602  19624     1  0.0000000  0.6024960  3
  19625  19626  19629  19630     1  180.0000771  0.8368000  1
  19625  19626  19629  19630     1  180.0000771  1.0460000  2
  19625  19626  19629  19630     1  0.0000000  0.7531200  3
  19625  19626  19629  19637     1  0.0000000  0.6508444  3
  19625  19647  19631  19635     1  180.0000771  5.6484000  1
  19625  19647  19631  19635     1  180.0000771  3.5564000  2
  19625  19647  19631  19635     1  0.0000000  0.4184000  3
  19625  19647  19631  19630     1  180.0000771  0.4184000  2
  19625  19647  19631  19630     1  0.0000000  1.6024720  3
  19626  19629  19630  19631     1  180.0000771  0.8368000  1
  19626  19629  19630  19631     1  180.0000771  1.0460000  2
  19626  19629  19630  19631     1  0.0000000  0.7531200  3
  19626  19629  19630  19636     1  0.0000000  0.6508444  3
  19626  19625  19639  19645     1  0.0000000  0.6508444  3
  19626  19625  19647  19631     1  180.0000771  0.4184000  2
  19626  19625  19647  19631     1  0.0000000  1.6024720  3
  19629  19630  19631  19635     1  0.0000000  0.6508444  3
  19629  19630  19631  19647     1  0.0000000  0.6508444  3
  19629  19626  19625  19639     1  180.0000771  0.8368000  1
  19629  19626  19625  19639     1  180.0000771  1.0460000  2
  19629  19626  19625  19639     1  0.0000000  0.7531200  3
  19629  19626  19625  19647     1  0.0000000  0.6508444  3
  19630  19629  19626  19638     1  0.0000000  0.6508444  3
  19631  19647  19625  19639     1  180.0000771  0.4184000  2
  19631  19647  19625  19639     1  0.0000000  1.6024720  3
  19631  19630  19629  19637     1  0.0000000  0.6508444  3
  19635  19631  19630  19636     1  0.0000000  4.9162000  2
  19635  19631  19630  19636     1  0.0000000  0.6024960  3
  19636  19630  19631  19647     1  0.0000000  4.9162000  2
  19636  19630  19631  19647     1  0.0000000  0.6024960  3
  19636  19630  19629  19637     1  0.0000000  4.9162000  2
  19636  19630  19629  19637     1  0.0000000  0.6024960  3
  19637  19629  19626  19638     1  0.0000000  4.9162000  2
  19637  19629  19626  19638     1  0.0000000  0.6024960  3
  19638  19626  19625  19639     1  0.0000000  0.6508444  3
  19638  19626  19625  19647     1  0.0000000  4.9162000  2
  19638  19626  19625  19647     1  0.0000000  0.6024960  3
  19645  19639  19625  19647     1  0.0000000  4.9162000  2
  19645  19639  19625  19647     1  0.0000000  0.6024960  3
  19648  19649  19652  19653     1  180.0000771  0.8368000  1
  19648  19649  19652  19653     1  180.0000771  1.0460000  2
  19648  19649  19652  19653     1  0.0000000  0.7531200  3
  19648  19649  19652  19660     1  0.0000000  0.6508444  3
  19648  19670  19654  19653     1  180.0000771  0.4184000  2
  19648  19670  19654  19653     1  0.0000000  1.6024720  3
  19648  19670  19654  19658     1  180.0000771  5.6484000  1
  19648  19670  19654  19658     1  180.0000771  3.5564000  2
  19648  19670  19654  19658     1  0.0000000  0.4184000  3
  19649  19648  19662  19668     1  0.0000000  0.6508444  3
  19649  19648  19670  19654     1  180.0000771  0.4184000  2
  19649  19648  19670  19654     1  0.0000000  1.6024720  3
  19649  19652  19653  19654     1  180.0000771  0.8368000  1
  19649  19652  19653  19654     1  180.0000771  1.0460000  2
  19649  19652  19653  19654     1  0.0000000  0.7531200  3
  19649  19652  19653  19659     1  0.0000000  0.6508444  3
  19652  19649  19648  19662     1  180.0000771  0.8368000  1
  19652  19649  19648  19662     1  180.0000771  1.0460000  2
  19652  19649  19648  19662     1  0.0000000  0.7531200  3
  19652  19649  19648  19670     1  0.0000000  0.6508444  3
  19652  19653  19654  19658     1  0.0000000  0.6508444  3
  19652  19653  19654  19670     1  0.0000000  0.6508444  3
  19653  19652  19649  19661     1  0.0000000  0.6508444  3
  19654  19653  19652  19660     1  0.0000000  0.6508444  3
  19654  19670  19648  19662     1  180.0000771  0.4184000  2
  19654  19670  19648  19662     1  0.0000000  1.6024720  3
  19658  19654  19653  19659     1  0.0000000  4.9162000  2
  19658  19654  19653  19659     1  0.0000000  0.6024960  3
  19659  19653  19652  19660     1  0.0000000  4.9162000  2
  19659  19653  19652  19660     1  0.0000000  0.6024960  3
  19659  19653  19654  19670     1  0.0000000  4.9162000  2
  19659  19653  19654  19670     1  0.0000000  0.6024960  3
  19660  19652  19649  19661     1  0.0000000  4.9162000  2
  19660  19652  19649  19661     1  0.0000000  0.6024960  3
  19661  19649  19648  19662     1  0.0000000  0.6508444  3
  19661  19649  19648  19670     1  0.0000000  4.9162000  2
  19661  19649  19648  19670     1  0.0000000  0.6024960  3
  19668  19662  19648  19670     1  0.0000000  4.9162000  2
  19668  19662  19648  19670     1  0.0000000  0.6024960  3
  19671  19672  19675  19676     1  180.0000771  0.8368000  1
  19671  19672  19675  19676     1  180.0000771  1.0460000  2
  19671  19672  19675  19676     1  0.0000000  0.7531200  3
  19671  19672  19675  19683     1  0.0000000  0.6508444  3
  19671  19693  19677  19681     1  180.0000771  5.6484000  1
  19671  19693  19677  19681     1  180.0000771  3.5564000  2
  19671  19693  19677  19681     1  0.0000000  0.4184000  3
  19671  19693  19677  19676     1  180.0000771  0.4184000  2
  19671  19693  19677  19676     1  0.0000000  1.6024720  3
  19672  19675  19676  19677     1  180.0000771  0.8368000  1
  19672  19675  19676  19677     1  180.0000771  1.0460000  2
  19672  19675  19676  19677     1  0.0000000  0.7531200  3
  19672  19675  19676  19682     1  0.0000000  0.6508444  3
  19672  19671  19685  19691     1  0.0000000  0.6508444  3
  19672  19671  19693  19677     1  180.0000771  0.4184000  2
  19672  19671  19693  19677     1  0.0000000  1.6024720  3
  19675  19676  19677  19681     1  0.0000000  0.6508444  3
  19675  19676  19677  19693     1  0.0000000  0.6508444  3
  19675  19672  19671  19685     1  180.0000771  0.8368000  1
  19675  19672  19671  19685     1  180.0000771  1.0460000  2
  19675  19672  19671  19685     1  0.0000000  0.7531200  3
  19675  19672  19671  19693     1  0.0000000  0.6508444  3
  19676  19675  19672  19684     1  0.0000000  0.6508444  3
  19677  19693  19671  19685     1  180.0000771  0.4184000  2
  19677  19693  19671  19685     1  0.0000000  1.6024720  3
  19677  19676  19675  19683     1  0.0000000  0.6508444  3
  19681  19677  19676  19682     1  0.0000000  4.9162000  2
  19681  19677  19676  19682     1  0.0000000  0.6024960  3
  19682  19676  19677  19693     1  0.0000000  4.9162000  2
  19682  19676  19677  19693     1  0.0000000  0.6024960  3
  19682  19676  19675  19683     1  0.0000000  4.9162000  2
  19682  19676  19675  19683     1  0.0000000  0.6024960  3
  19683  19675  19672  19684     1  0.0000000  4.9162000  2
  19683  19675  19672  19684     1  0.0000000  0.6024960  3
  19684  19672  19671  19685     1  0.0000000  0.6508444  3
  19684  19672  19671  19693     1  0.0000000  4.9162000  2
  19684  19672  19671  19693     1  0.0000000  0.6024960  3
  19691  19685  19671  19693     1  0.0000000  4.9162000  2
  19691  19685  19671  19693     1  0.0000000  0.6024960  3
  19694  19695  19698  19699     1  180.0000771  0.8368000  1
  19694  19695  19698  19699     1  180.0000771  1.0460000  2
  19694  19695  19698  19699     1  0.0000000  0.7531200  3
  19694  19695  19698  19706     1  0.0000000  0.6508444  3
  19694  19716  19700  19699     1  180.0000771  0.4184000  2
  19694  19716  19700  19699     1  0.0000000  1.6024720  3
  19694  19716  19700  19704     1  180.0000771  5.6484000  1
  19694  19716  19700  19704     1  180.0000771  3.5564000  2
  19694  19716  19700  19704     1  0.0000000  0.4184000  3
  19695  19694  19708  19714     1  0.0000000  0.6508444  3
  19695  19694  19716  19700     1  180.0000771  0.4184000  2
  19695  19694  19716  19700     1  0.0000000  1.6024720  3
  19695  19698  19699  19700     1  180.0000771  0.8368000  1
  19695  19698  19699  19700     1  180.0000771  1.0460000  2
  19695  19698  19699  19700     1  0.0000000  0.7531200  3
  19695  19698  19699  19705     1  0.0000000  0.6508444  3
  19698  19695  19694  19708     1  180.0000771  0.8368000  1
  19698  19695  19694  19708     1  180.0000771  1.0460000  2
  19698  19695  19694  19708     1  0.0000000  0.7531200  3
  19698  19695  19694  19716     1  0.0000000  0.6508444  3
  19698  19699  19700  19704     1  0.0000000  0.6508444  3
  19698  19699  19700  19716     1  0.0000000  0.6508444  3
  19699  19698  19695  19707     1  0.0000000  0.6508444  3
  19700  19699  19698  19706     1  0.0000000  0.6508444  3
  19700  19716  19694  19708     1  180.0000771  0.4184000  2
  19700  19716  19694  19708     1  0.0000000  1.6024720  3
  19704  19700  19699  19705     1  0.0000000  4.9162000  2
  19704  19700  19699  19705     1  0.0000000  0.6024960  3
  19705  19699  19698  19706     1  0.0000000  4.9162000  2
  19705  19699  19698  19706     1  0.0000000  0.6024960  3
  19705  19699  19700  19716     1  0.0000000  4.9162000  2
  19705  19699  19700  19716     1  0.0000000  0.6024960  3
  19706  19698  19695  19707     1  0.0000000  4.9162000  2
  19706  19698  19695  19707     1  0.0000000  0.6024960  3
  19707  19695  19694  19708     1  0.0000000  0.6508444  3
  19707  19695  19694  19716     1  0.0000000  4.9162000  2
  19707  19695  19694  19716     1  0.0000000  0.6024960  3
  19714  19708  19694  19716     1  0.0000000  4.9162000  2
  19714  19708  19694  19716     1  0.0000000  0.6024960  3
  19717  19718  19721  19722     1  180.0000771  0.8368000  1
  19717  19718  19721  19722     1  180.0000771  1.0460000  2
  19717  19718  19721  19722     1  0.0000000  0.7531200  3
  19717  19718  19721  19729     1  0.0000000  0.6508444  3
  19717  19739  19723  19727     1  180.0000771  5.6484000  1
  19717  19739  19723  19727     1  180.0000771  3.5564000  2
  19717  19739  19723  19727     1  0.0000000  0.4184000  3
  19717  19739  19723  19722     1  180.0000771  0.4184000  2
  19717  19739  19723  19722     1  0.0000000  1.6024720  3
  19718  19721  19722  19723     1  180.0000771  0.8368000  1
  19718  19721  19722  19723     1  180.0000771  1.0460000  2
  19718  19721  19722  19723     1  0.0000000  0.7531200  3
  19718  19721  19722  19728     1  0.0000000  0.6508444  3
  19718  19717  19731  19737     1  0.0000000  0.6508444  3
  19718  19717  19739  19723     1  180.0000771  0.4184000  2
  19718  19717  19739  19723     1  0.0000000  1.6024720  3
  19721  19722  19723  19727     1  0.0000000  0.6508444  3
  19721  19722  19723  19739     1  0.0000000  0.6508444  3
  19721  19718  19717  19731     1  180.0000771  0.8368000  1
  19721  19718  19717  19731     1  180.0000771  1.0460000  2
  19721  19718  19717  19731     1  0.0000000  0.7531200  3
  19721  19718  19717  19739     1  0.0000000  0.6508444  3
  19722  19721  19718  19730     1  0.0000000  0.6508444  3
  19723  19739  19717  19731     1  180.0000771  0.4184000  2
  19723  19739  19717  19731     1  0.0000000  1.6024720  3
  19723  19722  19721  19729     1  0.0000000  0.6508444  3
  19727  19723  19722  19728     1  0.0000000  4.9162000  2
  19727  19723  19722  19728     1  0.0000000  0.6024960  3
  19728  19722  19723  19739     1  0.0000000  4.9162000  2
  19728  19722  19723  19739     1  0.0000000  0.6024960  3
  19728  19722  19721  19729     1  0.0000000  4.9162000  2
  19728  19722  19721  19729     1  0.0000000  0.6024960  3
  19729  19721  19718  19730     1  0.0000000  4.9162000  2
  19729  19721  19718  19730     1  0.0000000  0.6024960  3
  19730  19718  19717  19731     1  0.0000000  0.6508444  3
  19730  19718  19717  19739     1  0.0000000  4.9162000  2
  19730  19718  19717  19739     1  0.0000000  0.6024960  3
  19737  19731  19717  19739     1  0.0000000  4.9162000  2
  19737  19731  19717  19739     1  0.0000000  0.6024960  3
  19740  19741  19744  19745     1  180.0000771  0.8368000  1
  19740  19741  19744  19745     1  180.0000771  1.0460000  2
  19740  19741  19744  19745     1  0.0000000  0.7531200  3
  19740  19741  19744  19752     1  0.0000000  0.6508444  3
  19740  19762  19746  19745     1  180.0000771  0.4184000  2
  19740  19762  19746  19745     1  0.0000000  1.6024720  3
  19740  19762  19746  19750     1  180.0000771  5.6484000  1
  19740  19762  19746  19750     1  180.0000771  3.5564000  2
  19740  19762  19746  19750     1  0.0000000  0.4184000  3
  19741  19740  19754  19760     1  0.0000000  0.6508444  3
  19741  19740  19762  19746     1  180.0000771  0.4184000  2
  19741  19740  19762  19746     1  0.0000000  1.6024720  3
  19741  19744  19745  19746     1  180.0000771  0.8368000  1
  19741  19744  19745  19746     1  180.0000771  1.0460000  2
  19741  19744  19745  19746     1  0.0000000  0.7531200  3
  19741  19744  19745  19751     1  0.0000000  0.6508444  3
  19744  19741  19740  19754     1  180.0000771  0.8368000  1
  19744  19741  19740  19754     1  180.0000771  1.0460000  2
  19744  19741  19740  19754     1  0.0000000  0.7531200  3
  19744  19741  19740  19762     1  0.0000000  0.6508444  3
  19744  19745  19746  19750     1  0.0000000  0.6508444  3
  19744  19745  19746  19762     1  0.0000000  0.6508444  3
  19745  19744  19741  19753     1  0.0000000  0.6508444  3
  19746  19745  19744  19752     1  0.0000000  0.6508444  3
  19746  19762  19740  19754     1  180.0000771  0.4184000  2
  19746  19762  19740  19754     1  0.0000000  1.6024720  3
  19750  19746  19745  19751     1  0.0000000  4.9162000  2
  19750  19746  19745  19751     1  0.0000000  0.6024960  3
  19751  19745  19744  19752     1  0.0000000  4.9162000  2
  19751  19745  19744  19752     1  0.0000000  0.6024960  3
  19751  19745  19746  19762     1  0.0000000  4.9162000  2
  19751  19745  19746  19762     1  0.0000000  0.6024960  3
  19752  19744  19741  19753     1  0.0000000  4.9162000  2
  19752  19744  19741  19753     1  0.0000000  0.6024960  3
  19753  19741  19740  19754     1  0.0000000  0.6508444  3
  19753  19741  19740  19762     1  0.0000000  4.9162000  2
  19753  19741  19740  19762     1  0.0000000  0.6024960  3
  19760  19754  19740  19762     1  0.0000000  4.9162000  2
  19760  19754  19740  19762     1  0.0000000  0.6024960  3
  19763  19764  19767  19768     1  180.0000771  0.8368000  1
  19763  19764  19767  19768     1  180.0000771  1.0460000  2
  19763  19764  19767  19768     1  0.0000000  0.7531200  3
  19763  19764  19767  19775     1  0.0000000  0.6508444  3
  19763  19785  19769  19773     1  180.0000771  5.6484000  1
  19763  19785  19769  19773     1  180.0000771  3.5564000  2
  19763  19785  19769  19773     1  0.0000000  0.4184000  3
  19763  19785  19769  19768     1  180.0000771  0.4184000  2
  19763  19785  19769  19768     1  0.0000000  1.6024720  3
  19764  19767  19768  19769     1  180.0000771  0.8368000  1
  19764  19767  19768  19769     1  180.0000771  1.0460000  2
  19764  19767  19768  19769     1  0.0000000  0.7531200  3
  19764  19767  19768  19774     1  0.0000000  0.6508444  3
  19764  19763  19777  19783     1  0.0000000  0.6508444  3
  19764  19763  19785  19769     1  180.0000771  0.4184000  2
  19764  19763  19785  19769     1  0.0000000  1.6024720  3
  19767  19768  19769  19773     1  0.0000000  0.6508444  3
  19767  19768  19769  19785     1  0.0000000  0.6508444  3
  19767  19764  19763  19777     1  180.0000771  0.8368000  1
  19767  19764  19763  19777     1  180.0000771  1.0460000  2
  19767  19764  19763  19777     1  0.0000000  0.7531200  3
  19767  19764  19763  19785     1  0.0000000  0.6508444  3
  19768  19767  19764  19776     1  0.0000000  0.6508444  3
  19769  19785  19763  19777     1  180.0000771  0.4184000  2
  19769  19785  19763  19777     1  0.0000000  1.6024720  3
  19769  19768  19767  19775     1  0.0000000  0.6508444  3
  19773  19769  19768  19774     1  0.0000000  4.9162000  2
  19773  19769  19768  19774     1  0.0000000  0.6024960  3
  19774  19768  19769  19785     1  0.0000000  4.9162000  2
  19774  19768  19769  19785     1  0.0000000  0.6024960  3
  19774  19768  19767  19775     1  0.0000000  4.9162000  2
  19774  19768  19767  19775     1  0.0000000  0.6024960  3
  19775  19767  19764  19776     1  0.0000000  4.9162000  2
  19775  19767  19764  19776     1  0.0000000  0.6024960  3
  19776  19764  19763  19777     1  0.0000000  0.6508444  3
  19776  19764  19763  19785     1  0.0000000  4.9162000  2
  19776  19764  19763  19785     1  0.0000000  0.6024960  3
  19783  19777  19763  19785     1  0.0000000  4.9162000  2
  19783  19777  19763  19785     1  0.0000000  0.6024960  3
  19786  19787  19790  19791     1  180.0000771  0.8368000  1
  19786  19787  19790  19791     1  180.0000771  1.0460000  2
  19786  19787  19790  19791     1  0.0000000  0.7531200  3
  19786  19787  19790  19798     1  0.0000000  0.6508444  3
  19786  19808  19792  19791     1  180.0000771  0.4184000  2
  19786  19808  19792  19791     1  0.0000000  1.6024720  3
  19786  19808  19792  19796     1  180.0000771  5.6484000  1
  19786  19808  19792  19796     1  180.0000771  3.5564000  2
  19786  19808  19792  19796     1  0.0000000  0.4184000  3
  19787  19786  19800  19806     1  0.0000000  0.6508444  3
  19787  19786  19808  19792     1  180.0000771  0.4184000  2
  19787  19786  19808  19792     1  0.0000000  1.6024720  3
  19787  19790  19791  19792     1  180.0000771  0.8368000  1
  19787  19790  19791  19792     1  180.0000771  1.0460000  2
  19787  19790  19791  19792     1  0.0000000  0.7531200  3
  19787  19790  19791  19797     1  0.0000000  0.6508444  3
  19790  19787  19786  19800     1  180.0000771  0.8368000  1
  19790  19787  19786  19800     1  180.0000771  1.0460000  2
  19790  19787  19786  19800     1  0.0000000  0.7531200  3
  19790  19787  19786  19808     1  0.0000000  0.6508444  3
  19790  19791  19792  19796     1  0.0000000  0.6508444  3
  19790  19791  19792  19808     1  0.0000000  0.6508444  3
  19791  19790  19787  19799     1  0.0000000  0.6508444  3
  19792  19791  19790  19798     1  0.0000000  0.6508444  3
  19792  19808  19786  19800     1  180.0000771  0.4184000  2
  19792  19808  19786  19800     1  0.0000000  1.6024720  3
  19796  19792  19791  19797     1  0.0000000  4.9162000  2
  19796  19792  19791  19797     1  0.0000000  0.6024960  3
  19797  19791  19790  19798     1  0.0000000  4.9162000  2
  19797  19791  19790  19798     1  0.0000000  0.6024960  3
  19797  19791  19792  19808     1  0.0000000  4.9162000  2
  19797  19791  19792  19808     1  0.0000000  0.6024960  3
  19798  19790  19787  19799     1  0.0000000  4.9162000  2
  19798  19790  19787  19799     1  0.0000000  0.6024960  3
  19799  19787  19786  19800     1  0.0000000  0.6508444  3
  19799  19787  19786  19808     1  0.0000000  4.9162000  2
  19799  19787  19786  19808     1  0.0000000  0.6024960  3
  19806  19800  19786  19808     1  0.0000000  4.9162000  2
  19806  19800  19786  19808     1  0.0000000  0.6024960  3
  19809  19810  19813  19814     1  180.0000771  0.8368000  1
  19809  19810  19813  19814     1  180.0000771  1.0460000  2
  19809  19810  19813  19814     1  0.0000000  0.7531200  3
  19809  19810  19813  19821     1  0.0000000  0.6508444  3
  19809  19831  19815  19819     1  180.0000771  5.6484000  1
  19809  19831  19815  19819     1  180.0000771  3.5564000  2
  19809  19831  19815  19819     1  0.0000000  0.4184000  3
  19809  19831  19815  19814     1  180.0000771  0.4184000  2
  19809  19831  19815  19814     1  0.0000000  1.6024720  3
  19810  19813  19814  19815     1  180.0000771  0.8368000  1
  19810  19813  19814  19815     1  180.0000771  1.0460000  2
  19810  19813  19814  19815     1  0.0000000  0.7531200  3
  19810  19813  19814  19820     1  0.0000000  0.6508444  3
  19810  19809  19823  19829     1  0.0000000  0.6508444  3
  19810  19809  19831  19815     1  180.0000771  0.4184000  2
  19810  19809  19831  19815     1  0.0000000  1.6024720  3
  19813  19814  19815  19819     1  0.0000000  0.6508444  3
  19813  19814  19815  19831     1  0.0000000  0.6508444  3
  19813  19810  19809  19823     1  180.0000771  0.8368000  1
  19813  19810  19809  19823     1  180.0000771  1.0460000  2
  19813  19810  19809  19823     1  0.0000000  0.7531200  3
  19813  19810  19809  19831     1  0.0000000  0.6508444  3
  19814  19813  19810  19822     1  0.0000000  0.6508444  3
  19815  19831  19809  19823     1  180.0000771  0.4184000  2
  19815  19831  19809  19823     1  0.0000000  1.6024720  3
  19815  19814  19813  19821     1  0.0000000  0.6508444  3
  19819  19815  19814  19820     1  0.0000000  4.9162000  2
  19819  19815  19814  19820     1  0.0000000  0.6024960  3
  19820  19814  19815  19831     1  0.0000000  4.9162000  2
  19820  19814  19815  19831     1  0.0000000  0.6024960  3
  19820  19814  19813  19821     1  0.0000000  4.9162000  2
  19820  19814  19813  19821     1  0.0000000  0.6024960  3
  19821  19813  19810  19822     1  0.0000000  4.9162000  2
  19821  19813  19810  19822     1  0.0000000  0.6024960  3
  19822  19810  19809  19823     1  0.0000000  0.6508444  3
  19822  19810  19809  19831     1  0.0000000  4.9162000  2
  19822  19810  19809  19831     1  0.0000000  0.6024960  3
  19829  19823  19809  19831     1  0.0000000  4.9162000  2
  19829  19823  19809  19831     1  0.0000000  0.6024960  3
  19832  19833  19836  19837     1  180.0000771  0.8368000  1
  19832  19833  19836  19837     1  180.0000771  1.0460000  2
  19832  19833  19836  19837     1  0.0000000  0.7531200  3
  19832  19833  19836  19844     1  0.0000000  0.6508444  3
  19832  19854  19838  19837     1  180.0000771  0.4184000  2
  19832  19854  19838  19837     1  0.0000000  1.6024720  3
  19832  19854  19838  19842     1  180.0000771  5.6484000  1
  19832  19854  19838  19842     1  180.0000771  3.5564000  2
  19832  19854  19838  19842     1  0.0000000  0.4184000  3
  19833  19832  19846  19852     1  0.0000000  0.6508444  3
  19833  19832  19854  19838     1  180.0000771  0.4184000  2
  19833  19832  19854  19838     1  0.0000000  1.6024720  3
  19833  19836  19837  19838     1  180.0000771  0.8368000  1
  19833  19836  19837  19838     1  180.0000771  1.0460000  2
  19833  19836  19837  19838     1  0.0000000  0.7531200  3
  19833  19836  19837  19843     1  0.0000000  0.6508444  3
  19836  19833  19832  19846     1  180.0000771  0.8368000  1
  19836  19833  19832  19846     1  180.0000771  1.0460000  2
  19836  19833  19832  19846     1  0.0000000  0.7531200  3
  19836  19833  19832  19854     1  0.0000000  0.6508444  3
  19836  19837  19838  19842     1  0.0000000  0.6508444  3
  19836  19837  19838  19854     1  0.0000000  0.6508444  3
  19837  19836  19833  19845     1  0.0000000  0.6508444  3
  19838  19837  19836  19844     1  0.0000000  0.6508444  3
  19838  19854  19832  19846     1  180.0000771  0.4184000  2
  19838  19854  19832  19846     1  0.0000000  1.6024720  3
  19842  19838  19837  19843     1  0.0000000  4.9162000  2
  19842  19838  19837  19843     1  0.0000000  0.6024960  3
  19843  19837  19836  19844     1  0.0000000  4.9162000  2
  19843  19837  19836  19844     1  0.0000000  0.6024960  3
  19843  19837  19838  19854     1  0.0000000  4.9162000  2
  19843  19837  19838  19854     1  0.0000000  0.6024960  3
  19844  19836  19833  19845     1  0.0000000  4.9162000  2
  19844  19836  19833  19845     1  0.0000000  0.6024960  3
  19845  19833  19832  19846     1  0.0000000  0.6508444  3
  19845  19833  19832  19854     1  0.0000000  4.9162000  2
  19845  19833  19832  19854     1  0.0000000  0.6024960  3
  19852  19846  19832  19854     1  0.0000000  4.9162000  2
  19852  19846  19832  19854     1  0.0000000  0.6024960  3
  19855  19856  19859  19860     1  180.0000771  0.8368000  1
  19855  19856  19859  19860     1  180.0000771  1.0460000  2
  19855  19856  19859  19860     1  0.0000000  0.7531200  3
  19855  19856  19859  19867     1  0.0000000  0.6508444  3
  19855  19877  19861  19865     1  180.0000771  5.6484000  1
  19855  19877  19861  19865     1  180.0000771  3.5564000  2
  19855  19877  19861  19865     1  0.0000000  0.4184000  3
  19855  19877  19861  19860     1  180.0000771  0.4184000  2
  19855  19877  19861  19860     1  0.0000000  1.6024720  3
  19856  19859  19860  19861     1  180.0000771  0.8368000  1
  19856  19859  19860  19861     1  180.0000771  1.0460000  2
  19856  19859  19860  19861     1  0.0000000  0.7531200  3
  19856  19859  19860  19866     1  0.0000000  0.6508444  3
  19856  19855  19869  19875     1  0.0000000  0.6508444  3
  19856  19855  19877  19861     1  180.0000771  0.4184000  2
  19856  19855  19877  19861     1  0.0000000  1.6024720  3
  19859  19860  19861  19865     1  0.0000000  0.6508444  3
  19859  19860  19861  19877     1  0.0000000  0.6508444  3
  19859  19856  19855  19869     1  180.0000771  0.8368000  1
  19859  19856  19855  19869     1  180.0000771  1.0460000  2
  19859  19856  19855  19869     1  0.0000000  0.7531200  3
  19859  19856  19855  19877     1  0.0000000  0.6508444  3
  19860  19859  19856  19868     1  0.0000000  0.6508444  3
  19861  19877  19855  19869     1  180.0000771  0.4184000  2
  19861  19877  19855  19869     1  0.0000000  1.6024720  3
  19861  19860  19859  19867     1  0.0000000  0.6508444  3
  19865  19861  19860  19866     1  0.0000000  4.9162000  2
  19865  19861  19860  19866     1  0.0000000  0.6024960  3
  19866  19860  19861  19877     1  0.0000000  4.9162000  2
  19866  19860  19861  19877     1  0.0000000  0.6024960  3
  19866  19860  19859  19867     1  0.0000000  4.9162000  2
  19866  19860  19859  19867     1  0.0000000  0.6024960  3
  19867  19859  19856  19868     1  0.0000000  4.9162000  2
  19867  19859  19856  19868     1  0.0000000  0.6024960  3
  19868  19856  19855  19869     1  0.0000000  0.6508444  3
  19868  19856  19855  19877     1  0.0000000  4.9162000  2
  19868  19856  19855  19877     1  0.0000000  0.6024960  3
  19875  19869  19855  19877     1  0.0000000  4.9162000  2
  19875  19869  19855  19877     1  0.0000000  0.6024960  3
  19878  19879  19882  19883     1  180.0000771  0.8368000  1
  19878  19879  19882  19883     1  180.0000771  1.0460000  2
  19878  19879  19882  19883     1  0.0000000  0.7531200  3
  19878  19879  19882  19890     1  0.0000000  0.6508444  3
  19878  19900  19884  19883     1  180.0000771  0.4184000  2
  19878  19900  19884  19883     1  0.0000000  1.6024720  3
  19878  19900  19884  19888     1  180.0000771  5.6484000  1
  19878  19900  19884  19888     1  180.0000771  3.5564000  2
  19878  19900  19884  19888     1  0.0000000  0.4184000  3
  19879  19878  19892  19898     1  0.0000000  0.6508444  3
  19879  19878  19900  19884     1  180.0000771  0.4184000  2
  19879  19878  19900  19884     1  0.0000000  1.6024720  3
  19879  19882  19883  19884     1  180.0000771  0.8368000  1
  19879  19882  19883  19884     1  180.0000771  1.0460000  2
  19879  19882  19883  19884     1  0.0000000  0.7531200  3
  19879  19882  19883  19889     1  0.0000000  0.6508444  3
  19882  19879  19878  19892     1  180.0000771  0.8368000  1
  19882  19879  19878  19892     1  180.0000771  1.0460000  2
  19882  19879  19878  19892     1  0.0000000  0.7531200  3
  19882  19879  19878  19900     1  0.0000000  0.6508444  3
  19882  19883  19884  19888     1  0.0000000  0.6508444  3
  19882  19883  19884  19900     1  0.0000000  0.6508444  3
  19883  19882  19879  19891     1  0.0000000  0.6508444  3
  19884  19883  19882  19890     1  0.0000000  0.6508444  3
  19884  19900  19878  19892     1  180.0000771  0.4184000  2
  19884  19900  19878  19892     1  0.0000000  1.6024720  3
  19888  19884  19883  19889     1  0.0000000  4.9162000  2
  19888  19884  19883  19889     1  0.0000000  0.6024960  3
  19889  19883  19882  19890     1  0.0000000  4.9162000  2
  19889  19883  19882  19890     1  0.0000000  0.6024960  3
  19889  19883  19884  19900     1  0.0000000  4.9162000  2
  19889  19883  19884  19900     1  0.0000000  0.6024960  3
  19890  19882  19879  19891     1  0.0000000  4.9162000  2
  19890  19882  19879  19891     1  0.0000000  0.6024960  3
  19891  19879  19878  19892     1  0.0000000  0.6508444  3
  19891  19879  19878  19900     1  0.0000000  4.9162000  2
  19891  19879  19878  19900     1  0.0000000  0.6024960  3
  19898  19892  19878  19900     1  0.0000000  4.9162000  2
  19898  19892  19878  19900     1  0.0000000  0.6024960  3
  19901  19902  19905  19906     1  180.0000771  0.8368000  1
  19901  19902  19905  19906     1  180.0000771  1.0460000  2
  19901  19902  19905  19906     1  0.0000000  0.7531200  3
  19901  19902  19905  19913     1  0.0000000  0.6508444  3
  19901  19923  19907  19911     1  180.0000771  5.6484000  1
  19901  19923  19907  19911     1  180.0000771  3.5564000  2
  19901  19923  19907  19911     1  0.0000000  0.4184000  3
  19901  19923  19907  19906     1  180.0000771  0.4184000  2
  19901  19923  19907  19906     1  0.0000000  1.6024720  3
  19902  19905  19906  19907     1  180.0000771  0.8368000  1
  19902  19905  19906  19907     1  180.0000771  1.0460000  2
  19902  19905  19906  19907     1  0.0000000  0.7531200  3
  19902  19905  19906  19912     1  0.0000000  0.6508444  3
  19902  19901  19915  19921     1  0.0000000  0.6508444  3
  19902  19901  19923  19907     1  180.0000771  0.4184000  2
  19902  19901  19923  19907     1  0.0000000  1.6024720  3
  19905  19906  19907  19911     1  0.0000000  0.6508444  3
  19905  19906  19907  19923     1  0.0000000  0.6508444  3
  19905  19902  19901  19915     1  180.0000771  0.8368000  1
  19905  19902  19901  19915     1  180.0000771  1.0460000  2
  19905  19902  19901  19915     1  0.0000000  0.7531200  3
  19905  19902  19901  19923     1  0.0000000  0.6508444  3
  19906  19905  19902  19914     1  0.0000000  0.6508444  3
  19907  19923  19901  19915     1  180.0000771  0.4184000  2
  19907  19923  19901  19915     1  0.0000000  1.6024720  3
  19907  19906  19905  19913     1  0.0000000  0.6508444  3
  19911  19907  19906  19912     1  0.0000000  4.9162000  2
  19911  19907  19906  19912     1  0.0000000  0.6024960  3
  19912  19906  19907  19923     1  0.0000000  4.9162000  2
  19912  19906  19907  19923     1  0.0000000  0.6024960  3
  19912  19906  19905  19913     1  0.0000000  4.9162000  2
  19912  19906  19905  19913     1  0.0000000  0.6024960  3
  19913  19905  19902  19914     1  0.0000000  4.9162000  2
  19913  19905  19902  19914     1  0.0000000  0.6024960  3
  19914  19902  19901  19915     1  0.0000000  0.6508444  3
  19914  19902  19901  19923     1  0.0000000  4.9162000  2
  19914  19902  19901  19923     1  0.0000000  0.6024960  3
  19921  19915  19901  19923     1  0.0000000  4.9162000  2
  19921  19915  19901  19923     1  0.0000000  0.6024960  3
  19924  19925  19928  19929     1  180.0000771  0.8368000  1
  19924  19925  19928  19929     1  180.0000771  1.0460000  2
  19924  19925  19928  19929     1  0.0000000  0.7531200  3
  19924  19925  19928  19936     1  0.0000000  0.6508444  3
  19924  19946  19930  19929     1  180.0000771  0.4184000  2
  19924  19946  19930  19929     1  0.0000000  1.6024720  3
  19924  19946  19930  19934     1  180.0000771  5.6484000  1
  19924  19946  19930  19934     1  180.0000771  3.5564000  2
  19924  19946  19930  19934     1  0.0000000  0.4184000  3
  19925  19924  19938  19944     1  0.0000000  0.6508444  3
  19925  19924  19946  19930     1  180.0000771  0.4184000  2
  19925  19924  19946  19930     1  0.0000000  1.6024720  3
  19925  19928  19929  19930     1  180.0000771  0.8368000  1
  19925  19928  19929  19930     1  180.0000771  1.0460000  2
  19925  19928  19929  19930     1  0.0000000  0.7531200  3
  19925  19928  19929  19935     1  0.0000000  0.6508444  3
  19928  19925  19924  19938     1  180.0000771  0.8368000  1
  19928  19925  19924  19938     1  180.0000771  1.0460000  2
  19928  19925  19924  19938     1  0.0000000  0.7531200  3
  19928  19925  19924  19946     1  0.0000000  0.6508444  3
  19928  19929  19930  19934     1  0.0000000  0.6508444  3
  19928  19929  19930  19946     1  0.0000000  0.6508444  3
  19929  19928  19925  19937     1  0.0000000  0.6508444  3
  19930  19929  19928  19936     1  0.0000000  0.6508444  3
  19930  19946  19924  19938     1  180.0000771  0.4184000  2
  19930  19946  19924  19938     1  0.0000000  1.6024720  3
  19934  19930  19929  19935     1  0.0000000  4.9162000  2
  19934  19930  19929  19935     1  0.0000000  0.6024960  3
  19935  19929  19928  19936     1  0.0000000  4.9162000  2
  19935  19929  19928  19936     1  0.0000000  0.6024960  3
  19935  19929  19930  19946     1  0.0000000  4.9162000  2
  19935  19929  19930  19946     1  0.0000000  0.6024960  3
  19936  19928  19925  19937     1  0.0000000  4.9162000  2
  19936  19928  19925  19937     1  0.0000000  0.6024960  3
  19937  19925  19924  19938     1  0.0000000  0.6508444  3
  19937  19925  19924  19946     1  0.0000000  4.9162000  2
  19937  19925  19924  19946     1  0.0000000  0.6024960  3
  19944  19938  19924  19946     1  0.0000000  4.9162000  2
  19944  19938  19924  19946     1  0.0000000  0.6024960  3
  19947  19948  19951  19952     1  180.0000771  0.8368000  1
  19947  19948  19951  19952     1  180.0000771  1.0460000  2
  19947  19948  19951  19952     1  0.0000000  0.7531200  3
  19947  19948  19951  19959     1  0.0000000  0.6508444  3
  19947  19969  19953  19957     1  180.0000771  5.6484000  1
  19947  19969  19953  19957     1  180.0000771  3.5564000  2
  19947  19969  19953  19957     1  0.0000000  0.4184000  3
  19947  19969  19953  19952     1  180.0000771  0.4184000  2
  19947  19969  19953  19952     1  0.0000000  1.6024720  3
  19948  19951  19952  19953     1  180.0000771  0.8368000  1
  19948  19951  19952  19953     1  180.0000771  1.0460000  2
  19948  19951  19952  19953     1  0.0000000  0.7531200  3
  19948  19951  19952  19958     1  0.0000000  0.6508444  3
  19948  19947  19961  19967     1  0.0000000  0.6508444  3
  19948  19947  19969  19953     1  180.0000771  0.4184000  2
  19948  19947  19969  19953     1  0.0000000  1.6024720  3
  19951  19952  19953  19957     1  0.0000000  0.6508444  3
  19951  19952  19953  19969     1  0.0000000  0.6508444  3
  19951  19948  19947  19961     1  180.0000771  0.8368000  1
  19951  19948  19947  19961     1  180.0000771  1.0460000  2
  19951  19948  19947  19961     1  0.0000000  0.7531200  3
  19951  19948  19947  19969     1  0.0000000  0.6508444  3
  19952  19951  19948  19960     1  0.0000000  0.6508444  3
  19953  19969  19947  19961     1  180.0000771  0.4184000  2
  19953  19969  19947  19961     1  0.0000000  1.6024720  3
  19953  19952  19951  19959     1  0.0000000  0.6508444  3
  19957  19953  19952  19958     1  0.0000000  4.9162000  2
  19957  19953  19952  19958     1  0.0000000  0.6024960  3
  19958  19952  19953  19969     1  0.0000000  4.9162000  2
  19958  19952  19953  19969     1  0.0000000  0.6024960  3
  19958  19952  19951  19959     1  0.0000000  4.9162000  2
  19958  19952  19951  19959     1  0.0000000  0.6024960  3
  19959  19951  19948  19960     1  0.0000000  4.9162000  2
  19959  19951  19948  19960     1  0.0000000  0.6024960  3
  19960  19948  19947  19961     1  0.0000000  0.6508444  3
  19960  19948  19947  19969     1  0.0000000  4.9162000  2
  19960  19948  19947  19969     1  0.0000000  0.6024960  3
  19967  19961  19947  19969     1  0.0000000  4.9162000  2
  19967  19961  19947  19969     1  0.0000000  0.6024960  3
  19970  19971  19974  19975     1  180.0000771  0.8368000  1
  19970  19971  19974  19975     1  180.0000771  1.0460000  2
  19970  19971  19974  19975     1  0.0000000  0.7531200  3
  19970  19971  19974  19982     1  0.0000000  0.6508444  3
  19970  19992  19976  19975     1  180.0000771  0.4184000  2
  19970  19992  19976  19975     1  0.0000000  1.6024720  3
  19970  19992  19976  19980     1  180.0000771  5.6484000  1
  19970  19992  19976  19980     1  180.0000771  3.5564000  2
  19970  19992  19976  19980     1  0.0000000  0.4184000  3
  19971  19970  19984  19990     1  0.0000000  0.6508444  3
  19971  19970  19992  19976     1  180.0000771  0.4184000  2
  19971  19970  19992  19976     1  0.0000000  1.6024720  3
  19971  19974  19975  19976     1  180.0000771  0.8368000  1
  19971  19974  19975  19976     1  180.0000771  1.0460000  2
  19971  19974  19975  19976     1  0.0000000  0.7531200  3
  19971  19974  19975  19981     1  0.0000000  0.6508444  3
  19974  19971  19970  19984     1  180.0000771  0.8368000  1
  19974  19971  19970  19984     1  180.0000771  1.0460000  2
  19974  19971  19970  19984     1  0.0000000  0.7531200  3
  19974  19971  19970  19992     1  0.0000000  0.6508444  3
  19974  19975  19976  19980     1  0.0000000  0.6508444  3
  19974  19975  19976  19992     1  0.0000000  0.6508444  3
  19975  19974  19971  19983     1  0.0000000  0.6508444  3
  19976  19975  19974  19982     1  0.0000000  0.6508444  3
  19976  19992  19970  19984     1  180.0000771  0.4184000  2
  19976  19992  19970  19984     1  0.0000000  1.6024720  3
  19980  19976  19975  19981     1  0.0000000  4.9162000  2
  19980  19976  19975  19981     1  0.0000000  0.6024960  3
  19981  19975  19974  19982     1  0.0000000  4.9162000  2
  19981  19975  19974  19982     1  0.0000000  0.6024960  3
  19981  19975  19976  19992     1  0.0000000  4.9162000  2
  19981  19975  19976  19992     1  0.0000000  0.6024960  3
  19982  19974  19971  19983     1  0.0000000  4.9162000  2
  19982  19974  19971  19983     1  0.0000000  0.6024960  3
  19983  19971  19970  19984     1  0.0000000  0.6508444  3
  19983  19971  19970  19992     1  0.0000000  4.9162000  2
  19983  19971  19970  19992     1  0.0000000  0.6024960  3
  19990  19984  19970  19992     1  0.0000000  4.9162000  2
  19990  19984  19970  19992     1  0.0000000  0.6024960  3
  19993  19994  19997  19998     1  180.0000771  0.8368000  1
  19993  19994  19997  19998     1  180.0000771  1.0460000  2
  19993  19994  19997  19998     1  0.0000000  0.7531200  3
  19993  19994  19997  20005     1  0.0000000  0.6508444  3
  19993  20015  19999  20003     1  180.0000771  5.6484000  1
  19993  20015  19999  20003     1  180.0000771  3.5564000  2
  19993  20015  19999  20003     1  0.0000000  0.4184000  3
  19993  20015  19999  19998     1  180.0000771  0.4184000  2
  19993  20015  19999  19998     1  0.0000000  1.6024720  3
  19994  19997  19998  19999     1  180.0000771  0.8368000  1
  19994  19997  19998  19999     1  180.0000771  1.0460000  2
  19994  19997  19998  19999     1  0.0000000  0.7531200  3
  19994  19997  19998  20004     1  0.0000000  0.6508444  3
  19994  19993  20007  20013     1  0.0000000  0.6508444  3
  19994  19993  20015  19999     1  180.0000771  0.4184000  2
  19994  19993  20015  19999     1  0.0000000  1.6024720  3
  19997  19998  19999  20003     1  0.0000000  0.6508444  3
  19997  19998  19999  20015     1  0.0000000  0.6508444  3
  19997  19994  19993  20007     1  180.0000771  0.8368000  1
  19997  19994  19993  20007     1  180.0000771  1.0460000  2
  19997  19994  19993  20007     1  0.0000000  0.7531200  3
  19997  19994  19993  20015     1  0.0000000  0.6508444  3
  19998  19997  19994  20006     1  0.0000000  0.6508444  3
  19999  20015  19993  20007     1  180.0000771  0.4184000  2
  19999  20015  19993  20007     1  0.0000000  1.6024720  3
  19999  19998  19997  20005     1  0.0000000  0.6508444  3
  20003  19999  19998  20004     1  0.0000000  4.9162000  2
  20003  19999  19998  20004     1  0.0000000  0.6024960  3
  20004  19998  19999  20015     1  0.0000000  4.9162000  2
  20004  19998  19999  20015     1  0.0000000  0.6024960  3
  20004  19998  19997  20005     1  0.0000000  4.9162000  2
  20004  19998  19997  20005     1  0.0000000  0.6024960  3
  20005  19997  19994  20006     1  0.0000000  4.9162000  2
  20005  19997  19994  20006     1  0.0000000  0.6024960  3
  20006  19994  19993  20007     1  0.0000000  0.6508444  3
  20006  19994  19993  20015     1  0.0000000  4.9162000  2
  20006  19994  19993  20015     1  0.0000000  0.6024960  3
  20013  20007  19993  20015     1  0.0000000  4.9162000  2
  20013  20007  19993  20015     1  0.0000000  0.6024960  3
  20016  20017  20020  20021     1  180.0000771  0.8368000  1
  20016  20017  20020  20021     1  180.0000771  1.0460000  2
  20016  20017  20020  20021     1  0.0000000  0.7531200  3
  20016  20017  20020  20028     1  0.0000000  0.6508444  3
  20016  20038  20022  20021     1  180.0000771  0.4184000  2
  20016  20038  20022  20021     1  0.0000000  1.6024720  3
  20016  20038  20022  20026     1  180.0000771  5.6484000  1
  20016  20038  20022  20026     1  180.0000771  3.5564000  2
  20016  20038  20022  20026     1  0.0000000  0.4184000  3
  20017  20016  20030  20036     1  0.0000000  0.6508444  3
  20017  20016  20038  20022     1  180.0000771  0.4184000  2
  20017  20016  20038  20022     1  0.0000000  1.6024720  3
  20017  20020  20021  20022     1  180.0000771  0.8368000  1
  20017  20020  20021  20022     1  180.0000771  1.0460000  2
  20017  20020  20021  20022     1  0.0000000  0.7531200  3
  20017  20020  20021  20027     1  0.0000000  0.6508444  3
  20020  20017  20016  20030     1  180.0000771  0.8368000  1
  20020  20017  20016  20030     1  180.0000771  1.0460000  2
  20020  20017  20016  20030     1  0.0000000  0.7531200  3
  20020  20017  20016  20038     1  0.0000000  0.6508444  3
  20020  20021  20022  20026     1  0.0000000  0.6508444  3
  20020  20021  20022  20038     1  0.0000000  0.6508444  3
  20021  20020  20017  20029     1  0.0000000  0.6508444  3
  20022  20021  20020  20028     1  0.0000000  0.6508444  3
  20022  20038  20016  20030     1  180.0000771  0.4184000  2
  20022  20038  20016  20030     1  0.0000000  1.6024720  3
  20026  20022  20021  20027     1  0.0000000  4.9162000  2
  20026  20022  20021  20027     1  0.0000000  0.6024960  3
  20027  20021  20020  20028     1  0.0000000  4.9162000  2
  20027  20021  20020  20028     1  0.0000000  0.6024960  3
  20027  20021  20022  20038     1  0.0000000  4.9162000  2
  20027  20021  20022  20038     1  0.0000000  0.6024960  3
  20028  20020  20017  20029     1  0.0000000  4.9162000  2
  20028  20020  20017  20029     1  0.0000000  0.6024960  3
  20029  20017  20016  20030     1  0.0000000  0.6508444  3
  20029  20017  20016  20038     1  0.0000000  4.9162000  2
  20029  20017  20016  20038     1  0.0000000  0.6024960  3
  20036  20030  20016  20038     1  0.0000000  4.9162000  2
  20036  20030  20016  20038     1  0.0000000  0.6024960  3
  20039  20040  20043  20044     1  180.0000771  0.8368000  1
  20039  20040  20043  20044     1  180.0000771  1.0460000  2
  20039  20040  20043  20044     1  0.0000000  0.7531200  3
  20039  20040  20043  20051     1  0.0000000  0.6508444  3
  20039  20061  20045  20049     1  180.0000771  5.6484000  1
  20039  20061  20045  20049     1  180.0000771  3.5564000  2
  20039  20061  20045  20049     1  0.0000000  0.4184000  3
  20039  20061  20045  20044     1  180.0000771  0.4184000  2
  20039  20061  20045  20044     1  0.0000000  1.6024720  3
  20040  20043  20044  20045     1  180.0000771  0.8368000  1
  20040  20043  20044  20045     1  180.0000771  1.0460000  2
  20040  20043  20044  20045     1  0.0000000  0.7531200  3
  20040  20043  20044  20050     1  0.0000000  0.6508444  3
  20040  20039  20053  20059     1  0.0000000  0.6508444  3
  20040  20039  20061  20045     1  180.0000771  0.4184000  2
  20040  20039  20061  20045     1  0.0000000  1.6024720  3
  20043  20044  20045  20049     1  0.0000000  0.6508444  3
  20043  20044  20045  20061     1  0.0000000  0.6508444  3
  20043  20040  20039  20053     1  180.0000771  0.8368000  1
  20043  20040  20039  20053     1  180.0000771  1.0460000  2
  20043  20040  20039  20053     1  0.0000000  0.7531200  3
  20043  20040  20039  20061     1  0.0000000  0.6508444  3
  20044  20043  20040  20052     1  0.0000000  0.6508444  3
  20045  20061  20039  20053     1  180.0000771  0.4184000  2
  20045  20061  20039  20053     1  0.0000000  1.6024720  3
  20045  20044  20043  20051     1  0.0000000  0.6508444  3
  20049  20045  20044  20050     1  0.0000000  4.9162000  2
  20049  20045  20044  20050     1  0.0000000  0.6024960  3
  20050  20044  20045  20061     1  0.0000000  4.9162000  2
  20050  20044  20045  20061     1  0.0000000  0.6024960  3
  20050  20044  20043  20051     1  0.0000000  4.9162000  2
  20050  20044  20043  20051     1  0.0000000  0.6024960  3
  20051  20043  20040  20052     1  0.0000000  4.9162000  2
  20051  20043  20040  20052     1  0.0000000  0.6024960  3
  20052  20040  20039  20053     1  0.0000000  0.6508444  3
  20052  20040  20039  20061     1  0.0000000  4.9162000  2
  20052  20040  20039  20061     1  0.0000000  0.6024960  3
  20059  20053  20039  20061     1  0.0000000  4.9162000  2
  20059  20053  20039  20061     1  0.0000000  0.6024960  3
  20062  20063  20066  20067     1  180.0000771  0.8368000  1
  20062  20063  20066  20067     1  180.0000771  1.0460000  2
  20062  20063  20066  20067     1  0.0000000  0.7531200  3
  20062  20063  20066  20074     1  0.0000000  0.6508444  3
  20062  20084  20068  20067     1  180.0000771  0.4184000  2
  20062  20084  20068  20067     1  0.0000000  1.6024720  3
  20062  20084  20068  20072     1  180.0000771  5.6484000  1
  20062  20084  20068  20072     1  180.0000771  3.5564000  2
  20062  20084  20068  20072     1  0.0000000  0.4184000  3
  20063  20062  20076  20082     1  0.0000000  0.6508444  3
  20063  20062  20084  20068     1  180.0000771  0.4184000  2
  20063  20062  20084  20068     1  0.0000000  1.6024720  3
  20063  20066  20067  20068     1  180.0000771  0.8368000  1
  20063  20066  20067  20068     1  180.0000771  1.0460000  2
  20063  20066  20067  20068     1  0.0000000  0.7531200  3
  20063  20066  20067  20073     1  0.0000000  0.6508444  3
  20066  20063  20062  20076     1  180.0000771  0.8368000  1
  20066  20063  20062  20076     1  180.0000771  1.0460000  2
  20066  20063  20062  20076     1  0.0000000  0.7531200  3
  20066  20063  20062  20084     1  0.0000000  0.6508444  3
  20066  20067  20068  20072     1  0.0000000  0.6508444  3
  20066  20067  20068  20084     1  0.0000000  0.6508444  3
  20067  20066  20063  20075     1  0.0000000  0.6508444  3
  20068  20067  20066  20074     1  0.0000000  0.6508444  3
  20068  20084  20062  20076     1  180.0000771  0.4184000  2
  20068  20084  20062  20076     1  0.0000000  1.6024720  3
  20072  20068  20067  20073     1  0.0000000  4.9162000  2
  20072  20068  20067  20073     1  0.0000000  0.6024960  3
  20073  20067  20066  20074     1  0.0000000  4.9162000  2
  20073  20067  20066  20074     1  0.0000000  0.6024960  3
  20073  20067  20068  20084     1  0.0000000  4.9162000  2
  20073  20067  20068  20084     1  0.0000000  0.6024960  3
  20074  20066  20063  20075     1  0.0000000  4.9162000  2
  20074  20066  20063  20075     1  0.0000000  0.6024960  3
  20075  20063  20062  20076     1  0.0000000  0.6508444  3
  20075  20063  20062  20084     1  0.0000000  4.9162000  2
  20075  20063  20062  20084     1  0.0000000  0.6024960  3
  20082  20076  20062  20084     1  0.0000000  4.9162000  2
  20082  20076  20062  20084     1  0.0000000  0.6024960  3
  20085  20086  20089  20090     1  180.0000771  0.8368000  1
  20085  20086  20089  20090     1  180.0000771  1.0460000  2
  20085  20086  20089  20090     1  0.0000000  0.7531200  3
  20085  20086  20089  20097     1  0.0000000  0.6508444  3
  20085  20107  20091  20095     1  180.0000771  5.6484000  1
  20085  20107  20091  20095     1  180.0000771  3.5564000  2
  20085  20107  20091  20095     1  0.0000000  0.4184000  3
  20085  20107  20091  20090     1  180.0000771  0.4184000  2
  20085  20107  20091  20090     1  0.0000000  1.6024720  3
  20086  20089  20090  20091     1  180.0000771  0.8368000  1
  20086  20089  20090  20091     1  180.0000771  1.0460000  2
  20086  20089  20090  20091     1  0.0000000  0.7531200  3
  20086  20089  20090  20096     1  0.0000000  0.6508444  3
  20086  20085  20099  20105     1  0.0000000  0.6508444  3
  20086  20085  20107  20091     1  180.0000771  0.4184000  2
  20086  20085  20107  20091     1  0.0000000  1.6024720  3
  20089  20090  20091  20095     1  0.0000000  0.6508444  3
  20089  20090  20091  20107     1  0.0000000  0.6508444  3
  20089  20086  20085  20099     1  180.0000771  0.8368000  1
  20089  20086  20085  20099     1  180.0000771  1.0460000  2
  20089  20086  20085  20099     1  0.0000000  0.7531200  3
  20089  20086  20085  20107     1  0.0000000  0.6508444  3
  20090  20089  20086  20098     1  0.0000000  0.6508444  3
  20091  20107  20085  20099     1  180.0000771  0.4184000  2
  20091  20107  20085  20099     1  0.0000000  1.6024720  3
  20091  20090  20089  20097     1  0.0000000  0.6508444  3
  20095  20091  20090  20096     1  0.0000000  4.9162000  2
  20095  20091  20090  20096     1  0.0000000  0.6024960  3
  20096  20090  20091  20107     1  0.0000000  4.9162000  2
  20096  20090  20091  20107     1  0.0000000  0.6024960  3
  20096  20090  20089  20097     1  0.0000000  4.9162000  2
  20096  20090  20089  20097     1  0.0000000  0.6024960  3
  20097  20089  20086  20098     1  0.0000000  4.9162000  2
  20097  20089  20086  20098     1  0.0000000  0.6024960  3
  20098  20086  20085  20099     1  0.0000000  0.6508444  3
  20098  20086  20085  20107     1  0.0000000  4.9162000  2
  20098  20086  20085  20107     1  0.0000000  0.6024960  3
  20105  20099  20085  20107     1  0.0000000  4.9162000  2
  20105  20099  20085  20107     1  0.0000000  0.6024960  3
  20108  20109  20112  20113     1  180.0000771  0.8368000  1
  20108  20109  20112  20113     1  180.0000771  1.0460000  2
  20108  20109  20112  20113     1  0.0000000  0.7531200  3
  20108  20109  20112  20120     1  0.0000000  0.6508444  3
  20108  20130  20114  20113     1  180.0000771  0.4184000  2
  20108  20130  20114  20113     1  0.0000000  1.6024720  3
  20108  20130  20114  20118     1  180.0000771  5.6484000  1
  20108  20130  20114  20118     1  180.0000771  3.5564000  2
  20108  20130  20114  20118     1  0.0000000  0.4184000  3
  20109  20108  20122  20128     1  0.0000000  0.6508444  3
  20109  20108  20130  20114     1  180.0000771  0.4184000  2
  20109  20108  20130  20114     1  0.0000000  1.6024720  3
  20109  20112  20113  20114     1  180.0000771  0.8368000  1
  20109  20112  20113  20114     1  180.0000771  1.0460000  2
  20109  20112  20113  20114     1  0.0000000  0.7531200  3
  20109  20112  20113  20119     1  0.0000000  0.6508444  3
  20112  20109  20108  20122     1  180.0000771  0.8368000  1
  20112  20109  20108  20122     1  180.0000771  1.0460000  2
  20112  20109  20108  20122     1  0.0000000  0.7531200  3
  20112  20109  20108  20130     1  0.0000000  0.6508444  3
  20112  20113  20114  20118     1  0.0000000  0.6508444  3
  20112  20113  20114  20130     1  0.0000000  0.6508444  3
  20113  20112  20109  20121     1  0.0000000  0.6508444  3
  20114  20113  20112  20120     1  0.0000000  0.6508444  3
  20114  20130  20108  20122     1  180.0000771  0.4184000  2
  20114  20130  20108  20122     1  0.0000000  1.6024720  3
  20118  20114  20113  20119     1  0.0000000  4.9162000  2
  20118  20114  20113  20119     1  0.0000000  0.6024960  3
  20119  20113  20112  20120     1  0.0000000  4.9162000  2
  20119  20113  20112  20120     1  0.0000000  0.6024960  3
  20119  20113  20114  20130     1  0.0000000  4.9162000  2
  20119  20113  20114  20130     1  0.0000000  0.6024960  3
  20120  20112  20109  20121     1  0.0000000  4.9162000  2
  20120  20112  20109  20121     1  0.0000000  0.6024960  3
  20121  20109  20108  20122     1  0.0000000  0.6508444  3
  20121  20109  20108  20130     1  0.0000000  4.9162000  2
  20121  20109  20108  20130     1  0.0000000  0.6024960  3
  20128  20122  20108  20130     1  0.0000000  4.9162000  2
  20128  20122  20108  20130     1  0.0000000  0.6024960  3
  20131  20132  20135  20136     1  180.0000771  0.8368000  1
  20131  20132  20135  20136     1  180.0000771  1.0460000  2
  20131  20132  20135  20136     1  0.0000000  0.7531200  3
  20131  20132  20135  20143     1  0.0000000  0.6508444  3
  20131  20153  20137  20141     1  180.0000771  5.6484000  1
  20131  20153  20137  20141     1  180.0000771  3.5564000  2
  20131  20153  20137  20141     1  0.0000000  0.4184000  3
  20131  20153  20137  20136     1  180.0000771  0.4184000  2
  20131  20153  20137  20136     1  0.0000000  1.6024720  3
  20132  20135  20136  20137     1  180.0000771  0.8368000  1
  20132  20135  20136  20137     1  180.0000771  1.0460000  2
  20132  20135  20136  20137     1  0.0000000  0.7531200  3
  20132  20135  20136  20142     1  0.0000000  0.6508444  3
  20132  20131  20145  20151     1  0.0000000  0.6508444  3
  20132  20131  20153  20137     1  180.0000771  0.4184000  2
  20132  20131  20153  20137     1  0.0000000  1.6024720  3
  20135  20136  20137  20141     1  0.0000000  0.6508444  3
  20135  20136  20137  20153     1  0.0000000  0.6508444  3
  20135  20132  20131  20145     1  180.0000771  0.8368000  1
  20135  20132  20131  20145     1  180.0000771  1.0460000  2
  20135  20132  20131  20145     1  0.0000000  0.7531200  3
  20135  20132  20131  20153     1  0.0000000  0.6508444  3
  20136  20135  20132  20144     1  0.0000000  0.6508444  3
  20137  20153  20131  20145     1  180.0000771  0.4184000  2
  20137  20153  20131  20145     1  0.0000000  1.6024720  3
  20137  20136  20135  20143     1  0.0000000  0.6508444  3
  20141  20137  20136  20142     1  0.0000000  4.9162000  2
  20141  20137  20136  20142     1  0.0000000  0.6024960  3
  20142  20136  20137  20153     1  0.0000000  4.9162000  2
  20142  20136  20137  20153     1  0.0000000  0.6024960  3
  20142  20136  20135  20143     1  0.0000000  4.9162000  2
  20142  20136  20135  20143     1  0.0000000  0.6024960  3
  20143  20135  20132  20144     1  0.0000000  4.9162000  2
  20143  20135  20132  20144     1  0.0000000  0.6024960  3
  20144  20132  20131  20145     1  0.0000000  0.6508444  3
  20144  20132  20131  20153     1  0.0000000  4.9162000  2
  20144  20132  20131  20153     1  0.0000000  0.6024960  3
  20151  20145  20131  20153     1  0.0000000  4.9162000  2
  20151  20145  20131  20153     1  0.0000000  0.6024960  3
  20154  20155  20158  20159     1  180.0000771  0.8368000  1
  20154  20155  20158  20159     1  180.0000771  1.0460000  2
  20154  20155  20158  20159     1  0.0000000  0.7531200  3
  20154  20155  20158  20166     1  0.0000000  0.6508444  3
  20154  20176  20160  20159     1  180.0000771  0.4184000  2
  20154  20176  20160  20159     1  0.0000000  1.6024720  3
  20154  20176  20160  20164     1  180.0000771  5.6484000  1
  20154  20176  20160  20164     1  180.0000771  3.5564000  2
  20154  20176  20160  20164     1  0.0000000  0.4184000  3
  20155  20154  20168  20174     1  0.0000000  0.6508444  3
  20155  20154  20176  20160     1  180.0000771  0.4184000  2
  20155  20154  20176  20160     1  0.0000000  1.6024720  3
  20155  20158  20159  20160     1  180.0000771  0.8368000  1
  20155  20158  20159  20160     1  180.0000771  1.0460000  2
  20155  20158  20159  20160     1  0.0000000  0.7531200  3
  20155  20158  20159  20165     1  0.0000000  0.6508444  3
  20158  20155  20154  20168     1  180.0000771  0.8368000  1
  20158  20155  20154  20168     1  180.0000771  1.0460000  2
  20158  20155  20154  20168     1  0.0000000  0.7531200  3
  20158  20155  20154  20176     1  0.0000000  0.6508444  3
  20158  20159  20160  20164     1  0.0000000  0.6508444  3
  20158  20159  20160  20176     1  0.0000000  0.6508444  3
  20159  20158  20155  20167     1  0.0000000  0.6508444  3
  20160  20159  20158  20166     1  0.0000000  0.6508444  3
  20160  20176  20154  20168     1  180.0000771  0.4184000  2
  20160  20176  20154  20168     1  0.0000000  1.6024720  3
  20164  20160  20159  20165     1  0.0000000  4.9162000  2
  20164  20160  20159  20165     1  0.0000000  0.6024960  3
  20165  20159  20158  20166     1  0.0000000  4.9162000  2
  20165  20159  20158  20166     1  0.0000000  0.6024960  3
  20165  20159  20160  20176     1  0.0000000  4.9162000  2
  20165  20159  20160  20176     1  0.0000000  0.6024960  3
  20166  20158  20155  20167     1  0.0000000  4.9162000  2
  20166  20158  20155  20167     1  0.0000000  0.6024960  3
  20167  20155  20154  20168     1  0.0000000  0.6508444  3
  20167  20155  20154  20176     1  0.0000000  4.9162000  2
  20167  20155  20154  20176     1  0.0000000  0.6024960  3
  20174  20168  20154  20176     1  0.0000000  4.9162000  2
  20174  20168  20154  20176     1  0.0000000  0.6024960  3
  20177  20178  20181  20182     1  180.0000771  0.8368000  1
  20177  20178  20181  20182     1  180.0000771  1.0460000  2
  20177  20178  20181  20182     1  0.0000000  0.7531200  3
  20177  20178  20181  20189     1  0.0000000  0.6508444  3
  20177  20199  20183  20187     1  180.0000771  5.6484000  1
  20177  20199  20183  20187     1  180.0000771  3.5564000  2
  20177  20199  20183  20187     1  0.0000000  0.4184000  3
  20177  20199  20183  20182     1  180.0000771  0.4184000  2
  20177  20199  20183  20182     1  0.0000000  1.6024720  3
  20178  20181  20182  20183     1  180.0000771  0.8368000  1
  20178  20181  20182  20183     1  180.0000771  1.0460000  2
  20178  20181  20182  20183     1  0.0000000  0.7531200  3
  20178  20181  20182  20188     1  0.0000000  0.6508444  3
  20178  20177  20191  20197     1  0.0000000  0.6508444  3
  20178  20177  20199  20183     1  180.0000771  0.4184000  2
  20178  20177  20199  20183     1  0.0000000  1.6024720  3
  20181  20182  20183  20187     1  0.0000000  0.6508444  3
  20181  20182  20183  20199     1  0.0000000  0.6508444  3
  20181  20178  20177  20191     1  180.0000771  0.8368000  1
  20181  20178  20177  20191     1  180.0000771  1.0460000  2
  20181  20178  20177  20191     1  0.0000000  0.7531200  3
  20181  20178  20177  20199     1  0.0000000  0.6508444  3
  20182  20181  20178  20190     1  0.0000000  0.6508444  3
  20183  20199  20177  20191     1  180.0000771  0.4184000  2
  20183  20199  20177  20191     1  0.0000000  1.6024720  3
  20183  20182  20181  20189     1  0.0000000  0.6508444  3
  20187  20183  20182  20188     1  0.0000000  4.9162000  2
  20187  20183  20182  20188     1  0.0000000  0.6024960  3
  20188  20182  20183  20199     1  0.0000000  4.9162000  2
  20188  20182  20183  20199     1  0.0000000  0.6024960  3
  20188  20182  20181  20189     1  0.0000000  4.9162000  2
  20188  20182  20181  20189     1  0.0000000  0.6024960  3
  20189  20181  20178  20190     1  0.0000000  4.9162000  2
  20189  20181  20178  20190     1  0.0000000  0.6024960  3
  20190  20178  20177  20191     1  0.0000000  0.6508444  3
  20190  20178  20177  20199     1  0.0000000  4.9162000  2
  20190  20178  20177  20199     1  0.0000000  0.6024960  3
  20197  20191  20177  20199     1  0.0000000  4.9162000  2
  20197  20191  20177  20199     1  0.0000000  0.6024960  3
  20200  20201  20204  20205     1  180.0000771  0.8368000  1
  20200  20201  20204  20205     1  180.0000771  1.0460000  2
  20200  20201  20204  20205     1  0.0000000  0.7531200  3
  20200  20201  20204  20212     1  0.0000000  0.6508444  3
  20200  20222  20206  20205     1  180.0000771  0.4184000  2
  20200  20222  20206  20205     1  0.0000000  1.6024720  3
  20200  20222  20206  20210     1  180.0000771  5.6484000  1
  20200  20222  20206  20210     1  180.0000771  3.5564000  2
  20200  20222  20206  20210     1  0.0000000  0.4184000  3
  20201  20200  20214  20220     1  0.0000000  0.6508444  3
  20201  20200  20222  20206     1  180.0000771  0.4184000  2
  20201  20200  20222  20206     1  0.0000000  1.6024720  3
  20201  20204  20205  20206     1  180.0000771  0.8368000  1
  20201  20204  20205  20206     1  180.0000771  1.0460000  2
  20201  20204  20205  20206     1  0.0000000  0.7531200  3
  20201  20204  20205  20211     1  0.0000000  0.6508444  3
  20204  20201  20200  20214     1  180.0000771  0.8368000  1
  20204  20201  20200  20214     1  180.0000771  1.0460000  2
  20204  20201  20200  20214     1  0.0000000  0.7531200  3
  20204  20201  20200  20222     1  0.0000000  0.6508444  3
  20204  20205  20206  20210     1  0.0000000  0.6508444  3
  20204  20205  20206  20222     1  0.0000000  0.6508444  3
  20205  20204  20201  20213     1  0.0000000  0.6508444  3
  20206  20205  20204  20212     1  0.0000000  0.6508444  3
  20206  20222  20200  20214     1  180.0000771  0.4184000  2
  20206  20222  20200  20214     1  0.0000000  1.6024720  3
  20210  20206  20205  20211     1  0.0000000  4.9162000  2
  20210  20206  20205  20211     1  0.0000000  0.6024960  3
  20211  20205  20204  20212     1  0.0000000  4.9162000  2
  20211  20205  20204  20212     1  0.0000000  0.6024960  3
  20211  20205  20206  20222     1  0.0000000  4.9162000  2
  20211  20205  20206  20222     1  0.0000000  0.6024960  3
  20212  20204  20201  20213     1  0.0000000  4.9162000  2
  20212  20204  20201  20213     1  0.0000000  0.6024960  3
  20213  20201  20200  20214     1  0.0000000  0.6508444  3
  20213  20201  20200  20222     1  0.0000000  4.9162000  2
  20213  20201  20200  20222     1  0.0000000  0.6024960  3
  20220  20214  20200  20222     1  0.0000000  4.9162000  2
  20220  20214  20200  20222     1  0.0000000  0.6024960  3
  20223  20224  20227  20228     1  180.0000771  0.8368000  1
  20223  20224  20227  20228     1  180.0000771  1.0460000  2
  20223  20224  20227  20228     1  0.0000000  0.7531200  3
  20223  20224  20227  20235     1  0.0000000  0.6508444  3
  20223  20245  20229  20233     1  180.0000771  5.6484000  1
  20223  20245  20229  20233     1  180.0000771  3.5564000  2
  20223  20245  20229  20233     1  0.0000000  0.4184000  3
  20223  20245  20229  20228     1  180.0000771  0.4184000  2
  20223  20245  20229  20228     1  0.0000000  1.6024720  3
  20224  20227  20228  20229     1  180.0000771  0.8368000  1
  20224  20227  20228  20229     1  180.0000771  1.0460000  2
  20224  20227  20228  20229     1  0.0000000  0.7531200  3
  20224  20227  20228  20234     1  0.0000000  0.6508444  3
  20224  20223  20237  20243     1  0.0000000  0.6508444  3
  20224  20223  20245  20229     1  180.0000771  0.4184000  2
  20224  20223  20245  20229     1  0.0000000  1.6024720  3
  20227  20228  20229  20233     1  0.0000000  0.6508444  3
  20227  20228  20229  20245     1  0.0000000  0.6508444  3
  20227  20224  20223  20237     1  180.0000771  0.8368000  1
  20227  20224  20223  20237     1  180.0000771  1.0460000  2
  20227  20224  20223  20237     1  0.0000000  0.7531200  3
  20227  20224  20223  20245     1  0.0000000  0.6508444  3
  20228  20227  20224  20236     1  0.0000000  0.6508444  3
  20229  20245  20223  20237     1  180.0000771  0.4184000  2
  20229  20245  20223  20237     1  0.0000000  1.6024720  3
  20229  20228  20227  20235     1  0.0000000  0.6508444  3
  20233  20229  20228  20234     1  0.0000000  4.9162000  2
  20233  20229  20228  20234     1  0.0000000  0.6024960  3
  20234  20228  20229  20245     1  0.0000000  4.9162000  2
  20234  20228  20229  20245     1  0.0000000  0.6024960  3
  20234  20228  20227  20235     1  0.0000000  4.9162000  2
  20234  20228  20227  20235     1  0.0000000  0.6024960  3
  20235  20227  20224  20236     1  0.0000000  4.9162000  2
  20235  20227  20224  20236     1  0.0000000  0.6024960  3
  20236  20224  20223  20237     1  0.0000000  0.6508444  3
  20236  20224  20223  20245     1  0.0000000  4.9162000  2
  20236  20224  20223  20245     1  0.0000000  0.6024960  3
  20243  20237  20223  20245     1  0.0000000  4.9162000  2
  20243  20237  20223  20245     1  0.0000000  0.6024960  3
  20246  20247  20250  20251     1  180.0000771  0.8368000  1
  20246  20247  20250  20251     1  180.0000771  1.0460000  2
  20246  20247  20250  20251     1  0.0000000  0.7531200  3
  20246  20247  20250  20258     1  0.0000000  0.6508444  3
  20246  20268  20252  20251     1  180.0000771  0.4184000  2
  20246  20268  20252  20251     1  0.0000000  1.6024720  3
  20246  20268  20252  20256     1  180.0000771  5.6484000  1
  20246  20268  20252  20256     1  180.0000771  3.5564000  2
  20246  20268  20252  20256     1  0.0000000  0.4184000  3
  20247  20246  20260  20266     1  0.0000000  0.6508444  3
  20247  20246  20268  20252     1  180.0000771  0.4184000  2
  20247  20246  20268  20252     1  0.0000000  1.6024720  3
  20247  20250  20251  20252     1  180.0000771  0.8368000  1
  20247  20250  20251  20252     1  180.0000771  1.0460000  2
  20247  20250  20251  20252     1  0.0000000  0.7531200  3
  20247  20250  20251  20257     1  0.0000000  0.6508444  3
  20250  20247  20246  20260     1  180.0000771  0.8368000  1
  20250  20247  20246  20260     1  180.0000771  1.0460000  2
  20250  20247  20246  20260     1  0.0000000  0.7531200  3
  20250  20247  20246  20268     1  0.0000000  0.6508444  3
  20250  20251  20252  20256     1  0.0000000  0.6508444  3
  20250  20251  20252  20268     1  0.0000000  0.6508444  3
  20251  20250  20247  20259     1  0.0000000  0.6508444  3
  20252  20251  20250  20258     1  0.0000000  0.6508444  3
  20252  20268  20246  20260     1  180.0000771  0.4184000  2
  20252  20268  20246  20260     1  0.0000000  1.6024720  3
  20256  20252  20251  20257     1  0.0000000  4.9162000  2
  20256  20252  20251  20257     1  0.0000000  0.6024960  3
  20257  20251  20250  20258     1  0.0000000  4.9162000  2
  20257  20251  20250  20258     1  0.0000000  0.6024960  3
  20257  20251  20252  20268     1  0.0000000  4.9162000  2
  20257  20251  20252  20268     1  0.0000000  0.6024960  3
  20258  20250  20247  20259     1  0.0000000  4.9162000  2
  20258  20250  20247  20259     1  0.0000000  0.6024960  3
  20259  20247  20246  20260     1  0.0000000  0.6508444  3
  20259  20247  20246  20268     1  0.0000000  4.9162000  2
  20259  20247  20246  20268     1  0.0000000  0.6024960  3
  20266  20260  20246  20268     1  0.0000000  4.9162000  2
  20266  20260  20246  20268     1  0.0000000  0.6024960  3
  20269  20270  20273  20274     1  180.0000771  0.8368000  1
  20269  20270  20273  20274     1  180.0000771  1.0460000  2
  20269  20270  20273  20274     1  0.0000000  0.7531200  3
  20269  20270  20273  20281     1  0.0000000  0.6508444  3
  20269  20291  20275  20279     1  180.0000771  5.6484000  1
  20269  20291  20275  20279     1  180.0000771  3.5564000  2
  20269  20291  20275  20279     1  0.0000000  0.4184000  3
  20269  20291  20275  20274     1  180.0000771  0.4184000  2
  20269  20291  20275  20274     1  0.0000000  1.6024720  3
  20270  20273  20274  20275     1  180.0000771  0.8368000  1
  20270  20273  20274  20275     1  180.0000771  1.0460000  2
  20270  20273  20274  20275     1  0.0000000  0.7531200  3
  20270  20273  20274  20280     1  0.0000000  0.6508444  3
  20270  20269  20283  20289     1  0.0000000  0.6508444  3
  20270  20269  20291  20275     1  180.0000771  0.4184000  2
  20270  20269  20291  20275     1  0.0000000  1.6024720  3
  20273  20274  20275  20279     1  0.0000000  0.6508444  3
  20273  20274  20275  20291     1  0.0000000  0.6508444  3
  20273  20270  20269  20283     1  180.0000771  0.8368000  1
  20273  20270  20269  20283     1  180.0000771  1.0460000  2
  20273  20270  20269  20283     1  0.0000000  0.7531200  3
  20273  20270  20269  20291     1  0.0000000  0.6508444  3
  20274  20273  20270  20282     1  0.0000000  0.6508444  3
  20275  20291  20269  20283     1  180.0000771  0.4184000  2
  20275  20291  20269  20283     1  0.0000000  1.6024720  3
  20275  20274  20273  20281     1  0.0000000  0.6508444  3
  20279  20275  20274  20280     1  0.0000000  4.9162000  2
  20279  20275  20274  20280     1  0.0000000  0.6024960  3
  20280  20274  20275  20291     1  0.0000000  4.9162000  2
  20280  20274  20275  20291     1  0.0000000  0.6024960  3
  20280  20274  20273  20281     1  0.0000000  4.9162000  2
  20280  20274  20273  20281     1  0.0000000  0.6024960  3
  20281  20273  20270  20282     1  0.0000000  4.9162000  2
  20281  20273  20270  20282     1  0.0000000  0.6024960  3
  20282  20270  20269  20283     1  0.0000000  0.6508444  3
  20282  20270  20269  20291     1  0.0000000  4.9162000  2
  20282  20270  20269  20291     1  0.0000000  0.6024960  3
  20289  20283  20269  20291     1  0.0000000  4.9162000  2
  20289  20283  20269  20291     1  0.0000000  0.6024960  3
      1      2     14     15     1  0.0000000  0.6508444  3
      1      2     14     16     1  0.0000000  0.6508444  3
      1      5     17     18     1  0.0000000  0.6508444  3
      1      5     17     19     1  0.0000000  0.6508444  3
      1      8     11     12     1  0.0000000  0.6508444  3
      1      8     11     13     1  0.0000000  0.6508444  3
      2      1      5      6     1  0.0000000  0.6508444  3
      2      1      5      7     1  0.0000000  0.6508444  3
      2      1      8      9     1  0.0000000  0.6508444  3
      2      1      8     10     1  0.0000000  0.6508444  3
      2     14     26     27     1  0.0000000  0.6508444  3
      2     14     26     28     1  0.0000000  0.6508444  3
      5      1      2      3     1  0.0000000  0.6508444  3
      8      1      2      3     1  0.0000000  0.6508444  3
     29      1      2      3     1  0.0000000  0.6508444  3
      3      2     14     26     1  0.0000000  0.6508444  3
      3      2     14     15     1  0.0000000  0.6508444  3
      3      2     14     16     1  0.0000000  0.6508444  3
      5      1      2      4     1  0.0000000  0.6508444  3
      8      1      2      4     1  0.0000000  0.6508444  3
     29      1      2      4     1  0.0000000  0.6508444  3
      4      2     14     26     1  0.0000000  0.6508444  3
      4      2     14     15     1  0.0000000  0.6508444  3
      4      2     14     16     1  0.0000000  0.6508444  3
      5      1      8      9     1  0.0000000  0.6508444  3
      5      1      8     10     1  0.0000000  0.6508444  3
      5     17     20     21     1  0.0000000  0.6508444  3
      5     17     20     22     1  0.0000000  0.6508444  3
      8      1      5      6     1  0.0000000  0.6508444  3
     29      1      5      6     1  0.0000000  0.6508444  3
      6      5     17     20     1  0.0000000  0.6508444  3
      6      5     17     18     1  0.0000000  0.6508444  3
      6      5     17     19     1  0.0000000  0.6508444  3
      8      1      5      7     1  0.0000000  0.6508444  3
     29      1      5      7     1  0.0000000  0.6508444  3
      7      5     17     20     1  0.0000000  0.6508444  3
      7      5     17     18     1  0.0000000  0.6508444  3
      7      5     17     19     1  0.0000000  0.6508444  3
      8     11     23     24     1  0.0000000  0.6508444  3
      8     11     23     25     1  0.0000000  0.6508444  3
     29      1      8      9     1  0.0000000  0.6508444  3
      9      8     11     23     1  0.0000000  0.6508444  3
      9      8     11     12     1  0.0000000  0.6508444  3
      9      8     11     13     1  0.0000000  0.6508444  3
     29      1      8     10     1  0.0000000  0.6508444  3
     10      8     11     23     1  0.0000000  0.6508444  3
     10      8     11     12     1  0.0000000  0.6508444  3
     10      8     11     13     1  0.0000000  0.6508444  3
     29      1      8     11     1  0.0000000  0.6508444  3
     12     11     23     88     1  0.0000000  1.0460000  1
     12     11     23     88     1  0.0000000  0.0000000  3
     12     11     23     24     1  0.0000000  0.6508444  3
     12     11     23     25     1  0.0000000  0.6508444  3
     13     11     23     88     1  0.0000000  1.0460000  1
     13     11     23     88     1  0.0000000  0.0000000  3
     13     11     23     24     1  0.0000000  0.6508444  3
     13     11     23     25     1  0.0000000  0.6508444  3
     29      1      2     14     1  0.0000000  0.6508444  3
     15     14     26    118     1  0.0000000  1.0460000  1
     15     14     26    118     1  0.0000000  0.0000000  3
     15     14     26     27     1  0.0000000  0.6508444  3
     15     14     26     28     1  0.0000000  0.6508444  3
     16     14     26    118     1  0.0000000  1.0460000  1
     16     14     26    118     1  0.0000000  0.0000000  3
     16     14     26     27     1  0.0000000  0.6508444  3
     16     14     26     28     1  0.0000000  0.6508444  3
     29      1      5     17     1  0.0000000  0.6508444  3
     18     17     20     58     1  0.0000000  1.0460000  1
     18     17     20     58     1  0.0000000  0.0000000  3
     18     17     20     21     1  0.0000000  0.6508444  3
     18     17     20     22     1  0.0000000  0.6508444  3
     19     17     20     58     1  0.0000000  1.0460000  1
     19     17     20     58     1  0.0000000  0.0000000  3
     19     17     20     21     1  0.0000000  0.6508444  3
     19     17     20     22     1  0.0000000  0.6508444  3
     20     58     49     50     1  0.0000000  1.6038667  3
     20     58     49     51     1  0.0000000  1.6038667  3
     21     20     58     49     1  0.0000000  1.6038667  3
     22     20     58     49     1  0.0000000  1.6038667  3
     23     88     79     80     1  0.0000000  1.6038667  3
     23     88     79     81     1  0.0000000  1.6038667  3
     24     23     88     79     1  0.0000000  1.6038667  3
     25     23     88     79     1  0.0000000  1.6038667  3
     26    118    109    110     1  0.0000000  1.6038667  3
     26    118    109    111     1  0.0000000  1.6038667  3
     27     26    118    109     1  0.0000000  1.6038667  3
     28     26    118    109     1  0.0000000  1.6038667  3
     30     31     43     44     1  0.0000000  0.6508444  3
     30     31     43     45     1  0.0000000  0.6508444  3
     30     34     46     47     1  0.0000000  0.6508444  3
     30     34     46     48     1  0.0000000  0.6508444  3
     30     37     40     41     1  0.0000000  0.6508444  3
     30     37     40     42     1  0.0000000  0.6508444  3
     31     30     34     35     1  0.0000000  0.6508444  3
     31     30     34     36     1  0.0000000  0.6508444  3
     31     30     37     38     1  0.0000000  0.6508444  3
     31     30     37     39     1  0.0000000  0.6508444  3
     31     43     55     56     1  0.0000000  0.6508444  3
     31     43     55     57     1  0.0000000  0.6508444  3
     32     31     30     34     1  0.0000000  0.6508444  3
     32     31     30     37     1  0.0000000  0.6508444  3
     32     31     30     59     1  0.0000000  0.6508444  3
     32     31     43     55     1  0.0000000  0.6508444  3
     32     31     43     44     1  0.0000000  0.6508444  3
     32     31     43     45     1  0.0000000  0.6508444  3
     33     31     30     34     1  0.0000000  0.6508444  3
     33     31     30     37     1  0.0000000  0.6508444  3
     33     31     30     59     1  0.0000000  0.6508444  3
     33     31     43     55     1  0.0000000  0.6508444  3
     33     31     43     44     1  0.0000000  0.6508444  3
     33     31     43     45     1  0.0000000  0.6508444  3
     34     30     37     38     1  0.0000000  0.6508444  3
     34     30     37     39     1  0.0000000  0.6508444  3
     34     46     52     53     1  0.0000000  0.6508444  3
     34     46     52     54     1  0.0000000  0.6508444  3
     35     34     30     37     1  0.0000000  0.6508444  3
     35     34     30     59     1  0.0000000  0.6508444  3
     35     34     46     52     1  0.0000000  0.6508444  3
     35     34     46     47     1  0.0000000  0.6508444  3
     35     34     46     48     1  0.0000000  0.6508444  3
     36     34     30     37     1  0.0000000  0.6508444  3
     36     34     30     59     1  0.0000000  0.6508444  3
     36     34     46     52     1  0.0000000  0.6508444  3
     36     34     46     47     1  0.0000000  0.6508444  3
     36     34     46     48     1  0.0000000  0.6508444  3
     37     40     49     50     1  0.0000000  0.6508444  3
     37     40     49     51     1  0.0000000  0.6508444  3
     38     37     30     59     1  0.0000000  0.6508444  3
     38     37     40     49     1  0.0000000  0.6508444  3
     38     37     40     41     1  0.0000000  0.6508444  3
     38     37     40     42     1  0.0000000  0.6508444  3
     39     37     30     59     1  0.0000000  0.6508444  3
     39     37     40     49     1  0.0000000  0.6508444  3
     39     37     40     41     1  0.0000000  0.6508444  3
     39     37     40     42     1  0.0000000  0.6508444  3
     40     37     30     59     1  0.0000000  0.6508444  3
     41     40     49     58     1  0.0000000  1.0460000  1
     41     40     49     58     1  0.0000000  0.0000000  3
     41     40     49     50     1  0.0000000  0.6508444  3
     41     40     49     51     1  0.0000000  0.6508444  3
     42     40     49     58     1  0.0000000  1.0460000  1
     42     40     49     58     1  0.0000000  0.0000000  3
     42     40     49     50     1  0.0000000  0.6508444  3
     42     40     49     51     1  0.0000000  0.6508444  3
     43     31     30     59     1  0.0000000  0.6508444  3
     44     43     55    178     1  0.0000000  1.0460000  1
     44     43     55    178     1  0.0000000  0.0000000  3
     44     43     55     56     1  0.0000000  0.6508444  3
     44     43     55     57     1  0.0000000  0.6508444  3
     45     43     55    178     1  0.0000000  1.0460000  1
     45     43     55    178     1  0.0000000  0.0000000  3
     45     43     55     56     1  0.0000000  0.6508444  3
     45     43     55     57     1  0.0000000  0.6508444  3
     46     34     30     59     1  0.0000000  0.6508444  3
     47     46     52    148     1  0.0000000  1.0460000  1
     47     46     52    148     1  0.0000000  0.0000000  3
     47     46     52     53     1  0.0000000  0.6508444  3
     47     46     52     54     1  0.0000000  0.6508444  3
     48     46     52    148     1  0.0000000  1.0460000  1
     48     46     52    148     1  0.0000000  0.0000000  3
     48     46     52     53     1  0.0000000  0.6508444  3
     48     46     52     54     1  0.0000000  0.6508444  3
     52    148    139    140     1  0.0000000  1.6038667  3
     52    148    139    141     1  0.0000000  1.6038667  3
     53     52    148    139     1  0.0000000  1.6038667  3
     54     52    148    139     1  0.0000000  1.6038667  3
     55    178    169    170     1  0.0000000  1.6038667  3
     55    178    169    171     1  0.0000000  1.6038667  3
     56     55    178    169     1  0.0000000  1.6038667  3
     57     55    178    169     1  0.0000000  1.6038667  3
     60     61     73     74     1  0.0000000  0.6508444  3
     60     61     73     75     1  0.0000000  0.6508444  3
     60     64     76     77     1  0.0000000  0.6508444  3
     60     64     76     78     1  0.0000000  0.6508444  3
     60     67     70     71     1  0.0000000  0.6508444  3
     60     67     70     72     1  0.0000000  0.6508444  3
     61     60     64     65     1  0.0000000  0.6508444  3
     61     60     64     66     1  0.0000000  0.6508444  3
     61     60     67     68     1  0.0000000  0.6508444  3
     61     60     67     69     1  0.0000000  0.6508444  3
     61     73     85     86     1  0.0000000  0.6508444  3
     61     73     85     87     1  0.0000000  0.6508444  3
     62     61     60     64     1  0.0000000  0.6508444  3
     62     61     60     67     1  0.0000000  0.6508444  3
     62     61     60     89     1  0.0000000  0.6508444  3
     62     61     73     85     1  0.0000000  0.6508444  3
     62     61     73     74     1  0.0000000  0.6508444  3
     62     61     73     75     1  0.0000000  0.6508444  3
     63     61     60     64     1  0.0000000  0.6508444  3
     63     61     60     67     1  0.0000000  0.6508444  3
     63     61     60     89     1  0.0000000  0.6508444  3
     63     61     73     85     1  0.0000000  0.6508444  3
     63     61     73     74     1  0.0000000  0.6508444  3
     63     61     73     75     1  0.0000000  0.6508444  3
     64     60     67     68     1  0.0000000  0.6508444  3
     64     60     67     69     1  0.0000000  0.6508444  3
     64     76     82     83     1  0.0000000  0.6508444  3
     64     76     82     84     1  0.0000000  0.6508444  3
     65     64     60     67     1  0.0000000  0.6508444  3
     65     64     60     89     1  0.0000000  0.6508444  3
     65     64     76     82     1  0.0000000  0.6508444  3
     65     64     76     77     1  0.0000000  0.6508444  3
     65     64     76     78     1  0.0000000  0.6508444  3
     66     64     60     67     1  0.0000000  0.6508444  3
     66     64     60     89     1  0.0000000  0.6508444  3
     66     64     76     82     1  0.0000000  0.6508444  3
     66     64     76     77     1  0.0000000  0.6508444  3
     66     64     76     78     1  0.0000000  0.6508444  3
     67     70     79     80     1  0.0000000  0.6508444  3
     67     70     79     81     1  0.0000000  0.6508444  3
     68     67     60     89     1  0.0000000  0.6508444  3
     68     67     70     79     1  0.0000000  0.6508444  3
     68     67     70     71     1  0.0000000  0.6508444  3
     68     67     70     72     1  0.0000000  0.6508444  3
     69     67     60     89     1  0.0000000  0.6508444  3
     69     67     70     79     1  0.0000000  0.6508444  3
     69     67     70     71     1  0.0000000  0.6508444  3
     69     67     70     72     1  0.0000000  0.6508444  3
     70     67     60     89     1  0.0000000  0.6508444  3
     71     70     79     88     1  0.0000000  1.0460000  1
     71     70     79     88     1  0.0000000  0.0000000  3
     71     70     79     80     1  0.0000000  0.6508444  3
     71     70     79     81     1  0.0000000  0.6508444  3
     72     70     79     88     1  0.0000000  1.0460000  1
     72     70     79     88     1  0.0000000  0.0000000  3
     72     70     79     80     1  0.0000000  0.6508444  3
     72     70     79     81     1  0.0000000  0.6508444  3
     73     61     60     89     1  0.0000000  0.6508444  3
     74     73     85    238     1  0.0000000  1.0460000  1
     74     73     85    238     1  0.0000000  0.0000000  3
     74     73     85     86     1  0.0000000  0.6508444  3
     74     73     85     87     1  0.0000000  0.6508444  3
     75     73     85    238     1  0.0000000  1.0460000  1
     75     73     85    238     1  0.0000000  0.0000000  3
     75     73     85     86     1  0.0000000  0.6508444  3
     75     73     85     87     1  0.0000000  0.6508444  3
     76     64     60     89     1  0.0000000  0.6508444  3
     77     76     82    208     1  0.0000000  1.0460000  1
     77     76     82    208     1  0.0000000  0.0000000  3
     77     76     82     83     1  0.0000000  0.6508444  3
     77     76     82     84     1  0.0000000  0.6508444  3
     78     76     82    208     1  0.0000000  1.0460000  1
     78     76     82    208     1  0.0000000  0.0000000  3
     78     76     82     83     1  0.0000000  0.6508444  3
     78     76     82     84     1  0.0000000  0.6508444  3
     82    208    199    200     1  0.0000000  1.6038667  3
     82    208    199    201     1  0.0000000  1.6038667  3
     83     82    208    199     1  0.0000000  1.6038667  3
     84     82    208    199     1  0.0000000  1.6038667  3
     85    238    229    230     1  0.0000000  1.6038667  3
     85    238    229    231     1  0.0000000  1.6038667  3
     86     85    238    229     1  0.0000000  1.6038667  3
     87     85    238    229     1  0.0000000  1.6038667  3
     90     91    103    104     1  0.0000000  0.6508444  3
     90     91    103    105     1  0.0000000  0.6508444  3
     90     94    106    107     1  0.0000000  0.6508444  3
     90     94    106    108     1  0.0000000  0.6508444  3
     90     97    100    101     1  0.0000000  0.6508444  3
     90     97    100    102     1  0.0000000  0.6508444  3
     91     90     94     95     1  0.0000000  0.6508444  3
     91     90     94     96     1  0.0000000  0.6508444  3
     91     90     97     98     1  0.0000000  0.6508444  3
     91     90     97     99     1  0.0000000  0.6508444  3
     91    103    115    116     1  0.0000000  0.6508444  3
     91    103    115    117     1  0.0000000  0.6508444  3
     92     91     90     94     1  0.0000000  0.6508444  3
     92     91     90     97     1  0.0000000  0.6508444  3
     92     91     90    119     1  0.0000000  0.6508444  3
     92     91    103    115     1  0.0000000  0.6508444  3
     92     91    103    104     1  0.0000000  0.6508444  3
     92     91    103    105     1  0.0000000  0.6508444  3
     93     91     90     94     1  0.0000000  0.6508444  3
     93     91     90     97     1  0.0000000  0.6508444  3
     93     91     90    119     1  0.0000000  0.6508444  3
     93     91    103    115     1  0.0000000  0.6508444  3
     93     91    103    104     1  0.0000000  0.6508444  3
     93     91    103    105     1  0.0000000  0.6508444  3
     94     90     97     98     1  0.0000000  0.6508444  3
     94     90     97     99     1  0.0000000  0.6508444  3
     94    106    112    113     1  0.0000000  0.6508444  3
     94    106    112    114     1  0.0000000  0.6508444  3
     95     94     90     97     1  0.0000000  0.6508444  3
     95     94     90    119     1  0.0000000  0.6508444  3
     95     94    106    112     1  0.0000000  0.6508444  3
     95     94    106    107     1  0.0000000  0.6508444  3
     95     94    106    108     1  0.0000000  0.6508444  3
     96     94     90     97     1  0.0000000  0.6508444  3
     96     94     90    119     1  0.0000000  0.6508444  3
     96     94    106    112     1  0.0000000  0.6508444  3
     96     94    106    107     1  0.0000000  0.6508444  3
     96     94    106    108     1  0.0000000  0.6508444  3
     97    100    109    110     1  0.0000000  0.6508444  3
     97    100    109    111     1  0.0000000  0.6508444  3
     98     97     90    119     1  0.0000000  0.6508444  3
     98     97    100    109     1  0.0000000  0.6508444  3
     98     97    100    101     1  0.0000000  0.6508444  3
     98     97    100    102     1  0.0000000  0.6508444  3
     99     97     90    119     1  0.0000000  0.6508444  3
     99     97    100    109     1  0.0000000  0.6508444  3
     99     97    100    101     1  0.0000000  0.6508444  3
     99     97    100    102     1  0.0000000  0.6508444  3
    100     97     90    119     1  0.0000000  0.6508444  3
    101    100    109    118     1  0.0000000  1.0460000  1
    101    100    109    118     1  0.0000000  0.0000000  3
    101    100    109    110     1  0.0000000  0.6508444  3
    101    100    109    111     1  0.0000000  0.6508444  3
    102    100    109    118     1  0.0000000  1.0460000  1
    102    100    109    118     1  0.0000000  0.0000000  3
    102    100    109    110     1  0.0000000  0.6508444  3
    102    100    109    111     1  0.0000000  0.6508444  3
    103     91     90    119     1  0.0000000  0.6508444  3
    104    103    115    298     1  0.0000000  1.0460000  1
    104    103    115    298     1  0.0000000  0.0000000  3
    104    103    115    116     1  0.0000000  0.6508444  3
    104    103    115    117     1  0.0000000  0.6508444  3
    105    103    115    298     1  0.0000000  1.0460000  1
    105    103    115    298     1  0.0000000  0.0000000  3
    105    103    115    116     1  0.0000000  0.6508444  3
    105    103    115    117     1  0.0000000  0.6508444  3
    106     94     90    119     1  0.0000000  0.6508444  3
    107    106    112    268     1  0.0000000  1.0460000  1
    107    106    112    268     1  0.0000000  0.0000000  3
    107    106    112    113     1  0.0000000  0.6508444  3
    107    106    112    114     1  0.0000000  0.6508444  3
    108    106    112    268     1  0.0000000  1.0460000  1
    108    106    112    268     1  0.0000000  0.0000000  3
    108    106    112    113     1  0.0000000  0.6508444  3
    108    106    112    114     1  0.0000000  0.6508444  3
    112    268    259    260     1  0.0000000  1.6038667  3
    112    268    259    261     1  0.0000000  1.6038667  3
    113    112    268    259     1  0.0000000  1.6038667  3
    114    112    268    259     1  0.0000000  1.6038667  3
    115    298    289    290     1  0.0000000  1.6038667  3
    115    298    289    291     1  0.0000000  1.6038667  3
    116    115    298    289     1  0.0000000  1.6038667  3
    117    115    298    289     1  0.0000000  1.6038667  3
    120    121    133    134     1  0.0000000  0.6508444  3
    120    121    133    135     1  0.0000000  0.6508444  3
    120    124    136    137     1  0.0000000  0.6508444  3
    120    124    136    138     1  0.0000000  0.6508444  3
    120    127    130    131     1  0.0000000  0.6508444  3
    120    127    130    132     1  0.0000000  0.6508444  3
    121    120    124    125     1  0.0000000  0.6508444  3
    121    120    124    126     1  0.0000000  0.6508444  3
    121    120    127    128     1  0.0000000  0.6508444  3
    121    120    127    129     1  0.0000000  0.6508444  3
    121    133    145    146     1  0.0000000  0.6508444  3
    121    133    145    147     1  0.0000000  0.6508444  3
    122    121    120    124     1  0.0000000  0.6508444  3
    122    121    120    127     1  0.0000000  0.6508444  3
    122    121    120    149     1  0.0000000  0.6508444  3
    122    121    133    145     1  0.0000000  0.6508444  3
    122    121    133    134     1  0.0000000  0.6508444  3
    122    121    133    135     1  0.0000000  0.6508444  3
    123    121    120    124     1  0.0000000  0.6508444  3
    123    121    120    127     1  0.0000000  0.6508444  3
    123    121    120    149     1  0.0000000  0.6508444  3
    123    121    133    145     1  0.0000000  0.6508444  3
    123    121    133    134     1  0.0000000  0.6508444  3
    123    121    133    135     1  0.0000000  0.6508444  3
    124    120    127    128     1  0.0000000  0.6508444  3
    124    120    127    129     1  0.0000000  0.6508444  3
    124    136    142    143     1  0.0000000  0.6508444  3
    124    136    142    144     1  0.0000000  0.6508444  3
    125    124    120    127     1  0.0000000  0.6508444  3
    125    124    120    149     1  0.0000000  0.6508444  3
    125    124    136    142     1  0.0000000  0.6508444  3
    125    124    136    137     1  0.0000000  0.6508444  3
    125    124    136    138     1  0.0000000  0.6508444  3
    126    124    120    127     1  0.0000000  0.6508444  3
    126    124    120    149     1  0.0000000  0.6508444  3
    126    124    136    142     1  0.0000000  0.6508444  3
    126    124    136    137     1  0.0000000  0.6508444  3
    126    124    136    138     1  0.0000000  0.6508444  3
    127    130    139    140     1  0.0000000  0.6508444  3
    127    130    139    141     1  0.0000000  0.6508444  3
    128    127    120    149     1  0.0000000  0.6508444  3
    128    127    130    139     1  0.0000000  0.6508444  3
    128    127    130    131     1  0.0000000  0.6508444  3
    128    127    130    132     1  0.0000000  0.6508444  3
    129    127    120    149     1  0.0000000  0.6508444  3
    129    127    130    139     1  0.0000000  0.6508444  3
    129    127    130    131     1  0.0000000  0.6508444  3
    129    127    130    132     1  0.0000000  0.6508444  3
    130    127    120    149     1  0.0000000  0.6508444  3
    131    130    139    148     1  0.0000000  1.0460000  1
    131    130    139    148     1  0.0000000  0.0000000  3
    131    130    139    140     1  0.0000000  0.6508444  3
    131    130    139    141     1  0.0000000  0.6508444  3
    132    130    139    148     1  0.0000000  1.0460000  1
    132    130    139    148     1  0.0000000  0.0000000  3
    132    130    139    140     1  0.0000000  0.6508444  3
    132    130    139    141     1  0.0000000  0.6508444  3
    133    121    120    149     1  0.0000000  0.6508444  3
    134    133    145    358     1  0.0000000  1.0460000  1
    134    133    145    358     1  0.0000000  0.0000000  3
    134    133    145    146     1  0.0000000  0.6508444  3
    134    133    145    147     1  0.0000000  0.6508444  3
    135    133    145    358     1  0.0000000  1.0460000  1
    135    133    145    358     1  0.0000000  0.0000000  3
    135    133    145    146     1  0.0000000  0.6508444  3
    135    133    145    147     1  0.0000000  0.6508444  3
    136    124    120    149     1  0.0000000  0.6508444  3
    137    136    142    328     1  0.0000000  1.0460000  1
    137    136    142    328     1  0.0000000  0.0000000  3
    137    136    142    143     1  0.0000000  0.6508444  3
    137    136    142    144     1  0.0000000  0.6508444  3
    138    136    142    328     1  0.0000000  1.0460000  1
    138    136    142    328     1  0.0000000  0.0000000  3
    138    136    142    143     1  0.0000000  0.6508444  3
    138    136    142    144     1  0.0000000  0.6508444  3
    142    328    319    320     1  0.0000000  1.6038667  3
    142    328    319    321     1  0.0000000  1.6038667  3
    143    142    328    319     1  0.0000000  1.6038667  3
    144    142    328    319     1  0.0000000  1.6038667  3
    145    358    349    350     1  0.0000000  1.6038667  3
    145    358    349    351     1  0.0000000  1.6038667  3
    146    145    358    349     1  0.0000000  1.6038667  3
    147    145    358    349     1  0.0000000  1.6038667  3
    150    151    163    164     1  0.0000000  0.6508444  3
    150    151    163    165     1  0.0000000  0.6508444  3
    150    154    166    167     1  0.0000000  0.6508444  3
    150    154    166    168     1  0.0000000  0.6508444  3
    150    157    160    161     1  0.0000000  0.6508444  3
    150    157    160    162     1  0.0000000  0.6508444  3
    151    150    154    155     1  0.0000000  0.6508444  3
    151    150    154    156     1  0.0000000  0.6508444  3
    151    150    157    158     1  0.0000000  0.6508444  3
    151    150    157    159     1  0.0000000  0.6508444  3
    151    163    175    176     1  0.0000000  0.6508444  3
    151    163    175    177     1  0.0000000  0.6508444  3
    152    151    150    154     1  0.0000000  0.6508444  3
    152    151    150    157     1  0.0000000  0.6508444  3
    152    151    150    179     1  0.0000000  0.6508444  3
    152    151    163    175     1  0.0000000  0.6508444  3
    152    151    163    164     1  0.0000000  0.6508444  3
    152    151    163    165     1  0.0000000  0.6508444  3
    153    151    150    154     1  0.0000000  0.6508444  3
    153    151    150    157     1  0.0000000  0.6508444  3
    153    151    150    179     1  0.0000000  0.6508444  3
    153    151    163    175     1  0.0000000  0.6508444  3
    153    151    163    164     1  0.0000000  0.6508444  3
    153    151    163    165     1  0.0000000  0.6508444  3
    154    150    157    158     1  0.0000000  0.6508444  3
    154    150    157    159     1  0.0000000  0.6508444  3
    154    166    172    173     1  0.0000000  0.6508444  3
    154    166    172    174     1  0.0000000  0.6508444  3
    155    154    150    157     1  0.0000000  0.6508444  3
    155    154    150    179     1  0.0000000  0.6508444  3
    155    154    166    172     1  0.0000000  0.6508444  3
    155    154    166    167     1  0.0000000  0.6508444  3
    155    154    166    168     1  0.0000000  0.6508444  3
    156    154    150    157     1  0.0000000  0.6508444  3
    156    154    150    179     1  0.0000000  0.6508444  3
    156    154    166    172     1  0.0000000  0.6508444  3
    156    154    166    167     1  0.0000000  0.6508444  3
    156    154    166    168     1  0.0000000  0.6508444  3
    157    160    169    170     1  0.0000000  0.6508444  3
    157    160    169    171     1  0.0000000  0.6508444  3
    158    157    150    179     1  0.0000000  0.6508444  3
    158    157    160    169     1  0.0000000  0.6508444  3
    158    157    160    161     1  0.0000000  0.6508444  3
    158    157    160    162     1  0.0000000  0.6508444  3
    159    157    150    179     1  0.0000000  0.6508444  3
    159    157    160    169     1  0.0000000  0.6508444  3
    159    157    160    161     1  0.0000000  0.6508444  3
    159    157    160    162     1  0.0000000  0.6508444  3
    160    157    150    179     1  0.0000000  0.6508444  3
    161    160    169    178     1  0.0000000  1.0460000  1
    161    160    169    178     1  0.0000000  0.0000000  3
    161    160    169    170     1  0.0000000  0.6508444  3
    161    160    169    171     1  0.0000000  0.6508444  3
    162    160    169    178     1  0.0000000  1.0460000  1
    162    160    169    178     1  0.0000000  0.0000000  3
    162    160    169    170     1  0.0000000  0.6508444  3
    162    160    169    171     1  0.0000000  0.6508444  3
    163    151    150    179     1  0.0000000  0.6508444  3
    164    163    175    418     1  0.0000000  1.0460000  1
    164    163    175    418     1  0.0000000  0.0000000  3
    164    163    175    176     1  0.0000000  0.6508444  3
    164    163    175    177     1  0.0000000  0.6508444  3
    165    163    175    418     1  0.0000000  1.0460000  1
    165    163    175    418     1  0.0000000  0.0000000  3
    165    163    175    176     1  0.0000000  0.6508444  3
    165    163    175    177     1  0.0000000  0.6508444  3
    166    154    150    179     1  0.0000000  0.6508444  3
    167    166    172    388     1  0.0000000  1.0460000  1
    167    166    172    388     1  0.0000000  0.0000000  3
    167    166    172    173     1  0.0000000  0.6508444  3
    167    166    172    174     1  0.0000000  0.6508444  3
    168    166    172    388     1  0.0000000  1.0460000  1
    168    166    172    388     1  0.0000000  0.0000000  3
    168    166    172    173     1  0.0000000  0.6508444  3
    168    166    172    174     1  0.0000000  0.6508444  3
    172    388    379    380     1  0.0000000  1.6038667  3
    172    388    379    381     1  0.0000000  1.6038667  3
    173    172    388    379     1  0.0000000  1.6038667  3
    174    172    388    379     1  0.0000000  1.6038667  3
    175    418    409    410     1  0.0000000  1.6038667  3
    175    418    409    411     1  0.0000000  1.6038667  3
    176    175    418    409     1  0.0000000  1.6038667  3
    177    175    418    409     1  0.0000000  1.6038667  3
    180    181    193    194     1  0.0000000  0.6508444  3
    180    181    193    195     1  0.0000000  0.6508444  3
    180    184    196    197     1  0.0000000  0.6508444  3
    180    184    196    198     1  0.0000000  0.6508444  3
    180    187    190    191     1  0.0000000  0.6508444  3
    180    187    190    192     1  0.0000000  0.6508444  3
    181    180    184    185     1  0.0000000  0.6508444  3
    181    180    184    186     1  0.0000000  0.6508444  3
    181    180    187    188     1  0.0000000  0.6508444  3
    181    180    187    189     1  0.0000000  0.6508444  3
    181    193    205    206     1  0.0000000  0.6508444  3
    181    193    205    207     1  0.0000000  0.6508444  3
    182    181    180    184     1  0.0000000  0.6508444  3
    182    181    180    187     1  0.0000000  0.6508444  3
    182    181    180    209     1  0.0000000  0.6508444  3
    182    181    193    205     1  0.0000000  0.6508444  3
    182    181    193    194     1  0.0000000  0.6508444  3
    182    181    193    195     1  0.0000000  0.6508444  3
    183    181    180    184     1  0.0000000  0.6508444  3
    183    181    180    187     1  0.0000000  0.6508444  3
    183    181    180    209     1  0.0000000  0.6508444  3
    183    181    193    205     1  0.0000000  0.6508444  3
    183    181    193    194     1  0.0000000  0.6508444  3
    183    181    193    195     1  0.0000000  0.6508444  3
    184    180    187    188     1  0.0000000  0.6508444  3
    184    180    187    189     1  0.0000000  0.6508444  3
    184    196    202    203     1  0.0000000  0.6508444  3
    184    196    202    204     1  0.0000000  0.6508444  3
    185    184    180    187     1  0.0000000  0.6508444  3
    185    184    180    209     1  0.0000000  0.6508444  3
    185    184    196    202     1  0.0000000  0.6508444  3
    185    184    196    197     1  0.0000000  0.6508444  3
    185    184    196    198     1  0.0000000  0.6508444  3
    186    184    180    187     1  0.0000000  0.6508444  3
    186    184    180    209     1  0.0000000  0.6508444  3
    186    184    196    202     1  0.0000000  0.6508444  3
    186    184    196    197     1  0.0000000  0.6508444  3
    186    184    196    198     1  0.0000000  0.6508444  3
    187    190    199    200     1  0.0000000  0.6508444  3
    187    190    199    201     1  0.0000000  0.6508444  3
    188    187    180    209     1  0.0000000  0.6508444  3
    188    187    190    199     1  0.0000000  0.6508444  3
    188    187    190    191     1  0.0000000  0.6508444  3
    188    187    190    192     1  0.0000000  0.6508444  3
    189    187    180    209     1  0.0000000  0.6508444  3
    189    187    190    199     1  0.0000000  0.6508444  3
    189    187    190    191     1  0.0000000  0.6508444  3
    189    187    190    192     1  0.0000000  0.6508444  3
    190    187    180    209     1  0.0000000  0.6508444  3
    191    190    199    208     1  0.0000000  1.0460000  1
    191    190    199    208     1  0.0000000  0.0000000  3
    191    190    199    200     1  0.0000000  0.6508444  3
    191    190    199    201     1  0.0000000  0.6508444  3
    192    190    199    208     1  0.0000000  1.0460000  1
    192    190    199    208     1  0.0000000  0.0000000  3
    192    190    199    200     1  0.0000000  0.6508444  3
    192    190    199    201     1  0.0000000  0.6508444  3
    193    181    180    209     1  0.0000000  0.6508444  3
    194    193    205    478     1  0.0000000  1.0460000  1
    194    193    205    478     1  0.0000000  0.0000000  3
    194    193    205    206     1  0.0000000  0.6508444  3
    194    193    205    207     1  0.0000000  0.6508444  3
    195    193    205    478     1  0.0000000  1.0460000  1
    195    193    205    478     1  0.0000000  0.0000000  3
    195    193    205    206     1  0.0000000  0.6508444  3
    195    193    205    207     1  0.0000000  0.6508444  3
    196    184    180    209     1  0.0000000  0.6508444  3
    197    196    202    448     1  0.0000000  1.0460000  1
    197    196    202    448     1  0.0000000  0.0000000  3
    197    196    202    203     1  0.0000000  0.6508444  3
    197    196    202    204     1  0.0000000  0.6508444  3
    198    196    202    448     1  0.0000000  1.0460000  1
    198    196    202    448     1  0.0000000  0.0000000  3
    198    196    202    203     1  0.0000000  0.6508444  3
    198    196    202    204     1  0.0000000  0.6508444  3
    202    448    439    440     1  0.0000000  1.6038667  3
    202    448    439    441     1  0.0000000  1.6038667  3
    203    202    448    439     1  0.0000000  1.6038667  3
    204    202    448    439     1  0.0000000  1.6038667  3
    205    478    469    470     1  0.0000000  1.6038667  3
    205    478    469    471     1  0.0000000  1.6038667  3
    206    205    478    469     1  0.0000000  1.6038667  3
    207    205    478    469     1  0.0000000  1.6038667  3
    210    211    223    224     1  0.0000000  0.6508444  3
    210    211    223    225     1  0.0000000  0.6508444  3
    210    214    226    227     1  0.0000000  0.6508444  3
    210    214    226    228     1  0.0000000  0.6508444  3
    210    217    220    221     1  0.0000000  0.6508444  3
    210    217    220    222     1  0.0000000  0.6508444  3
    211    210    214    215     1  0.0000000  0.6508444  3
    211    210    214    216     1  0.0000000  0.6508444  3
    211    210    217    218     1  0.0000000  0.6508444  3
    211    210    217    219     1  0.0000000  0.6508444  3
    211    223    235    236     1  0.0000000  0.6508444  3
    211    223    235    237     1  0.0000000  0.6508444  3
    212    211    210    214     1  0.0000000  0.6508444  3
    212    211    210    217     1  0.0000000  0.6508444  3
    212    211    210    239     1  0.0000000  0.6508444  3
    212    211    223    235     1  0.0000000  0.6508444  3
    212    211    223    224     1  0.0000000  0.6508444  3
    212    211    223    225     1  0.0000000  0.6508444  3
    213    211    210    214     1  0.0000000  0.6508444  3
    213    211    210    217     1  0.0000000  0.6508444  3
    213    211    210    239     1  0.0000000  0.6508444  3
    213    211    223    235     1  0.0000000  0.6508444  3
    213    211    223    224     1  0.0000000  0.6508444  3
    213    211    223    225     1  0.0000000  0.6508444  3
    214    210    217    218     1  0.0000000  0.6508444  3
    214    210    217    219     1  0.0000000  0.6508444  3
    214    226    232    233     1  0.0000000  0.6508444  3
    214    226    232    234     1  0.0000000  0.6508444  3
    215    214    210    217     1  0.0000000  0.6508444  3
    215    214    210    239     1  0.0000000  0.6508444  3
    215    214    226    232     1  0.0000000  0.6508444  3
    215    214    226    227     1  0.0000000  0.6508444  3
    215    214    226    228     1  0.0000000  0.6508444  3
    216    214    210    217     1  0.0000000  0.6508444  3
    216    214    210    239     1  0.0000000  0.6508444  3
    216    214    226    232     1  0.0000000  0.6508444  3
    216    214    226    227     1  0.0000000  0.6508444  3
    216    214    226    228     1  0.0000000  0.6508444  3
    217    220    229    230     1  0.0000000  0.6508444  3
    217    220    229    231     1  0.0000000  0.6508444  3
    218    217    210    239     1  0.0000000  0.6508444  3
    218    217    220    229     1  0.0000000  0.6508444  3
    218    217    220    221     1  0.0000000  0.6508444  3
    218    217    220    222     1  0.0000000  0.6508444  3
    219    217    210    239     1  0.0000000  0.6508444  3
    219    217    220    229     1  0.0000000  0.6508444  3
    219    217    220    221     1  0.0000000  0.6508444  3
    219    217    220    222     1  0.0000000  0.6508444  3
    220    217    210    239     1  0.0000000  0.6508444  3
    221    220    229    238     1  0.0000000  1.0460000  1
    221    220    229    238     1  0.0000000  0.0000000  3
    221    220    229    230     1  0.0000000  0.6508444  3
    221    220    229    231     1  0.0000000  0.6508444  3
    222    220    229    238     1  0.0000000  1.0460000  1
    222    220    229    238     1  0.0000000  0.0000000  3
    222    220    229    230     1  0.0000000  0.6508444  3
    222    220    229    231     1  0.0000000  0.6508444  3
    223    211    210    239     1  0.0000000  0.6508444  3
    224    223    235    538     1  0.0000000  1.0460000  1
    224    223    235    538     1  0.0000000  0.0000000  3
    224    223    235    236     1  0.0000000  0.6508444  3
    224    223    235    237     1  0.0000000  0.6508444  3
    225    223    235    538     1  0.0000000  1.0460000  1
    225    223    235    538     1  0.0000000  0.0000000  3
    225    223    235    236     1  0.0000000  0.6508444  3
    225    223    235    237     1  0.0000000  0.6508444  3
    226    214    210    239     1  0.0000000  0.6508444  3
    227    226    232    508     1  0.0000000  1.0460000  1
    227    226    232    508     1  0.0000000  0.0000000  3
    227    226    232    233     1  0.0000000  0.6508444  3
    227    226    232    234     1  0.0000000  0.6508444  3
    228    226    232    508     1  0.0000000  1.0460000  1
    228    226    232    508     1  0.0000000  0.0000000  3
    228    226    232    233     1  0.0000000  0.6508444  3
    228    226    232    234     1  0.0000000  0.6508444  3
    232    508    499    500     1  0.0000000  1.6038667  3
    232    508    499    501     1  0.0000000  1.6038667  3
    233    232    508    499     1  0.0000000  1.6038667  3
    234    232    508    499     1  0.0000000  1.6038667  3
    235    538    529    530     1  0.0000000  1.6038667  3
    235    538    529    531     1  0.0000000  1.6038667  3
    236    235    538    529     1  0.0000000  1.6038667  3
    237    235    538    529     1  0.0000000  1.6038667  3
    240    241    253    254     1  0.0000000  0.6508444  3
    240    241    253    255     1  0.0000000  0.6508444  3
    240    244    256    257     1  0.0000000  0.6508444  3
    240    244    256    258     1  0.0000000  0.6508444  3
    240    247    250    251     1  0.0000000  0.6508444  3
    240    247    250    252     1  0.0000000  0.6508444  3
    241    240    244    245     1  0.0000000  0.6508444  3
    241    240    244    246     1  0.0000000  0.6508444  3
    241    240    247    248     1  0.0000000  0.6508444  3
    241    240    247    249     1  0.0000000  0.6508444  3
    241    253    265    266     1  0.0000000  0.6508444  3
    241    253    265    267     1  0.0000000  0.6508444  3
    242    241    240    244     1  0.0000000  0.6508444  3
    242    241    240    247     1  0.0000000  0.6508444  3
    242    241    240    269     1  0.0000000  0.6508444  3
    242    241    253    265     1  0.0000000  0.6508444  3
    242    241    253    254     1  0.0000000  0.6508444  3
    242    241    253    255     1  0.0000000  0.6508444  3
    243    241    240    244     1  0.0000000  0.6508444  3
    243    241    240    247     1  0.0000000  0.6508444  3
    243    241    240    269     1  0.0000000  0.6508444  3
    243    241    253    265     1  0.0000000  0.6508444  3
    243    241    253    254     1  0.0000000  0.6508444  3
    243    241    253    255     1  0.0000000  0.6508444  3
    244    240    247    248     1  0.0000000  0.6508444  3
    244    240    247    249     1  0.0000000  0.6508444  3
    244    256    262    263     1  0.0000000  0.6508444  3
    244    256    262    264     1  0.0000000  0.6508444  3
    245    244    240    247     1  0.0000000  0.6508444  3
    245    244    240    269     1  0.0000000  0.6508444  3
    245    244    256    262     1  0.0000000  0.6508444  3
    245    244    256    257     1  0.0000000  0.6508444  3
    245    244    256    258     1  0.0000000  0.6508444  3
    246    244    240    247     1  0.0000000  0.6508444  3
    246    244    240    269     1  0.0000000  0.6508444  3
    246    244    256    262     1  0.0000000  0.6508444  3
    246    244    256    257     1  0.0000000  0.6508444  3
    246    244    256    258     1  0.0000000  0.6508444  3
    247    250    259    260     1  0.0000000  0.6508444  3
    247    250    259    261     1  0.0000000  0.6508444  3
    248    247    240    269     1  0.0000000  0.6508444  3
    248    247    250    259     1  0.0000000  0.6508444  3
    248    247    250    251     1  0.0000000  0.6508444  3
    248    247    250    252     1  0.0000000  0.6508444  3
    249    247    240    269     1  0.0000000  0.6508444  3
    249    247    250    259     1  0.0000000  0.6508444  3
    249    247    250    251     1  0.0000000  0.6508444  3
    249    247    250    252     1  0.0000000  0.6508444  3
    250    247    240    269     1  0.0000000  0.6508444  3
    251    250    259    268     1  0.0000000  1.0460000  1
    251    250    259    268     1  0.0000000  0.0000000  3
    251    250    259    260     1  0.0000000  0.6508444  3
    251    250    259    261     1  0.0000000  0.6508444  3
    252    250    259    268     1  0.0000000  1.0460000  1
    252    250    259    268     1  0.0000000  0.0000000  3
    252    250    259    260     1  0.0000000  0.6508444  3
    252    250    259    261     1  0.0000000  0.6508444  3
    253    241    240    269     1  0.0000000  0.6508444  3
    254    253    265    598     1  0.0000000  1.0460000  1
    254    253    265    598     1  0.0000000  0.0000000  3
    254    253    265    266     1  0.0000000  0.6508444  3
    254    253    265    267     1  0.0000000  0.6508444  3
    255    253    265    598     1  0.0000000  1.0460000  1
    255    253    265    598     1  0.0000000  0.0000000  3
    255    253    265    266     1  0.0000000  0.6508444  3
    255    253    265    267     1  0.0000000  0.6508444  3
    256    244    240    269     1  0.0000000  0.6508444  3
    257    256    262    568     1  0.0000000  1.0460000  1
    257    256    262    568     1  0.0000000  0.0000000  3
    257    256    262    263     1  0.0000000  0.6508444  3
    257    256    262    264     1  0.0000000  0.6508444  3
    258    256    262    568     1  0.0000000  1.0460000  1
    258    256    262    568     1  0.0000000  0.0000000  3
    258    256    262    263     1  0.0000000  0.6508444  3
    258    256    262    264     1  0.0000000  0.6508444  3
    262    568    559    560     1  0.0000000  1.6038667  3
    262    568    559    561     1  0.0000000  1.6038667  3
    263    262    568    559     1  0.0000000  1.6038667  3
    264    262    568    559     1  0.0000000  1.6038667  3
    265    598    589    590     1  0.0000000  1.6038667  3
    265    598    589    591     1  0.0000000  1.6038667  3
    266    265    598    589     1  0.0000000  1.6038667  3
    267    265    598    589     1  0.0000000  1.6038667  3
    270    271    283    284     1  0.0000000  0.6508444  3
    270    271    283    285     1  0.0000000  0.6508444  3
    270    274    286    287     1  0.0000000  0.6508444  3
    270    274    286    288     1  0.0000000  0.6508444  3
    270    277    280    281     1  0.0000000  0.6508444  3
    270    277    280    282     1  0.0000000  0.6508444  3
    271    270    274    275     1  0.0000000  0.6508444  3
    271    270    274    276     1  0.0000000  0.6508444  3
    271    270    277    278     1  0.0000000  0.6508444  3
    271    270    277    279     1  0.0000000  0.6508444  3
    271    283    295    296     1  0.0000000  0.6508444  3
    271    283    295    297     1  0.0000000  0.6508444  3
    272    271    270    274     1  0.0000000  0.6508444  3
    272    271    270    277     1  0.0000000  0.6508444  3
    272    271    270    299     1  0.0000000  0.6508444  3
    272    271    283    295     1  0.0000000  0.6508444  3
    272    271    283    284     1  0.0000000  0.6508444  3
    272    271    283    285     1  0.0000000  0.6508444  3
    273    271    270    274     1  0.0000000  0.6508444  3
    273    271    270    277     1  0.0000000  0.6508444  3
    273    271    270    299     1  0.0000000  0.6508444  3
    273    271    283    295     1  0.0000000  0.6508444  3
    273    271    283    284     1  0.0000000  0.6508444  3
    273    271    283    285     1  0.0000000  0.6508444  3
    274    270    277    278     1  0.0000000  0.6508444  3
    274    270    277    279     1  0.0000000  0.6508444  3
    274    286    292    293     1  0.0000000  0.6508444  3
    274    286    292    294     1  0.0000000  0.6508444  3
    275    274    270    277     1  0.0000000  0.6508444  3
    275    274    270    299     1  0.0000000  0.6508444  3
    275    274    286    292     1  0.0000000  0.6508444  3
    275    274    286    287     1  0.0000000  0.6508444  3
    275    274    286    288     1  0.0000000  0.6508444  3
    276    274    270    277     1  0.0000000  0.6508444  3
    276    274    270    299     1  0.0000000  0.6508444  3
    276    274    286    292     1  0.0000000  0.6508444  3
    276    274    286    287     1  0.0000000  0.6508444  3
    276    274    286    288     1  0.0000000  0.6508444  3
    277    280    289    290     1  0.0000000  0.6508444  3
    277    280    289    291     1  0.0000000  0.6508444  3
    278    277    270    299     1  0.0000000  0.6508444  3
    278    277    280    289     1  0.0000000  0.6508444  3
    278    277    280    281     1  0.0000000  0.6508444  3
    278    277    280    282     1  0.0000000  0.6508444  3
    279    277    270    299     1  0.0000000  0.6508444  3
    279    277    280    289     1  0.0000000  0.6508444  3
    279    277    280    281     1  0.0000000  0.6508444  3
    279    277    280    282     1  0.0000000  0.6508444  3
    280    277    270    299     1  0.0000000  0.6508444  3
    281    280    289    298     1  0.0000000  1.0460000  1
    281    280    289    298     1  0.0000000  0.0000000  3
    281    280    289    290     1  0.0000000  0.6508444  3
    281    280    289    291     1  0.0000000  0.6508444  3
    282    280    289    298     1  0.0000000  1.0460000  1
    282    280    289    298     1  0.0000000  0.0000000  3
    282    280    289    290     1  0.0000000  0.6508444  3
    282    280    289    291     1  0.0000000  0.6508444  3
    283    271    270    299     1  0.0000000  0.6508444  3
    284    283    295    658     1  0.0000000  1.0460000  1
    284    283    295    658     1  0.0000000  0.0000000  3
    284    283    295    296     1  0.0000000  0.6508444  3
    284    283    295    297     1  0.0000000  0.6508444  3
    285    283    295    658     1  0.0000000  1.0460000  1
    285    283    295    658     1  0.0000000  0.0000000  3
    285    283    295    296     1  0.0000000  0.6508444  3
    285    283    295    297     1  0.0000000  0.6508444  3
    286    274    270    299     1  0.0000000  0.6508444  3
    287    286    292    628     1  0.0000000  1.0460000  1
    287    286    292    628     1  0.0000000  0.0000000  3
    287    286    292    293     1  0.0000000  0.6508444  3
    287    286    292    294     1  0.0000000  0.6508444  3
    288    286    292    628     1  0.0000000  1.0460000  1
    288    286    292    628     1  0.0000000  0.0000000  3
    288    286    292    293     1  0.0000000  0.6508444  3
    288    286    292    294     1  0.0000000  0.6508444  3
    292    628    619    620     1  0.0000000  1.6038667  3
    292    628    619    621     1  0.0000000  1.6038667  3
    293    292    628    619     1  0.0000000  1.6038667  3
    294    292    628    619     1  0.0000000  1.6038667  3
    295    658    649    650     1  0.0000000  1.6038667  3
    295    658    649    651     1  0.0000000  1.6038667  3
    296    295    658    649     1  0.0000000  1.6038667  3
    297    295    658    649     1  0.0000000  1.6038667  3
    300    301    313    314     1  0.0000000  0.6508444  3
    300    301    313    315     1  0.0000000  0.6508444  3
    300    304    316    317     1  0.0000000  0.6508444  3
    300    304    316    318     1  0.0000000  0.6508444  3
    300    307    310    311     1  0.0000000  0.6508444  3
    300    307    310    312     1  0.0000000  0.6508444  3
    301    300    304    305     1  0.0000000  0.6508444  3
    301    300    304    306     1  0.0000000  0.6508444  3
    301    300    307    308     1  0.0000000  0.6508444  3
    301    300    307    309     1  0.0000000  0.6508444  3
    301    313    325    326     1  0.0000000  0.6508444  3
    301    313    325    327     1  0.0000000  0.6508444  3
    302    301    300    304     1  0.0000000  0.6508444  3
    302    301    300    307     1  0.0000000  0.6508444  3
    302    301    300    329     1  0.0000000  0.6508444  3
    302    301    313    325     1  0.0000000  0.6508444  3
    302    301    313    314     1  0.0000000  0.6508444  3
    302    301    313    315     1  0.0000000  0.6508444  3
    303    301    300    304     1  0.0000000  0.6508444  3
    303    301    300    307     1  0.0000000  0.6508444  3
    303    301    300    329     1  0.0000000  0.6508444  3
    303    301    313    325     1  0.0000000  0.6508444  3
    303    301    313    314     1  0.0000000  0.6508444  3
    303    301    313    315     1  0.0000000  0.6508444  3
    304    300    307    308     1  0.0000000  0.6508444  3
    304    300    307    309     1  0.0000000  0.6508444  3
    304    316    322    323     1  0.0000000  0.6508444  3
    304    316    322    324     1  0.0000000  0.6508444  3
    305    304    300    307     1  0.0000000  0.6508444  3
    305    304    300    329     1  0.0000000  0.6508444  3
    305    304    316    322     1  0.0000000  0.6508444  3
    305    304    316    317     1  0.0000000  0.6508444  3
    305    304    316    318     1  0.0000000  0.6508444  3
    306    304    300    307     1  0.0000000  0.6508444  3
    306    304    300    329     1  0.0000000  0.6508444  3
    306    304    316    322     1  0.0000000  0.6508444  3
    306    304    316    317     1  0.0000000  0.6508444  3
    306    304    316    318     1  0.0000000  0.6508444  3
    307    310    319    320     1  0.0000000  0.6508444  3
    307    310    319    321     1  0.0000000  0.6508444  3
    308    307    300    329     1  0.0000000  0.6508444  3
    308    307    310    319     1  0.0000000  0.6508444  3
    308    307    310    311     1  0.0000000  0.6508444  3
    308    307    310    312     1  0.0000000  0.6508444  3
    309    307    300    329     1  0.0000000  0.6508444  3
    309    307    310    319     1  0.0000000  0.6508444  3
    309    307    310    311     1  0.0000000  0.6508444  3
    309    307    310    312     1  0.0000000  0.6508444  3
    310    307    300    329     1  0.0000000  0.6508444  3
    311    310    319    328     1  0.0000000  1.0460000  1
    311    310    319    328     1  0.0000000  0.0000000  3
    311    310    319    320     1  0.0000000  0.6508444  3
    311    310    319    321     1  0.0000000  0.6508444  3
    312    310    319    328     1  0.0000000  1.0460000  1
    312    310    319    328     1  0.0000000  0.0000000  3
    312    310    319    320     1  0.0000000  0.6508444  3
    312    310    319    321     1  0.0000000  0.6508444  3
    313    301    300    329     1  0.0000000  0.6508444  3
    314    313    325    718     1  0.0000000  1.0460000  1
    314    313    325    718     1  0.0000000  0.0000000  3
    314    313    325    326     1  0.0000000  0.6508444  3
    314    313    325    327     1  0.0000000  0.6508444  3
    315    313    325    718     1  0.0000000  1.0460000  1
    315    313    325    718     1  0.0000000  0.0000000  3
    315    313    325    326     1  0.0000000  0.6508444  3
    315    313    325    327     1  0.0000000  0.6508444  3
    316    304    300    329     1  0.0000000  0.6508444  3
    317    316    322    688     1  0.0000000  1.0460000  1
    317    316    322    688     1  0.0000000  0.0000000  3
    317    316    322    323     1  0.0000000  0.6508444  3
    317    316    322    324     1  0.0000000  0.6508444  3
    318    316    322    688     1  0.0000000  1.0460000  1
    318    316    322    688     1  0.0000000  0.0000000  3
    318    316    322    323     1  0.0000000  0.6508444  3
    318    316    322    324     1  0.0000000  0.6508444  3
    322    688    679    680     1  0.0000000  1.6038667  3
    322    688    679    681     1  0.0000000  1.6038667  3
    323    322    688    679     1  0.0000000  1.6038667  3
    324    322    688    679     1  0.0000000  1.6038667  3
    325    718    709    710     1  0.0000000  1.6038667  3
    325    718    709    711     1  0.0000000  1.6038667  3
    326    325    718    709     1  0.0000000  1.6038667  3
    327    325    718    709     1  0.0000000  1.6038667  3
    330    331    343    344     1  0.0000000  0.6508444  3
    330    331    343    345     1  0.0000000  0.6508444  3
    330    334    346    347     1  0.0000000  0.6508444  3
    330    334    346    348     1  0.0000000  0.6508444  3
    330    337    340    341     1  0.0000000  0.6508444  3
    330    337    340    342     1  0.0000000  0.6508444  3
    331    330    334    335     1  0.0000000  0.6508444  3
    331    330    334    336     1  0.0000000  0.6508444  3
    331    330    337    338     1  0.0000000  0.6508444  3
    331    330    337    339     1  0.0000000  0.6508444  3
    331    343    355    356     1  0.0000000  0.6508444  3
    331    343    355    357     1  0.0000000  0.6508444  3
    332    331    330    334     1  0.0000000  0.6508444  3
    332    331    330    337     1  0.0000000  0.6508444  3
    332    331    330    359     1  0.0000000  0.6508444  3
    332    331    343    355     1  0.0000000  0.6508444  3
    332    331    343    344     1  0.0000000  0.6508444  3
    332    331    343    345     1  0.0000000  0.6508444  3
    333    331    330    334     1  0.0000000  0.6508444  3
    333    331    330    337     1  0.0000000  0.6508444  3
    333    331    330    359     1  0.0000000  0.6508444  3
    333    331    343    355     1  0.0000000  0.6508444  3
    333    331    343    344     1  0.0000000  0.6508444  3
    333    331    343    345     1  0.0000000  0.6508444  3
    334    330    337    338     1  0.0000000  0.6508444  3
    334    330    337    339     1  0.0000000  0.6508444  3
    334    346    352    353     1  0.0000000  0.6508444  3
    334    346    352    354     1  0.0000000  0.6508444  3
    335    334    330    337     1  0.0000000  0.6508444  3
    335    334    330    359     1  0.0000000  0.6508444  3
    335    334    346    352     1  0.0000000  0.6508444  3
    335    334    346    347     1  0.0000000  0.6508444  3
    335    334    346    348     1  0.0000000  0.6508444  3
    336    334    330    337     1  0.0000000  0.6508444  3
    336    334    330    359     1  0.0000000  0.6508444  3
    336    334    346    352     1  0.0000000  0.6508444  3
    336    334    346    347     1  0.0000000  0.6508444  3
    336    334    346    348     1  0.0000000  0.6508444  3
    337    340    349    350     1  0.0000000  0.6508444  3
    337    340    349    351     1  0.0000000  0.6508444  3
    338    337    330    359     1  0.0000000  0.6508444  3
    338    337    340    349     1  0.0000000  0.6508444  3
    338    337    340    341     1  0.0000000  0.6508444  3
    338    337    340    342     1  0.0000000  0.6508444  3
    339    337    330    359     1  0.0000000  0.6508444  3
    339    337    340    349     1  0.0000000  0.6508444  3
    339    337    340    341     1  0.0000000  0.6508444  3
    339    337    340    342     1  0.0000000  0.6508444  3
    340    337    330    359     1  0.0000000  0.6508444  3
    341    340    349    358     1  0.0000000  1.0460000  1
    341    340    349    358     1  0.0000000  0.0000000  3
    341    340    349    350     1  0.0000000  0.6508444  3
    341    340    349    351     1  0.0000000  0.6508444  3
    342    340    349    358     1  0.0000000  1.0460000  1
    342    340    349    358     1  0.0000000  0.0000000  3
    342    340    349    350     1  0.0000000  0.6508444  3
    342    340    349    351     1  0.0000000  0.6508444  3
    343    331    330    359     1  0.0000000  0.6508444  3
    344    343    355    778     1  0.0000000  1.0460000  1
    344    343    355    778     1  0.0000000  0.0000000  3
    344    343    355    356     1  0.0000000  0.6508444  3
    344    343    355    357     1  0.0000000  0.6508444  3
    345    343    355    778     1  0.0000000  1.0460000  1
    345    343    355    778     1  0.0000000  0.0000000  3
    345    343    355    356     1  0.0000000  0.6508444  3
    345    343    355    357     1  0.0000000  0.6508444  3
    346    334    330    359     1  0.0000000  0.6508444  3
    347    346    352    748     1  0.0000000  1.0460000  1
    347    346    352    748     1  0.0000000  0.0000000  3
    347    346    352    353     1  0.0000000  0.6508444  3
    347    346    352    354     1  0.0000000  0.6508444  3
    348    346    352    748     1  0.0000000  1.0460000  1
    348    346    352    748     1  0.0000000  0.0000000  3
    348    346    352    353     1  0.0000000  0.6508444  3
    348    346    352    354     1  0.0000000  0.6508444  3
    352    748    739    740     1  0.0000000  1.6038667  3
    352    748    739    741     1  0.0000000  1.6038667  3
    353    352    748    739     1  0.0000000  1.6038667  3
    354    352    748    739     1  0.0000000  1.6038667  3
    355    778    769    770     1  0.0000000  1.6038667  3
    355    778    769    771     1  0.0000000  1.6038667  3
    356    355    778    769     1  0.0000000  1.6038667  3
    357    355    778    769     1  0.0000000  1.6038667  3
    360    361    373    374     1  0.0000000  0.6508444  3
    360    361    373    375     1  0.0000000  0.6508444  3
    360    364    376    377     1  0.0000000  0.6508444  3
    360    364    376    378     1  0.0000000  0.6508444  3
    360    367    370    371     1  0.0000000  0.6508444  3
    360    367    370    372     1  0.0000000  0.6508444  3
    361    360    364    365     1  0.0000000  0.6508444  3
    361    360    364    366     1  0.0000000  0.6508444  3
    361    360    367    368     1  0.0000000  0.6508444  3
    361    360    367    369     1  0.0000000  0.6508444  3
    361    373    385    386     1  0.0000000  0.6508444  3
    361    373    385    387     1  0.0000000  0.6508444  3
    362    361    360    364     1  0.0000000  0.6508444  3
    362    361    360    367     1  0.0000000  0.6508444  3
    362    361    360    389     1  0.0000000  0.6508444  3
    362    361    373    385     1  0.0000000  0.6508444  3
    362    361    373    374     1  0.0000000  0.6508444  3
    362    361    373    375     1  0.0000000  0.6508444  3
    363    361    360    364     1  0.0000000  0.6508444  3
    363    361    360    367     1  0.0000000  0.6508444  3
    363    361    360    389     1  0.0000000  0.6508444  3
    363    361    373    385     1  0.0000000  0.6508444  3
    363    361    373    374     1  0.0000000  0.6508444  3
    363    361    373    375     1  0.0000000  0.6508444  3
    364    360    367    368     1  0.0000000  0.6508444  3
    364    360    367    369     1  0.0000000  0.6508444  3
    364    376    382    383     1  0.0000000  0.6508444  3
    364    376    382    384     1  0.0000000  0.6508444  3
    365    364    360    367     1  0.0000000  0.6508444  3
    365    364    360    389     1  0.0000000  0.6508444  3
    365    364    376    382     1  0.0000000  0.6508444  3
    365    364    376    377     1  0.0000000  0.6508444  3
    365    364    376    378     1  0.0000000  0.6508444  3
    366    364    360    367     1  0.0000000  0.6508444  3
    366    364    360    389     1  0.0000000  0.6508444  3
    366    364    376    382     1  0.0000000  0.6508444  3
    366    364    376    377     1  0.0000000  0.6508444  3
    366    364    376    378     1  0.0000000  0.6508444  3
    367    370    379    380     1  0.0000000  0.6508444  3
    367    370    379    381     1  0.0000000  0.6508444  3
    368    367    360    389     1  0.0000000  0.6508444  3
    368    367    370    379     1  0.0000000  0.6508444  3
    368    367    370    371     1  0.0000000  0.6508444  3
    368    367    370    372     1  0.0000000  0.6508444  3
    369    367    360    389     1  0.0000000  0.6508444  3
    369    367    370    379     1  0.0000000  0.6508444  3
    369    367    370    371     1  0.0000000  0.6508444  3
    369    367    370    372     1  0.0000000  0.6508444  3
    370    367    360    389     1  0.0000000  0.6508444  3
    371    370    379    388     1  0.0000000  1.0460000  1
    371    370    379    388     1  0.0000000  0.0000000  3
    371    370    379    380     1  0.0000000  0.6508444  3
    371    370    379    381     1  0.0000000  0.6508444  3
    372    370    379    388     1  0.0000000  1.0460000  1
    372    370    379    388     1  0.0000000  0.0000000  3
    372    370    379    380     1  0.0000000  0.6508444  3
    372    370    379    381     1  0.0000000  0.6508444  3
    373    361    360    389     1  0.0000000  0.6508444  3
    374    373    385    838     1  0.0000000  1.0460000  1
    374    373    385    838     1  0.0000000  0.0000000  3
    374    373    385    386     1  0.0000000  0.6508444  3
    374    373    385    387     1  0.0000000  0.6508444  3
    375    373    385    838     1  0.0000000  1.0460000  1
    375    373    385    838     1  0.0000000  0.0000000  3
    375    373    385    386     1  0.0000000  0.6508444  3
    375    373    385    387     1  0.0000000  0.6508444  3
    376    364    360    389     1  0.0000000  0.6508444  3
    377    376    382    808     1  0.0000000  1.0460000  1
    377    376    382    808     1  0.0000000  0.0000000  3
    377    376    382    383     1  0.0000000  0.6508444  3
    377    376    382    384     1  0.0000000  0.6508444  3
    378    376    382    808     1  0.0000000  1.0460000  1
    378    376    382    808     1  0.0000000  0.0000000  3
    378    376    382    383     1  0.0000000  0.6508444  3
    378    376    382    384     1  0.0000000  0.6508444  3
    382    808    799    800     1  0.0000000  1.6038667  3
    382    808    799    801     1  0.0000000  1.6038667  3
    383    382    808    799     1  0.0000000  1.6038667  3
    384    382    808    799     1  0.0000000  1.6038667  3
    385    838    829    830     1  0.0000000  1.6038667  3
    385    838    829    831     1  0.0000000  1.6038667  3
    386    385    838    829     1  0.0000000  1.6038667  3
    387    385    838    829     1  0.0000000  1.6038667  3
    390    391    403    404     1  0.0000000  0.6508444  3
    390    391    403    405     1  0.0000000  0.6508444  3
    390    394    406    407     1  0.0000000  0.6508444  3
    390    394    406    408     1  0.0000000  0.6508444  3
    390    397    400    401     1  0.0000000  0.6508444  3
    390    397    400    402     1  0.0000000  0.6508444  3
    391    390    394    395     1  0.0000000  0.6508444  3
    391    390    394    396     1  0.0000000  0.6508444  3
    391    390    397    398     1  0.0000000  0.6508444  3
    391    390    397    399     1  0.0000000  0.6508444  3
    391    403    415    416     1  0.0000000  0.6508444  3
    391    403    415    417     1  0.0000000  0.6508444  3
    392    391    390    394     1  0.0000000  0.6508444  3
    392    391    390    397     1  0.0000000  0.6508444  3
    392    391    390    419     1  0.0000000  0.6508444  3
    392    391    403    415     1  0.0000000  0.6508444  3
    392    391    403    404     1  0.0000000  0.6508444  3
    392    391    403    405     1  0.0000000  0.6508444  3
    393    391    390    394     1  0.0000000  0.6508444  3
    393    391    390    397     1  0.0000000  0.6508444  3
    393    391    390    419     1  0.0000000  0.6508444  3
    393    391    403    415     1  0.0000000  0.6508444  3
    393    391    403    404     1  0.0000000  0.6508444  3
    393    391    403    405     1  0.0000000  0.6508444  3
    394    390    397    398     1  0.0000000  0.6508444  3
    394    390    397    399     1  0.0000000  0.6508444  3
    394    406    412    413     1  0.0000000  0.6508444  3
    394    406    412    414     1  0.0000000  0.6508444  3
    395    394    390    397     1  0.0000000  0.6508444  3
    395    394    390    419     1  0.0000000  0.6508444  3
    395    394    406    412     1  0.0000000  0.6508444  3
    395    394    406    407     1  0.0000000  0.6508444  3
    395    394    406    408     1  0.0000000  0.6508444  3
    396    394    390    397     1  0.0000000  0.6508444  3
    396    394    390    419     1  0.0000000  0.6508444  3
    396    394    406    412     1  0.0000000  0.6508444  3
    396    394    406    407     1  0.0000000  0.6508444  3
    396    394    406    408     1  0.0000000  0.6508444  3
    397    400    409    410     1  0.0000000  0.6508444  3
    397    400    409    411     1  0.0000000  0.6508444  3
    398    397    390    419     1  0.0000000  0.6508444  3
    398    397    400    409     1  0.0000000  0.6508444  3
    398    397    400    401     1  0.0000000  0.6508444  3
    398    397    400    402     1  0.0000000  0.6508444  3
    399    397    390    419     1  0.0000000  0.6508444  3
    399    397    400    409     1  0.0000000  0.6508444  3
    399    397    400    401     1  0.0000000  0.6508444  3
    399    397    400    402     1  0.0000000  0.6508444  3
    400    397    390    419     1  0.0000000  0.6508444  3
    401    400    409    418     1  0.0000000  1.0460000  1
    401    400    409    418     1  0.0000000  0.0000000  3
    401    400    409    410     1  0.0000000  0.6508444  3
    401    400    409    411     1  0.0000000  0.6508444  3
    402    400    409    418     1  0.0000000  1.0460000  1
    402    400    409    418     1  0.0000000  0.0000000  3
    402    400    409    410     1  0.0000000  0.6508444  3
    402    400    409    411     1  0.0000000  0.6508444  3
    403    391    390    419     1  0.0000000  0.6508444  3
    404    403    415    898     1  0.0000000  1.0460000  1
    404    403    415    898     1  0.0000000  0.0000000  3
    404    403    415    416     1  0.0000000  0.6508444  3
    404    403    415    417     1  0.0000000  0.6508444  3
    405    403    415    898     1  0.0000000  1.0460000  1
    405    403    415    898     1  0.0000000  0.0000000  3
    405    403    415    416     1  0.0000000  0.6508444  3
    405    403    415    417     1  0.0000000  0.6508444  3
    406    394    390    419     1  0.0000000  0.6508444  3
    407    406    412    868     1  0.0000000  1.0460000  1
    407    406    412    868     1  0.0000000  0.0000000  3
    407    406    412    413     1  0.0000000  0.6508444  3
    407    406    412    414     1  0.0000000  0.6508444  3
    408    406    412    868     1  0.0000000  1.0460000  1
    408    406    412    868     1  0.0000000  0.0000000  3
    408    406    412    413     1  0.0000000  0.6508444  3
    408    406    412    414     1  0.0000000  0.6508444  3
    412    868    859    860     1  0.0000000  1.6038667  3
    412    868    859    861     1  0.0000000  1.6038667  3
    413    412    868    859     1  0.0000000  1.6038667  3
    414    412    868    859     1  0.0000000  1.6038667  3
    415    898    889    890     1  0.0000000  1.6038667  3
    415    898    889    891     1  0.0000000  1.6038667  3
    416    415    898    889     1  0.0000000  1.6038667  3
    417    415    898    889     1  0.0000000  1.6038667  3
    420    421    433    434     1  0.0000000  0.6508444  3
    420    421    433    435     1  0.0000000  0.6508444  3
    420    424    436    437     1  0.0000000  0.6508444  3
    420    424    436    438     1  0.0000000  0.6508444  3
    420    427    430    431     1  0.0000000  0.6508444  3
    420    427    430    432     1  0.0000000  0.6508444  3
    421    420    424    425     1  0.0000000  0.6508444  3
    421    420    424    426     1  0.0000000  0.6508444  3
    421    420    427    428     1  0.0000000  0.6508444  3
    421    420    427    429     1  0.0000000  0.6508444  3
    421    433    445    446     1  0.0000000  0.6508444  3
    421    433    445    447     1  0.0000000  0.6508444  3
    422    421    420    424     1  0.0000000  0.6508444  3
    422    421    420    427     1  0.0000000  0.6508444  3
    422    421    420    449     1  0.0000000  0.6508444  3
    422    421    433    445     1  0.0000000  0.6508444  3
    422    421    433    434     1  0.0000000  0.6508444  3
    422    421    433    435     1  0.0000000  0.6508444  3
    423    421    420    424     1  0.0000000  0.6508444  3
    423    421    420    427     1  0.0000000  0.6508444  3
    423    421    420    449     1  0.0000000  0.6508444  3
    423    421    433    445     1  0.0000000  0.6508444  3
    423    421    433    434     1  0.0000000  0.6508444  3
    423    421    433    435     1  0.0000000  0.6508444  3
    424    420    427    428     1  0.0000000  0.6508444  3
    424    420    427    429     1  0.0000000  0.6508444  3
    424    436    442    443     1  0.0000000  0.6508444  3
    424    436    442    444     1  0.0000000  0.6508444  3
    425    424    420    427     1  0.0000000  0.6508444  3
    425    424    420    449     1  0.0000000  0.6508444  3
    425    424    436    442     1  0.0000000  0.6508444  3
    425    424    436    437     1  0.0000000  0.6508444  3
    425    424    436    438     1  0.0000000  0.6508444  3
    426    424    420    427     1  0.0000000  0.6508444  3
    426    424    420    449     1  0.0000000  0.6508444  3
    426    424    436    442     1  0.0000000  0.6508444  3
    426    424    436    437     1  0.0000000  0.6508444  3
    426    424    436    438     1  0.0000000  0.6508444  3
    427    430    439    440     1  0.0000000  0.6508444  3
    427    430    439    441     1  0.0000000  0.6508444  3
    428    427    420    449     1  0.0000000  0.6508444  3
    428    427    430    439     1  0.0000000  0.6508444  3
    428    427    430    431     1  0.0000000  0.6508444  3
    428    427    430    432     1  0.0000000  0.6508444  3
    429    427    420    449     1  0.0000000  0.6508444  3
    429    427    430    439     1  0.0000000  0.6508444  3
    429    427    430    431     1  0.0000000  0.6508444  3
    429    427    430    432     1  0.0000000  0.6508444  3
    430    427    420    449     1  0.0000000  0.6508444  3
    431    430    439    448     1  0.0000000  1.0460000  1
    431    430    439    448     1  0.0000000  0.0000000  3
    431    430    439    440     1  0.0000000  0.6508444  3
    431    430    439    441     1  0.0000000  0.6508444  3
    432    430    439    448     1  0.0000000  1.0460000  1
    432    430    439    448     1  0.0000000  0.0000000  3
    432    430    439    440     1  0.0000000  0.6508444  3
    432    430    439    441     1  0.0000000  0.6508444  3
    433    421    420    449     1  0.0000000  0.6508444  3
    434    433    445    958     1  0.0000000  1.0460000  1
    434    433    445    958     1  0.0000000  0.0000000  3
    434    433    445    446     1  0.0000000  0.6508444  3
    434    433    445    447     1  0.0000000  0.6508444  3
    435    433    445    958     1  0.0000000  1.0460000  1
    435    433    445    958     1  0.0000000  0.0000000  3
    435    433    445    446     1  0.0000000  0.6508444  3
    435    433    445    447     1  0.0000000  0.6508444  3
    436    424    420    449     1  0.0000000  0.6508444  3
    437    436    442    928     1  0.0000000  1.0460000  1
    437    436    442    928     1  0.0000000  0.0000000  3
    437    436    442    443     1  0.0000000  0.6508444  3
    437    436    442    444     1  0.0000000  0.6508444  3
    438    436    442    928     1  0.0000000  1.0460000  1
    438    436    442    928     1  0.0000000  0.0000000  3
    438    436    442    443     1  0.0000000  0.6508444  3
    438    436    442    444     1  0.0000000  0.6508444  3
    442    928    919    920     1  0.0000000  1.6038667  3
    442    928    919    921     1  0.0000000  1.6038667  3
    443    442    928    919     1  0.0000000  1.6038667  3
    444    442    928    919     1  0.0000000  1.6038667  3
    445    958    949    950     1  0.0000000  1.6038667  3
    445    958    949    951     1  0.0000000  1.6038667  3
    446    445    958    949     1  0.0000000  1.6038667  3
    447    445    958    949     1  0.0000000  1.6038667  3
    450    451    463    464     1  0.0000000  0.6508444  3
    450    451    463    465     1  0.0000000  0.6508444  3
    450    454    466    467     1  0.0000000  0.6508444  3
    450    454    466    468     1  0.0000000  0.6508444  3
    450    457    460    461     1  0.0000000  0.6508444  3
    450    457    460    462     1  0.0000000  0.6508444  3
    451    450    454    455     1  0.0000000  0.6508444  3
    451    450    454    456     1  0.0000000  0.6508444  3
    451    450    457    458     1  0.0000000  0.6508444  3
    451    450    457    459     1  0.0000000  0.6508444  3
    451    463    475    476     1  0.0000000  0.6508444  3
    451    463    475    477     1  0.0000000  0.6508444  3
    452    451    450    454     1  0.0000000  0.6508444  3
    452    451    450    457     1  0.0000000  0.6508444  3
    452    451    450    479     1  0.0000000  0.6508444  3
    452    451    463    475     1  0.0000000  0.6508444  3
    452    451    463    464     1  0.0000000  0.6508444  3
    452    451    463    465     1  0.0000000  0.6508444  3
    453    451    450    454     1  0.0000000  0.6508444  3
    453    451    450    457     1  0.0000000  0.6508444  3
    453    451    450    479     1  0.0000000  0.6508444  3
    453    451    463    475     1  0.0000000  0.6508444  3
    453    451    463    464     1  0.0000000  0.6508444  3
    453    451    463    465     1  0.0000000  0.6508444  3
    454    450    457    458     1  0.0000000  0.6508444  3
    454    450    457    459     1  0.0000000  0.6508444  3
    454    466    472    473     1  0.0000000  0.6508444  3
    454    466    472    474     1  0.0000000  0.6508444  3
    455    454    450    457     1  0.0000000  0.6508444  3
    455    454    450    479     1  0.0000000  0.6508444  3
    455    454    466    472     1  0.0000000  0.6508444  3
    455    454    466    467     1  0.0000000  0.6508444  3
    455    454    466    468     1  0.0000000  0.6508444  3
    456    454    450    457     1  0.0000000  0.6508444  3
    456    454    450    479     1  0.0000000  0.6508444  3
    456    454    466    472     1  0.0000000  0.6508444  3
    456    454    466    467     1  0.0000000  0.6508444  3
    456    454    466    468     1  0.0000000  0.6508444  3
    457    460    469    470     1  0.0000000  0.6508444  3
    457    460    469    471     1  0.0000000  0.6508444  3
    458    457    450    479     1  0.0000000  0.6508444  3
    458    457    460    469     1  0.0000000  0.6508444  3
    458    457    460    461     1  0.0000000  0.6508444  3
    458    457    460    462     1  0.0000000  0.6508444  3
    459    457    450    479     1  0.0000000  0.6508444  3
    459    457    460    469     1  0.0000000  0.6508444  3
    459    457    460    461     1  0.0000000  0.6508444  3
    459    457    460    462     1  0.0000000  0.6508444  3
    460    457    450    479     1  0.0000000  0.6508444  3
    461    460    469    478     1  0.0000000  1.0460000  1
    461    460    469    478     1  0.0000000  0.0000000  3
    461    460    469    470     1  0.0000000  0.6508444  3
    461    460    469    471     1  0.0000000  0.6508444  3
    462    460    469    478     1  0.0000000  1.0460000  1
    462    460    469    478     1  0.0000000  0.0000000  3
    462    460    469    470     1  0.0000000  0.6508444  3
    462    460    469    471     1  0.0000000  0.6508444  3
    463    451    450    479     1  0.0000000  0.6508444  3
    464    463    475   1018     1  0.0000000  1.0460000  1
    464    463    475   1018     1  0.0000000  0.0000000  3
    464    463    475    476     1  0.0000000  0.6508444  3
    464    463    475    477     1  0.0000000  0.6508444  3
    465    463    475   1018     1  0.0000000  1.0460000  1
    465    463    475   1018     1  0.0000000  0.0000000  3
    465    463    475    476     1  0.0000000  0.6508444  3
    465    463    475    477     1  0.0000000  0.6508444  3
    466    454    450    479     1  0.0000000  0.6508444  3
    467    466    472    988     1  0.0000000  1.0460000  1
    467    466    472    988     1  0.0000000  0.0000000  3
    467    466    472    473     1  0.0000000  0.6508444  3
    467    466    472    474     1  0.0000000  0.6508444  3
    468    466    472    988     1  0.0000000  1.0460000  1
    468    466    472    988     1  0.0000000  0.0000000  3
    468    466    472    473     1  0.0000000  0.6508444  3
    468    466    472    474     1  0.0000000  0.6508444  3
    472    988    979    980     1  0.0000000  1.6038667  3
    472    988    979    981     1  0.0000000  1.6038667  3
    473    472    988    979     1  0.0000000  1.6038667  3
    474    472    988    979     1  0.0000000  1.6038667  3
    475   1018   1009   1010     1  0.0000000  1.6038667  3
    475   1018   1009   1011     1  0.0000000  1.6038667  3
    476    475   1018   1009     1  0.0000000  1.6038667  3
    477    475   1018   1009     1  0.0000000  1.6038667  3
    480    481    493    494     1  0.0000000  0.6508444  3
    480    481    493    495     1  0.0000000  0.6508444  3
    480    484    496    497     1  0.0000000  0.6508444  3
    480    484    496    498     1  0.0000000  0.6508444  3
    480    487    490    491     1  0.0000000  0.6508444  3
    480    487    490    492     1  0.0000000  0.6508444  3
    481    480    484    485     1  0.0000000  0.6508444  3
    481    480    484    486     1  0.0000000  0.6508444  3
    481    480    487    488     1  0.0000000  0.6508444  3
    481    480    487    489     1  0.0000000  0.6508444  3
    481    493    505    506     1  0.0000000  0.6508444  3
    481    493    505    507     1  0.0000000  0.6508444  3
    482    481    480    484     1  0.0000000  0.6508444  3
    482    481    480    487     1  0.0000000  0.6508444  3
    482    481    480    509     1  0.0000000  0.6508444  3
    482    481    493    505     1  0.0000000  0.6508444  3
    482    481    493    494     1  0.0000000  0.6508444  3
    482    481    493    495     1  0.0000000  0.6508444  3
    483    481    480    484     1  0.0000000  0.6508444  3
    483    481    480    487     1  0.0000000  0.6508444  3
    483    481    480    509     1  0.0000000  0.6508444  3
    483    481    493    505     1  0.0000000  0.6508444  3
    483    481    493    494     1  0.0000000  0.6508444  3
    483    481    493    495     1  0.0000000  0.6508444  3
    484    480    487    488     1  0.0000000  0.6508444  3
    484    480    487    489     1  0.0000000  0.6508444  3
    484    496    502    503     1  0.0000000  0.6508444  3
    484    496    502    504     1  0.0000000  0.6508444  3
    485    484    480    487     1  0.0000000  0.6508444  3
    485    484    480    509     1  0.0000000  0.6508444  3
    485    484    496    502     1  0.0000000  0.6508444  3
    485    484    496    497     1  0.0000000  0.6508444  3
    485    484    496    498     1  0.0000000  0.6508444  3
    486    484    480    487     1  0.0000000  0.6508444  3
    486    484    480    509     1  0.0000000  0.6508444  3
    486    484    496    502     1  0.0000000  0.6508444  3
    486    484    496    497     1  0.0000000  0.6508444  3
    486    484    496    498     1  0.0000000  0.6508444  3
    487    490    499    500     1  0.0000000  0.6508444  3
    487    490    499    501     1  0.0000000  0.6508444  3
    488    487    480    509     1  0.0000000  0.6508444  3
    488    487    490    499     1  0.0000000  0.6508444  3
    488    487    490    491     1  0.0000000  0.6508444  3
    488    487    490    492     1  0.0000000  0.6508444  3
    489    487    480    509     1  0.0000000  0.6508444  3
    489    487    490    499     1  0.0000000  0.6508444  3
    489    487    490    491     1  0.0000000  0.6508444  3
    489    487    490    492     1  0.0000000  0.6508444  3
    490    487    480    509     1  0.0000000  0.6508444  3
    491    490    499    508     1  0.0000000  1.0460000  1
    491    490    499    508     1  0.0000000  0.0000000  3
    491    490    499    500     1  0.0000000  0.6508444  3
    491    490    499    501     1  0.0000000  0.6508444  3
    492    490    499    508     1  0.0000000  1.0460000  1
    492    490    499    508     1  0.0000000  0.0000000  3
    492    490    499    500     1  0.0000000  0.6508444  3
    492    490    499    501     1  0.0000000  0.6508444  3
    493    481    480    509     1  0.0000000  0.6508444  3
    494    493    505   1078     1  0.0000000  1.0460000  1
    494    493    505   1078     1  0.0000000  0.0000000  3
    494    493    505    506     1  0.0000000  0.6508444  3
    494    493    505    507     1  0.0000000  0.6508444  3
    495    493    505   1078     1  0.0000000  1.0460000  1
    495    493    505   1078     1  0.0000000  0.0000000  3
    495    493    505    506     1  0.0000000  0.6508444  3
    495    493    505    507     1  0.0000000  0.6508444  3
    496    484    480    509     1  0.0000000  0.6508444  3
    497    496    502   1048     1  0.0000000  1.0460000  1
    497    496    502   1048     1  0.0000000  0.0000000  3
    497    496    502    503     1  0.0000000  0.6508444  3
    497    496    502    504     1  0.0000000  0.6508444  3
    498    496    502   1048     1  0.0000000  1.0460000  1
    498    496    502   1048     1  0.0000000  0.0000000  3
    498    496    502    503     1  0.0000000  0.6508444  3
    498    496    502    504     1  0.0000000  0.6508444  3
    502   1048   1039   1040     1  0.0000000  1.6038667  3
    502   1048   1039   1041     1  0.0000000  1.6038667  3
    503    502   1048   1039     1  0.0000000  1.6038667  3
    504    502   1048   1039     1  0.0000000  1.6038667  3
    505   1078   1069   1070     1  0.0000000  1.6038667  3
    505   1078   1069   1071     1  0.0000000  1.6038667  3
    506    505   1078   1069     1  0.0000000  1.6038667  3
    507    505   1078   1069     1  0.0000000  1.6038667  3
    510    511    523    524     1  0.0000000  0.6508444  3
    510    511    523    525     1  0.0000000  0.6508444  3
    510    514    526    527     1  0.0000000  0.6508444  3
    510    514    526    528     1  0.0000000  0.6508444  3
    510    517    520    521     1  0.0000000  0.6508444  3
    510    517    520    522     1  0.0000000  0.6508444  3
    511    510    514    515     1  0.0000000  0.6508444  3
    511    510    514    516     1  0.0000000  0.6508444  3
    511    510    517    518     1  0.0000000  0.6508444  3
    511    510    517    519     1  0.0000000  0.6508444  3
    511    523    535    536     1  0.0000000  0.6508444  3
    511    523    535    537     1  0.0000000  0.6508444  3
    512    511    510    514     1  0.0000000  0.6508444  3
    512    511    510    517     1  0.0000000  0.6508444  3
    512    511    510    539     1  0.0000000  0.6508444  3
    512    511    523    535     1  0.0000000  0.6508444  3
    512    511    523    524     1  0.0000000  0.6508444  3
    512    511    523    525     1  0.0000000  0.6508444  3
    513    511    510    514     1  0.0000000  0.6508444  3
    513    511    510    517     1  0.0000000  0.6508444  3
    513    511    510    539     1  0.0000000  0.6508444  3
    513    511    523    535     1  0.0000000  0.6508444  3
    513    511    523    524     1  0.0000000  0.6508444  3
    513    511    523    525     1  0.0000000  0.6508444  3
    514    510    517    518     1  0.0000000  0.6508444  3
    514    510    517    519     1  0.0000000  0.6508444  3
    514    526    532    533     1  0.0000000  0.6508444  3
    514    526    532    534     1  0.0000000  0.6508444  3
    515    514    510    517     1  0.0000000  0.6508444  3
    515    514    510    539     1  0.0000000  0.6508444  3
    515    514    526    532     1  0.0000000  0.6508444  3
    515    514    526    527     1  0.0000000  0.6508444  3
    515    514    526    528     1  0.0000000  0.6508444  3
    516    514    510    517     1  0.0000000  0.6508444  3
    516    514    510    539     1  0.0000000  0.6508444  3
    516    514    526    532     1  0.0000000  0.6508444  3
    516    514    526    527     1  0.0000000  0.6508444  3
    516    514    526    528     1  0.0000000  0.6508444  3
    517    520    529    530     1  0.0000000  0.6508444  3
    517    520    529    531     1  0.0000000  0.6508444  3
    518    517    510    539     1  0.0000000  0.6508444  3
    518    517    520    529     1  0.0000000  0.6508444  3
    518    517    520    521     1  0.0000000  0.6508444  3
    518    517    520    522     1  0.0000000  0.6508444  3
    519    517    510    539     1  0.0000000  0.6508444  3
    519    517    520    529     1  0.0000000  0.6508444  3
    519    517    520    521     1  0.0000000  0.6508444  3
    519    517    520    522     1  0.0000000  0.6508444  3
    520    517    510    539     1  0.0000000  0.6508444  3
    521    520    529    538     1  0.0000000  1.0460000  1
    521    520    529    538     1  0.0000000  0.0000000  3
    521    520    529    530     1  0.0000000  0.6508444  3
    521    520    529    531     1  0.0000000  0.6508444  3
    522    520    529    538     1  0.0000000  1.0460000  1
    522    520    529    538     1  0.0000000  0.0000000  3
    522    520    529    530     1  0.0000000  0.6508444  3
    522    520    529    531     1  0.0000000  0.6508444  3
    523    511    510    539     1  0.0000000  0.6508444  3
    524    523    535   1138     1  0.0000000  1.0460000  1
    524    523    535   1138     1  0.0000000  0.0000000  3
    524    523    535    536     1  0.0000000  0.6508444  3
    524    523    535    537     1  0.0000000  0.6508444  3
    525    523    535   1138     1  0.0000000  1.0460000  1
    525    523    535   1138     1  0.0000000  0.0000000  3
    525    523    535    536     1  0.0000000  0.6508444  3
    525    523    535    537     1  0.0000000  0.6508444  3
    526    514    510    539     1  0.0000000  0.6508444  3
    527    526    532   1108     1  0.0000000  1.0460000  1
    527    526    532   1108     1  0.0000000  0.0000000  3
    527    526    532    533     1  0.0000000  0.6508444  3
    527    526    532    534     1  0.0000000  0.6508444  3
    528    526    532   1108     1  0.0000000  1.0460000  1
    528    526    532   1108     1  0.0000000  0.0000000  3
    528    526    532    533     1  0.0000000  0.6508444  3
    528    526    532    534     1  0.0000000  0.6508444  3
    532   1108   1099   1100     1  0.0000000  1.6038667  3
    532   1108   1099   1101     1  0.0000000  1.6038667  3
    533    532   1108   1099     1  0.0000000  1.6038667  3
    534    532   1108   1099     1  0.0000000  1.6038667  3
    535   1138   1129   1130     1  0.0000000  1.6038667  3
    535   1138   1129   1131     1  0.0000000  1.6038667  3
    536    535   1138   1129     1  0.0000000  1.6038667  3
    537    535   1138   1129     1  0.0000000  1.6038667  3
    540    541    553    554     1  0.0000000  0.6508444  3
    540    541    553    555     1  0.0000000  0.6508444  3
    540    544    556    557     1  0.0000000  0.6508444  3
    540    544    556    558     1  0.0000000  0.6508444  3
    540    547    550    551     1  0.0000000  0.6508444  3
    540    547    550    552     1  0.0000000  0.6508444  3
    541    540    544    545     1  0.0000000  0.6508444  3
    541    540    544    546     1  0.0000000  0.6508444  3
    541    540    547    548     1  0.0000000  0.6508444  3
    541    540    547    549     1  0.0000000  0.6508444  3
    541    553    565    566     1  0.0000000  0.6508444  3
    541    553    565    567     1  0.0000000  0.6508444  3
    542    541    540    544     1  0.0000000  0.6508444  3
    542    541    540    547     1  0.0000000  0.6508444  3
    542    541    540    569     1  0.0000000  0.6508444  3
    542    541    553    565     1  0.0000000  0.6508444  3
    542    541    553    554     1  0.0000000  0.6508444  3
    542    541    553    555     1  0.0000000  0.6508444  3
    543    541    540    544     1  0.0000000  0.6508444  3
    543    541    540    547     1  0.0000000  0.6508444  3
    543    541    540    569     1  0.0000000  0.6508444  3
    543    541    553    565     1  0.0000000  0.6508444  3
    543    541    553    554     1  0.0000000  0.6508444  3
    543    541    553    555     1  0.0000000  0.6508444  3
    544    540    547    548     1  0.0000000  0.6508444  3
    544    540    547    549     1  0.0000000  0.6508444  3
    544    556    562    563     1  0.0000000  0.6508444  3
    544    556    562    564     1  0.0000000  0.6508444  3
    545    544    540    547     1  0.0000000  0.6508444  3
    545    544    540    569     1  0.0000000  0.6508444  3
    545    544    556    562     1  0.0000000  0.6508444  3
    545    544    556    557     1  0.0000000  0.6508444  3
    545    544    556    558     1  0.0000000  0.6508444  3
    546    544    540    547     1  0.0000000  0.6508444  3
    546    544    540    569     1  0.0000000  0.6508444  3
    546    544    556    562     1  0.0000000  0.6508444  3
    546    544    556    557     1  0.0000000  0.6508444  3
    546    544    556    558     1  0.0000000  0.6508444  3
    547    550    559    560     1  0.0000000  0.6508444  3
    547    550    559    561     1  0.0000000  0.6508444  3
    548    547    540    569     1  0.0000000  0.6508444  3
    548    547    550    559     1  0.0000000  0.6508444  3
    548    547    550    551     1  0.0000000  0.6508444  3
    548    547    550    552     1  0.0000000  0.6508444  3
    549    547    540    569     1  0.0000000  0.6508444  3
    549    547    550    559     1  0.0000000  0.6508444  3
    549    547    550    551     1  0.0000000  0.6508444  3
    549    547    550    552     1  0.0000000  0.6508444  3
    550    547    540    569     1  0.0000000  0.6508444  3
    551    550    559    568     1  0.0000000  1.0460000  1
    551    550    559    568     1  0.0000000  0.0000000  3
    551    550    559    560     1  0.0000000  0.6508444  3
    551    550    559    561     1  0.0000000  0.6508444  3
    552    550    559    568     1  0.0000000  1.0460000  1
    552    550    559    568     1  0.0000000  0.0000000  3
    552    550    559    560     1  0.0000000  0.6508444  3
    552    550    559    561     1  0.0000000  0.6508444  3
    553    541    540    569     1  0.0000000  0.6508444  3
    554    553    565   1198     1  0.0000000  1.0460000  1
    554    553    565   1198     1  0.0000000  0.0000000  3
    554    553    565    566     1  0.0000000  0.6508444  3
    554    553    565    567     1  0.0000000  0.6508444  3
    555    553    565   1198     1  0.0000000  1.0460000  1
    555    553    565   1198     1  0.0000000  0.0000000  3
    555    553    565    566     1  0.0000000  0.6508444  3
    555    553    565    567     1  0.0000000  0.6508444  3
    556    544    540    569     1  0.0000000  0.6508444  3
    557    556    562   1168     1  0.0000000  1.0460000  1
    557    556    562   1168     1  0.0000000  0.0000000  3
    557    556    562    563     1  0.0000000  0.6508444  3
    557    556    562    564     1  0.0000000  0.6508444  3
    558    556    562   1168     1  0.0000000  1.0460000  1
    558    556    562   1168     1  0.0000000  0.0000000  3
    558    556    562    563     1  0.0000000  0.6508444  3
    558    556    562    564     1  0.0000000  0.6508444  3
    562   1168   1159   1160     1  0.0000000  1.6038667  3
    562   1168   1159   1161     1  0.0000000  1.6038667  3
    563    562   1168   1159     1  0.0000000  1.6038667  3
    564    562   1168   1159     1  0.0000000  1.6038667  3
    565   1198   1189   1190     1  0.0000000  1.6038667  3
    565   1198   1189   1191     1  0.0000000  1.6038667  3
    566    565   1198   1189     1  0.0000000  1.6038667  3
    567    565   1198   1189     1  0.0000000  1.6038667  3
    570    571    583    584     1  0.0000000  0.6508444  3
    570    571    583    585     1  0.0000000  0.6508444  3
    570    574    586    587     1  0.0000000  0.6508444  3
    570    574    586    588     1  0.0000000  0.6508444  3
    570    577    580    581     1  0.0000000  0.6508444  3
    570    577    580    582     1  0.0000000  0.6508444  3
    571    570    574    575     1  0.0000000  0.6508444  3
    571    570    574    576     1  0.0000000  0.6508444  3
    571    570    577    578     1  0.0000000  0.6508444  3
    571    570    577    579     1  0.0000000  0.6508444  3
    571    583    595    596     1  0.0000000  0.6508444  3
    571    583    595    597     1  0.0000000  0.6508444  3
    572    571    570    574     1  0.0000000  0.6508444  3
    572    571    570    577     1  0.0000000  0.6508444  3
    572    571    570    599     1  0.0000000  0.6508444  3
    572    571    583    595     1  0.0000000  0.6508444  3
    572    571    583    584     1  0.0000000  0.6508444  3
    572    571    583    585     1  0.0000000  0.6508444  3
    573    571    570    574     1  0.0000000  0.6508444  3
    573    571    570    577     1  0.0000000  0.6508444  3
    573    571    570    599     1  0.0000000  0.6508444  3
    573    571    583    595     1  0.0000000  0.6508444  3
    573    571    583    584     1  0.0000000  0.6508444  3
    573    571    583    585     1  0.0000000  0.6508444  3
    574    570    577    578     1  0.0000000  0.6508444  3
    574    570    577    579     1  0.0000000  0.6508444  3
    574    586    592    593     1  0.0000000  0.6508444  3
    574    586    592    594     1  0.0000000  0.6508444  3
    575    574    570    577     1  0.0000000  0.6508444  3
    575    574    570    599     1  0.0000000  0.6508444  3
    575    574    586    592     1  0.0000000  0.6508444  3
    575    574    586    587     1  0.0000000  0.6508444  3
    575    574    586    588     1  0.0000000  0.6508444  3
    576    574    570    577     1  0.0000000  0.6508444  3
    576    574    570    599     1  0.0000000  0.6508444  3
    576    574    586    592     1  0.0000000  0.6508444  3
    576    574    586    587     1  0.0000000  0.6508444  3
    576    574    586    588     1  0.0000000  0.6508444  3
    577    580    589    590     1  0.0000000  0.6508444  3
    577    580    589    591     1  0.0000000  0.6508444  3
    578    577    570    599     1  0.0000000  0.6508444  3
    578    577    580    589     1  0.0000000  0.6508444  3
    578    577    580    581     1  0.0000000  0.6508444  3
    578    577    580    582     1  0.0000000  0.6508444  3
    579    577    570    599     1  0.0000000  0.6508444  3
    579    577    580    589     1  0.0000000  0.6508444  3
    579    577    580    581     1  0.0000000  0.6508444  3
    579    577    580    582     1  0.0000000  0.6508444  3
    580    577    570    599     1  0.0000000  0.6508444  3
    581    580    589    598     1  0.0000000  1.0460000  1
    581    580    589    598     1  0.0000000  0.0000000  3
    581    580    589    590     1  0.0000000  0.6508444  3
    581    580    589    591     1  0.0000000  0.6508444  3
    582    580    589    598     1  0.0000000  1.0460000  1
    582    580    589    598     1  0.0000000  0.0000000  3
    582    580    589    590     1  0.0000000  0.6508444  3
    582    580    589    591     1  0.0000000  0.6508444  3
    583    571    570    599     1  0.0000000  0.6508444  3
    584    583    595   1258     1  0.0000000  1.0460000  1
    584    583    595   1258     1  0.0000000  0.0000000  3
    584    583    595    596     1  0.0000000  0.6508444  3
    584    583    595    597     1  0.0000000  0.6508444  3
    585    583    595   1258     1  0.0000000  1.0460000  1
    585    583    595   1258     1  0.0000000  0.0000000  3
    585    583    595    596     1  0.0000000  0.6508444  3
    585    583    595    597     1  0.0000000  0.6508444  3
    586    574    570    599     1  0.0000000  0.6508444  3
    587    586    592   1228     1  0.0000000  1.0460000  1
    587    586    592   1228     1  0.0000000  0.0000000  3
    587    586    592    593     1  0.0000000  0.6508444  3
    587    586    592    594     1  0.0000000  0.6508444  3
    588    586    592   1228     1  0.0000000  1.0460000  1
    588    586    592   1228     1  0.0000000  0.0000000  3
    588    586    592    593     1  0.0000000  0.6508444  3
    588    586    592    594     1  0.0000000  0.6508444  3
    592   1228   1219   1220     1  0.0000000  1.6038667  3
    592   1228   1219   1221     1  0.0000000  1.6038667  3
    593    592   1228   1219     1  0.0000000  1.6038667  3
    594    592   1228   1219     1  0.0000000  1.6038667  3
    595   1258   1249   1250     1  0.0000000  1.6038667  3
    595   1258   1249   1251     1  0.0000000  1.6038667  3
    596    595   1258   1249     1  0.0000000  1.6038667  3
    597    595   1258   1249     1  0.0000000  1.6038667  3
    600    601    613    614     1  0.0000000  0.6508444  3
    600    601    613    615     1  0.0000000  0.6508444  3
    600    604    616    617     1  0.0000000  0.6508444  3
    600    604    616    618     1  0.0000000  0.6508444  3
    600    607    610    611     1  0.0000000  0.6508444  3
    600    607    610    612     1  0.0000000  0.6508444  3
    601    600    604    605     1  0.0000000  0.6508444  3
    601    600    604    606     1  0.0000000  0.6508444  3
    601    600    607    608     1  0.0000000  0.6508444  3
    601    600    607    609     1  0.0000000  0.6508444  3
    601    613    625    626     1  0.0000000  0.6508444  3
    601    613    625    627     1  0.0000000  0.6508444  3
    602    601    600    604     1  0.0000000  0.6508444  3
    602    601    600    607     1  0.0000000  0.6508444  3
    602    601    600    629     1  0.0000000  0.6508444  3
    602    601    613    625     1  0.0000000  0.6508444  3
    602    601    613    614     1  0.0000000  0.6508444  3
    602    601    613    615     1  0.0000000  0.6508444  3
    603    601    600    604     1  0.0000000  0.6508444  3
    603    601    600    607     1  0.0000000  0.6508444  3
    603    601    600    629     1  0.0000000  0.6508444  3
    603    601    613    625     1  0.0000000  0.6508444  3
    603    601    613    614     1  0.0000000  0.6508444  3
    603    601    613    615     1  0.0000000  0.6508444  3
    604    600    607    608     1  0.0000000  0.6508444  3
    604    600    607    609     1  0.0000000  0.6508444  3
    604    616    622    623     1  0.0000000  0.6508444  3
    604    616    622    624     1  0.0000000  0.6508444  3
    605    604    600    607     1  0.0000000  0.6508444  3
    605    604    600    629     1  0.0000000  0.6508444  3
    605    604    616    622     1  0.0000000  0.6508444  3
    605    604    616    617     1  0.0000000  0.6508444  3
    605    604    616    618     1  0.0000000  0.6508444  3
    606    604    600    607     1  0.0000000  0.6508444  3
    606    604    600    629     1  0.0000000  0.6508444  3
    606    604    616    622     1  0.0000000  0.6508444  3
    606    604    616    617     1  0.0000000  0.6508444  3
    606    604    616    618     1  0.0000000  0.6508444  3
    607    610    619    620     1  0.0000000  0.6508444  3
    607    610    619    621     1  0.0000000  0.6508444  3
    608    607    600    629     1  0.0000000  0.6508444  3
    608    607    610    619     1  0.0000000  0.6508444  3
    608    607    610    611     1  0.0000000  0.6508444  3
    608    607    610    612     1  0.0000000  0.6508444  3
    609    607    600    629     1  0.0000000  0.6508444  3
    609    607    610    619     1  0.0000000  0.6508444  3
    609    607    610    611     1  0.0000000  0.6508444  3
    609    607    610    612     1  0.0000000  0.6508444  3
    610    607    600    629     1  0.0000000  0.6508444  3
    611    610    619    628     1  0.0000000  1.0460000  1
    611    610    619    628     1  0.0000000  0.0000000  3
    611    610    619    620     1  0.0000000  0.6508444  3
    611    610    619    621     1  0.0000000  0.6508444  3
    612    610    619    628     1  0.0000000  1.0460000  1
    612    610    619    628     1  0.0000000  0.0000000  3
    612    610    619    620     1  0.0000000  0.6508444  3
    612    610    619    621     1  0.0000000  0.6508444  3
    613    601    600    629     1  0.0000000  0.6508444  3
    614    613    625   1318     1  0.0000000  1.0460000  1
    614    613    625   1318     1  0.0000000  0.0000000  3
    614    613    625    626     1  0.0000000  0.6508444  3
    614    613    625    627     1  0.0000000  0.6508444  3
    615    613    625   1318     1  0.0000000  1.0460000  1
    615    613    625   1318     1  0.0000000  0.0000000  3
    615    613    625    626     1  0.0000000  0.6508444  3
    615    613    625    627     1  0.0000000  0.6508444  3
    616    604    600    629     1  0.0000000  0.6508444  3
    617    616    622   1288     1  0.0000000  1.0460000  1
    617    616    622   1288     1  0.0000000  0.0000000  3
    617    616    622    623     1  0.0000000  0.6508444  3
    617    616    622    624     1  0.0000000  0.6508444  3
    618    616    622   1288     1  0.0000000  1.0460000  1
    618    616    622   1288     1  0.0000000  0.0000000  3
    618    616    622    623     1  0.0000000  0.6508444  3
    618    616    622    624     1  0.0000000  0.6508444  3
    622   1288   1279   1280     1  0.0000000  1.6038667  3
    622   1288   1279   1281     1  0.0000000  1.6038667  3
    623    622   1288   1279     1  0.0000000  1.6038667  3
    624    622   1288   1279     1  0.0000000  1.6038667  3
    625   1318   1309   1310     1  0.0000000  1.6038667  3
    625   1318   1309   1311     1  0.0000000  1.6038667  3
    626    625   1318   1309     1  0.0000000  1.6038667  3
    627    625   1318   1309     1  0.0000000  1.6038667  3
    630    631    643    644     1  0.0000000  0.6508444  3
    630    631    643    645     1  0.0000000  0.6508444  3
    630    634    646    647     1  0.0000000  0.6508444  3
    630    634    646    648     1  0.0000000  0.6508444  3
    630    637    640    641     1  0.0000000  0.6508444  3
    630    637    640    642     1  0.0000000  0.6508444  3
    631    630    634    635     1  0.0000000  0.6508444  3
    631    630    634    636     1  0.0000000  0.6508444  3
    631    630    637    638     1  0.0000000  0.6508444  3
    631    630    637    639     1  0.0000000  0.6508444  3
    631    643    655    656     1  0.0000000  0.6508444  3
    631    643    655    657     1  0.0000000  0.6508444  3
    632    631    630    634     1  0.0000000  0.6508444  3
    632    631    630    637     1  0.0000000  0.6508444  3
    632    631    630    659     1  0.0000000  0.6508444  3
    632    631    643    655     1  0.0000000  0.6508444  3
    632    631    643    644     1  0.0000000  0.6508444  3
    632    631    643    645     1  0.0000000  0.6508444  3
    633    631    630    634     1  0.0000000  0.6508444  3
    633    631    630    637     1  0.0000000  0.6508444  3
    633    631    630    659     1  0.0000000  0.6508444  3
    633    631    643    655     1  0.0000000  0.6508444  3
    633    631    643    644     1  0.0000000  0.6508444  3
    633    631    643    645     1  0.0000000  0.6508444  3
    634    630    637    638     1  0.0000000  0.6508444  3
    634    630    637    639     1  0.0000000  0.6508444  3
    634    646    652    653     1  0.0000000  0.6508444  3
    634    646    652    654     1  0.0000000  0.6508444  3
    635    634    630    637     1  0.0000000  0.6508444  3
    635    634    630    659     1  0.0000000  0.6508444  3
    635    634    646    652     1  0.0000000  0.6508444  3
    635    634    646    647     1  0.0000000  0.6508444  3
    635    634    646    648     1  0.0000000  0.6508444  3
    636    634    630    637     1  0.0000000  0.6508444  3
    636    634    630    659     1  0.0000000  0.6508444  3
    636    634    646    652     1  0.0000000  0.6508444  3
    636    634    646    647     1  0.0000000  0.6508444  3
    636    634    646    648     1  0.0000000  0.6508444  3
    637    640    649    650     1  0.0000000  0.6508444  3
    637    640    649    651     1  0.0000000  0.6508444  3
    638    637    630    659     1  0.0000000  0.6508444  3
    638    637    640    649     1  0.0000000  0.6508444  3
    638    637    640    641     1  0.0000000  0.6508444  3
    638    637    640    642     1  0.0000000  0.6508444  3
    639    637    630    659     1  0.0000000  0.6508444  3
    639    637    640    649     1  0.0000000  0.6508444  3
    639    637    640    641     1  0.0000000  0.6508444  3
    639    637    640    642     1  0.0000000  0.6508444  3
    640    637    630    659     1  0.0000000  0.6508444  3
    641    640    649    658     1  0.0000000  1.0460000  1
    641    640    649    658     1  0.0000000  0.0000000  3
    641    640    649    650     1  0.0000000  0.6508444  3
    641    640    649    651     1  0.0000000  0.6508444  3
    642    640    649    658     1  0.0000000  1.0460000  1
    642    640    649    658     1  0.0000000  0.0000000  3
    642    640    649    650     1  0.0000000  0.6508444  3
    642    640    649    651     1  0.0000000  0.6508444  3
    643    631    630    659     1  0.0000000  0.6508444  3
    644    643    655   1378     1  0.0000000  1.0460000  1
    644    643    655   1378     1  0.0000000  0.0000000  3
    644    643    655    656     1  0.0000000  0.6508444  3
    644    643    655    657     1  0.0000000  0.6508444  3
    645    643    655   1378     1  0.0000000  1.0460000  1
    645    643    655   1378     1  0.0000000  0.0000000  3
    645    643    655    656     1  0.0000000  0.6508444  3
    645    643    655    657     1  0.0000000  0.6508444  3
    646    634    630    659     1  0.0000000  0.6508444  3
    647    646    652   1348     1  0.0000000  1.0460000  1
    647    646    652   1348     1  0.0000000  0.0000000  3
    647    646    652    653     1  0.0000000  0.6508444  3
    647    646    652    654     1  0.0000000  0.6508444  3
    648    646    652   1348     1  0.0000000  1.0460000  1
    648    646    652   1348     1  0.0000000  0.0000000  3
    648    646    652    653     1  0.0000000  0.6508444  3
    648    646    652    654     1  0.0000000  0.6508444  3
    652   1348   1339   1340     1  0.0000000  1.6038667  3
    652   1348   1339   1341     1  0.0000000  1.6038667  3
    653    652   1348   1339     1  0.0000000  1.6038667  3
    654    652   1348   1339     1  0.0000000  1.6038667  3
    655   1378   1369   1370     1  0.0000000  1.6038667  3
    655   1378   1369   1371     1  0.0000000  1.6038667  3
    656    655   1378   1369     1  0.0000000  1.6038667  3
    657    655   1378   1369     1  0.0000000  1.6038667  3
    660    661    673    674     1  0.0000000  0.6508444  3
    660    661    673    675     1  0.0000000  0.6508444  3
    660    664    676    677     1  0.0000000  0.6508444  3
    660    664    676    678     1  0.0000000  0.6508444  3
    660    667    670    671     1  0.0000000  0.6508444  3
    660    667    670    672     1  0.0000000  0.6508444  3
    661    660    664    665     1  0.0000000  0.6508444  3
    661    660    664    666     1  0.0000000  0.6508444  3
    661    660    667    668     1  0.0000000  0.6508444  3
    661    660    667    669     1  0.0000000  0.6508444  3
    661    673    685    686     1  0.0000000  0.6508444  3
    661    673    685    687     1  0.0000000  0.6508444  3
    662    661    660    664     1  0.0000000  0.6508444  3
    662    661    660    667     1  0.0000000  0.6508444  3
    662    661    660    689     1  0.0000000  0.6508444  3
    662    661    673    685     1  0.0000000  0.6508444  3
    662    661    673    674     1  0.0000000  0.6508444  3
    662    661    673    675     1  0.0000000  0.6508444  3
    663    661    660    664     1  0.0000000  0.6508444  3
    663    661    660    667     1  0.0000000  0.6508444  3
    663    661    660    689     1  0.0000000  0.6508444  3
    663    661    673    685     1  0.0000000  0.6508444  3
    663    661    673    674     1  0.0000000  0.6508444  3
    663    661    673    675     1  0.0000000  0.6508444  3
    664    660    667    668     1  0.0000000  0.6508444  3
    664    660    667    669     1  0.0000000  0.6508444  3
    664    676    682    683     1  0.0000000  0.6508444  3
    664    676    682    684     1  0.0000000  0.6508444  3
    665    664    660    667     1  0.0000000  0.6508444  3
    665    664    660    689     1  0.0000000  0.6508444  3
    665    664    676    682     1  0.0000000  0.6508444  3
    665    664    676    677     1  0.0000000  0.6508444  3
    665    664    676    678     1  0.0000000  0.6508444  3
    666    664    660    667     1  0.0000000  0.6508444  3
    666    664    660    689     1  0.0000000  0.6508444  3
    666    664    676    682     1  0.0000000  0.6508444  3
    666    664    676    677     1  0.0000000  0.6508444  3
    666    664    676    678     1  0.0000000  0.6508444  3
    667    670    679    680     1  0.0000000  0.6508444  3
    667    670    679    681     1  0.0000000  0.6508444  3
    668    667    660    689     1  0.0000000  0.6508444  3
    668    667    670    679     1  0.0000000  0.6508444  3
    668    667    670    671     1  0.0000000  0.6508444  3
    668    667    670    672     1  0.0000000  0.6508444  3
    669    667    660    689     1  0.0000000  0.6508444  3
    669    667    670    679     1  0.0000000  0.6508444  3
    669    667    670    671     1  0.0000000  0.6508444  3
    669    667    670    672     1  0.0000000  0.6508444  3
    670    667    660    689     1  0.0000000  0.6508444  3
    671    670    679    688     1  0.0000000  1.0460000  1
    671    670    679    688     1  0.0000000  0.0000000  3
    671    670    679    680     1  0.0000000  0.6508444  3
    671    670    679    681     1  0.0000000  0.6508444  3
    672    670    679    688     1  0.0000000  1.0460000  1
    672    670    679    688     1  0.0000000  0.0000000  3
    672    670    679    680     1  0.0000000  0.6508444  3
    672    670    679    681     1  0.0000000  0.6508444  3
    673    661    660    689     1  0.0000000  0.6508444  3
    674    673    685   1438     1  0.0000000  1.0460000  1
    674    673    685   1438     1  0.0000000  0.0000000  3
    674    673    685    686     1  0.0000000  0.6508444  3
    674    673    685    687     1  0.0000000  0.6508444  3
    675    673    685   1438     1  0.0000000  1.0460000  1
    675    673    685   1438     1  0.0000000  0.0000000  3
    675    673    685    686     1  0.0000000  0.6508444  3
    675    673    685    687     1  0.0000000  0.6508444  3
    676    664    660    689     1  0.0000000  0.6508444  3
    677    676    682   1408     1  0.0000000  1.0460000  1
    677    676    682   1408     1  0.0000000  0.0000000  3
    677    676    682    683     1  0.0000000  0.6508444  3
    677    676    682    684     1  0.0000000  0.6508444  3
    678    676    682   1408     1  0.0000000  1.0460000  1
    678    676    682   1408     1  0.0000000  0.0000000  3
    678    676    682    683     1  0.0000000  0.6508444  3
    678    676    682    684     1  0.0000000  0.6508444  3
    682   1408   1399   1400     1  0.0000000  1.6038667  3
    682   1408   1399   1401     1  0.0000000  1.6038667  3
    683    682   1408   1399     1  0.0000000  1.6038667  3
    684    682   1408   1399     1  0.0000000  1.6038667  3
    685   1438   1429   1430     1  0.0000000  1.6038667  3
    685   1438   1429   1431     1  0.0000000  1.6038667  3
    686    685   1438   1429     1  0.0000000  1.6038667  3
    687    685   1438   1429     1  0.0000000  1.6038667  3
    690    691    703    704     1  0.0000000  0.6508444  3
    690    691    703    705     1  0.0000000  0.6508444  3
    690    694    706    707     1  0.0000000  0.6508444  3
    690    694    706    708     1  0.0000000  0.6508444  3
    690    697    700    701     1  0.0000000  0.6508444  3
    690    697    700    702     1  0.0000000  0.6508444  3
    691    690    694    695     1  0.0000000  0.6508444  3
    691    690    694    696     1  0.0000000  0.6508444  3
    691    690    697    698     1  0.0000000  0.6508444  3
    691    690    697    699     1  0.0000000  0.6508444  3
    691    703    715    716     1  0.0000000  0.6508444  3
    691    703    715    717     1  0.0000000  0.6508444  3
    692    691    690    694     1  0.0000000  0.6508444  3
    692    691    690    697     1  0.0000000  0.6508444  3
    692    691    690    719     1  0.0000000  0.6508444  3
    692    691    703    715     1  0.0000000  0.6508444  3
    692    691    703    704     1  0.0000000  0.6508444  3
    692    691    703    705     1  0.0000000  0.6508444  3
    693    691    690    694     1  0.0000000  0.6508444  3
    693    691    690    697     1  0.0000000  0.6508444  3
    693    691    690    719     1  0.0000000  0.6508444  3
    693    691    703    715     1  0.0000000  0.6508444  3
    693    691    703    704     1  0.0000000  0.6508444  3
    693    691    703    705     1  0.0000000  0.6508444  3
    694    690    697    698     1  0.0000000  0.6508444  3
    694    690    697    699     1  0.0000000  0.6508444  3
    694    706    712    713     1  0.0000000  0.6508444  3
    694    706    712    714     1  0.0000000  0.6508444  3
    695    694    690    697     1  0.0000000  0.6508444  3
    695    694    690    719     1  0.0000000  0.6508444  3
    695    694    706    712     1  0.0000000  0.6508444  3
    695    694    706    707     1  0.0000000  0.6508444  3
    695    694    706    708     1  0.0000000  0.6508444  3
    696    694    690    697     1  0.0000000  0.6508444  3
    696    694    690    719     1  0.0000000  0.6508444  3
    696    694    706    712     1  0.0000000  0.6508444  3
    696    694    706    707     1  0.0000000  0.6508444  3
    696    694    706    708     1  0.0000000  0.6508444  3
    697    700    709    710     1  0.0000000  0.6508444  3
    697    700    709    711     1  0.0000000  0.6508444  3
    698    697    690    719     1  0.0000000  0.6508444  3
    698    697    700    709     1  0.0000000  0.6508444  3
    698    697    700    701     1  0.0000000  0.6508444  3
    698    697    700    702     1  0.0000000  0.6508444  3
    699    697    690    719     1  0.0000000  0.6508444  3
    699    697    700    709     1  0.0000000  0.6508444  3
    699    697    700    701     1  0.0000000  0.6508444  3
    699    697    700    702     1  0.0000000  0.6508444  3
    700    697    690    719     1  0.0000000  0.6508444  3
    701    700    709    718     1  0.0000000  1.0460000  1
    701    700    709    718     1  0.0000000  0.0000000  3
    701    700    709    710     1  0.0000000  0.6508444  3
    701    700    709    711     1  0.0000000  0.6508444  3
    702    700    709    718     1  0.0000000  1.0460000  1
    702    700    709    718     1  0.0000000  0.0000000  3
    702    700    709    710     1  0.0000000  0.6508444  3
    702    700    709    711     1  0.0000000  0.6508444  3
    703    691    690    719     1  0.0000000  0.6508444  3
    704    703    715   1498     1  0.0000000  1.0460000  1
    704    703    715   1498     1  0.0000000  0.0000000  3
    704    703    715    716     1  0.0000000  0.6508444  3
    704    703    715    717     1  0.0000000  0.6508444  3
    705    703    715   1498     1  0.0000000  1.0460000  1
    705    703    715   1498     1  0.0000000  0.0000000  3
    705    703    715    716     1  0.0000000  0.6508444  3
    705    703    715    717     1  0.0000000  0.6508444  3
    706    694    690    719     1  0.0000000  0.6508444  3
    707    706    712   1468     1  0.0000000  1.0460000  1
    707    706    712   1468     1  0.0000000  0.0000000  3
    707    706    712    713     1  0.0000000  0.6508444  3
    707    706    712    714     1  0.0000000  0.6508444  3
    708    706    712   1468     1  0.0000000  1.0460000  1
    708    706    712   1468     1  0.0000000  0.0000000  3
    708    706    712    713     1  0.0000000  0.6508444  3
    708    706    712    714     1  0.0000000  0.6508444  3
    712   1468   1459   1460     1  0.0000000  1.6038667  3
    712   1468   1459   1461     1  0.0000000  1.6038667  3
    713    712   1468   1459     1  0.0000000  1.6038667  3
    714    712   1468   1459     1  0.0000000  1.6038667  3
    715   1498   1489   1490     1  0.0000000  1.6038667  3
    715   1498   1489   1491     1  0.0000000  1.6038667  3
    716    715   1498   1489     1  0.0000000  1.6038667  3
    717    715   1498   1489     1  0.0000000  1.6038667  3
    720    721    733    734     1  0.0000000  0.6508444  3
    720    721    733    735     1  0.0000000  0.6508444  3
    720    724    736    737     1  0.0000000  0.6508444  3
    720    724    736    738     1  0.0000000  0.6508444  3
    720    727    730    731     1  0.0000000  0.6508444  3
    720    727    730    732     1  0.0000000  0.6508444  3
    721    720    724    725     1  0.0000000  0.6508444  3
    721    720    724    726     1  0.0000000  0.6508444  3
    721    720    727    728     1  0.0000000  0.6508444  3
    721    720    727    729     1  0.0000000  0.6508444  3
    721    733    745    746     1  0.0000000  0.6508444  3
    721    733    745    747     1  0.0000000  0.6508444  3
    722    721    720    724     1  0.0000000  0.6508444  3
    722    721    720    727     1  0.0000000  0.6508444  3
    722    721    720    749     1  0.0000000  0.6508444  3
    722    721    733    745     1  0.0000000  0.6508444  3
    722    721    733    734     1  0.0000000  0.6508444  3
    722    721    733    735     1  0.0000000  0.6508444  3
    723    721    720    724     1  0.0000000  0.6508444  3
    723    721    720    727     1  0.0000000  0.6508444  3
    723    721    720    749     1  0.0000000  0.6508444  3
    723    721    733    745     1  0.0000000  0.6508444  3
    723    721    733    734     1  0.0000000  0.6508444  3
    723    721    733    735     1  0.0000000  0.6508444  3
    724    720    727    728     1  0.0000000  0.6508444  3
    724    720    727    729     1  0.0000000  0.6508444  3
    724    736    742    743     1  0.0000000  0.6508444  3
    724    736    742    744     1  0.0000000  0.6508444  3
    725    724    720    727     1  0.0000000  0.6508444  3
    725    724    720    749     1  0.0000000  0.6508444  3
    725    724    736    742     1  0.0000000  0.6508444  3
    725    724    736    737     1  0.0000000  0.6508444  3
    725    724    736    738     1  0.0000000  0.6508444  3
    726    724    720    727     1  0.0000000  0.6508444  3
    726    724    720    749     1  0.0000000  0.6508444  3
    726    724    736    742     1  0.0000000  0.6508444  3
    726    724    736    737     1  0.0000000  0.6508444  3
    726    724    736    738     1  0.0000000  0.6508444  3
    727    730    739    740     1  0.0000000  0.6508444  3
    727    730    739    741     1  0.0000000  0.6508444  3
    728    727    720    749     1  0.0000000  0.6508444  3
    728    727    730    739     1  0.0000000  0.6508444  3
    728    727    730    731     1  0.0000000  0.6508444  3
    728    727    730    732     1  0.0000000  0.6508444  3
    729    727    720    749     1  0.0000000  0.6508444  3
    729    727    730    739     1  0.0000000  0.6508444  3
    729    727    730    731     1  0.0000000  0.6508444  3
    729    727    730    732     1  0.0000000  0.6508444  3
    730    727    720    749     1  0.0000000  0.6508444  3
    731    730    739    748     1  0.0000000  1.0460000  1
    731    730    739    748     1  0.0000000  0.0000000  3
    731    730    739    740     1  0.0000000  0.6508444  3
    731    730    739    741     1  0.0000000  0.6508444  3
    732    730    739    748     1  0.0000000  1.0460000  1
    732    730    739    748     1  0.0000000  0.0000000  3
    732    730    739    740     1  0.0000000  0.6508444  3
    732    730    739    741     1  0.0000000  0.6508444  3
    733    721    720    749     1  0.0000000  0.6508444  3
    734    733    745   1558     1  0.0000000  1.0460000  1
    734    733    745   1558     1  0.0000000  0.0000000  3
    734    733    745    746     1  0.0000000  0.6508444  3
    734    733    745    747     1  0.0000000  0.6508444  3
    735    733    745   1558     1  0.0000000  1.0460000  1
    735    733    745   1558     1  0.0000000  0.0000000  3
    735    733    745    746     1  0.0000000  0.6508444  3
    735    733    745    747     1  0.0000000  0.6508444  3
    736    724    720    749     1  0.0000000  0.6508444  3
    737    736    742   1528     1  0.0000000  1.0460000  1
    737    736    742   1528     1  0.0000000  0.0000000  3
    737    736    742    743     1  0.0000000  0.6508444  3
    737    736    742    744     1  0.0000000  0.6508444  3
    738    736    742   1528     1  0.0000000  1.0460000  1
    738    736    742   1528     1  0.0000000  0.0000000  3
    738    736    742    743     1  0.0000000  0.6508444  3
    738    736    742    744     1  0.0000000  0.6508444  3
    742   1528   1519   1520     1  0.0000000  1.6038667  3
    742   1528   1519   1521     1  0.0000000  1.6038667  3
    743    742   1528   1519     1  0.0000000  1.6038667  3
    744    742   1528   1519     1  0.0000000  1.6038667  3
    745   1558   1549   1550     1  0.0000000  1.6038667  3
    745   1558   1549   1551     1  0.0000000  1.6038667  3
    746    745   1558   1549     1  0.0000000  1.6038667  3
    747    745   1558   1549     1  0.0000000  1.6038667  3
    750    751    763    764     1  0.0000000  0.6508444  3
    750    751    763    765     1  0.0000000  0.6508444  3
    750    754    766    767     1  0.0000000  0.6508444  3
    750    754    766    768     1  0.0000000  0.6508444  3
    750    757    760    761     1  0.0000000  0.6508444  3
    750    757    760    762     1  0.0000000  0.6508444  3
    751    750    754    755     1  0.0000000  0.6508444  3
    751    750    754    756     1  0.0000000  0.6508444  3
    751    750    757    758     1  0.0000000  0.6508444  3
    751    750    757    759     1  0.0000000  0.6508444  3
    751    763    775    776     1  0.0000000  0.6508444  3
    751    763    775    777     1  0.0000000  0.6508444  3
    752    751    750    754     1  0.0000000  0.6508444  3
    752    751    750    757     1  0.0000000  0.6508444  3
    752    751    750    779     1  0.0000000  0.6508444  3
    752    751    763    775     1  0.0000000  0.6508444  3
    752    751    763    764     1  0.0000000  0.6508444  3
    752    751    763    765     1  0.0000000  0.6508444  3
    753    751    750    754     1  0.0000000  0.6508444  3
    753    751    750    757     1  0.0000000  0.6508444  3
    753    751    750    779     1  0.0000000  0.6508444  3
    753    751    763    775     1  0.0000000  0.6508444  3
    753    751    763    764     1  0.0000000  0.6508444  3
    753    751    763    765     1  0.0000000  0.6508444  3
    754    750    757    758     1  0.0000000  0.6508444  3
    754    750    757    759     1  0.0000000  0.6508444  3
    754    766    772    773     1  0.0000000  0.6508444  3
    754    766    772    774     1  0.0000000  0.6508444  3
    755    754    750    757     1  0.0000000  0.6508444  3
    755    754    750    779     1  0.0000000  0.6508444  3
    755    754    766    772     1  0.0000000  0.6508444  3
    755    754    766    767     1  0.0000000  0.6508444  3
    755    754    766    768     1  0.0000000  0.6508444  3
    756    754    750    757     1  0.0000000  0.6508444  3
    756    754    750    779     1  0.0000000  0.6508444  3
    756    754    766    772     1  0.0000000  0.6508444  3
    756    754    766    767     1  0.0000000  0.6508444  3
    756    754    766    768     1  0.0000000  0.6508444  3
    757    760    769    770     1  0.0000000  0.6508444  3
    757    760    769    771     1  0.0000000  0.6508444  3
    758    757    750    779     1  0.0000000  0.6508444  3
    758    757    760    769     1  0.0000000  0.6508444  3
    758    757    760    761     1  0.0000000  0.6508444  3
    758    757    760    762     1  0.0000000  0.6508444  3
    759    757    750    779     1  0.0000000  0.6508444  3
    759    757    760    769     1  0.0000000  0.6508444  3
    759    757    760    761     1  0.0000000  0.6508444  3
    759    757    760    762     1  0.0000000  0.6508444  3
    760    757    750    779     1  0.0000000  0.6508444  3
    761    760    769    778     1  0.0000000  1.0460000  1
    761    760    769    778     1  0.0000000  0.0000000  3
    761    760    769    770     1  0.0000000  0.6508444  3
    761    760    769    771     1  0.0000000  0.6508444  3
    762    760    769    778     1  0.0000000  1.0460000  1
    762    760    769    778     1  0.0000000  0.0000000  3
    762    760    769    770     1  0.0000000  0.6508444  3
    762    760    769    771     1  0.0000000  0.6508444  3
    763    751    750    779     1  0.0000000  0.6508444  3
    764    763    775   1618     1  0.0000000  1.0460000  1
    764    763    775   1618     1  0.0000000  0.0000000  3
    764    763    775    776     1  0.0000000  0.6508444  3
    764    763    775    777     1  0.0000000  0.6508444  3
    765    763    775   1618     1  0.0000000  1.0460000  1
    765    763    775   1618     1  0.0000000  0.0000000  3
    765    763    775    776     1  0.0000000  0.6508444  3
    765    763    775    777     1  0.0000000  0.6508444  3
    766    754    750    779     1  0.0000000  0.6508444  3
    767    766    772   1588     1  0.0000000  1.0460000  1
    767    766    772   1588     1  0.0000000  0.0000000  3
    767    766    772    773     1  0.0000000  0.6508444  3
    767    766    772    774     1  0.0000000  0.6508444  3
    768    766    772   1588     1  0.0000000  1.0460000  1
    768    766    772   1588     1  0.0000000  0.0000000  3
    768    766    772    773     1  0.0000000  0.6508444  3
    768    766    772    774     1  0.0000000  0.6508444  3
    772   1588   1579   1580     1  0.0000000  1.6038667  3
    772   1588   1579   1581     1  0.0000000  1.6038667  3
    773    772   1588   1579     1  0.0000000  1.6038667  3
    774    772   1588   1579     1  0.0000000  1.6038667  3
    775   1618   1609   1610     1  0.0000000  1.6038667  3
    775   1618   1609   1611     1  0.0000000  1.6038667  3
    776    775   1618   1609     1  0.0000000  1.6038667  3
    777    775   1618   1609     1  0.0000000  1.6038667  3
    780    781    793    794     1  0.0000000  0.6508444  3
    780    781    793    795     1  0.0000000  0.6508444  3
    780    784    796    797     1  0.0000000  0.6508444  3
    780    784    796    798     1  0.0000000  0.6508444  3
    780    787    790    791     1  0.0000000  0.6508444  3
    780    787    790    792     1  0.0000000  0.6508444  3
    781    780    784    785     1  0.0000000  0.6508444  3
    781    780    784    786     1  0.0000000  0.6508444  3
    781    780    787    788     1  0.0000000  0.6508444  3
    781    780    787    789     1  0.0000000  0.6508444  3
    781    793    805    806     1  0.0000000  0.6508444  3
    781    793    805    807     1  0.0000000  0.6508444  3
    782    781    780    784     1  0.0000000  0.6508444  3
    782    781    780    787     1  0.0000000  0.6508444  3
    782    781    780    809     1  0.0000000  0.6508444  3
    782    781    793    805     1  0.0000000  0.6508444  3
    782    781    793    794     1  0.0000000  0.6508444  3
    782    781    793    795     1  0.0000000  0.6508444  3
    783    781    780    784     1  0.0000000  0.6508444  3
    783    781    780    787     1  0.0000000  0.6508444  3
    783    781    780    809     1  0.0000000  0.6508444  3
    783    781    793    805     1  0.0000000  0.6508444  3
    783    781    793    794     1  0.0000000  0.6508444  3
    783    781    793    795     1  0.0000000  0.6508444  3
    784    780    787    788     1  0.0000000  0.6508444  3
    784    780    787    789     1  0.0000000  0.6508444  3
    784    796    802    803     1  0.0000000  0.6508444  3
    784    796    802    804     1  0.0000000  0.6508444  3
    785    784    780    787     1  0.0000000  0.6508444  3
    785    784    780    809     1  0.0000000  0.6508444  3
    785    784    796    802     1  0.0000000  0.6508444  3
    785    784    796    797     1  0.0000000  0.6508444  3
    785    784    796    798     1  0.0000000  0.6508444  3
    786    784    780    787     1  0.0000000  0.6508444  3
    786    784    780    809     1  0.0000000  0.6508444  3
    786    784    796    802     1  0.0000000  0.6508444  3
    786    784    796    797     1  0.0000000  0.6508444  3
    786    784    796    798     1  0.0000000  0.6508444  3
    787    790    799    800     1  0.0000000  0.6508444  3
    787    790    799    801     1  0.0000000  0.6508444  3
    788    787    780    809     1  0.0000000  0.6508444  3
    788    787    790    799     1  0.0000000  0.6508444  3
    788    787    790    791     1  0.0000000  0.6508444  3
    788    787    790    792     1  0.0000000  0.6508444  3
    789    787    780    809     1  0.0000000  0.6508444  3
    789    787    790    799     1  0.0000000  0.6508444  3
    789    787    790    791     1  0.0000000  0.6508444  3
    789    787    790    792     1  0.0000000  0.6508444  3
    790    787    780    809     1  0.0000000  0.6508444  3
    791    790    799    808     1  0.0000000  1.0460000  1
    791    790    799    808     1  0.0000000  0.0000000  3
    791    790    799    800     1  0.0000000  0.6508444  3
    791    790    799    801     1  0.0000000  0.6508444  3
    792    790    799    808     1  0.0000000  1.0460000  1
    792    790    799    808     1  0.0000000  0.0000000  3
    792    790    799    800     1  0.0000000  0.6508444  3
    792    790    799    801     1  0.0000000  0.6508444  3
    793    781    780    809     1  0.0000000  0.6508444  3
    794    793    805   1678     1  0.0000000  1.0460000  1
    794    793    805   1678     1  0.0000000  0.0000000  3
    794    793    805    806     1  0.0000000  0.6508444  3
    794    793    805    807     1  0.0000000  0.6508444  3
    795    793    805   1678     1  0.0000000  1.0460000  1
    795    793    805   1678     1  0.0000000  0.0000000  3
    795    793    805    806     1  0.0000000  0.6508444  3
    795    793    805    807     1  0.0000000  0.6508444  3
    796    784    780    809     1  0.0000000  0.6508444  3
    797    796    802   1648     1  0.0000000  1.0460000  1
    797    796    802   1648     1  0.0000000  0.0000000  3
    797    796    802    803     1  0.0000000  0.6508444  3
    797    796    802    804     1  0.0000000  0.6508444  3
    798    796    802   1648     1  0.0000000  1.0460000  1
    798    796    802   1648     1  0.0000000  0.0000000  3
    798    796    802    803     1  0.0000000  0.6508444  3
    798    796    802    804     1  0.0000000  0.6508444  3
    802   1648   1639   1640     1  0.0000000  1.6038667  3
    802   1648   1639   1641     1  0.0000000  1.6038667  3
    803    802   1648   1639     1  0.0000000  1.6038667  3
    804    802   1648   1639     1  0.0000000  1.6038667  3
    805   1678   1669   1670     1  0.0000000  1.6038667  3
    805   1678   1669   1671     1  0.0000000  1.6038667  3
    806    805   1678   1669     1  0.0000000  1.6038667  3
    807    805   1678   1669     1  0.0000000  1.6038667  3
    810    811    823    824     1  0.0000000  0.6508444  3
    810    811    823    825     1  0.0000000  0.6508444  3
    810    814    826    827     1  0.0000000  0.6508444  3
    810    814    826    828     1  0.0000000  0.6508444  3
    810    817    820    821     1  0.0000000  0.6508444  3
    810    817    820    822     1  0.0000000  0.6508444  3
    811    810    814    815     1  0.0000000  0.6508444  3
    811    810    814    816     1  0.0000000  0.6508444  3
    811    810    817    818     1  0.0000000  0.6508444  3
    811    810    817    819     1  0.0000000  0.6508444  3
    811    823    835    836     1  0.0000000  0.6508444  3
    811    823    835    837     1  0.0000000  0.6508444  3
    812    811    810    814     1  0.0000000  0.6508444  3
    812    811    810    817     1  0.0000000  0.6508444  3
    812    811    810    839     1  0.0000000  0.6508444  3
    812    811    823    835     1  0.0000000  0.6508444  3
    812    811    823    824     1  0.0000000  0.6508444  3
    812    811    823    825     1  0.0000000  0.6508444  3
    813    811    810    814     1  0.0000000  0.6508444  3
    813    811    810    817     1  0.0000000  0.6508444  3
    813    811    810    839     1  0.0000000  0.6508444  3
    813    811    823    835     1  0.0000000  0.6508444  3
    813    811    823    824     1  0.0000000  0.6508444  3
    813    811    823    825     1  0.0000000  0.6508444  3
    814    810    817    818     1  0.0000000  0.6508444  3
    814    810    817    819     1  0.0000000  0.6508444  3
    814    826    832    833     1  0.0000000  0.6508444  3
    814    826    832    834     1  0.0000000  0.6508444  3
    815    814    810    817     1  0.0000000  0.6508444  3
    815    814    810    839     1  0.0000000  0.6508444  3
    815    814    826    832     1  0.0000000  0.6508444  3
    815    814    826    827     1  0.0000000  0.6508444  3
    815    814    826    828     1  0.0000000  0.6508444  3
    816    814    810    817     1  0.0000000  0.6508444  3
    816    814    810    839     1  0.0000000  0.6508444  3
    816    814    826    832     1  0.0000000  0.6508444  3
    816    814    826    827     1  0.0000000  0.6508444  3
    816    814    826    828     1  0.0000000  0.6508444  3
    817    820    829    830     1  0.0000000  0.6508444  3
    817    820    829    831     1  0.0000000  0.6508444  3
    818    817    810    839     1  0.0000000  0.6508444  3
    818    817    820    829     1  0.0000000  0.6508444  3
    818    817    820    821     1  0.0000000  0.6508444  3
    818    817    820    822     1  0.0000000  0.6508444  3
    819    817    810    839     1  0.0000000  0.6508444  3
    819    817    820    829     1  0.0000000  0.6508444  3
    819    817    820    821     1  0.0000000  0.6508444  3
    819    817    820    822     1  0.0000000  0.6508444  3
    820    817    810    839     1  0.0000000  0.6508444  3
    821    820    829    838     1  0.0000000  1.0460000  1
    821    820    829    838     1  0.0000000  0.0000000  3
    821    820    829    830     1  0.0000000  0.6508444  3
    821    820    829    831     1  0.0000000  0.6508444  3
    822    820    829    838     1  0.0000000  1.0460000  1
    822    820    829    838     1  0.0000000  0.0000000  3
    822    820    829    830     1  0.0000000  0.6508444  3
    822    820    829    831     1  0.0000000  0.6508444  3
    823    811    810    839     1  0.0000000  0.6508444  3
    824    823    835   1738     1  0.0000000  1.0460000  1
    824    823    835   1738     1  0.0000000  0.0000000  3
    824    823    835    836     1  0.0000000  0.6508444  3
    824    823    835    837     1  0.0000000  0.6508444  3
    825    823    835   1738     1  0.0000000  1.0460000  1
    825    823    835   1738     1  0.0000000  0.0000000  3
    825    823    835    836     1  0.0000000  0.6508444  3
    825    823    835    837     1  0.0000000  0.6508444  3
    826    814    810    839     1  0.0000000  0.6508444  3
    827    826    832   1708     1  0.0000000  1.0460000  1
    827    826    832   1708     1  0.0000000  0.0000000  3
    827    826    832    833     1  0.0000000  0.6508444  3
    827    826    832    834     1  0.0000000  0.6508444  3
    828    826    832   1708     1  0.0000000  1.0460000  1
    828    826    832   1708     1  0.0000000  0.0000000  3
    828    826    832    833     1  0.0000000  0.6508444  3
    828    826    832    834     1  0.0000000  0.6508444  3
    832   1708   1699   1700     1  0.0000000  1.6038667  3
    832   1708   1699   1701     1  0.0000000  1.6038667  3
    833    832   1708   1699     1  0.0000000  1.6038667  3
    834    832   1708   1699     1  0.0000000  1.6038667  3
    835   1738   1729   1730     1  0.0000000  1.6038667  3
    835   1738   1729   1731     1  0.0000000  1.6038667  3
    836    835   1738   1729     1  0.0000000  1.6038667  3
    837    835   1738   1729     1  0.0000000  1.6038667  3
    840    841    853    854     1  0.0000000  0.6508444  3
    840    841    853    855     1  0.0000000  0.6508444  3
    840    844    856    857     1  0.0000000  0.6508444  3
    840    844    856    858     1  0.0000000  0.6508444  3
    840    847    850    851     1  0.0000000  0.6508444  3
    840    847    850    852     1  0.0000000  0.6508444  3
    841    840    844    845     1  0.0000000  0.6508444  3
    841    840    844    846     1  0.0000000  0.6508444  3
    841    840    847    848     1  0.0000000  0.6508444  3
    841    840    847    849     1  0.0000000  0.6508444  3
    841    853    865    866     1  0.0000000  0.6508444  3
    841    853    865    867     1  0.0000000  0.6508444  3
    842    841    840    844     1  0.0000000  0.6508444  3
    842    841    840    847     1  0.0000000  0.6508444  3
    842    841    840    869     1  0.0000000  0.6508444  3
    842    841    853    865     1  0.0000000  0.6508444  3
    842    841    853    854     1  0.0000000  0.6508444  3
    842    841    853    855     1  0.0000000  0.6508444  3
    843    841    840    844     1  0.0000000  0.6508444  3
    843    841    840    847     1  0.0000000  0.6508444  3
    843    841    840    869     1  0.0000000  0.6508444  3
    843    841    853    865     1  0.0000000  0.6508444  3
    843    841    853    854     1  0.0000000  0.6508444  3
    843    841    853    855     1  0.0000000  0.6508444  3
    844    840    847    848     1  0.0000000  0.6508444  3
    844    840    847    849     1  0.0000000  0.6508444  3
    844    856    862    863     1  0.0000000  0.6508444  3
    844    856    862    864     1  0.0000000  0.6508444  3
    845    844    840    847     1  0.0000000  0.6508444  3
    845    844    840    869     1  0.0000000  0.6508444  3
    845    844    856    862     1  0.0000000  0.6508444  3
    845    844    856    857     1  0.0000000  0.6508444  3
    845    844    856    858     1  0.0000000  0.6508444  3
    846    844    840    847     1  0.0000000  0.6508444  3
    846    844    840    869     1  0.0000000  0.6508444  3
    846    844    856    862     1  0.0000000  0.6508444  3
    846    844    856    857     1  0.0000000  0.6508444  3
    846    844    856    858     1  0.0000000  0.6508444  3
    847    850    859    860     1  0.0000000  0.6508444  3
    847    850    859    861     1  0.0000000  0.6508444  3
    848    847    840    869     1  0.0000000  0.6508444  3
    848    847    850    859     1  0.0000000  0.6508444  3
    848    847    850    851     1  0.0000000  0.6508444  3
    848    847    850    852     1  0.0000000  0.6508444  3
    849    847    840    869     1  0.0000000  0.6508444  3
    849    847    850    859     1  0.0000000  0.6508444  3
    849    847    850    851     1  0.0000000  0.6508444  3
    849    847    850    852     1  0.0000000  0.6508444  3
    850    847    840    869     1  0.0000000  0.6508444  3
    851    850    859    868     1  0.0000000  1.0460000  1
    851    850    859    868     1  0.0000000  0.0000000  3
    851    850    859    860     1  0.0000000  0.6508444  3
    851    850    859    861     1  0.0000000  0.6508444  3
    852    850    859    868     1  0.0000000  1.0460000  1
    852    850    859    868     1  0.0000000  0.0000000  3
    852    850    859    860     1  0.0000000  0.6508444  3
    852    850    859    861     1  0.0000000  0.6508444  3
    853    841    840    869     1  0.0000000  0.6508444  3
    854    853    865   1798     1  0.0000000  1.0460000  1
    854    853    865   1798     1  0.0000000  0.0000000  3
    854    853    865    866     1  0.0000000  0.6508444  3
    854    853    865    867     1  0.0000000  0.6508444  3
    855    853    865   1798     1  0.0000000  1.0460000  1
    855    853    865   1798     1  0.0000000  0.0000000  3
    855    853    865    866     1  0.0000000  0.6508444  3
    855    853    865    867     1  0.0000000  0.6508444  3
    856    844    840    869     1  0.0000000  0.6508444  3
    857    856    862   1768     1  0.0000000  1.0460000  1
    857    856    862   1768     1  0.0000000  0.0000000  3
    857    856    862    863     1  0.0000000  0.6508444  3
    857    856    862    864     1  0.0000000  0.6508444  3
    858    856    862   1768     1  0.0000000  1.0460000  1
    858    856    862   1768     1  0.0000000  0.0000000  3
    858    856    862    863     1  0.0000000  0.6508444  3
    858    856    862    864     1  0.0000000  0.6508444  3
    862   1768   1759   1760     1  0.0000000  1.6038667  3
    862   1768   1759   1761     1  0.0000000  1.6038667  3
    863    862   1768   1759     1  0.0000000  1.6038667  3
    864    862   1768   1759     1  0.0000000  1.6038667  3
    865   1798   1789   1790     1  0.0000000  1.6038667  3
    865   1798   1789   1791     1  0.0000000  1.6038667  3
    866    865   1798   1789     1  0.0000000  1.6038667  3
    867    865   1798   1789     1  0.0000000  1.6038667  3
    870    871    883    884     1  0.0000000  0.6508444  3
    870    871    883    885     1  0.0000000  0.6508444  3
    870    874    886    887     1  0.0000000  0.6508444  3
    870    874    886    888     1  0.0000000  0.6508444  3
    870    877    880    881     1  0.0000000  0.6508444  3
    870    877    880    882     1  0.0000000  0.6508444  3
    871    870    874    875     1  0.0000000  0.6508444  3
    871    870    874    876     1  0.0000000  0.6508444  3
    871    870    877    878     1  0.0000000  0.6508444  3
    871    870    877    879     1  0.0000000  0.6508444  3
    871    883    895    896     1  0.0000000  0.6508444  3
    871    883    895    897     1  0.0000000  0.6508444  3
    872    871    870    874     1  0.0000000  0.6508444  3
    872    871    870    877     1  0.0000000  0.6508444  3
    872    871    870    899     1  0.0000000  0.6508444  3
    872    871    883    895     1  0.0000000  0.6508444  3
    872    871    883    884     1  0.0000000  0.6508444  3
    872    871    883    885     1  0.0000000  0.6508444  3
    873    871    870    874     1  0.0000000  0.6508444  3
    873    871    870    877     1  0.0000000  0.6508444  3
    873    871    870    899     1  0.0000000  0.6508444  3
    873    871    883    895     1  0.0000000  0.6508444  3
    873    871    883    884     1  0.0000000  0.6508444  3
    873    871    883    885     1  0.0000000  0.6508444  3
    874    870    877    878     1  0.0000000  0.6508444  3
    874    870    877    879     1  0.0000000  0.6508444  3
    874    886    892    893     1  0.0000000  0.6508444  3
    874    886    892    894     1  0.0000000  0.6508444  3
    875    874    870    877     1  0.0000000  0.6508444  3
    875    874    870    899     1  0.0000000  0.6508444  3
    875    874    886    892     1  0.0000000  0.6508444  3
    875    874    886    887     1  0.0000000  0.6508444  3
    875    874    886    888     1  0.0000000  0.6508444  3
    876    874    870    877     1  0.0000000  0.6508444  3
    876    874    870    899     1  0.0000000  0.6508444  3
    876    874    886    892     1  0.0000000  0.6508444  3
    876    874    886    887     1  0.0000000  0.6508444  3
    876    874    886    888     1  0.0000000  0.6508444  3
    877    880    889    890     1  0.0000000  0.6508444  3
    877    880    889    891     1  0.0000000  0.6508444  3
    878    877    870    899     1  0.0000000  0.6508444  3
    878    877    880    889     1  0.0000000  0.6508444  3
    878    877    880    881     1  0.0000000  0.6508444  3
    878    877    880    882     1  0.0000000  0.6508444  3
    879    877    870    899     1  0.0000000  0.6508444  3
    879    877    880    889     1  0.0000000  0.6508444  3
    879    877    880    881     1  0.0000000  0.6508444  3
    879    877    880    882     1  0.0000000  0.6508444  3
    880    877    870    899     1  0.0000000  0.6508444  3
    881    880    889    898     1  0.0000000  1.0460000  1
    881    880    889    898     1  0.0000000  0.0000000  3
    881    880    889    890     1  0.0000000  0.6508444  3
    881    880    889    891     1  0.0000000  0.6508444  3
    882    880    889    898     1  0.0000000  1.0460000  1
    882    880    889    898     1  0.0000000  0.0000000  3
    882    880    889    890     1  0.0000000  0.6508444  3
    882    880    889    891     1  0.0000000  0.6508444  3
    883    871    870    899     1  0.0000000  0.6508444  3
    884    883    895   1858     1  0.0000000  1.0460000  1
    884    883    895   1858     1  0.0000000  0.0000000  3
    884    883    895    896     1  0.0000000  0.6508444  3
    884    883    895    897     1  0.0000000  0.6508444  3
    885    883    895   1858     1  0.0000000  1.0460000  1
    885    883    895   1858     1  0.0000000  0.0000000  3
    885    883    895    896     1  0.0000000  0.6508444  3
    885    883    895    897     1  0.0000000  0.6508444  3
    886    874    870    899     1  0.0000000  0.6508444  3
    887    886    892   1828     1  0.0000000  1.0460000  1
    887    886    892   1828     1  0.0000000  0.0000000  3
    887    886    892    893     1  0.0000000  0.6508444  3
    887    886    892    894     1  0.0000000  0.6508444  3
    888    886    892   1828     1  0.0000000  1.0460000  1
    888    886    892   1828     1  0.0000000  0.0000000  3
    888    886    892    893     1  0.0000000  0.6508444  3
    888    886    892    894     1  0.0000000  0.6508444  3
    892   1828   1819   1820     1  0.0000000  1.6038667  3
    892   1828   1819   1821     1  0.0000000  1.6038667  3
    893    892   1828   1819     1  0.0000000  1.6038667  3
    894    892   1828   1819     1  0.0000000  1.6038667  3
    895   1858   1849   1850     1  0.0000000  1.6038667  3
    895   1858   1849   1851     1  0.0000000  1.6038667  3
    896    895   1858   1849     1  0.0000000  1.6038667  3
    897    895   1858   1849     1  0.0000000  1.6038667  3
    900    901    913    914     1  0.0000000  0.6508444  3
    900    901    913    915     1  0.0000000  0.6508444  3
    900    904    916    917     1  0.0000000  0.6508444  3
    900    904    916    918     1  0.0000000  0.6508444  3
    900    907    910    911     1  0.0000000  0.6508444  3
    900    907    910    912     1  0.0000000  0.6508444  3
    901    900    904    905     1  0.0000000  0.6508444  3
    901    900    904    906     1  0.0000000  0.6508444  3
    901    900    907    908     1  0.0000000  0.6508444  3
    901    900    907    909     1  0.0000000  0.6508444  3
    901    913    925    926     1  0.0000000  0.6508444  3
    901    913    925    927     1  0.0000000  0.6508444  3
    902    901    900    904     1  0.0000000  0.6508444  3
    902    901    900    907     1  0.0000000  0.6508444  3
    902    901    900    929     1  0.0000000  0.6508444  3
    902    901    913    925     1  0.0000000  0.6508444  3
    902    901    913    914     1  0.0000000  0.6508444  3
    902    901    913    915     1  0.0000000  0.6508444  3
    903    901    900    904     1  0.0000000  0.6508444  3
    903    901    900    907     1  0.0000000  0.6508444  3
    903    901    900    929     1  0.0000000  0.6508444  3
    903    901    913    925     1  0.0000000  0.6508444  3
    903    901    913    914     1  0.0000000  0.6508444  3
    903    901    913    915     1  0.0000000  0.6508444  3
    904    900    907    908     1  0.0000000  0.6508444  3
    904    900    907    909     1  0.0000000  0.6508444  3
    904    916    922    923     1  0.0000000  0.6508444  3
    904    916    922    924     1  0.0000000  0.6508444  3
    905    904    900    907     1  0.0000000  0.6508444  3
    905    904    900    929     1  0.0000000  0.6508444  3
    905    904    916    922     1  0.0000000  0.6508444  3
    905    904    916    917     1  0.0000000  0.6508444  3
    905    904    916    918     1  0.0000000  0.6508444  3
    906    904    900    907     1  0.0000000  0.6508444  3
    906    904    900    929     1  0.0000000  0.6508444  3
    906    904    916    922     1  0.0000000  0.6508444  3
    906    904    916    917     1  0.0000000  0.6508444  3
    906    904    916    918     1  0.0000000  0.6508444  3
    907    910    919    920     1  0.0000000  0.6508444  3
    907    910    919    921     1  0.0000000  0.6508444  3
    908    907    900    929     1  0.0000000  0.6508444  3
    908    907    910    919     1  0.0000000  0.6508444  3
    908    907    910    911     1  0.0000000  0.6508444  3
    908    907    910    912     1  0.0000000  0.6508444  3
    909    907    900    929     1  0.0000000  0.6508444  3
    909    907    910    919     1  0.0000000  0.6508444  3
    909    907    910    911     1  0.0000000  0.6508444  3
    909    907    910    912     1  0.0000000  0.6508444  3
    910    907    900    929     1  0.0000000  0.6508444  3
    911    910    919    928     1  0.0000000  1.0460000  1
    911    910    919    928     1  0.0000000  0.0000000  3
    911    910    919    920     1  0.0000000  0.6508444  3
    911    910    919    921     1  0.0000000  0.6508444  3
    912    910    919    928     1  0.0000000  1.0460000  1
    912    910    919    928     1  0.0000000  0.0000000  3
    912    910    919    920     1  0.0000000  0.6508444  3
    912    910    919    921     1  0.0000000  0.6508444  3
    913    901    900    929     1  0.0000000  0.6508444  3
    914    913    925   1918     1  0.0000000  1.0460000  1
    914    913    925   1918     1  0.0000000  0.0000000  3
    914    913    925    926     1  0.0000000  0.6508444  3
    914    913    925    927     1  0.0000000  0.6508444  3
    915    913    925   1918     1  0.0000000  1.0460000  1
    915    913    925   1918     1  0.0000000  0.0000000  3
    915    913    925    926     1  0.0000000  0.6508444  3
    915    913    925    927     1  0.0000000  0.6508444  3
    916    904    900    929     1  0.0000000  0.6508444  3
    917    916    922   1888     1  0.0000000  1.0460000  1
    917    916    922   1888     1  0.0000000  0.0000000  3
    917    916    922    923     1  0.0000000  0.6508444  3
    917    916    922    924     1  0.0000000  0.6508444  3
    918    916    922   1888     1  0.0000000  1.0460000  1
    918    916    922   1888     1  0.0000000  0.0000000  3
    918    916    922    923     1  0.0000000  0.6508444  3
    918    916    922    924     1  0.0000000  0.6508444  3
    922   1888   1879   1880     1  0.0000000  1.6038667  3
    922   1888   1879   1881     1  0.0000000  1.6038667  3
    923    922   1888   1879     1  0.0000000  1.6038667  3
    924    922   1888   1879     1  0.0000000  1.6038667  3
    925   1918   1909   1910     1  0.0000000  1.6038667  3
    925   1918   1909   1911     1  0.0000000  1.6038667  3
    926    925   1918   1909     1  0.0000000  1.6038667  3
    927    925   1918   1909     1  0.0000000  1.6038667  3
    930    931    943    944     1  0.0000000  0.6508444  3
    930    931    943    945     1  0.0000000  0.6508444  3
    930    934    946    947     1  0.0000000  0.6508444  3
    930    934    946    948     1  0.0000000  0.6508444  3
    930    937    940    941     1  0.0000000  0.6508444  3
    930    937    940    942     1  0.0000000  0.6508444  3
    931    930    934    935     1  0.0000000  0.6508444  3
    931    930    934    936     1  0.0000000  0.6508444  3
    931    930    937    938     1  0.0000000  0.6508444  3
    931    930    937    939     1  0.0000000  0.6508444  3
    931    943    955    956     1  0.0000000  0.6508444  3
    931    943    955    957     1  0.0000000  0.6508444  3
    932    931    930    934     1  0.0000000  0.6508444  3
    932    931    930    937     1  0.0000000  0.6508444  3
    932    931    930    959     1  0.0000000  0.6508444  3
    932    931    943    955     1  0.0000000  0.6508444  3
    932    931    943    944     1  0.0000000  0.6508444  3
    932    931    943    945     1  0.0000000  0.6508444  3
    933    931    930    934     1  0.0000000  0.6508444  3
    933    931    930    937     1  0.0000000  0.6508444  3
    933    931    930    959     1  0.0000000  0.6508444  3
    933    931    943    955     1  0.0000000  0.6508444  3
    933    931    943    944     1  0.0000000  0.6508444  3
    933    931    943    945     1  0.0000000  0.6508444  3
    934    930    937    938     1  0.0000000  0.6508444  3
    934    930    937    939     1  0.0000000  0.6508444  3
    934    946    952    953     1  0.0000000  0.6508444  3
    934    946    952    954     1  0.0000000  0.6508444  3
    935    934    930    937     1  0.0000000  0.6508444  3
    935    934    930    959     1  0.0000000  0.6508444  3
    935    934    946    952     1  0.0000000  0.6508444  3
    935    934    946    947     1  0.0000000  0.6508444  3
    935    934    946    948     1  0.0000000  0.6508444  3
    936    934    930    937     1  0.0000000  0.6508444  3
    936    934    930    959     1  0.0000000  0.6508444  3
    936    934    946    952     1  0.0000000  0.6508444  3
    936    934    946    947     1  0.0000000  0.6508444  3
    936    934    946    948     1  0.0000000  0.6508444  3
    937    940    949    950     1  0.0000000  0.6508444  3
    937    940    949    951     1  0.0000000  0.6508444  3
    938    937    930    959     1  0.0000000  0.6508444  3
    938    937    940    949     1  0.0000000  0.6508444  3
    938    937    940    941     1  0.0000000  0.6508444  3
    938    937    940    942     1  0.0000000  0.6508444  3
    939    937    930    959     1  0.0000000  0.6508444  3
    939    937    940    949     1  0.0000000  0.6508444  3
    939    937    940    941     1  0.0000000  0.6508444  3
    939    937    940    942     1  0.0000000  0.6508444  3
    940    937    930    959     1  0.0000000  0.6508444  3
    941    940    949    958     1  0.0000000  1.0460000  1
    941    940    949    958     1  0.0000000  0.0000000  3
    941    940    949    950     1  0.0000000  0.6508444  3
    941    940    949    951     1  0.0000000  0.6508444  3
    942    940    949    958     1  0.0000000  1.0460000  1
    942    940    949    958     1  0.0000000  0.0000000  3
    942    940    949    950     1  0.0000000  0.6508444  3
    942    940    949    951     1  0.0000000  0.6508444  3
    943    931    930    959     1  0.0000000  0.6508444  3
    944    943    955   1978     1  0.0000000  1.0460000  1
    944    943    955   1978     1  0.0000000  0.0000000  3
    944    943    955    956     1  0.0000000  0.6508444  3
    944    943    955    957     1  0.0000000  0.6508444  3
    945    943    955   1978     1  0.0000000  1.0460000  1
    945    943    955   1978     1  0.0000000  0.0000000  3
    945    943    955    956     1  0.0000000  0.6508444  3
    945    943    955    957     1  0.0000000  0.6508444  3
    946    934    930    959     1  0.0000000  0.6508444  3
    947    946    952   1948     1  0.0000000  1.0460000  1
    947    946    952   1948     1  0.0000000  0.0000000  3
    947    946    952    953     1  0.0000000  0.6508444  3
    947    946    952    954     1  0.0000000  0.6508444  3
    948    946    952   1948     1  0.0000000  1.0460000  1
    948    946    952   1948     1  0.0000000  0.0000000  3
    948    946    952    953     1  0.0000000  0.6508444  3
    948    946    952    954     1  0.0000000  0.6508444  3
    952   1948   1939   1940     1  0.0000000  1.6038667  3
    952   1948   1939   1941     1  0.0000000  1.6038667  3
    953    952   1948   1939     1  0.0000000  1.6038667  3
    954    952   1948   1939     1  0.0000000  1.6038667  3
    955   1978   1969   1970     1  0.0000000  1.6038667  3
    955   1978   1969   1971     1  0.0000000  1.6038667  3
    956    955   1978   1969     1  0.0000000  1.6038667  3
    957    955   1978   1969     1  0.0000000  1.6038667  3
    960    961    973    974     1  0.0000000  0.6508444  3
    960    961    973    975     1  0.0000000  0.6508444  3
    960    964    976    977     1  0.0000000  0.6508444  3
    960    964    976    978     1  0.0000000  0.6508444  3
    960    967    970    971     1  0.0000000  0.6508444  3
    960    967    970    972     1  0.0000000  0.6508444  3
    961    960    964    965     1  0.0000000  0.6508444  3
    961    960    964    966     1  0.0000000  0.6508444  3
    961    960    967    968     1  0.0000000  0.6508444  3
    961    960    967    969     1  0.0000000  0.6508444  3
    961    973    985    986     1  0.0000000  0.6508444  3
    961    973    985    987     1  0.0000000  0.6508444  3
    962    961    960    964     1  0.0000000  0.6508444  3
    962    961    960    967     1  0.0000000  0.6508444  3
    962    961    960    989     1  0.0000000  0.6508444  3
    962    961    973    985     1  0.0000000  0.6508444  3
    962    961    973    974     1  0.0000000  0.6508444  3
    962    961    973    975     1  0.0000000  0.6508444  3
    963    961    960    964     1  0.0000000  0.6508444  3
    963    961    960    967     1  0.0000000  0.6508444  3
    963    961    960    989     1  0.0000000  0.6508444  3
    963    961    973    985     1  0.0000000  0.6508444  3
    963    961    973    974     1  0.0000000  0.6508444  3
    963    961    973    975     1  0.0000000  0.6508444  3
    964    960    967    968     1  0.0000000  0.6508444  3
    964    960    967    969     1  0.0000000  0.6508444  3
    964    976    982    983     1  0.0000000  0.6508444  3
    964    976    982    984     1  0.0000000  0.6508444  3
    965    964    960    967     1  0.0000000  0.6508444  3
    965    964    960    989     1  0.0000000  0.6508444  3
    965    964    976    982     1  0.0000000  0.6508444  3
    965    964    976    977     1  0.0000000  0.6508444  3
    965    964    976    978     1  0.0000000  0.6508444  3
    966    964    960    967     1  0.0000000  0.6508444  3
    966    964    960    989     1  0.0000000  0.6508444  3
    966    964    976    982     1  0.0000000  0.6508444  3
    966    964    976    977     1  0.0000000  0.6508444  3
    966    964    976    978     1  0.0000000  0.6508444  3
    967    970    979    980     1  0.0000000  0.6508444  3
    967    970    979    981     1  0.0000000  0.6508444  3
    968    967    960    989     1  0.0000000  0.6508444  3
    968    967    970    979     1  0.0000000  0.6508444  3
    968    967    970    971     1  0.0000000  0.6508444  3
    968    967    970    972     1  0.0000000  0.6508444  3
    969    967    960    989     1  0.0000000  0.6508444  3
    969    967    970    979     1  0.0000000  0.6508444  3
    969    967    970    971     1  0.0000000  0.6508444  3
    969    967    970    972     1  0.0000000  0.6508444  3
    970    967    960    989     1  0.0000000  0.6508444  3
    971    970    979    988     1  0.0000000  1.0460000  1
    971    970    979    988     1  0.0000000  0.0000000  3
    971    970    979    980     1  0.0000000  0.6508444  3
    971    970    979    981     1  0.0000000  0.6508444  3
    972    970    979    988     1  0.0000000  1.0460000  1
    972    970    979    988     1  0.0000000  0.0000000  3
    972    970    979    980     1  0.0000000  0.6508444  3
    972    970    979    981     1  0.0000000  0.6508444  3
    973    961    960    989     1  0.0000000  0.6508444  3
    974    973    985   2038     1  0.0000000  1.0460000  1
    974    973    985   2038     1  0.0000000  0.0000000  3
    974    973    985    986     1  0.0000000  0.6508444  3
    974    973    985    987     1  0.0000000  0.6508444  3
    975    973    985   2038     1  0.0000000  1.0460000  1
    975    973    985   2038     1  0.0000000  0.0000000  3
    975    973    985    986     1  0.0000000  0.6508444  3
    975    973    985    987     1  0.0000000  0.6508444  3
    976    964    960    989     1  0.0000000  0.6508444  3
    977    976    982   2008     1  0.0000000  1.0460000  1
    977    976    982   2008     1  0.0000000  0.0000000  3
    977    976    982    983     1  0.0000000  0.6508444  3
    977    976    982    984     1  0.0000000  0.6508444  3
    978    976    982   2008     1  0.0000000  1.0460000  1
    978    976    982   2008     1  0.0000000  0.0000000  3
    978    976    982    983     1  0.0000000  0.6508444  3
    978    976    982    984     1  0.0000000  0.6508444  3
    982   2008   1999   2000     1  0.0000000  1.6038667  3
    982   2008   1999   2001     1  0.0000000  1.6038667  3
    983    982   2008   1999     1  0.0000000  1.6038667  3
    984    982   2008   1999     1  0.0000000  1.6038667  3
    985   2038   2029   2030     1  0.0000000  1.6038667  3
    985   2038   2029   2031     1  0.0000000  1.6038667  3
    986    985   2038   2029     1  0.0000000  1.6038667  3
    987    985   2038   2029     1  0.0000000  1.6038667  3
    990    991   1003   1004     1  0.0000000  0.6508444  3
    990    991   1003   1005     1  0.0000000  0.6508444  3
    990    994   1006   1007     1  0.0000000  0.6508444  3
    990    994   1006   1008     1  0.0000000  0.6508444  3
    990    997   1000   1001     1  0.0000000  0.6508444  3
    990    997   1000   1002     1  0.0000000  0.6508444  3
    991    990    994    995     1  0.0000000  0.6508444  3
    991    990    994    996     1  0.0000000  0.6508444  3
    991    990    997    998     1  0.0000000  0.6508444  3
    991    990    997    999     1  0.0000000  0.6508444  3
    991   1003   1015   1016     1  0.0000000  0.6508444  3
    991   1003   1015   1017     1  0.0000000  0.6508444  3
    992    991    990    994     1  0.0000000  0.6508444  3
    992    991    990    997     1  0.0000000  0.6508444  3
    992    991    990   1019     1  0.0000000  0.6508444  3
    992    991   1003   1015     1  0.0000000  0.6508444  3
    992    991   1003   1004     1  0.0000000  0.6508444  3
    992    991   1003   1005     1  0.0000000  0.6508444  3
    993    991    990    994     1  0.0000000  0.6508444  3
    993    991    990    997     1  0.0000000  0.6508444  3
    993    991    990   1019     1  0.0000000  0.6508444  3
    993    991   1003   1015     1  0.0000000  0.6508444  3
    993    991   1003   1004     1  0.0000000  0.6508444  3
    993    991   1003   1005     1  0.0000000  0.6508444  3
    994    990    997    998     1  0.0000000  0.6508444  3
    994    990    997    999     1  0.0000000  0.6508444  3
    994   1006   1012   1013     1  0.0000000  0.6508444  3
    994   1006   1012   1014     1  0.0000000  0.6508444  3
    995    994    990    997     1  0.0000000  0.6508444  3
    995    994    990   1019     1  0.0000000  0.6508444  3
    995    994   1006   1012     1  0.0000000  0.6508444  3
    995    994   1006   1007     1  0.0000000  0.6508444  3
    995    994   1006   1008     1  0.0000000  0.6508444  3
    996    994    990    997     1  0.0000000  0.6508444  3
    996    994    990   1019     1  0.0000000  0.6508444  3
    996    994   1006   1012     1  0.0000000  0.6508444  3
    996    994   1006   1007     1  0.0000000  0.6508444  3
    996    994   1006   1008     1  0.0000000  0.6508444  3
    997   1000   1009   1010     1  0.0000000  0.6508444  3
    997   1000   1009   1011     1  0.0000000  0.6508444  3
    998    997    990   1019     1  0.0000000  0.6508444  3
    998    997   1000   1009     1  0.0000000  0.6508444  3
    998    997   1000   1001     1  0.0000000  0.6508444  3
    998    997   1000   1002     1  0.0000000  0.6508444  3
    999    997    990   1019     1  0.0000000  0.6508444  3
    999    997   1000   1009     1  0.0000000  0.6508444  3
    999    997   1000   1001     1  0.0000000  0.6508444  3
    999    997   1000   1002     1  0.0000000  0.6508444  3
   1000    997    990   1019     1  0.0000000  0.6508444  3
   1001   1000   1009   1018     1  0.0000000  1.0460000  1
   1001   1000   1009   1018     1  0.0000000  0.0000000  3
   1001   1000   1009   1010     1  0.0000000  0.6508444  3
   1001   1000   1009   1011     1  0.0000000  0.6508444  3
   1002   1000   1009   1018     1  0.0000000  1.0460000  1
   1002   1000   1009   1018     1  0.0000000  0.0000000  3
   1002   1000   1009   1010     1  0.0000000  0.6508444  3
   1002   1000   1009   1011     1  0.0000000  0.6508444  3
   1003    991    990   1019     1  0.0000000  0.6508444  3
   1004   1003   1015   2098     1  0.0000000  1.0460000  1
   1004   1003   1015   2098     1  0.0000000  0.0000000  3
   1004   1003   1015   1016     1  0.0000000  0.6508444  3
   1004   1003   1015   1017     1  0.0000000  0.6508444  3
   1005   1003   1015   2098     1  0.0000000  1.0460000  1
   1005   1003   1015   2098     1  0.0000000  0.0000000  3
   1005   1003   1015   1016     1  0.0000000  0.6508444  3
   1005   1003   1015   1017     1  0.0000000  0.6508444  3
   1006    994    990   1019     1  0.0000000  0.6508444  3
   1007   1006   1012   2068     1  0.0000000  1.0460000  1
   1007   1006   1012   2068     1  0.0000000  0.0000000  3
   1007   1006   1012   1013     1  0.0000000  0.6508444  3
   1007   1006   1012   1014     1  0.0000000  0.6508444  3
   1008   1006   1012   2068     1  0.0000000  1.0460000  1
   1008   1006   1012   2068     1  0.0000000  0.0000000  3
   1008   1006   1012   1013     1  0.0000000  0.6508444  3
   1008   1006   1012   1014     1  0.0000000  0.6508444  3
   1012   2068   2059   2060     1  0.0000000  1.6038667  3
   1012   2068   2059   2061     1  0.0000000  1.6038667  3
   1013   1012   2068   2059     1  0.0000000  1.6038667  3
   1014   1012   2068   2059     1  0.0000000  1.6038667  3
   1015   2098   2089   2090     1  0.0000000  1.6038667  3
   1015   2098   2089   2091     1  0.0000000  1.6038667  3
   1016   1015   2098   2089     1  0.0000000  1.6038667  3
   1017   1015   2098   2089     1  0.0000000  1.6038667  3
   1020   1021   1033   1034     1  0.0000000  0.6508444  3
   1020   1021   1033   1035     1  0.0000000  0.6508444  3
   1020   1024   1036   1037     1  0.0000000  0.6508444  3
   1020   1024   1036   1038     1  0.0000000  0.6508444  3
   1020   1027   1030   1031     1  0.0000000  0.6508444  3
   1020   1027   1030   1032     1  0.0000000  0.6508444  3
   1021   1020   1024   1025     1  0.0000000  0.6508444  3
   1021   1020   1024   1026     1  0.0000000  0.6508444  3
   1021   1020   1027   1028     1  0.0000000  0.6508444  3
   1021   1020   1027   1029     1  0.0000000  0.6508444  3
   1021   1033   1045   1046     1  0.0000000  0.6508444  3
   1021   1033   1045   1047     1  0.0000000  0.6508444  3
   1022   1021   1020   1024     1  0.0000000  0.6508444  3
   1022   1021   1020   1027     1  0.0000000  0.6508444  3
   1022   1021   1020   1049     1  0.0000000  0.6508444  3
   1022   1021   1033   1045     1  0.0000000  0.6508444  3
   1022   1021   1033   1034     1  0.0000000  0.6508444  3
   1022   1021   1033   1035     1  0.0000000  0.6508444  3
   1023   1021   1020   1024     1  0.0000000  0.6508444  3
   1023   1021   1020   1027     1  0.0000000  0.6508444  3
   1023   1021   1020   1049     1  0.0000000  0.6508444  3
   1023   1021   1033   1045     1  0.0000000  0.6508444  3
   1023   1021   1033   1034     1  0.0000000  0.6508444  3
   1023   1021   1033   1035     1  0.0000000  0.6508444  3
   1024   1020   1027   1028     1  0.0000000  0.6508444  3
   1024   1020   1027   1029     1  0.0000000  0.6508444  3
   1024   1036   1042   1043     1  0.0000000  0.6508444  3
   1024   1036   1042   1044     1  0.0000000  0.6508444  3
   1025   1024   1020   1027     1  0.0000000  0.6508444  3
   1025   1024   1020   1049     1  0.0000000  0.6508444  3
   1025   1024   1036   1042     1  0.0000000  0.6508444  3
   1025   1024   1036   1037     1  0.0000000  0.6508444  3
   1025   1024   1036   1038     1  0.0000000  0.6508444  3
   1026   1024   1020   1027     1  0.0000000  0.6508444  3
   1026   1024   1020   1049     1  0.0000000  0.6508444  3
   1026   1024   1036   1042     1  0.0000000  0.6508444  3
   1026   1024   1036   1037     1  0.0000000  0.6508444  3
   1026   1024   1036   1038     1  0.0000000  0.6508444  3
   1027   1030   1039   1040     1  0.0000000  0.6508444  3
   1027   1030   1039   1041     1  0.0000000  0.6508444  3
   1028   1027   1020   1049     1  0.0000000  0.6508444  3
   1028   1027   1030   1039     1  0.0000000  0.6508444  3
   1028   1027   1030   1031     1  0.0000000  0.6508444  3
   1028   1027   1030   1032     1  0.0000000  0.6508444  3
   1029   1027   1020   1049     1  0.0000000  0.6508444  3
   1029   1027   1030   1039     1  0.0000000  0.6508444  3
   1029   1027   1030   1031     1  0.0000000  0.6508444  3
   1029   1027   1030   1032     1  0.0000000  0.6508444  3
   1030   1027   1020   1049     1  0.0000000  0.6508444  3
   1031   1030   1039   1048     1  0.0000000  1.0460000  1
   1031   1030   1039   1048     1  0.0000000  0.0000000  3
   1031   1030   1039   1040     1  0.0000000  0.6508444  3
   1031   1030   1039   1041     1  0.0000000  0.6508444  3
   1032   1030   1039   1048     1  0.0000000  1.0460000  1
   1032   1030   1039   1048     1  0.0000000  0.0000000  3
   1032   1030   1039   1040     1  0.0000000  0.6508444  3
   1032   1030   1039   1041     1  0.0000000  0.6508444  3
   1033   1021   1020   1049     1  0.0000000  0.6508444  3
   1034   1033   1045   2158     1  0.0000000  1.0460000  1
   1034   1033   1045   2158     1  0.0000000  0.0000000  3
   1034   1033   1045   1046     1  0.0000000  0.6508444  3
   1034   1033   1045   1047     1  0.0000000  0.6508444  3
   1035   1033   1045   2158     1  0.0000000  1.0460000  1
   1035   1033   1045   2158     1  0.0000000  0.0000000  3
   1035   1033   1045   1046     1  0.0000000  0.6508444  3
   1035   1033   1045   1047     1  0.0000000  0.6508444  3
   1036   1024   1020   1049     1  0.0000000  0.6508444  3
   1037   1036   1042   2128     1  0.0000000  1.0460000  1
   1037   1036   1042   2128     1  0.0000000  0.0000000  3
   1037   1036   1042   1043     1  0.0000000  0.6508444  3
   1037   1036   1042   1044     1  0.0000000  0.6508444  3
   1038   1036   1042   2128     1  0.0000000  1.0460000  1
   1038   1036   1042   2128     1  0.0000000  0.0000000  3
   1038   1036   1042   1043     1  0.0000000  0.6508444  3
   1038   1036   1042   1044     1  0.0000000  0.6508444  3
   1042   2128   2119   2120     1  0.0000000  1.6038667  3
   1042   2128   2119   2121     1  0.0000000  1.6038667  3
   1043   1042   2128   2119     1  0.0000000  1.6038667  3
   1044   1042   2128   2119     1  0.0000000  1.6038667  3
   1045   2158   2149   2150     1  0.0000000  1.6038667  3
   1045   2158   2149   2151     1  0.0000000  1.6038667  3
   1046   1045   2158   2149     1  0.0000000  1.6038667  3
   1047   1045   2158   2149     1  0.0000000  1.6038667  3
   1050   1051   1063   1064     1  0.0000000  0.6508444  3
   1050   1051   1063   1065     1  0.0000000  0.6508444  3
   1050   1054   1066   1067     1  0.0000000  0.6508444  3
   1050   1054   1066   1068     1  0.0000000  0.6508444  3
   1050   1057   1060   1061     1  0.0000000  0.6508444  3
   1050   1057   1060   1062     1  0.0000000  0.6508444  3
   1051   1050   1054   1055     1  0.0000000  0.6508444  3
   1051   1050   1054   1056     1  0.0000000  0.6508444  3
   1051   1050   1057   1058     1  0.0000000  0.6508444  3
   1051   1050   1057   1059     1  0.0000000  0.6508444  3
   1051   1063   1075   1076     1  0.0000000  0.6508444  3
   1051   1063   1075   1077     1  0.0000000  0.6508444  3
   1052   1051   1050   1054     1  0.0000000  0.6508444  3
   1052   1051   1050   1057     1  0.0000000  0.6508444  3
   1052   1051   1050   1079     1  0.0000000  0.6508444  3
   1052   1051   1063   1075     1  0.0000000  0.6508444  3
   1052   1051   1063   1064     1  0.0000000  0.6508444  3
   1052   1051   1063   1065     1  0.0000000  0.6508444  3
   1053   1051   1050   1054     1  0.0000000  0.6508444  3
   1053   1051   1050   1057     1  0.0000000  0.6508444  3
   1053   1051   1050   1079     1  0.0000000  0.6508444  3
   1053   1051   1063   1075     1  0.0000000  0.6508444  3
   1053   1051   1063   1064     1  0.0000000  0.6508444  3
   1053   1051   1063   1065     1  0.0000000  0.6508444  3
   1054   1050   1057   1058     1  0.0000000  0.6508444  3
   1054   1050   1057   1059     1  0.0000000  0.6508444  3
   1054   1066   1072   1073     1  0.0000000  0.6508444  3
   1054   1066   1072   1074     1  0.0000000  0.6508444  3
   1055   1054   1050   1057     1  0.0000000  0.6508444  3
   1055   1054   1050   1079     1  0.0000000  0.6508444  3
   1055   1054   1066   1072     1  0.0000000  0.6508444  3
   1055   1054   1066   1067     1  0.0000000  0.6508444  3
   1055   1054   1066   1068     1  0.0000000  0.6508444  3
   1056   1054   1050   1057     1  0.0000000  0.6508444  3
   1056   1054   1050   1079     1  0.0000000  0.6508444  3
   1056   1054   1066   1072     1  0.0000000  0.6508444  3
   1056   1054   1066   1067     1  0.0000000  0.6508444  3
   1056   1054   1066   1068     1  0.0000000  0.6508444  3
   1057   1060   1069   1070     1  0.0000000  0.6508444  3
   1057   1060   1069   1071     1  0.0000000  0.6508444  3
   1058   1057   1050   1079     1  0.0000000  0.6508444  3
   1058   1057   1060   1069     1  0.0000000  0.6508444  3
   1058   1057   1060   1061     1  0.0000000  0.6508444  3
   1058   1057   1060   1062     1  0.0000000  0.6508444  3
   1059   1057   1050   1079     1  0.0000000  0.6508444  3
   1059   1057   1060   1069     1  0.0000000  0.6508444  3
   1059   1057   1060   1061     1  0.0000000  0.6508444  3
   1059   1057   1060   1062     1  0.0000000  0.6508444  3
   1060   1057   1050   1079     1  0.0000000  0.6508444  3
   1061   1060   1069   1078     1  0.0000000  1.0460000  1
   1061   1060   1069   1078     1  0.0000000  0.0000000  3
   1061   1060   1069   1070     1  0.0000000  0.6508444  3
   1061   1060   1069   1071     1  0.0000000  0.6508444  3
   1062   1060   1069   1078     1  0.0000000  1.0460000  1
   1062   1060   1069   1078     1  0.0000000  0.0000000  3
   1062   1060   1069   1070     1  0.0000000  0.6508444  3
   1062   1060   1069   1071     1  0.0000000  0.6508444  3
   1063   1051   1050   1079     1  0.0000000  0.6508444  3
   1064   1063   1075   2218     1  0.0000000  1.0460000  1
   1064   1063   1075   2218     1  0.0000000  0.0000000  3
   1064   1063   1075   1076     1  0.0000000  0.6508444  3
   1064   1063   1075   1077     1  0.0000000  0.6508444  3
   1065   1063   1075   2218     1  0.0000000  1.0460000  1
   1065   1063   1075   2218     1  0.0000000  0.0000000  3
   1065   1063   1075   1076     1  0.0000000  0.6508444  3
   1065   1063   1075   1077     1  0.0000000  0.6508444  3
   1066   1054   1050   1079     1  0.0000000  0.6508444  3
   1067   1066   1072   2188     1  0.0000000  1.0460000  1
   1067   1066   1072   2188     1  0.0000000  0.0000000  3
   1067   1066   1072   1073     1  0.0000000  0.6508444  3
   1067   1066   1072   1074     1  0.0000000  0.6508444  3
   1068   1066   1072   2188     1  0.0000000  1.0460000  1
   1068   1066   1072   2188     1  0.0000000  0.0000000  3
   1068   1066   1072   1073     1  0.0000000  0.6508444  3
   1068   1066   1072   1074     1  0.0000000  0.6508444  3
   1072   2188   2179   2180     1  0.0000000  1.6038667  3
   1072   2188   2179   2181     1  0.0000000  1.6038667  3
   1073   1072   2188   2179     1  0.0000000  1.6038667  3
   1074   1072   2188   2179     1  0.0000000  1.6038667  3
   1075   2218   2209   2210     1  0.0000000  1.6038667  3
   1075   2218   2209   2211     1  0.0000000  1.6038667  3
   1076   1075   2218   2209     1  0.0000000  1.6038667  3
   1077   1075   2218   2209     1  0.0000000  1.6038667  3
   1080   1081   1093   1094     1  0.0000000  0.6508444  3
   1080   1081   1093   1095     1  0.0000000  0.6508444  3
   1080   1084   1096   1097     1  0.0000000  0.6508444  3
   1080   1084   1096   1098     1  0.0000000  0.6508444  3
   1080   1087   1090   1091     1  0.0000000  0.6508444  3
   1080   1087   1090   1092     1  0.0000000  0.6508444  3
   1081   1080   1084   1085     1  0.0000000  0.6508444  3
   1081   1080   1084   1086     1  0.0000000  0.6508444  3
   1081   1080   1087   1088     1  0.0000000  0.6508444  3
   1081   1080   1087   1089     1  0.0000000  0.6508444  3
   1081   1093   1105   1106     1  0.0000000  0.6508444  3
   1081   1093   1105   1107     1  0.0000000  0.6508444  3
   1082   1081   1080   1084     1  0.0000000  0.6508444  3
   1082   1081   1080   1087     1  0.0000000  0.6508444  3
   1082   1081   1080   1109     1  0.0000000  0.6508444  3
   1082   1081   1093   1105     1  0.0000000  0.6508444  3
   1082   1081   1093   1094     1  0.0000000  0.6508444  3
   1082   1081   1093   1095     1  0.0000000  0.6508444  3
   1083   1081   1080   1084     1  0.0000000  0.6508444  3
   1083   1081   1080   1087     1  0.0000000  0.6508444  3
   1083   1081   1080   1109     1  0.0000000  0.6508444  3
   1083   1081   1093   1105     1  0.0000000  0.6508444  3
   1083   1081   1093   1094     1  0.0000000  0.6508444  3
   1083   1081   1093   1095     1  0.0000000  0.6508444  3
   1084   1080   1087   1088     1  0.0000000  0.6508444  3
   1084   1080   1087   1089     1  0.0000000  0.6508444  3
   1084   1096   1102   1103     1  0.0000000  0.6508444  3
   1084   1096   1102   1104     1  0.0000000  0.6508444  3
   1085   1084   1080   1087     1  0.0000000  0.6508444  3
   1085   1084   1080   1109     1  0.0000000  0.6508444  3
   1085   1084   1096   1102     1  0.0000000  0.6508444  3
   1085   1084   1096   1097     1  0.0000000  0.6508444  3
   1085   1084   1096   1098     1  0.0000000  0.6508444  3
   1086   1084   1080   1087     1  0.0000000  0.6508444  3
   1086   1084   1080   1109     1  0.0000000  0.6508444  3
   1086   1084   1096   1102     1  0.0000000  0.6508444  3
   1086   1084   1096   1097     1  0.0000000  0.6508444  3
   1086   1084   1096   1098     1  0.0000000  0.6508444  3
   1087   1090   1099   1100     1  0.0000000  0.6508444  3
   1087   1090   1099   1101     1  0.0000000  0.6508444  3
   1088   1087   1080   1109     1  0.0000000  0.6508444  3
   1088   1087   1090   1099     1  0.0000000  0.6508444  3
   1088   1087   1090   1091     1  0.0000000  0.6508444  3
   1088   1087   1090   1092     1  0.0000000  0.6508444  3
   1089   1087   1080   1109     1  0.0000000  0.6508444  3
   1089   1087   1090   1099     1  0.0000000  0.6508444  3
   1089   1087   1090   1091     1  0.0000000  0.6508444  3
   1089   1087   1090   1092     1  0.0000000  0.6508444  3
   1090   1087   1080   1109     1  0.0000000  0.6508444  3
   1091   1090   1099   1108     1  0.0000000  1.0460000  1
   1091   1090   1099   1108     1  0.0000000  0.0000000  3
   1091   1090   1099   1100     1  0.0000000  0.6508444  3
   1091   1090   1099   1101     1  0.0000000  0.6508444  3
   1092   1090   1099   1108     1  0.0000000  1.0460000  1
   1092   1090   1099   1108     1  0.0000000  0.0000000  3
   1092   1090   1099   1100     1  0.0000000  0.6508444  3
   1092   1090   1099   1101     1  0.0000000  0.6508444  3
   1093   1081   1080   1109     1  0.0000000  0.6508444  3
   1094   1093   1105   2278     1  0.0000000  1.0460000  1
   1094   1093   1105   2278     1  0.0000000  0.0000000  3
   1094   1093   1105   1106     1  0.0000000  0.6508444  3
   1094   1093   1105   1107     1  0.0000000  0.6508444  3
   1095   1093   1105   2278     1  0.0000000  1.0460000  1
   1095   1093   1105   2278     1  0.0000000  0.0000000  3
   1095   1093   1105   1106     1  0.0000000  0.6508444  3
   1095   1093   1105   1107     1  0.0000000  0.6508444  3
   1096   1084   1080   1109     1  0.0000000  0.6508444  3
   1097   1096   1102   2248     1  0.0000000  1.0460000  1
   1097   1096   1102   2248     1  0.0000000  0.0000000  3
   1097   1096   1102   1103     1  0.0000000  0.6508444  3
   1097   1096   1102   1104     1  0.0000000  0.6508444  3
   1098   1096   1102   2248     1  0.0000000  1.0460000  1
   1098   1096   1102   2248     1  0.0000000  0.0000000  3
   1098   1096   1102   1103     1  0.0000000  0.6508444  3
   1098   1096   1102   1104     1  0.0000000  0.6508444  3
   1102   2248   2239   2240     1  0.0000000  1.6038667  3
   1102   2248   2239   2241     1  0.0000000  1.6038667  3
   1103   1102   2248   2239     1  0.0000000  1.6038667  3
   1104   1102   2248   2239     1  0.0000000  1.6038667  3
   1105   2278   2269   2270     1  0.0000000  1.6038667  3
   1105   2278   2269   2271     1  0.0000000  1.6038667  3
   1106   1105   2278   2269     1  0.0000000  1.6038667  3
   1107   1105   2278   2269     1  0.0000000  1.6038667  3
   1110   1111   1123   1124     1  0.0000000  0.6508444  3
   1110   1111   1123   1125     1  0.0000000  0.6508444  3
   1110   1114   1126   1127     1  0.0000000  0.6508444  3
   1110   1114   1126   1128     1  0.0000000  0.6508444  3
   1110   1117   1120   1121     1  0.0000000  0.6508444  3
   1110   1117   1120   1122     1  0.0000000  0.6508444  3
   1111   1110   1114   1115     1  0.0000000  0.6508444  3
   1111   1110   1114   1116     1  0.0000000  0.6508444  3
   1111   1110   1117   1118     1  0.0000000  0.6508444  3
   1111   1110   1117   1119     1  0.0000000  0.6508444  3
   1111   1123   1135   1136     1  0.0000000  0.6508444  3
   1111   1123   1135   1137     1  0.0000000  0.6508444  3
   1112   1111   1110   1114     1  0.0000000  0.6508444  3
   1112   1111   1110   1117     1  0.0000000  0.6508444  3
   1112   1111   1110   1139     1  0.0000000  0.6508444  3
   1112   1111   1123   1135     1  0.0000000  0.6508444  3
   1112   1111   1123   1124     1  0.0000000  0.6508444  3
   1112   1111   1123   1125     1  0.0000000  0.6508444  3
   1113   1111   1110   1114     1  0.0000000  0.6508444  3
   1113   1111   1110   1117     1  0.0000000  0.6508444  3
   1113   1111   1110   1139     1  0.0000000  0.6508444  3
   1113   1111   1123   1135     1  0.0000000  0.6508444  3
   1113   1111   1123   1124     1  0.0000000  0.6508444  3
   1113   1111   1123   1125     1  0.0000000  0.6508444  3
   1114   1110   1117   1118     1  0.0000000  0.6508444  3
   1114   1110   1117   1119     1  0.0000000  0.6508444  3
   1114   1126   1132   1133     1  0.0000000  0.6508444  3
   1114   1126   1132   1134     1  0.0000000  0.6508444  3
   1115   1114   1110   1117     1  0.0000000  0.6508444  3
   1115   1114   1110   1139     1  0.0000000  0.6508444  3
   1115   1114   1126   1132     1  0.0000000  0.6508444  3
   1115   1114   1126   1127     1  0.0000000  0.6508444  3
   1115   1114   1126   1128     1  0.0000000  0.6508444  3
   1116   1114   1110   1117     1  0.0000000  0.6508444  3
   1116   1114   1110   1139     1  0.0000000  0.6508444  3
   1116   1114   1126   1132     1  0.0000000  0.6508444  3
   1116   1114   1126   1127     1  0.0000000  0.6508444  3
   1116   1114   1126   1128     1  0.0000000  0.6508444  3
   1117   1120   1129   1130     1  0.0000000  0.6508444  3
   1117   1120   1129   1131     1  0.0000000  0.6508444  3
   1118   1117   1110   1139     1  0.0000000  0.6508444  3
   1118   1117   1120   1129     1  0.0000000  0.6508444  3
   1118   1117   1120   1121     1  0.0000000  0.6508444  3
   1118   1117   1120   1122     1  0.0000000  0.6508444  3
   1119   1117   1110   1139     1  0.0000000  0.6508444  3
   1119   1117   1120   1129     1  0.0000000  0.6508444  3
   1119   1117   1120   1121     1  0.0000000  0.6508444  3
   1119   1117   1120   1122     1  0.0000000  0.6508444  3
   1120   1117   1110   1139     1  0.0000000  0.6508444  3
   1121   1120   1129   1138     1  0.0000000  1.0460000  1
   1121   1120   1129   1138     1  0.0000000  0.0000000  3
   1121   1120   1129   1130     1  0.0000000  0.6508444  3
   1121   1120   1129   1131     1  0.0000000  0.6508444  3
   1122   1120   1129   1138     1  0.0000000  1.0460000  1
   1122   1120   1129   1138     1  0.0000000  0.0000000  3
   1122   1120   1129   1130     1  0.0000000  0.6508444  3
   1122   1120   1129   1131     1  0.0000000  0.6508444  3
   1123   1111   1110   1139     1  0.0000000  0.6508444  3
   1124   1123   1135   2338     1  0.0000000  1.0460000  1
   1124   1123   1135   2338     1  0.0000000  0.0000000  3
   1124   1123   1135   1136     1  0.0000000  0.6508444  3
   1124   1123   1135   1137     1  0.0000000  0.6508444  3
   1125   1123   1135   2338     1  0.0000000  1.0460000  1
   1125   1123   1135   2338     1  0.0000000  0.0000000  3
   1125   1123   1135   1136     1  0.0000000  0.6508444  3
   1125   1123   1135   1137     1  0.0000000  0.6508444  3
   1126   1114   1110   1139     1  0.0000000  0.6508444  3
   1127   1126   1132   2308     1  0.0000000  1.0460000  1
   1127   1126   1132   2308     1  0.0000000  0.0000000  3
   1127   1126   1132   1133     1  0.0000000  0.6508444  3
   1127   1126   1132   1134     1  0.0000000  0.6508444  3
   1128   1126   1132   2308     1  0.0000000  1.0460000  1
   1128   1126   1132   2308     1  0.0000000  0.0000000  3
   1128   1126   1132   1133     1  0.0000000  0.6508444  3
   1128   1126   1132   1134     1  0.0000000  0.6508444  3
   1132   2308   2299   2300     1  0.0000000  1.6038667  3
   1132   2308   2299   2301     1  0.0000000  1.6038667  3
   1133   1132   2308   2299     1  0.0000000  1.6038667  3
   1134   1132   2308   2299     1  0.0000000  1.6038667  3
   1135   2338   2329   2330     1  0.0000000  1.6038667  3
   1135   2338   2329   2331     1  0.0000000  1.6038667  3
   1136   1135   2338   2329     1  0.0000000  1.6038667  3
   1137   1135   2338   2329     1  0.0000000  1.6038667  3
   1140   1141   1153   1154     1  0.0000000  0.6508444  3
   1140   1141   1153   1155     1  0.0000000  0.6508444  3
   1140   1144   1156   1157     1  0.0000000  0.6508444  3
   1140   1144   1156   1158     1  0.0000000  0.6508444  3
   1140   1147   1150   1151     1  0.0000000  0.6508444  3
   1140   1147   1150   1152     1  0.0000000  0.6508444  3
   1141   1140   1144   1145     1  0.0000000  0.6508444  3
   1141   1140   1144   1146     1  0.0000000  0.6508444  3
   1141   1140   1147   1148     1  0.0000000  0.6508444  3
   1141   1140   1147   1149     1  0.0000000  0.6508444  3
   1141   1153   1165   1166     1  0.0000000  0.6508444  3
   1141   1153   1165   1167     1  0.0000000  0.6508444  3
   1142   1141   1140   1144     1  0.0000000  0.6508444  3
   1142   1141   1140   1147     1  0.0000000  0.6508444  3
   1142   1141   1140   1169     1  0.0000000  0.6508444  3
   1142   1141   1153   1165     1  0.0000000  0.6508444  3
   1142   1141   1153   1154     1  0.0000000  0.6508444  3
   1142   1141   1153   1155     1  0.0000000  0.6508444  3
   1143   1141   1140   1144     1  0.0000000  0.6508444  3
   1143   1141   1140   1147     1  0.0000000  0.6508444  3
   1143   1141   1140   1169     1  0.0000000  0.6508444  3
   1143   1141   1153   1165     1  0.0000000  0.6508444  3
   1143   1141   1153   1154     1  0.0000000  0.6508444  3
   1143   1141   1153   1155     1  0.0000000  0.6508444  3
   1144   1140   1147   1148     1  0.0000000  0.6508444  3
   1144   1140   1147   1149     1  0.0000000  0.6508444  3
   1144   1156   1162   1163     1  0.0000000  0.6508444  3
   1144   1156   1162   1164     1  0.0000000  0.6508444  3
   1145   1144   1140   1147     1  0.0000000  0.6508444  3
   1145   1144   1140   1169     1  0.0000000  0.6508444  3
   1145   1144   1156   1162     1  0.0000000  0.6508444  3
   1145   1144   1156   1157     1  0.0000000  0.6508444  3
   1145   1144   1156   1158     1  0.0000000  0.6508444  3
   1146   1144   1140   1147     1  0.0000000  0.6508444  3
   1146   1144   1140   1169     1  0.0000000  0.6508444  3
   1146   1144   1156   1162     1  0.0000000  0.6508444  3
   1146   1144   1156   1157     1  0.0000000  0.6508444  3
   1146   1144   1156   1158     1  0.0000000  0.6508444  3
   1147   1150   1159   1160     1  0.0000000  0.6508444  3
   1147   1150   1159   1161     1  0.0000000  0.6508444  3
   1148   1147   1140   1169     1  0.0000000  0.6508444  3
   1148   1147   1150   1159     1  0.0000000  0.6508444  3
   1148   1147   1150   1151     1  0.0000000  0.6508444  3
   1148   1147   1150   1152     1  0.0000000  0.6508444  3
   1149   1147   1140   1169     1  0.0000000  0.6508444  3
   1149   1147   1150   1159     1  0.0000000  0.6508444  3
   1149   1147   1150   1151     1  0.0000000  0.6508444  3
   1149   1147   1150   1152     1  0.0000000  0.6508444  3
   1150   1147   1140   1169     1  0.0000000  0.6508444  3
   1151   1150   1159   1168     1  0.0000000  1.0460000  1
   1151   1150   1159   1168     1  0.0000000  0.0000000  3
   1151   1150   1159   1160     1  0.0000000  0.6508444  3
   1151   1150   1159   1161     1  0.0000000  0.6508444  3
   1152   1150   1159   1168     1  0.0000000  1.0460000  1
   1152   1150   1159   1168     1  0.0000000  0.0000000  3
   1152   1150   1159   1160     1  0.0000000  0.6508444  3
   1152   1150   1159   1161     1  0.0000000  0.6508444  3
   1153   1141   1140   1169     1  0.0000000  0.6508444  3
   1154   1153   1165   2398     1  0.0000000  1.0460000  1
   1154   1153   1165   2398     1  0.0000000  0.0000000  3
   1154   1153   1165   1166     1  0.0000000  0.6508444  3
   1154   1153   1165   1167     1  0.0000000  0.6508444  3
   1155   1153   1165   2398     1  0.0000000  1.0460000  1
   1155   1153   1165   2398     1  0.0000000  0.0000000  3
   1155   1153   1165   1166     1  0.0000000  0.6508444  3
   1155   1153   1165   1167     1  0.0000000  0.6508444  3
   1156   1144   1140   1169     1  0.0000000  0.6508444  3
   1157   1156   1162   2368     1  0.0000000  1.0460000  1
   1157   1156   1162   2368     1  0.0000000  0.0000000  3
   1157   1156   1162   1163     1  0.0000000  0.6508444  3
   1157   1156   1162   1164     1  0.0000000  0.6508444  3
   1158   1156   1162   2368     1  0.0000000  1.0460000  1
   1158   1156   1162   2368     1  0.0000000  0.0000000  3
   1158   1156   1162   1163     1  0.0000000  0.6508444  3
   1158   1156   1162   1164     1  0.0000000  0.6508444  3
   1162   2368   2359   2360     1  0.0000000  1.6038667  3
   1162   2368   2359   2361     1  0.0000000  1.6038667  3
   1163   1162   2368   2359     1  0.0000000  1.6038667  3
   1164   1162   2368   2359     1  0.0000000  1.6038667  3
   1165   2398   2389   2390     1  0.0000000  1.6038667  3
   1165   2398   2389   2391     1  0.0000000  1.6038667  3
   1166   1165   2398   2389     1  0.0000000  1.6038667  3
   1167   1165   2398   2389     1  0.0000000  1.6038667  3
   1170   1171   1183   1184     1  0.0000000  0.6508444  3
   1170   1171   1183   1185     1  0.0000000  0.6508444  3
   1170   1174   1186   1187     1  0.0000000  0.6508444  3
   1170   1174   1186   1188     1  0.0000000  0.6508444  3
   1170   1177   1180   1181     1  0.0000000  0.6508444  3
   1170   1177   1180   1182     1  0.0000000  0.6508444  3
   1171   1170   1174   1175     1  0.0000000  0.6508444  3
   1171   1170   1174   1176     1  0.0000000  0.6508444  3
   1171   1170   1177   1178     1  0.0000000  0.6508444  3
   1171   1170   1177   1179     1  0.0000000  0.6508444  3
   1171   1183   1195   1196     1  0.0000000  0.6508444  3
   1171   1183   1195   1197     1  0.0000000  0.6508444  3
   1172   1171   1170   1174     1  0.0000000  0.6508444  3
   1172   1171   1170   1177     1  0.0000000  0.6508444  3
   1172   1171   1170   1199     1  0.0000000  0.6508444  3
   1172   1171   1183   1195     1  0.0000000  0.6508444  3
   1172   1171   1183   1184     1  0.0000000  0.6508444  3
   1172   1171   1183   1185     1  0.0000000  0.6508444  3
   1173   1171   1170   1174     1  0.0000000  0.6508444  3
   1173   1171   1170   1177     1  0.0000000  0.6508444  3
   1173   1171   1170   1199     1  0.0000000  0.6508444  3
   1173   1171   1183   1195     1  0.0000000  0.6508444  3
   1173   1171   1183   1184     1  0.0000000  0.6508444  3
   1173   1171   1183   1185     1  0.0000000  0.6508444  3
   1174   1170   1177   1178     1  0.0000000  0.6508444  3
   1174   1170   1177   1179     1  0.0000000  0.6508444  3
   1174   1186   1192   1193     1  0.0000000  0.6508444  3
   1174   1186   1192   1194     1  0.0000000  0.6508444  3
   1175   1174   1170   1177     1  0.0000000  0.6508444  3
   1175   1174   1170   1199     1  0.0000000  0.6508444  3
   1175   1174   1186   1192     1  0.0000000  0.6508444  3
   1175   1174   1186   1187     1  0.0000000  0.6508444  3
   1175   1174   1186   1188     1  0.0000000  0.6508444  3
   1176   1174   1170   1177     1  0.0000000  0.6508444  3
   1176   1174   1170   1199     1  0.0000000  0.6508444  3
   1176   1174   1186   1192     1  0.0000000  0.6508444  3
   1176   1174   1186   1187     1  0.0000000  0.6508444  3
   1176   1174   1186   1188     1  0.0000000  0.6508444  3
   1177   1180   1189   1190     1  0.0000000  0.6508444  3
   1177   1180   1189   1191     1  0.0000000  0.6508444  3
   1178   1177   1170   1199     1  0.0000000  0.6508444  3
   1178   1177   1180   1189     1  0.0000000  0.6508444  3
   1178   1177   1180   1181     1  0.0000000  0.6508444  3
   1178   1177   1180   1182     1  0.0000000  0.6508444  3
   1179   1177   1170   1199     1  0.0000000  0.6508444  3
   1179   1177   1180   1189     1  0.0000000  0.6508444  3
   1179   1177   1180   1181     1  0.0000000  0.6508444  3
   1179   1177   1180   1182     1  0.0000000  0.6508444  3
   1180   1177   1170   1199     1  0.0000000  0.6508444  3
   1181   1180   1189   1198     1  0.0000000  1.0460000  1
   1181   1180   1189   1198     1  0.0000000  0.0000000  3
   1181   1180   1189   1190     1  0.0000000  0.6508444  3
   1181   1180   1189   1191     1  0.0000000  0.6508444  3
   1182   1180   1189   1198     1  0.0000000  1.0460000  1
   1182   1180   1189   1198     1  0.0000000  0.0000000  3
   1182   1180   1189   1190     1  0.0000000  0.6508444  3
   1182   1180   1189   1191     1  0.0000000  0.6508444  3
   1183   1171   1170   1199     1  0.0000000  0.6508444  3
   1184   1183   1195   2458     1  0.0000000  1.0460000  1
   1184   1183   1195   2458     1  0.0000000  0.0000000  3
   1184   1183   1195   1196     1  0.0000000  0.6508444  3
   1184   1183   1195   1197     1  0.0000000  0.6508444  3
   1185   1183   1195   2458     1  0.0000000  1.0460000  1
   1185   1183   1195   2458     1  0.0000000  0.0000000  3
   1185   1183   1195   1196     1  0.0000000  0.6508444  3
   1185   1183   1195   1197     1  0.0000000  0.6508444  3
   1186   1174   1170   1199     1  0.0000000  0.6508444  3
   1187   1186   1192   2428     1  0.0000000  1.0460000  1
   1187   1186   1192   2428     1  0.0000000  0.0000000  3
   1187   1186   1192   1193     1  0.0000000  0.6508444  3
   1187   1186   1192   1194     1  0.0000000  0.6508444  3
   1188   1186   1192   2428     1  0.0000000  1.0460000  1
   1188   1186   1192   2428     1  0.0000000  0.0000000  3
   1188   1186   1192   1193     1  0.0000000  0.6508444  3
   1188   1186   1192   1194     1  0.0000000  0.6508444  3
   1192   2428   2419   2420     1  0.0000000  1.6038667  3
   1192   2428   2419   2421     1  0.0000000  1.6038667  3
   1193   1192   2428   2419     1  0.0000000  1.6038667  3
   1194   1192   2428   2419     1  0.0000000  1.6038667  3
   1195   2458   2449   2450     1  0.0000000  1.6038667  3
   1195   2458   2449   2451     1  0.0000000  1.6038667  3
   1196   1195   2458   2449     1  0.0000000  1.6038667  3
   1197   1195   2458   2449     1  0.0000000  1.6038667  3
   1200   1201   1213   1214     1  0.0000000  0.6508444  3
   1200   1201   1213   1215     1  0.0000000  0.6508444  3
   1200   1204   1216   1217     1  0.0000000  0.6508444  3
   1200   1204   1216   1218     1  0.0000000  0.6508444  3
   1200   1207   1210   1211     1  0.0000000  0.6508444  3
   1200   1207   1210   1212     1  0.0000000  0.6508444  3
   1201   1200   1204   1205     1  0.0000000  0.6508444  3
   1201   1200   1204   1206     1  0.0000000  0.6508444  3
   1201   1200   1207   1208     1  0.0000000  0.6508444  3
   1201   1200   1207   1209     1  0.0000000  0.6508444  3
   1201   1213   1225   1226     1  0.0000000  0.6508444  3
   1201   1213   1225   1227     1  0.0000000  0.6508444  3
   1202   1201   1200   1204     1  0.0000000  0.6508444  3
   1202   1201   1200   1207     1  0.0000000  0.6508444  3
   1202   1201   1200   1229     1  0.0000000  0.6508444  3
   1202   1201   1213   1225     1  0.0000000  0.6508444  3
   1202   1201   1213   1214     1  0.0000000  0.6508444  3
   1202   1201   1213   1215     1  0.0000000  0.6508444  3
   1203   1201   1200   1204     1  0.0000000  0.6508444  3
   1203   1201   1200   1207     1  0.0000000  0.6508444  3
   1203   1201   1200   1229     1  0.0000000  0.6508444  3
   1203   1201   1213   1225     1  0.0000000  0.6508444  3
   1203   1201   1213   1214     1  0.0000000  0.6508444  3
   1203   1201   1213   1215     1  0.0000000  0.6508444  3
   1204   1200   1207   1208     1  0.0000000  0.6508444  3
   1204   1200   1207   1209     1  0.0000000  0.6508444  3
   1204   1216   1222   1223     1  0.0000000  0.6508444  3
   1204   1216   1222   1224     1  0.0000000  0.6508444  3
   1205   1204   1200   1207     1  0.0000000  0.6508444  3
   1205   1204   1200   1229     1  0.0000000  0.6508444  3
   1205   1204   1216   1222     1  0.0000000  0.6508444  3
   1205   1204   1216   1217     1  0.0000000  0.6508444  3
   1205   1204   1216   1218     1  0.0000000  0.6508444  3
   1206   1204   1200   1207     1  0.0000000  0.6508444  3
   1206   1204   1200   1229     1  0.0000000  0.6508444  3
   1206   1204   1216   1222     1  0.0000000  0.6508444  3
   1206   1204   1216   1217     1  0.0000000  0.6508444  3
   1206   1204   1216   1218     1  0.0000000  0.6508444  3
   1207   1210   1219   1220     1  0.0000000  0.6508444  3
   1207   1210   1219   1221     1  0.0000000  0.6508444  3
   1208   1207   1200   1229     1  0.0000000  0.6508444  3
   1208   1207   1210   1219     1  0.0000000  0.6508444  3
   1208   1207   1210   1211     1  0.0000000  0.6508444  3
   1208   1207   1210   1212     1  0.0000000  0.6508444  3
   1209   1207   1200   1229     1  0.0000000  0.6508444  3
   1209   1207   1210   1219     1  0.0000000  0.6508444  3
   1209   1207   1210   1211     1  0.0000000  0.6508444  3
   1209   1207   1210   1212     1  0.0000000  0.6508444  3
   1210   1207   1200   1229     1  0.0000000  0.6508444  3
   1211   1210   1219   1228     1  0.0000000  1.0460000  1
   1211   1210   1219   1228     1  0.0000000  0.0000000  3
   1211   1210   1219   1220     1  0.0000000  0.6508444  3
   1211   1210   1219   1221     1  0.0000000  0.6508444  3
   1212   1210   1219   1228     1  0.0000000  1.0460000  1
   1212   1210   1219   1228     1  0.0000000  0.0000000  3
   1212   1210   1219   1220     1  0.0000000  0.6508444  3
   1212   1210   1219   1221     1  0.0000000  0.6508444  3
   1213   1201   1200   1229     1  0.0000000  0.6508444  3
   1214   1213   1225   2518     1  0.0000000  1.0460000  1
   1214   1213   1225   2518     1  0.0000000  0.0000000  3
   1214   1213   1225   1226     1  0.0000000  0.6508444  3
   1214   1213   1225   1227     1  0.0000000  0.6508444  3
   1215   1213   1225   2518     1  0.0000000  1.0460000  1
   1215   1213   1225   2518     1  0.0000000  0.0000000  3
   1215   1213   1225   1226     1  0.0000000  0.6508444  3
   1215   1213   1225   1227     1  0.0000000  0.6508444  3
   1216   1204   1200   1229     1  0.0000000  0.6508444  3
   1217   1216   1222   2488     1  0.0000000  1.0460000  1
   1217   1216   1222   2488     1  0.0000000  0.0000000  3
   1217   1216   1222   1223     1  0.0000000  0.6508444  3
   1217   1216   1222   1224     1  0.0000000  0.6508444  3
   1218   1216   1222   2488     1  0.0000000  1.0460000  1
   1218   1216   1222   2488     1  0.0000000  0.0000000  3
   1218   1216   1222   1223     1  0.0000000  0.6508444  3
   1218   1216   1222   1224     1  0.0000000  0.6508444  3
   1222   2488   2479   2480     1  0.0000000  1.6038667  3
   1222   2488   2479   2481     1  0.0000000  1.6038667  3
   1223   1222   2488   2479     1  0.0000000  1.6038667  3
   1224   1222   2488   2479     1  0.0000000  1.6038667  3
   1225   2518   2509   2510     1  0.0000000  1.6038667  3
   1225   2518   2509   2511     1  0.0000000  1.6038667  3
   1226   1225   2518   2509     1  0.0000000  1.6038667  3
   1227   1225   2518   2509     1  0.0000000  1.6038667  3
   1230   1231   1243   1244     1  0.0000000  0.6508444  3
   1230   1231   1243   1245     1  0.0000000  0.6508444  3
   1230   1234   1246   1247     1  0.0000000  0.6508444  3
   1230   1234   1246   1248     1  0.0000000  0.6508444  3
   1230   1237   1240   1241     1  0.0000000  0.6508444  3
   1230   1237   1240   1242     1  0.0000000  0.6508444  3
   1231   1230   1234   1235     1  0.0000000  0.6508444  3
   1231   1230   1234   1236     1  0.0000000  0.6508444  3
   1231   1230   1237   1238     1  0.0000000  0.6508444  3
   1231   1230   1237   1239     1  0.0000000  0.6508444  3
   1231   1243   1255   1256     1  0.0000000  0.6508444  3
   1231   1243   1255   1257     1  0.0000000  0.6508444  3
   1232   1231   1230   1234     1  0.0000000  0.6508444  3
   1232   1231   1230   1237     1  0.0000000  0.6508444  3
   1232   1231   1230   1259     1  0.0000000  0.6508444  3
   1232   1231   1243   1255     1  0.0000000  0.6508444  3
   1232   1231   1243   1244     1  0.0000000  0.6508444  3
   1232   1231   1243   1245     1  0.0000000  0.6508444  3
   1233   1231   1230   1234     1  0.0000000  0.6508444  3
   1233   1231   1230   1237     1  0.0000000  0.6508444  3
   1233   1231   1230   1259     1  0.0000000  0.6508444  3
   1233   1231   1243   1255     1  0.0000000  0.6508444  3
   1233   1231   1243   1244     1  0.0000000  0.6508444  3
   1233   1231   1243   1245     1  0.0000000  0.6508444  3
   1234   1230   1237   1238     1  0.0000000  0.6508444  3
   1234   1230   1237   1239     1  0.0000000  0.6508444  3
   1234   1246   1252   1253     1  0.0000000  0.6508444  3
   1234   1246   1252   1254     1  0.0000000  0.6508444  3
   1235   1234   1230   1237     1  0.0000000  0.6508444  3
   1235   1234   1230   1259     1  0.0000000  0.6508444  3
   1235   1234   1246   1252     1  0.0000000  0.6508444  3
   1235   1234   1246   1247     1  0.0000000  0.6508444  3
   1235   1234   1246   1248     1  0.0000000  0.6508444  3
   1236   1234   1230   1237     1  0.0000000  0.6508444  3
   1236   1234   1230   1259     1  0.0000000  0.6508444  3
   1236   1234   1246   1252     1  0.0000000  0.6508444  3
   1236   1234   1246   1247     1  0.0000000  0.6508444  3
   1236   1234   1246   1248     1  0.0000000  0.6508444  3
   1237   1240   1249   1250     1  0.0000000  0.6508444  3
   1237   1240   1249   1251     1  0.0000000  0.6508444  3
   1238   1237   1230   1259     1  0.0000000  0.6508444  3
   1238   1237   1240   1249     1  0.0000000  0.6508444  3
   1238   1237   1240   1241     1  0.0000000  0.6508444  3
   1238   1237   1240   1242     1  0.0000000  0.6508444  3
   1239   1237   1230   1259     1  0.0000000  0.6508444  3
   1239   1237   1240   1249     1  0.0000000  0.6508444  3
   1239   1237   1240   1241     1  0.0000000  0.6508444  3
   1239   1237   1240   1242     1  0.0000000  0.6508444  3
   1240   1237   1230   1259     1  0.0000000  0.6508444  3
   1241   1240   1249   1258     1  0.0000000  1.0460000  1
   1241   1240   1249   1258     1  0.0000000  0.0000000  3
   1241   1240   1249   1250     1  0.0000000  0.6508444  3
   1241   1240   1249   1251     1  0.0000000  0.6508444  3
   1242   1240   1249   1258     1  0.0000000  1.0460000  1
   1242   1240   1249   1258     1  0.0000000  0.0000000  3
   1242   1240   1249   1250     1  0.0000000  0.6508444  3
   1242   1240   1249   1251     1  0.0000000  0.6508444  3
   1243   1231   1230   1259     1  0.0000000  0.6508444  3
   1244   1243   1255   2578     1  0.0000000  1.0460000  1
   1244   1243   1255   2578     1  0.0000000  0.0000000  3
   1244   1243   1255   1256     1  0.0000000  0.6508444  3
   1244   1243   1255   1257     1  0.0000000  0.6508444  3
   1245   1243   1255   2578     1  0.0000000  1.0460000  1
   1245   1243   1255   2578     1  0.0000000  0.0000000  3
   1245   1243   1255   1256     1  0.0000000  0.6508444  3
   1245   1243   1255   1257     1  0.0000000  0.6508444  3
   1246   1234   1230   1259     1  0.0000000  0.6508444  3
   1247   1246   1252   2548     1  0.0000000  1.0460000  1
   1247   1246   1252   2548     1  0.0000000  0.0000000  3
   1247   1246   1252   1253     1  0.0000000  0.6508444  3
   1247   1246   1252   1254     1  0.0000000  0.6508444  3
   1248   1246   1252   2548     1  0.0000000  1.0460000  1
   1248   1246   1252   2548     1  0.0000000  0.0000000  3
   1248   1246   1252   1253     1  0.0000000  0.6508444  3
   1248   1246   1252   1254     1  0.0000000  0.6508444  3
   1252   2548   2539   2540     1  0.0000000  1.6038667  3
   1252   2548   2539   2541     1  0.0000000  1.6038667  3
   1253   1252   2548   2539     1  0.0000000  1.6038667  3
   1254   1252   2548   2539     1  0.0000000  1.6038667  3
   1255   2578   2569   2570     1  0.0000000  1.6038667  3
   1255   2578   2569   2571     1  0.0000000  1.6038667  3
   1256   1255   2578   2569     1  0.0000000  1.6038667  3
   1257   1255   2578   2569     1  0.0000000  1.6038667  3
   1260   1261   1273   1274     1  0.0000000  0.6508444  3
   1260   1261   1273   1275     1  0.0000000  0.6508444  3
   1260   1264   1276   1277     1  0.0000000  0.6508444  3
   1260   1264   1276   1278     1  0.0000000  0.6508444  3
   1260   1267   1270   1271     1  0.0000000  0.6508444  3
   1260   1267   1270   1272     1  0.0000000  0.6508444  3
   1261   1260   1264   1265     1  0.0000000  0.6508444  3
   1261   1260   1264   1266     1  0.0000000  0.6508444  3
   1261   1260   1267   1268     1  0.0000000  0.6508444  3
   1261   1260   1267   1269     1  0.0000000  0.6508444  3
   1261   1273   1285   1286     1  0.0000000  0.6508444  3
   1261   1273   1285   1287     1  0.0000000  0.6508444  3
   1262   1261   1260   1264     1  0.0000000  0.6508444  3
   1262   1261   1260   1267     1  0.0000000  0.6508444  3
   1262   1261   1260   1289     1  0.0000000  0.6508444  3
   1262   1261   1273   1285     1  0.0000000  0.6508444  3
   1262   1261   1273   1274     1  0.0000000  0.6508444  3
   1262   1261   1273   1275     1  0.0000000  0.6508444  3
   1263   1261   1260   1264     1  0.0000000  0.6508444  3
   1263   1261   1260   1267     1  0.0000000  0.6508444  3
   1263   1261   1260   1289     1  0.0000000  0.6508444  3
   1263   1261   1273   1285     1  0.0000000  0.6508444  3
   1263   1261   1273   1274     1  0.0000000  0.6508444  3
   1263   1261   1273   1275     1  0.0000000  0.6508444  3
   1264   1260   1267   1268     1  0.0000000  0.6508444  3
   1264   1260   1267   1269     1  0.0000000  0.6508444  3
   1264   1276   1282   1283     1  0.0000000  0.6508444  3
   1264   1276   1282   1284     1  0.0000000  0.6508444  3
   1265   1264   1260   1267     1  0.0000000  0.6508444  3
   1265   1264   1260   1289     1  0.0000000  0.6508444  3
   1265   1264   1276   1282     1  0.0000000  0.6508444  3
   1265   1264   1276   1277     1  0.0000000  0.6508444  3
   1265   1264   1276   1278     1  0.0000000  0.6508444  3
   1266   1264   1260   1267     1  0.0000000  0.6508444  3
   1266   1264   1260   1289     1  0.0000000  0.6508444  3
   1266   1264   1276   1282     1  0.0000000  0.6508444  3
   1266   1264   1276   1277     1  0.0000000  0.6508444  3
   1266   1264   1276   1278     1  0.0000000  0.6508444  3
   1267   1270   1279   1280     1  0.0000000  0.6508444  3
   1267   1270   1279   1281     1  0.0000000  0.6508444  3
   1268   1267   1260   1289     1  0.0000000  0.6508444  3
   1268   1267   1270   1279     1  0.0000000  0.6508444  3
   1268   1267   1270   1271     1  0.0000000  0.6508444  3
   1268   1267   1270   1272     1  0.0000000  0.6508444  3
   1269   1267   1260   1289     1  0.0000000  0.6508444  3
   1269   1267   1270   1279     1  0.0000000  0.6508444  3
   1269   1267   1270   1271     1  0.0000000  0.6508444  3
   1269   1267   1270   1272     1  0.0000000  0.6508444  3
   1270   1267   1260   1289     1  0.0000000  0.6508444  3
   1271   1270   1279   1288     1  0.0000000  1.0460000  1
   1271   1270   1279   1288     1  0.0000000  0.0000000  3
   1271   1270   1279   1280     1  0.0000000  0.6508444  3
   1271   1270   1279   1281     1  0.0000000  0.6508444  3
   1272   1270   1279   1288     1  0.0000000  1.0460000  1
   1272   1270   1279   1288     1  0.0000000  0.0000000  3
   1272   1270   1279   1280     1  0.0000000  0.6508444  3
   1272   1270   1279   1281     1  0.0000000  0.6508444  3
   1273   1261   1260   1289     1  0.0000000  0.6508444  3
   1274   1273   1285   2638     1  0.0000000  1.0460000  1
   1274   1273   1285   2638     1  0.0000000  0.0000000  3
   1274   1273   1285   1286     1  0.0000000  0.6508444  3
   1274   1273   1285   1287     1  0.0000000  0.6508444  3
   1275   1273   1285   2638     1  0.0000000  1.0460000  1
   1275   1273   1285   2638     1  0.0000000  0.0000000  3
   1275   1273   1285   1286     1  0.0000000  0.6508444  3
   1275   1273   1285   1287     1  0.0000000  0.6508444  3
   1276   1264   1260   1289     1  0.0000000  0.6508444  3
   1277   1276   1282   2608     1  0.0000000  1.0460000  1
   1277   1276   1282   2608     1  0.0000000  0.0000000  3
   1277   1276   1282   1283     1  0.0000000  0.6508444  3
   1277   1276   1282   1284     1  0.0000000  0.6508444  3
   1278   1276   1282   2608     1  0.0000000  1.0460000  1
   1278   1276   1282   2608     1  0.0000000  0.0000000  3
   1278   1276   1282   1283     1  0.0000000  0.6508444  3
   1278   1276   1282   1284     1  0.0000000  0.6508444  3
   1282   2608   2599   2600     1  0.0000000  1.6038667  3
   1282   2608   2599   2601     1  0.0000000  1.6038667  3
   1283   1282   2608   2599     1  0.0000000  1.6038667  3
   1284   1282   2608   2599     1  0.0000000  1.6038667  3
   1285   2638   2629   2630     1  0.0000000  1.6038667  3
   1285   2638   2629   2631     1  0.0000000  1.6038667  3
   1286   1285   2638   2629     1  0.0000000  1.6038667  3
   1287   1285   2638   2629     1  0.0000000  1.6038667  3
   1290   1291   1303   1304     1  0.0000000  0.6508444  3
   1290   1291   1303   1305     1  0.0000000  0.6508444  3
   1290   1294   1306   1307     1  0.0000000  0.6508444  3
   1290   1294   1306   1308     1  0.0000000  0.6508444  3
   1290   1297   1300   1301     1  0.0000000  0.6508444  3
   1290   1297   1300   1302     1  0.0000000  0.6508444  3
   1291   1290   1294   1295     1  0.0000000  0.6508444  3
   1291   1290   1294   1296     1  0.0000000  0.6508444  3
   1291   1290   1297   1298     1  0.0000000  0.6508444  3
   1291   1290   1297   1299     1  0.0000000  0.6508444  3
   1291   1303   1315   1316     1  0.0000000  0.6508444  3
   1291   1303   1315   1317     1  0.0000000  0.6508444  3
   1292   1291   1290   1294     1  0.0000000  0.6508444  3
   1292   1291   1290   1297     1  0.0000000  0.6508444  3
   1292   1291   1290   1319     1  0.0000000  0.6508444  3
   1292   1291   1303   1315     1  0.0000000  0.6508444  3
   1292   1291   1303   1304     1  0.0000000  0.6508444  3
   1292   1291   1303   1305     1  0.0000000  0.6508444  3
   1293   1291   1290   1294     1  0.0000000  0.6508444  3
   1293   1291   1290   1297     1  0.0000000  0.6508444  3
   1293   1291   1290   1319     1  0.0000000  0.6508444  3
   1293   1291   1303   1315     1  0.0000000  0.6508444  3
   1293   1291   1303   1304     1  0.0000000  0.6508444  3
   1293   1291   1303   1305     1  0.0000000  0.6508444  3
   1294   1290   1297   1298     1  0.0000000  0.6508444  3
   1294   1290   1297   1299     1  0.0000000  0.6508444  3
   1294   1306   1312   1313     1  0.0000000  0.6508444  3
   1294   1306   1312   1314     1  0.0000000  0.6508444  3
   1295   1294   1290   1297     1  0.0000000  0.6508444  3
   1295   1294   1290   1319     1  0.0000000  0.6508444  3
   1295   1294   1306   1312     1  0.0000000  0.6508444  3
   1295   1294   1306   1307     1  0.0000000  0.6508444  3
   1295   1294   1306   1308     1  0.0000000  0.6508444  3
   1296   1294   1290   1297     1  0.0000000  0.6508444  3
   1296   1294   1290   1319     1  0.0000000  0.6508444  3
   1296   1294   1306   1312     1  0.0000000  0.6508444  3
   1296   1294   1306   1307     1  0.0000000  0.6508444  3
   1296   1294   1306   1308     1  0.0000000  0.6508444  3
   1297   1300   1309   1310     1  0.0000000  0.6508444  3
   1297   1300   1309   1311     1  0.0000000  0.6508444  3
   1298   1297   1290   1319     1  0.0000000  0.6508444  3
   1298   1297   1300   1309     1  0.0000000  0.6508444  3
   1298   1297   1300   1301     1  0.0000000  0.6508444  3
   1298   1297   1300   1302     1  0.0000000  0.6508444  3
   1299   1297   1290   1319     1  0.0000000  0.6508444  3
   1299   1297   1300   1309     1  0.0000000  0.6508444  3
   1299   1297   1300   1301     1  0.0000000  0.6508444  3
   1299   1297   1300   1302     1  0.0000000  0.6508444  3
   1300   1297   1290   1319     1  0.0000000  0.6508444  3
   1301   1300   1309   1318     1  0.0000000  1.0460000  1
   1301   1300   1309   1318     1  0.0000000  0.0000000  3
   1301   1300   1309   1310     1  0.0000000  0.6508444  3
   1301   1300   1309   1311     1  0.0000000  0.6508444  3
   1302   1300   1309   1318     1  0.0000000  1.0460000  1
   1302   1300   1309   1318     1  0.0000000  0.0000000  3
   1302   1300   1309   1310     1  0.0000000  0.6508444  3
   1302   1300   1309   1311     1  0.0000000  0.6508444  3
   1303   1291   1290   1319     1  0.0000000  0.6508444  3
   1304   1303   1315   2698     1  0.0000000  1.0460000  1
   1304   1303   1315   2698     1  0.0000000  0.0000000  3
   1304   1303   1315   1316     1  0.0000000  0.6508444  3
   1304   1303   1315   1317     1  0.0000000  0.6508444  3
   1305   1303   1315   2698     1  0.0000000  1.0460000  1
   1305   1303   1315   2698     1  0.0000000  0.0000000  3
   1305   1303   1315   1316     1  0.0000000  0.6508444  3
   1305   1303   1315   1317     1  0.0000000  0.6508444  3
   1306   1294   1290   1319     1  0.0000000  0.6508444  3
   1307   1306   1312   2668     1  0.0000000  1.0460000  1
   1307   1306   1312   2668     1  0.0000000  0.0000000  3
   1307   1306   1312   1313     1  0.0000000  0.6508444  3
   1307   1306   1312   1314     1  0.0000000  0.6508444  3
   1308   1306   1312   2668     1  0.0000000  1.0460000  1
   1308   1306   1312   2668     1  0.0000000  0.0000000  3
   1308   1306   1312   1313     1  0.0000000  0.6508444  3
   1308   1306   1312   1314     1  0.0000000  0.6508444  3
   1312   2668   2659   2660     1  0.0000000  1.6038667  3
   1312   2668   2659   2661     1  0.0000000  1.6038667  3
   1313   1312   2668   2659     1  0.0000000  1.6038667  3
   1314   1312   2668   2659     1  0.0000000  1.6038667  3
   1315   2698   2689   2690     1  0.0000000  1.6038667  3
   1315   2698   2689   2691     1  0.0000000  1.6038667  3
   1316   1315   2698   2689     1  0.0000000  1.6038667  3
   1317   1315   2698   2689     1  0.0000000  1.6038667  3
   1320   1321   1333   1334     1  0.0000000  0.6508444  3
   1320   1321   1333   1335     1  0.0000000  0.6508444  3
   1320   1324   1336   1337     1  0.0000000  0.6508444  3
   1320   1324   1336   1338     1  0.0000000  0.6508444  3
   1320   1327   1330   1331     1  0.0000000  0.6508444  3
   1320   1327   1330   1332     1  0.0000000  0.6508444  3
   1321   1320   1324   1325     1  0.0000000  0.6508444  3
   1321   1320   1324   1326     1  0.0000000  0.6508444  3
   1321   1320   1327   1328     1  0.0000000  0.6508444  3
   1321   1320   1327   1329     1  0.0000000  0.6508444  3
   1321   1333   1345   1346     1  0.0000000  0.6508444  3
   1321   1333   1345   1347     1  0.0000000  0.6508444  3
   1322   1321   1320   1324     1  0.0000000  0.6508444  3
   1322   1321   1320   1327     1  0.0000000  0.6508444  3
   1322   1321   1320   1349     1  0.0000000  0.6508444  3
   1322   1321   1333   1345     1  0.0000000  0.6508444  3
   1322   1321   1333   1334     1  0.0000000  0.6508444  3
   1322   1321   1333   1335     1  0.0000000  0.6508444  3
   1323   1321   1320   1324     1  0.0000000  0.6508444  3
   1323   1321   1320   1327     1  0.0000000  0.6508444  3
   1323   1321   1320   1349     1  0.0000000  0.6508444  3
   1323   1321   1333   1345     1  0.0000000  0.6508444  3
   1323   1321   1333   1334     1  0.0000000  0.6508444  3
   1323   1321   1333   1335     1  0.0000000  0.6508444  3
   1324   1320   1327   1328     1  0.0000000  0.6508444  3
   1324   1320   1327   1329     1  0.0000000  0.6508444  3
   1324   1336   1342   1343     1  0.0000000  0.6508444  3
   1324   1336   1342   1344     1  0.0000000  0.6508444  3
   1325   1324   1320   1327     1  0.0000000  0.6508444  3
   1325   1324   1320   1349     1  0.0000000  0.6508444  3
   1325   1324   1336   1342     1  0.0000000  0.6508444  3
   1325   1324   1336   1337     1  0.0000000  0.6508444  3
   1325   1324   1336   1338     1  0.0000000  0.6508444  3
   1326   1324   1320   1327     1  0.0000000  0.6508444  3
   1326   1324   1320   1349     1  0.0000000  0.6508444  3
   1326   1324   1336   1342     1  0.0000000  0.6508444  3
   1326   1324   1336   1337     1  0.0000000  0.6508444  3
   1326   1324   1336   1338     1  0.0000000  0.6508444  3
   1327   1330   1339   1340     1  0.0000000  0.6508444  3
   1327   1330   1339   1341     1  0.0000000  0.6508444  3
   1328   1327   1320   1349     1  0.0000000  0.6508444  3
   1328   1327   1330   1339     1  0.0000000  0.6508444  3
   1328   1327   1330   1331     1  0.0000000  0.6508444  3
   1328   1327   1330   1332     1  0.0000000  0.6508444  3
   1329   1327   1320   1349     1  0.0000000  0.6508444  3
   1329   1327   1330   1339     1  0.0000000  0.6508444  3
   1329   1327   1330   1331     1  0.0000000  0.6508444  3
   1329   1327   1330   1332     1  0.0000000  0.6508444  3
   1330   1327   1320   1349     1  0.0000000  0.6508444  3
   1331   1330   1339   1348     1  0.0000000  1.0460000  1
   1331   1330   1339   1348     1  0.0000000  0.0000000  3
   1331   1330   1339   1340     1  0.0000000  0.6508444  3
   1331   1330   1339   1341     1  0.0000000  0.6508444  3
   1332   1330   1339   1348     1  0.0000000  1.0460000  1
   1332   1330   1339   1348     1  0.0000000  0.0000000  3
   1332   1330   1339   1340     1  0.0000000  0.6508444  3
   1332   1330   1339   1341     1  0.0000000  0.6508444  3
   1333   1321   1320   1349     1  0.0000000  0.6508444  3
   1334   1333   1345   2758     1  0.0000000  1.0460000  1
   1334   1333   1345   2758     1  0.0000000  0.0000000  3
   1334   1333   1345   1346     1  0.0000000  0.6508444  3
   1334   1333   1345   1347     1  0.0000000  0.6508444  3
   1335   1333   1345   2758     1  0.0000000  1.0460000  1
   1335   1333   1345   2758     1  0.0000000  0.0000000  3
   1335   1333   1345   1346     1  0.0000000  0.6508444  3
   1335   1333   1345   1347     1  0.0000000  0.6508444  3
   1336   1324   1320   1349     1  0.0000000  0.6508444  3
   1337   1336   1342   2728     1  0.0000000  1.0460000  1
   1337   1336   1342   2728     1  0.0000000  0.0000000  3
   1337   1336   1342   1343     1  0.0000000  0.6508444  3
   1337   1336   1342   1344     1  0.0000000  0.6508444  3
   1338   1336   1342   2728     1  0.0000000  1.0460000  1
   1338   1336   1342   2728     1  0.0000000  0.0000000  3
   1338   1336   1342   1343     1  0.0000000  0.6508444  3
   1338   1336   1342   1344     1  0.0000000  0.6508444  3
   1342   2728   2719   2720     1  0.0000000  1.6038667  3
   1342   2728   2719   2721     1  0.0000000  1.6038667  3
   1343   1342   2728   2719     1  0.0000000  1.6038667  3
   1344   1342   2728   2719     1  0.0000000  1.6038667  3
   1345   2758   2749   2750     1  0.0000000  1.6038667  3
   1345   2758   2749   2751     1  0.0000000  1.6038667  3
   1346   1345   2758   2749     1  0.0000000  1.6038667  3
   1347   1345   2758   2749     1  0.0000000  1.6038667  3
   1350   1351   1363   1364     1  0.0000000  0.6508444  3
   1350   1351   1363   1365     1  0.0000000  0.6508444  3
   1350   1354   1366   1367     1  0.0000000  0.6508444  3
   1350   1354   1366   1368     1  0.0000000  0.6508444  3
   1350   1357   1360   1361     1  0.0000000  0.6508444  3
   1350   1357   1360   1362     1  0.0000000  0.6508444  3
   1351   1350   1354   1355     1  0.0000000  0.6508444  3
   1351   1350   1354   1356     1  0.0000000  0.6508444  3
   1351   1350   1357   1358     1  0.0000000  0.6508444  3
   1351   1350   1357   1359     1  0.0000000  0.6508444  3
   1351   1363   1375   1376     1  0.0000000  0.6508444  3
   1351   1363   1375   1377     1  0.0000000  0.6508444  3
   1352   1351   1350   1354     1  0.0000000  0.6508444  3
   1352   1351   1350   1357     1  0.0000000  0.6508444  3
   1352   1351   1350   1379     1  0.0000000  0.6508444  3
   1352   1351   1363   1375     1  0.0000000  0.6508444  3
   1352   1351   1363   1364     1  0.0000000  0.6508444  3
   1352   1351   1363   1365     1  0.0000000  0.6508444  3
   1353   1351   1350   1354     1  0.0000000  0.6508444  3
   1353   1351   1350   1357     1  0.0000000  0.6508444  3
   1353   1351   1350   1379     1  0.0000000  0.6508444  3
   1353   1351   1363   1375     1  0.0000000  0.6508444  3
   1353   1351   1363   1364     1  0.0000000  0.6508444  3
   1353   1351   1363   1365     1  0.0000000  0.6508444  3
   1354   1350   1357   1358     1  0.0000000  0.6508444  3
   1354   1350   1357   1359     1  0.0000000  0.6508444  3
   1354   1366   1372   1373     1  0.0000000  0.6508444  3
   1354   1366   1372   1374     1  0.0000000  0.6508444  3
   1355   1354   1350   1357     1  0.0000000  0.6508444  3
   1355   1354   1350   1379     1  0.0000000  0.6508444  3
   1355   1354   1366   1372     1  0.0000000  0.6508444  3
   1355   1354   1366   1367     1  0.0000000  0.6508444  3
   1355   1354   1366   1368     1  0.0000000  0.6508444  3
   1356   1354   1350   1357     1  0.0000000  0.6508444  3
   1356   1354   1350   1379     1  0.0000000  0.6508444  3
   1356   1354   1366   1372     1  0.0000000  0.6508444  3
   1356   1354   1366   1367     1  0.0000000  0.6508444  3
   1356   1354   1366   1368     1  0.0000000  0.6508444  3
   1357   1360   1369   1370     1  0.0000000  0.6508444  3
   1357   1360   1369   1371     1  0.0000000  0.6508444  3
   1358   1357   1350   1379     1  0.0000000  0.6508444  3
   1358   1357   1360   1369     1  0.0000000  0.6508444  3
   1358   1357   1360   1361     1  0.0000000  0.6508444  3
   1358   1357   1360   1362     1  0.0000000  0.6508444  3
   1359   1357   1350   1379     1  0.0000000  0.6508444  3
   1359   1357   1360   1369     1  0.0000000  0.6508444  3
   1359   1357   1360   1361     1  0.0000000  0.6508444  3
   1359   1357   1360   1362     1  0.0000000  0.6508444  3
   1360   1357   1350   1379     1  0.0000000  0.6508444  3
   1361   1360   1369   1378     1  0.0000000  1.0460000  1
   1361   1360   1369   1378     1  0.0000000  0.0000000  3
   1361   1360   1369   1370     1  0.0000000  0.6508444  3
   1361   1360   1369   1371     1  0.0000000  0.6508444  3
   1362   1360   1369   1378     1  0.0000000  1.0460000  1
   1362   1360   1369   1378     1  0.0000000  0.0000000  3
   1362   1360   1369   1370     1  0.0000000  0.6508444  3
   1362   1360   1369   1371     1  0.0000000  0.6508444  3
   1363   1351   1350   1379     1  0.0000000  0.6508444  3
   1364   1363   1375   2818     1  0.0000000  1.0460000  1
   1364   1363   1375   2818     1  0.0000000  0.0000000  3
   1364   1363   1375   1376     1  0.0000000  0.6508444  3
   1364   1363   1375   1377     1  0.0000000  0.6508444  3
   1365   1363   1375   2818     1  0.0000000  1.0460000  1
   1365   1363   1375   2818     1  0.0000000  0.0000000  3
   1365   1363   1375   1376     1  0.0000000  0.6508444  3
   1365   1363   1375   1377     1  0.0000000  0.6508444  3
   1366   1354   1350   1379     1  0.0000000  0.6508444  3
   1367   1366   1372   2788     1  0.0000000  1.0460000  1
   1367   1366   1372   2788     1  0.0000000  0.0000000  3
   1367   1366   1372   1373     1  0.0000000  0.6508444  3
   1367   1366   1372   1374     1  0.0000000  0.6508444  3
   1368   1366   1372   2788     1  0.0000000  1.0460000  1
   1368   1366   1372   2788     1  0.0000000  0.0000000  3
   1368   1366   1372   1373     1  0.0000000  0.6508444  3
   1368   1366   1372   1374     1  0.0000000  0.6508444  3
   1372   2788   2779   2780     1  0.0000000  1.6038667  3
   1372   2788   2779   2781     1  0.0000000  1.6038667  3
   1373   1372   2788   2779     1  0.0000000  1.6038667  3
   1374   1372   2788   2779     1  0.0000000  1.6038667  3
   1375   2818   2809   2810     1  0.0000000  1.6038667  3
   1375   2818   2809   2811     1  0.0000000  1.6038667  3
   1376   1375   2818   2809     1  0.0000000  1.6038667  3
   1377   1375   2818   2809     1  0.0000000  1.6038667  3
   1380   1381   1393   1394     1  0.0000000  0.6508444  3
   1380   1381   1393   1395     1  0.0000000  0.6508444  3
   1380   1384   1396   1397     1  0.0000000  0.6508444  3
   1380   1384   1396   1398     1  0.0000000  0.6508444  3
   1380   1387   1390   1391     1  0.0000000  0.6508444  3
   1380   1387   1390   1392     1  0.0000000  0.6508444  3
   1381   1380   1384   1385     1  0.0000000  0.6508444  3
   1381   1380   1384   1386     1  0.0000000  0.6508444  3
   1381   1380   1387   1388     1  0.0000000  0.6508444  3
   1381   1380   1387   1389     1  0.0000000  0.6508444  3
   1381   1393   1405   1406     1  0.0000000  0.6508444  3
   1381   1393   1405   1407     1  0.0000000  0.6508444  3
   1382   1381   1380   1384     1  0.0000000  0.6508444  3
   1382   1381   1380   1387     1  0.0000000  0.6508444  3
   1382   1381   1380   1409     1  0.0000000  0.6508444  3
   1382   1381   1393   1405     1  0.0000000  0.6508444  3
   1382   1381   1393   1394     1  0.0000000  0.6508444  3
   1382   1381   1393   1395     1  0.0000000  0.6508444  3
   1383   1381   1380   1384     1  0.0000000  0.6508444  3
   1383   1381   1380   1387     1  0.0000000  0.6508444  3
   1383   1381   1380   1409     1  0.0000000  0.6508444  3
   1383   1381   1393   1405     1  0.0000000  0.6508444  3
   1383   1381   1393   1394     1  0.0000000  0.6508444  3
   1383   1381   1393   1395     1  0.0000000  0.6508444  3
   1384   1380   1387   1388     1  0.0000000  0.6508444  3
   1384   1380   1387   1389     1  0.0000000  0.6508444  3
   1384   1396   1402   1403     1  0.0000000  0.6508444  3
   1384   1396   1402   1404     1  0.0000000  0.6508444  3
   1385   1384   1380   1387     1  0.0000000  0.6508444  3
   1385   1384   1380   1409     1  0.0000000  0.6508444  3
   1385   1384   1396   1402     1  0.0000000  0.6508444  3
   1385   1384   1396   1397     1  0.0000000  0.6508444  3
   1385   1384   1396   1398     1  0.0000000  0.6508444  3
   1386   1384   1380   1387     1  0.0000000  0.6508444  3
   1386   1384   1380   1409     1  0.0000000  0.6508444  3
   1386   1384   1396   1402     1  0.0000000  0.6508444  3
   1386   1384   1396   1397     1  0.0000000  0.6508444  3
   1386   1384   1396   1398     1  0.0000000  0.6508444  3
   1387   1390   1399   1400     1  0.0000000  0.6508444  3
   1387   1390   1399   1401     1  0.0000000  0.6508444  3
   1388   1387   1380   1409     1  0.0000000  0.6508444  3
   1388   1387   1390   1399     1  0.0000000  0.6508444  3
   1388   1387   1390   1391     1  0.0000000  0.6508444  3
   1388   1387   1390   1392     1  0.0000000  0.6508444  3
   1389   1387   1380   1409     1  0.0000000  0.6508444  3
   1389   1387   1390   1399     1  0.0000000  0.6508444  3
   1389   1387   1390   1391     1  0.0000000  0.6508444  3
   1389   1387   1390   1392     1  0.0000000  0.6508444  3
   1390   1387   1380   1409     1  0.0000000  0.6508444  3
   1391   1390   1399   1408     1  0.0000000  1.0460000  1
   1391   1390   1399   1408     1  0.0000000  0.0000000  3
   1391   1390   1399   1400     1  0.0000000  0.6508444  3
   1391   1390   1399   1401     1  0.0000000  0.6508444  3
   1392   1390   1399   1408     1  0.0000000  1.0460000  1
   1392   1390   1399   1408     1  0.0000000  0.0000000  3
   1392   1390   1399   1400     1  0.0000000  0.6508444  3
   1392   1390   1399   1401     1  0.0000000  0.6508444  3
   1393   1381   1380   1409     1  0.0000000  0.6508444  3
   1394   1393   1405   2878     1  0.0000000  1.0460000  1
   1394   1393   1405   2878     1  0.0000000  0.0000000  3
   1394   1393   1405   1406     1  0.0000000  0.6508444  3
   1394   1393   1405   1407     1  0.0000000  0.6508444  3
   1395   1393   1405   2878     1  0.0000000  1.0460000  1
   1395   1393   1405   2878     1  0.0000000  0.0000000  3
   1395   1393   1405   1406     1  0.0000000  0.6508444  3
   1395   1393   1405   1407     1  0.0000000  0.6508444  3
   1396   1384   1380   1409     1  0.0000000  0.6508444  3
   1397   1396   1402   2848     1  0.0000000  1.0460000  1
   1397   1396   1402   2848     1  0.0000000  0.0000000  3
   1397   1396   1402   1403     1  0.0000000  0.6508444  3
   1397   1396   1402   1404     1  0.0000000  0.6508444  3
   1398   1396   1402   2848     1  0.0000000  1.0460000  1
   1398   1396   1402   2848     1  0.0000000  0.0000000  3
   1398   1396   1402   1403     1  0.0000000  0.6508444  3
   1398   1396   1402   1404     1  0.0000000  0.6508444  3
   1402   2848   2839   2840     1  0.0000000  1.6038667  3
   1402   2848   2839   2841     1  0.0000000  1.6038667  3
   1403   1402   2848   2839     1  0.0000000  1.6038667  3
   1404   1402   2848   2839     1  0.0000000  1.6038667  3
   1405   2878   2869   2870     1  0.0000000  1.6038667  3
   1405   2878   2869   2871     1  0.0000000  1.6038667  3
   1406   1405   2878   2869     1  0.0000000  1.6038667  3
   1407   1405   2878   2869     1  0.0000000  1.6038667  3
   1410   1411   1423   1424     1  0.0000000  0.6508444  3
   1410   1411   1423   1425     1  0.0000000  0.6508444  3
   1410   1414   1426   1427     1  0.0000000  0.6508444  3
   1410   1414   1426   1428     1  0.0000000  0.6508444  3
   1410   1417   1420   1421     1  0.0000000  0.6508444  3
   1410   1417   1420   1422     1  0.0000000  0.6508444  3
   1411   1410   1414   1415     1  0.0000000  0.6508444  3
   1411   1410   1414   1416     1  0.0000000  0.6508444  3
   1411   1410   1417   1418     1  0.0000000  0.6508444  3
   1411   1410   1417   1419     1  0.0000000  0.6508444  3
   1411   1423   1435   1436     1  0.0000000  0.6508444  3
   1411   1423   1435   1437     1  0.0000000  0.6508444  3
   1412   1411   1410   1414     1  0.0000000  0.6508444  3
   1412   1411   1410   1417     1  0.0000000  0.6508444  3
   1412   1411   1410   1439     1  0.0000000  0.6508444  3
   1412   1411   1423   1435     1  0.0000000  0.6508444  3
   1412   1411   1423   1424     1  0.0000000  0.6508444  3
   1412   1411   1423   1425     1  0.0000000  0.6508444  3
   1413   1411   1410   1414     1  0.0000000  0.6508444  3
   1413   1411   1410   1417     1  0.0000000  0.6508444  3
   1413   1411   1410   1439     1  0.0000000  0.6508444  3
   1413   1411   1423   1435     1  0.0000000  0.6508444  3
   1413   1411   1423   1424     1  0.0000000  0.6508444  3
   1413   1411   1423   1425     1  0.0000000  0.6508444  3
   1414   1410   1417   1418     1  0.0000000  0.6508444  3
   1414   1410   1417   1419     1  0.0000000  0.6508444  3
   1414   1426   1432   1433     1  0.0000000  0.6508444  3
   1414   1426   1432   1434     1  0.0000000  0.6508444  3
   1415   1414   1410   1417     1  0.0000000  0.6508444  3
   1415   1414   1410   1439     1  0.0000000  0.6508444  3
   1415   1414   1426   1432     1  0.0000000  0.6508444  3
   1415   1414   1426   1427     1  0.0000000  0.6508444  3
   1415   1414   1426   1428     1  0.0000000  0.6508444  3
   1416   1414   1410   1417     1  0.0000000  0.6508444  3
   1416   1414   1410   1439     1  0.0000000  0.6508444  3
   1416   1414   1426   1432     1  0.0000000  0.6508444  3
   1416   1414   1426   1427     1  0.0000000  0.6508444  3
   1416   1414   1426   1428     1  0.0000000  0.6508444  3
   1417   1420   1429   1430     1  0.0000000  0.6508444  3
   1417   1420   1429   1431     1  0.0000000  0.6508444  3
   1418   1417   1410   1439     1  0.0000000  0.6508444  3
   1418   1417   1420   1429     1  0.0000000  0.6508444  3
   1418   1417   1420   1421     1  0.0000000  0.6508444  3
   1418   1417   1420   1422     1  0.0000000  0.6508444  3
   1419   1417   1410   1439     1  0.0000000  0.6508444  3
   1419   1417   1420   1429     1  0.0000000  0.6508444  3
   1419   1417   1420   1421     1  0.0000000  0.6508444  3
   1419   1417   1420   1422     1  0.0000000  0.6508444  3
   1420   1417   1410   1439     1  0.0000000  0.6508444  3
   1421   1420   1429   1438     1  0.0000000  1.0460000  1
   1421   1420   1429   1438     1  0.0000000  0.0000000  3
   1421   1420   1429   1430     1  0.0000000  0.6508444  3
   1421   1420   1429   1431     1  0.0000000  0.6508444  3
   1422   1420   1429   1438     1  0.0000000  1.0460000  1
   1422   1420   1429   1438     1  0.0000000  0.0000000  3
   1422   1420   1429   1430     1  0.0000000  0.6508444  3
   1422   1420   1429   1431     1  0.0000000  0.6508444  3
   1423   1411   1410   1439     1  0.0000000  0.6508444  3
   1424   1423   1435   2938     1  0.0000000  1.0460000  1
   1424   1423   1435   2938     1  0.0000000  0.0000000  3
   1424   1423   1435   1436     1  0.0000000  0.6508444  3
   1424   1423   1435   1437     1  0.0000000  0.6508444  3
   1425   1423   1435   2938     1  0.0000000  1.0460000  1
   1425   1423   1435   2938     1  0.0000000  0.0000000  3
   1425   1423   1435   1436     1  0.0000000  0.6508444  3
   1425   1423   1435   1437     1  0.0000000  0.6508444  3
   1426   1414   1410   1439     1  0.0000000  0.6508444  3
   1427   1426   1432   2908     1  0.0000000  1.0460000  1
   1427   1426   1432   2908     1  0.0000000  0.0000000  3
   1427   1426   1432   1433     1  0.0000000  0.6508444  3
   1427   1426   1432   1434     1  0.0000000  0.6508444  3
   1428   1426   1432   2908     1  0.0000000  1.0460000  1
   1428   1426   1432   2908     1  0.0000000  0.0000000  3
   1428   1426   1432   1433     1  0.0000000  0.6508444  3
   1428   1426   1432   1434     1  0.0000000  0.6508444  3
   1432   2908   2899   2900     1  0.0000000  1.6038667  3
   1432   2908   2899   2901     1  0.0000000  1.6038667  3
   1433   1432   2908   2899     1  0.0000000  1.6038667  3
   1434   1432   2908   2899     1  0.0000000  1.6038667  3
   1435   2938   2929   2930     1  0.0000000  1.6038667  3
   1435   2938   2929   2931     1  0.0000000  1.6038667  3
   1436   1435   2938   2929     1  0.0000000  1.6038667  3
   1437   1435   2938   2929     1  0.0000000  1.6038667  3
   1440   1441   1453   1454     1  0.0000000  0.6508444  3
   1440   1441   1453   1455     1  0.0000000  0.6508444  3
   1440   1444   1456   1457     1  0.0000000  0.6508444  3
   1440   1444   1456   1458     1  0.0000000  0.6508444  3
   1440   1447   1450   1451     1  0.0000000  0.6508444  3
   1440   1447   1450   1452     1  0.0000000  0.6508444  3
   1441   1440   1444   1445     1  0.0000000  0.6508444  3
   1441   1440   1444   1446     1  0.0000000  0.6508444  3
   1441   1440   1447   1448     1  0.0000000  0.6508444  3
   1441   1440   1447   1449     1  0.0000000  0.6508444  3
   1441   1453   1465   1466     1  0.0000000  0.6508444  3
   1441   1453   1465   1467     1  0.0000000  0.6508444  3
   1442   1441   1440   1444     1  0.0000000  0.6508444  3
   1442   1441   1440   1447     1  0.0000000  0.6508444  3
   1442   1441   1440   1469     1  0.0000000  0.6508444  3
   1442   1441   1453   1465     1  0.0000000  0.6508444  3
   1442   1441   1453   1454     1  0.0000000  0.6508444  3
   1442   1441   1453   1455     1  0.0000000  0.6508444  3
   1443   1441   1440   1444     1  0.0000000  0.6508444  3
   1443   1441   1440   1447     1  0.0000000  0.6508444  3
   1443   1441   1440   1469     1  0.0000000  0.6508444  3
   1443   1441   1453   1465     1  0.0000000  0.6508444  3
   1443   1441   1453   1454     1  0.0000000  0.6508444  3
   1443   1441   1453   1455     1  0.0000000  0.6508444  3
   1444   1440   1447   1448     1  0.0000000  0.6508444  3
   1444   1440   1447   1449     1  0.0000000  0.6508444  3
   1444   1456   1462   1463     1  0.0000000  0.6508444  3
   1444   1456   1462   1464     1  0.0000000  0.6508444  3
   1445   1444   1440   1447     1  0.0000000  0.6508444  3
   1445   1444   1440   1469     1  0.0000000  0.6508444  3
   1445   1444   1456   1462     1  0.0000000  0.6508444  3
   1445   1444   1456   1457     1  0.0000000  0.6508444  3
   1445   1444   1456   1458     1  0.0000000  0.6508444  3
   1446   1444   1440   1447     1  0.0000000  0.6508444  3
   1446   1444   1440   1469     1  0.0000000  0.6508444  3
   1446   1444   1456   1462     1  0.0000000  0.6508444  3
   1446   1444   1456   1457     1  0.0000000  0.6508444  3
   1446   1444   1456   1458     1  0.0000000  0.6508444  3
   1447   1450   1459   1460     1  0.0000000  0.6508444  3
   1447   1450   1459   1461     1  0.0000000  0.6508444  3
   1448   1447   1440   1469     1  0.0000000  0.6508444  3
   1448   1447   1450   1459     1  0.0000000  0.6508444  3
   1448   1447   1450   1451     1  0.0000000  0.6508444  3
   1448   1447   1450   1452     1  0.0000000  0.6508444  3
   1449   1447   1440   1469     1  0.0000000  0.6508444  3
   1449   1447   1450   1459     1  0.0000000  0.6508444  3
   1449   1447   1450   1451     1  0.0000000  0.6508444  3
   1449   1447   1450   1452     1  0.0000000  0.6508444  3
   1450   1447   1440   1469     1  0.0000000  0.6508444  3
   1451   1450   1459   1468     1  0.0000000  1.0460000  1
   1451   1450   1459   1468     1  0.0000000  0.0000000  3
   1451   1450   1459   1460     1  0.0000000  0.6508444  3
   1451   1450   1459   1461     1  0.0000000  0.6508444  3
   1452   1450   1459   1468     1  0.0000000  1.0460000  1
   1452   1450   1459   1468     1  0.0000000  0.0000000  3
   1452   1450   1459   1460     1  0.0000000  0.6508444  3
   1452   1450   1459   1461     1  0.0000000  0.6508444  3
   1453   1441   1440   1469     1  0.0000000  0.6508444  3
   1454   1453   1465   2998     1  0.0000000  1.0460000  1
   1454   1453   1465   2998     1  0.0000000  0.0000000  3
   1454   1453   1465   1466     1  0.0000000  0.6508444  3
   1454   1453   1465   1467     1  0.0000000  0.6508444  3
   1455   1453   1465   2998     1  0.0000000  1.0460000  1
   1455   1453   1465   2998     1  0.0000000  0.0000000  3
   1455   1453   1465   1466     1  0.0000000  0.6508444  3
   1455   1453   1465   1467     1  0.0000000  0.6508444  3
   1456   1444   1440   1469     1  0.0000000  0.6508444  3
   1457   1456   1462   2968     1  0.0000000  1.0460000  1
   1457   1456   1462   2968     1  0.0000000  0.0000000  3
   1457   1456   1462   1463     1  0.0000000  0.6508444  3
   1457   1456   1462   1464     1  0.0000000  0.6508444  3
   1458   1456   1462   2968     1  0.0000000  1.0460000  1
   1458   1456   1462   2968     1  0.0000000  0.0000000  3
   1458   1456   1462   1463     1  0.0000000  0.6508444  3
   1458   1456   1462   1464     1  0.0000000  0.6508444  3
   1462   2968   2959   2960     1  0.0000000  1.6038667  3
   1462   2968   2959   2961     1  0.0000000  1.6038667  3
   1463   1462   2968   2959     1  0.0000000  1.6038667  3
   1464   1462   2968   2959     1  0.0000000  1.6038667  3
   1465   2998   2989   2990     1  0.0000000  1.6038667  3
   1465   2998   2989   2991     1  0.0000000  1.6038667  3
   1466   1465   2998   2989     1  0.0000000  1.6038667  3
   1467   1465   2998   2989     1  0.0000000  1.6038667  3
   1470   1471   1483   1484     1  0.0000000  0.6508444  3
   1470   1471   1483   1485     1  0.0000000  0.6508444  3
   1470   1474   1486   1487     1  0.0000000  0.6508444  3
   1470   1474   1486   1488     1  0.0000000  0.6508444  3
   1470   1477   1480   1481     1  0.0000000  0.6508444  3
   1470   1477   1480   1482     1  0.0000000  0.6508444  3
   1471   1470   1474   1475     1  0.0000000  0.6508444  3
   1471   1470   1474   1476     1  0.0000000  0.6508444  3
   1471   1470   1477   1478     1  0.0000000  0.6508444  3
   1471   1470   1477   1479     1  0.0000000  0.6508444  3
   1471   1483   1495   1496     1  0.0000000  0.6508444  3
   1471   1483   1495   1497     1  0.0000000  0.6508444  3
   1472   1471   1470   1474     1  0.0000000  0.6508444  3
   1472   1471   1470   1477     1  0.0000000  0.6508444  3
   1472   1471   1470   1499     1  0.0000000  0.6508444  3
   1472   1471   1483   1495     1  0.0000000  0.6508444  3
   1472   1471   1483   1484     1  0.0000000  0.6508444  3
   1472   1471   1483   1485     1  0.0000000  0.6508444  3
   1473   1471   1470   1474     1  0.0000000  0.6508444  3
   1473   1471   1470   1477     1  0.0000000  0.6508444  3
   1473   1471   1470   1499     1  0.0000000  0.6508444  3
   1473   1471   1483   1495     1  0.0000000  0.6508444  3
   1473   1471   1483   1484     1  0.0000000  0.6508444  3
   1473   1471   1483   1485     1  0.0000000  0.6508444  3
   1474   1470   1477   1478     1  0.0000000  0.6508444  3
   1474   1470   1477   1479     1  0.0000000  0.6508444  3
   1474   1486   1492   1493     1  0.0000000  0.6508444  3
   1474   1486   1492   1494     1  0.0000000  0.6508444  3
   1475   1474   1470   1477     1  0.0000000  0.6508444  3
   1475   1474   1470   1499     1  0.0000000  0.6508444  3
   1475   1474   1486   1492     1  0.0000000  0.6508444  3
   1475   1474   1486   1487     1  0.0000000  0.6508444  3
   1475   1474   1486   1488     1  0.0000000  0.6508444  3
   1476   1474   1470   1477     1  0.0000000  0.6508444  3
   1476   1474   1470   1499     1  0.0000000  0.6508444  3
   1476   1474   1486   1492     1  0.0000000  0.6508444  3
   1476   1474   1486   1487     1  0.0000000  0.6508444  3
   1476   1474   1486   1488     1  0.0000000  0.6508444  3
   1477   1480   1489   1490     1  0.0000000  0.6508444  3
   1477   1480   1489   1491     1  0.0000000  0.6508444  3
   1478   1477   1470   1499     1  0.0000000  0.6508444  3
   1478   1477   1480   1489     1  0.0000000  0.6508444  3
   1478   1477   1480   1481     1  0.0000000  0.6508444  3
   1478   1477   1480   1482     1  0.0000000  0.6508444  3
   1479   1477   1470   1499     1  0.0000000  0.6508444  3
   1479   1477   1480   1489     1  0.0000000  0.6508444  3
   1479   1477   1480   1481     1  0.0000000  0.6508444  3
   1479   1477   1480   1482     1  0.0000000  0.6508444  3
   1480   1477   1470   1499     1  0.0000000  0.6508444  3
   1481   1480   1489   1498     1  0.0000000  1.0460000  1
   1481   1480   1489   1498     1  0.0000000  0.0000000  3
   1481   1480   1489   1490     1  0.0000000  0.6508444  3
   1481   1480   1489   1491     1  0.0000000  0.6508444  3
   1482   1480   1489   1498     1  0.0000000  1.0460000  1
   1482   1480   1489   1498     1  0.0000000  0.0000000  3
   1482   1480   1489   1490     1  0.0000000  0.6508444  3
   1482   1480   1489   1491     1  0.0000000  0.6508444  3
   1483   1471   1470   1499     1  0.0000000  0.6508444  3
   1484   1483   1495   3058     1  0.0000000  1.0460000  1
   1484   1483   1495   3058     1  0.0000000  0.0000000  3
   1484   1483   1495   1496     1  0.0000000  0.6508444  3
   1484   1483   1495   1497     1  0.0000000  0.6508444  3
   1485   1483   1495   3058     1  0.0000000  1.0460000  1
   1485   1483   1495   3058     1  0.0000000  0.0000000  3
   1485   1483   1495   1496     1  0.0000000  0.6508444  3
   1485   1483   1495   1497     1  0.0000000  0.6508444  3
   1486   1474   1470   1499     1  0.0000000  0.6508444  3
   1487   1486   1492   3028     1  0.0000000  1.0460000  1
   1487   1486   1492   3028     1  0.0000000  0.0000000  3
   1487   1486   1492   1493     1  0.0000000  0.6508444  3
   1487   1486   1492   1494     1  0.0000000  0.6508444  3
   1488   1486   1492   3028     1  0.0000000  1.0460000  1
   1488   1486   1492   3028     1  0.0000000  0.0000000  3
   1488   1486   1492   1493     1  0.0000000  0.6508444  3
   1488   1486   1492   1494     1  0.0000000  0.6508444  3
   1492   3028   3019   3020     1  0.0000000  1.6038667  3
   1492   3028   3019   3021     1  0.0000000  1.6038667  3
   1493   1492   3028   3019     1  0.0000000  1.6038667  3
   1494   1492   3028   3019     1  0.0000000  1.6038667  3
   1495   3058   3049   3050     1  0.0000000  1.6038667  3
   1495   3058   3049   3051     1  0.0000000  1.6038667  3
   1496   1495   3058   3049     1  0.0000000  1.6038667  3
   1497   1495   3058   3049     1  0.0000000  1.6038667  3
   1500   1501   1513   1514     1  0.0000000  0.6508444  3
   1500   1501   1513   1515     1  0.0000000  0.6508444  3
   1500   1504   1516   1517     1  0.0000000  0.6508444  3
   1500   1504   1516   1518     1  0.0000000  0.6508444  3
   1500   1507   1510   1511     1  0.0000000  0.6508444  3
   1500   1507   1510   1512     1  0.0000000  0.6508444  3
   1501   1500   1504   1505     1  0.0000000  0.6508444  3
   1501   1500   1504   1506     1  0.0000000  0.6508444  3
   1501   1500   1507   1508     1  0.0000000  0.6508444  3
   1501   1500   1507   1509     1  0.0000000  0.6508444  3
   1501   1513   1525   1526     1  0.0000000  0.6508444  3
   1501   1513   1525   1527     1  0.0000000  0.6508444  3
   1502   1501   1500   1504     1  0.0000000  0.6508444  3
   1502   1501   1500   1507     1  0.0000000  0.6508444  3
   1502   1501   1500   1529     1  0.0000000  0.6508444  3
   1502   1501   1513   1525     1  0.0000000  0.6508444  3
   1502   1501   1513   1514     1  0.0000000  0.6508444  3
   1502   1501   1513   1515     1  0.0000000  0.6508444  3
   1503   1501   1500   1504     1  0.0000000  0.6508444  3
   1503   1501   1500   1507     1  0.0000000  0.6508444  3
   1503   1501   1500   1529     1  0.0000000  0.6508444  3
   1503   1501   1513   1525     1  0.0000000  0.6508444  3
   1503   1501   1513   1514     1  0.0000000  0.6508444  3
   1503   1501   1513   1515     1  0.0000000  0.6508444  3
   1504   1500   1507   1508     1  0.0000000  0.6508444  3
   1504   1500   1507   1509     1  0.0000000  0.6508444  3
   1504   1516   1522   1523     1  0.0000000  0.6508444  3
   1504   1516   1522   1524     1  0.0000000  0.6508444  3
   1505   1504   1500   1507     1  0.0000000  0.6508444  3
   1505   1504   1500   1529     1  0.0000000  0.6508444  3
   1505   1504   1516   1522     1  0.0000000  0.6508444  3
   1505   1504   1516   1517     1  0.0000000  0.6508444  3
   1505   1504   1516   1518     1  0.0000000  0.6508444  3
   1506   1504   1500   1507     1  0.0000000  0.6508444  3
   1506   1504   1500   1529     1  0.0000000  0.6508444  3
   1506   1504   1516   1522     1  0.0000000  0.6508444  3
   1506   1504   1516   1517     1  0.0000000  0.6508444  3
   1506   1504   1516   1518     1  0.0000000  0.6508444  3
   1507   1510   1519   1520     1  0.0000000  0.6508444  3
   1507   1510   1519   1521     1  0.0000000  0.6508444  3
   1508   1507   1500   1529     1  0.0000000  0.6508444  3
   1508   1507   1510   1519     1  0.0000000  0.6508444  3
   1508   1507   1510   1511     1  0.0000000  0.6508444  3
   1508   1507   1510   1512     1  0.0000000  0.6508444  3
   1509   1507   1500   1529     1  0.0000000  0.6508444  3
   1509   1507   1510   1519     1  0.0000000  0.6508444  3
   1509   1507   1510   1511     1  0.0000000  0.6508444  3
   1509   1507   1510   1512     1  0.0000000  0.6508444  3
   1510   1507   1500   1529     1  0.0000000  0.6508444  3
   1511   1510   1519   1528     1  0.0000000  1.0460000  1
   1511   1510   1519   1528     1  0.0000000  0.0000000  3
   1511   1510   1519   1520     1  0.0000000  0.6508444  3
   1511   1510   1519   1521     1  0.0000000  0.6508444  3
   1512   1510   1519   1528     1  0.0000000  1.0460000  1
   1512   1510   1519   1528     1  0.0000000  0.0000000  3
   1512   1510   1519   1520     1  0.0000000  0.6508444  3
   1512   1510   1519   1521     1  0.0000000  0.6508444  3
   1513   1501   1500   1529     1  0.0000000  0.6508444  3
   1514   1513   1525   3118     1  0.0000000  1.0460000  1
   1514   1513   1525   3118     1  0.0000000  0.0000000  3
   1514   1513   1525   1526     1  0.0000000  0.6508444  3
   1514   1513   1525   1527     1  0.0000000  0.6508444  3
   1515   1513   1525   3118     1  0.0000000  1.0460000  1
   1515   1513   1525   3118     1  0.0000000  0.0000000  3
   1515   1513   1525   1526     1  0.0000000  0.6508444  3
   1515   1513   1525   1527     1  0.0000000  0.6508444  3
   1516   1504   1500   1529     1  0.0000000  0.6508444  3
   1517   1516   1522   3088     1  0.0000000  1.0460000  1
   1517   1516   1522   3088     1  0.0000000  0.0000000  3
   1517   1516   1522   1523     1  0.0000000  0.6508444  3
   1517   1516   1522   1524     1  0.0000000  0.6508444  3
   1518   1516   1522   3088     1  0.0000000  1.0460000  1
   1518   1516   1522   3088     1  0.0000000  0.0000000  3
   1518   1516   1522   1523     1  0.0000000  0.6508444  3
   1518   1516   1522   1524     1  0.0000000  0.6508444  3
   1522   3088   3079   3080     1  0.0000000  1.6038667  3
   1522   3088   3079   3081     1  0.0000000  1.6038667  3
   1523   1522   3088   3079     1  0.0000000  1.6038667  3
   1524   1522   3088   3079     1  0.0000000  1.6038667  3
   1525   3118   3109   3110     1  0.0000000  1.6038667  3
   1525   3118   3109   3111     1  0.0000000  1.6038667  3
   1526   1525   3118   3109     1  0.0000000  1.6038667  3
   1527   1525   3118   3109     1  0.0000000  1.6038667  3
   1530   1531   1543   1544     1  0.0000000  0.6508444  3
   1530   1531   1543   1545     1  0.0000000  0.6508444  3
   1530   1534   1546   1547     1  0.0000000  0.6508444  3
   1530   1534   1546   1548     1  0.0000000  0.6508444  3
   1530   1537   1540   1541     1  0.0000000  0.6508444  3
   1530   1537   1540   1542     1  0.0000000  0.6508444  3
   1531   1530   1534   1535     1  0.0000000  0.6508444  3
   1531   1530   1534   1536     1  0.0000000  0.6508444  3
   1531   1530   1537   1538     1  0.0000000  0.6508444  3
   1531   1530   1537   1539     1  0.0000000  0.6508444  3
   1531   1543   1555   1556     1  0.0000000  0.6508444  3
   1531   1543   1555   1557     1  0.0000000  0.6508444  3
   1532   1531   1530   1534     1  0.0000000  0.6508444  3
   1532   1531   1530   1537     1  0.0000000  0.6508444  3
   1532   1531   1530   1559     1  0.0000000  0.6508444  3
   1532   1531   1543   1555     1  0.0000000  0.6508444  3
   1532   1531   1543   1544     1  0.0000000  0.6508444  3
   1532   1531   1543   1545     1  0.0000000  0.6508444  3
   1533   1531   1530   1534     1  0.0000000  0.6508444  3
   1533   1531   1530   1537     1  0.0000000  0.6508444  3
   1533   1531   1530   1559     1  0.0000000  0.6508444  3
   1533   1531   1543   1555     1  0.0000000  0.6508444  3
   1533   1531   1543   1544     1  0.0000000  0.6508444  3
   1533   1531   1543   1545     1  0.0000000  0.6508444  3
   1534   1530   1537   1538     1  0.0000000  0.6508444  3
   1534   1530   1537   1539     1  0.0000000  0.6508444  3
   1534   1546   1552   1553     1  0.0000000  0.6508444  3
   1534   1546   1552   1554     1  0.0000000  0.6508444  3
   1535   1534   1530   1537     1  0.0000000  0.6508444  3
   1535   1534   1530   1559     1  0.0000000  0.6508444  3
   1535   1534   1546   1552     1  0.0000000  0.6508444  3
   1535   1534   1546   1547     1  0.0000000  0.6508444  3
   1535   1534   1546   1548     1  0.0000000  0.6508444  3
   1536   1534   1530   1537     1  0.0000000  0.6508444  3
   1536   1534   1530   1559     1  0.0000000  0.6508444  3
   1536   1534   1546   1552     1  0.0000000  0.6508444  3
   1536   1534   1546   1547     1  0.0000000  0.6508444  3
   1536   1534   1546   1548     1  0.0000000  0.6508444  3
   1537   1540   1549   1550     1  0.0000000  0.6508444  3
   1537   1540   1549   1551     1  0.0000000  0.6508444  3
   1538   1537   1530   1559     1  0.0000000  0.6508444  3
   1538   1537   1540   1549     1  0.0000000  0.6508444  3
   1538   1537   1540   1541     1  0.0000000  0.6508444  3
   1538   1537   1540   1542     1  0.0000000  0.6508444  3
   1539   1537   1530   1559     1  0.0000000  0.6508444  3
   1539   1537   1540   1549     1  0.0000000  0.6508444  3
   1539   1537   1540   1541     1  0.0000000  0.6508444  3
   1539   1537   1540   1542     1  0.0000000  0.6508444  3
   1540   1537   1530   1559     1  0.0000000  0.6508444  3
   1541   1540   1549   1558     1  0.0000000  1.0460000  1
   1541   1540   1549   1558     1  0.0000000  0.0000000  3
   1541   1540   1549   1550     1  0.0000000  0.6508444  3
   1541   1540   1549   1551     1  0.0000000  0.6508444  3
   1542   1540   1549   1558     1  0.0000000  1.0460000  1
   1542   1540   1549   1558     1  0.0000000  0.0000000  3
   1542   1540   1549   1550     1  0.0000000  0.6508444  3
   1542   1540   1549   1551     1  0.0000000  0.6508444  3
   1543   1531   1530   1559     1  0.0000000  0.6508444  3
   1544   1543   1555   3178     1  0.0000000  1.0460000  1
   1544   1543   1555   3178     1  0.0000000  0.0000000  3
   1544   1543   1555   1556     1  0.0000000  0.6508444  3
   1544   1543   1555   1557     1  0.0000000  0.6508444  3
   1545   1543   1555   3178     1  0.0000000  1.0460000  1
   1545   1543   1555   3178     1  0.0000000  0.0000000  3
   1545   1543   1555   1556     1  0.0000000  0.6508444  3
   1545   1543   1555   1557     1  0.0000000  0.6508444  3
   1546   1534   1530   1559     1  0.0000000  0.6508444  3
   1547   1546   1552   3148     1  0.0000000  1.0460000  1
   1547   1546   1552   3148     1  0.0000000  0.0000000  3
   1547   1546   1552   1553     1  0.0000000  0.6508444  3
   1547   1546   1552   1554     1  0.0000000  0.6508444  3
   1548   1546   1552   3148     1  0.0000000  1.0460000  1
   1548   1546   1552   3148     1  0.0000000  0.0000000  3
   1548   1546   1552   1553     1  0.0000000  0.6508444  3
   1548   1546   1552   1554     1  0.0000000  0.6508444  3
   1552   3148   3139   3140     1  0.0000000  1.6038667  3
   1552   3148   3139   3141     1  0.0000000  1.6038667  3
   1553   1552   3148   3139     1  0.0000000  1.6038667  3
   1554   1552   3148   3139     1  0.0000000  1.6038667  3
   1555   3178   3169   3170     1  0.0000000  1.6038667  3
   1555   3178   3169   3171     1  0.0000000  1.6038667  3
   1556   1555   3178   3169     1  0.0000000  1.6038667  3
   1557   1555   3178   3169     1  0.0000000  1.6038667  3
   1560   1561   1573   1574     1  0.0000000  0.6508444  3
   1560   1561   1573   1575     1  0.0000000  0.6508444  3
   1560   1564   1576   1577     1  0.0000000  0.6508444  3
   1560   1564   1576   1578     1  0.0000000  0.6508444  3
   1560   1567   1570   1571     1  0.0000000  0.6508444  3
   1560   1567   1570   1572     1  0.0000000  0.6508444  3
   1561   1560   1564   1565     1  0.0000000  0.6508444  3
   1561   1560   1564   1566     1  0.0000000  0.6508444  3
   1561   1560   1567   1568     1  0.0000000  0.6508444  3
   1561   1560   1567   1569     1  0.0000000  0.6508444  3
   1561   1573   1585   1586     1  0.0000000  0.6508444  3
   1561   1573   1585   1587     1  0.0000000  0.6508444  3
   1562   1561   1560   1564     1  0.0000000  0.6508444  3
   1562   1561   1560   1567     1  0.0000000  0.6508444  3
   1562   1561   1560   1589     1  0.0000000  0.6508444  3
   1562   1561   1573   1585     1  0.0000000  0.6508444  3
   1562   1561   1573   1574     1  0.0000000  0.6508444  3
   1562   1561   1573   1575     1  0.0000000  0.6508444  3
   1563   1561   1560   1564     1  0.0000000  0.6508444  3
   1563   1561   1560   1567     1  0.0000000  0.6508444  3
   1563   1561   1560   1589     1  0.0000000  0.6508444  3
   1563   1561   1573   1585     1  0.0000000  0.6508444  3
   1563   1561   1573   1574     1  0.0000000  0.6508444  3
   1563   1561   1573   1575     1  0.0000000  0.6508444  3
   1564   1560   1567   1568     1  0.0000000  0.6508444  3
   1564   1560   1567   1569     1  0.0000000  0.6508444  3
   1564   1576   1582   1583     1  0.0000000  0.6508444  3
   1564   1576   1582   1584     1  0.0000000  0.6508444  3
   1565   1564   1560   1567     1  0.0000000  0.6508444  3
   1565   1564   1560   1589     1  0.0000000  0.6508444  3
   1565   1564   1576   1582     1  0.0000000  0.6508444  3
   1565   1564   1576   1577     1  0.0000000  0.6508444  3
   1565   1564   1576   1578     1  0.0000000  0.6508444  3
   1566   1564   1560   1567     1  0.0000000  0.6508444  3
   1566   1564   1560   1589     1  0.0000000  0.6508444  3
   1566   1564   1576   1582     1  0.0000000  0.6508444  3
   1566   1564   1576   1577     1  0.0000000  0.6508444  3
   1566   1564   1576   1578     1  0.0000000  0.6508444  3
   1567   1570   1579   1580     1  0.0000000  0.6508444  3
   1567   1570   1579   1581     1  0.0000000  0.6508444  3
   1568   1567   1560   1589     1  0.0000000  0.6508444  3
   1568   1567   1570   1579     1  0.0000000  0.6508444  3
   1568   1567   1570   1571     1  0.0000000  0.6508444  3
   1568   1567   1570   1572     1  0.0000000  0.6508444  3
   1569   1567   1560   1589     1  0.0000000  0.6508444  3
   1569   1567   1570   1579     1  0.0000000  0.6508444  3
   1569   1567   1570   1571     1  0.0000000  0.6508444  3
   1569   1567   1570   1572     1  0.0000000  0.6508444  3
   1570   1567   1560   1589     1  0.0000000  0.6508444  3
   1571   1570   1579   1588     1  0.0000000  1.0460000  1
   1571   1570   1579   1588     1  0.0000000  0.0000000  3
   1571   1570   1579   1580     1  0.0000000  0.6508444  3
   1571   1570   1579   1581     1  0.0000000  0.6508444  3
   1572   1570   1579   1588     1  0.0000000  1.0460000  1
   1572   1570   1579   1588     1  0.0000000  0.0000000  3
   1572   1570   1579   1580     1  0.0000000  0.6508444  3
   1572   1570   1579   1581     1  0.0000000  0.6508444  3
   1573   1561   1560   1589     1  0.0000000  0.6508444  3
   1574   1573   1585   3238     1  0.0000000  1.0460000  1
   1574   1573   1585   3238     1  0.0000000  0.0000000  3
   1574   1573   1585   1586     1  0.0000000  0.6508444  3
   1574   1573   1585   1587     1  0.0000000  0.6508444  3
   1575   1573   1585   3238     1  0.0000000  1.0460000  1
   1575   1573   1585   3238     1  0.0000000  0.0000000  3
   1575   1573   1585   1586     1  0.0000000  0.6508444  3
   1575   1573   1585   1587     1  0.0000000  0.6508444  3
   1576   1564   1560   1589     1  0.0000000  0.6508444  3
   1577   1576   1582   3208     1  0.0000000  1.0460000  1
   1577   1576   1582   3208     1  0.0000000  0.0000000  3
   1577   1576   1582   1583     1  0.0000000  0.6508444  3
   1577   1576   1582   1584     1  0.0000000  0.6508444  3
   1578   1576   1582   3208     1  0.0000000  1.0460000  1
   1578   1576   1582   3208     1  0.0000000  0.0000000  3
   1578   1576   1582   1583     1  0.0000000  0.6508444  3
   1578   1576   1582   1584     1  0.0000000  0.6508444  3
   1582   3208   3199   3200     1  0.0000000  1.6038667  3
   1582   3208   3199   3201     1  0.0000000  1.6038667  3
   1583   1582   3208   3199     1  0.0000000  1.6038667  3
   1584   1582   3208   3199     1  0.0000000  1.6038667  3
   1585   3238   3229   3230     1  0.0000000  1.6038667  3
   1585   3238   3229   3231     1  0.0000000  1.6038667  3
   1586   1585   3238   3229     1  0.0000000  1.6038667  3
   1587   1585   3238   3229     1  0.0000000  1.6038667  3
   1590   1591   1603   1604     1  0.0000000  0.6508444  3
   1590   1591   1603   1605     1  0.0000000  0.6508444  3
   1590   1594   1606   1607     1  0.0000000  0.6508444  3
   1590   1594   1606   1608     1  0.0000000  0.6508444  3
   1590   1597   1600   1601     1  0.0000000  0.6508444  3
   1590   1597   1600   1602     1  0.0000000  0.6508444  3
   1591   1590   1594   1595     1  0.0000000  0.6508444  3
   1591   1590   1594   1596     1  0.0000000  0.6508444  3
   1591   1590   1597   1598     1  0.0000000  0.6508444  3
   1591   1590   1597   1599     1  0.0000000  0.6508444  3
   1591   1603   1615   1616     1  0.0000000  0.6508444  3
   1591   1603   1615   1617     1  0.0000000  0.6508444  3
   1592   1591   1590   1594     1  0.0000000  0.6508444  3
   1592   1591   1590   1597     1  0.0000000  0.6508444  3
   1592   1591   1590   1619     1  0.0000000  0.6508444  3
   1592   1591   1603   1615     1  0.0000000  0.6508444  3
   1592   1591   1603   1604     1  0.0000000  0.6508444  3
   1592   1591   1603   1605     1  0.0000000  0.6508444  3
   1593   1591   1590   1594     1  0.0000000  0.6508444  3
   1593   1591   1590   1597     1  0.0000000  0.6508444  3
   1593   1591   1590   1619     1  0.0000000  0.6508444  3
   1593   1591   1603   1615     1  0.0000000  0.6508444  3
   1593   1591   1603   1604     1  0.0000000  0.6508444  3
   1593   1591   1603   1605     1  0.0000000  0.6508444  3
   1594   1590   1597   1598     1  0.0000000  0.6508444  3
   1594   1590   1597   1599     1  0.0000000  0.6508444  3
   1594   1606   1612   1613     1  0.0000000  0.6508444  3
   1594   1606   1612   1614     1  0.0000000  0.6508444  3
   1595   1594   1590   1597     1  0.0000000  0.6508444  3
   1595   1594   1590   1619     1  0.0000000  0.6508444  3
   1595   1594   1606   1612     1  0.0000000  0.6508444  3
   1595   1594   1606   1607     1  0.0000000  0.6508444  3
   1595   1594   1606   1608     1  0.0000000  0.6508444  3
   1596   1594   1590   1597     1  0.0000000  0.6508444  3
   1596   1594   1590   1619     1  0.0000000  0.6508444  3
   1596   1594   1606   1612     1  0.0000000  0.6508444  3
   1596   1594   1606   1607     1  0.0000000  0.6508444  3
   1596   1594   1606   1608     1  0.0000000  0.6508444  3
   1597   1600   1609   1610     1  0.0000000  0.6508444  3
   1597   1600   1609   1611     1  0.0000000  0.6508444  3
   1598   1597   1590   1619     1  0.0000000  0.6508444  3
   1598   1597   1600   1609     1  0.0000000  0.6508444  3
   1598   1597   1600   1601     1  0.0000000  0.6508444  3
   1598   1597   1600   1602     1  0.0000000  0.6508444  3
   1599   1597   1590   1619     1  0.0000000  0.6508444  3
   1599   1597   1600   1609     1  0.0000000  0.6508444  3
   1599   1597   1600   1601     1  0.0000000  0.6508444  3
   1599   1597   1600   1602     1  0.0000000  0.6508444  3
   1600   1597   1590   1619     1  0.0000000  0.6508444  3
   1601   1600   1609   1618     1  0.0000000  1.0460000  1
   1601   1600   1609   1618     1  0.0000000  0.0000000  3
   1601   1600   1609   1610     1  0.0000000  0.6508444  3
   1601   1600   1609   1611     1  0.0000000  0.6508444  3
   1602   1600   1609   1618     1  0.0000000  1.0460000  1
   1602   1600   1609   1618     1  0.0000000  0.0000000  3
   1602   1600   1609   1610     1  0.0000000  0.6508444  3
   1602   1600   1609   1611     1  0.0000000  0.6508444  3
   1603   1591   1590   1619     1  0.0000000  0.6508444  3
   1604   1603   1615   3298     1  0.0000000  1.0460000  1
   1604   1603   1615   3298     1  0.0000000  0.0000000  3
   1604   1603   1615   1616     1  0.0000000  0.6508444  3
   1604   1603   1615   1617     1  0.0000000  0.6508444  3
   1605   1603   1615   3298     1  0.0000000  1.0460000  1
   1605   1603   1615   3298     1  0.0000000  0.0000000  3
   1605   1603   1615   1616     1  0.0000000  0.6508444  3
   1605   1603   1615   1617     1  0.0000000  0.6508444  3
   1606   1594   1590   1619     1  0.0000000  0.6508444  3
   1607   1606   1612   3268     1  0.0000000  1.0460000  1
   1607   1606   1612   3268     1  0.0000000  0.0000000  3
   1607   1606   1612   1613     1  0.0000000  0.6508444  3
   1607   1606   1612   1614     1  0.0000000  0.6508444  3
   1608   1606   1612   3268     1  0.0000000  1.0460000  1
   1608   1606   1612   3268     1  0.0000000  0.0000000  3
   1608   1606   1612   1613     1  0.0000000  0.6508444  3
   1608   1606   1612   1614     1  0.0000000  0.6508444  3
   1612   3268   3259   3260     1  0.0000000  1.6038667  3
   1612   3268   3259   3261     1  0.0000000  1.6038667  3
   1613   1612   3268   3259     1  0.0000000  1.6038667  3
   1614   1612   3268   3259     1  0.0000000  1.6038667  3
   1615   3298   3289   3290     1  0.0000000  1.6038667  3
   1615   3298   3289   3291     1  0.0000000  1.6038667  3
   1616   1615   3298   3289     1  0.0000000  1.6038667  3
   1617   1615   3298   3289     1  0.0000000  1.6038667  3
   1620   1621   1633   1634     1  0.0000000  0.6508444  3
   1620   1621   1633   1635     1  0.0000000  0.6508444  3
   1620   1624   1636   1637     1  0.0000000  0.6508444  3
   1620   1624   1636   1638     1  0.0000000  0.6508444  3
   1620   1627   1630   1631     1  0.0000000  0.6508444  3
   1620   1627   1630   1632     1  0.0000000  0.6508444  3
   1621   1620   1624   1625     1  0.0000000  0.6508444  3
   1621   1620   1624   1626     1  0.0000000  0.6508444  3
   1621   1620   1627   1628     1  0.0000000  0.6508444  3
   1621   1620   1627   1629     1  0.0000000  0.6508444  3
   1621   1633   1645   1646     1  0.0000000  0.6508444  3
   1621   1633   1645   1647     1  0.0000000  0.6508444  3
   1622   1621   1620   1624     1  0.0000000  0.6508444  3
   1622   1621   1620   1627     1  0.0000000  0.6508444  3
   1622   1621   1620   1649     1  0.0000000  0.6508444  3
   1622   1621   1633   1645     1  0.0000000  0.6508444  3
   1622   1621   1633   1634     1  0.0000000  0.6508444  3
   1622   1621   1633   1635     1  0.0000000  0.6508444  3
   1623   1621   1620   1624     1  0.0000000  0.6508444  3
   1623   1621   1620   1627     1  0.0000000  0.6508444  3
   1623   1621   1620   1649     1  0.0000000  0.6508444  3
   1623   1621   1633   1645     1  0.0000000  0.6508444  3
   1623   1621   1633   1634     1  0.0000000  0.6508444  3
   1623   1621   1633   1635     1  0.0000000  0.6508444  3
   1624   1620   1627   1628     1  0.0000000  0.6508444  3
   1624   1620   1627   1629     1  0.0000000  0.6508444  3
   1624   1636   1642   1643     1  0.0000000  0.6508444  3
   1624   1636   1642   1644     1  0.0000000  0.6508444  3
   1625   1624   1620   1627     1  0.0000000  0.6508444  3
   1625   1624   1620   1649     1  0.0000000  0.6508444  3
   1625   1624   1636   1642     1  0.0000000  0.6508444  3
   1625   1624   1636   1637     1  0.0000000  0.6508444  3
   1625   1624   1636   1638     1  0.0000000  0.6508444  3
   1626   1624   1620   1627     1  0.0000000  0.6508444  3
   1626   1624   1620   1649     1  0.0000000  0.6508444  3
   1626   1624   1636   1642     1  0.0000000  0.6508444  3
   1626   1624   1636   1637     1  0.0000000  0.6508444  3
   1626   1624   1636   1638     1  0.0000000  0.6508444  3
   1627   1630   1639   1640     1  0.0000000  0.6508444  3
   1627   1630   1639   1641     1  0.0000000  0.6508444  3
   1628   1627   1620   1649     1  0.0000000  0.6508444  3
   1628   1627   1630   1639     1  0.0000000  0.6508444  3
   1628   1627   1630   1631     1  0.0000000  0.6508444  3
   1628   1627   1630   1632     1  0.0000000  0.6508444  3
   1629   1627   1620   1649     1  0.0000000  0.6508444  3
   1629   1627   1630   1639     1  0.0000000  0.6508444  3
   1629   1627   1630   1631     1  0.0000000  0.6508444  3
   1629   1627   1630   1632     1  0.0000000  0.6508444  3
   1630   1627   1620   1649     1  0.0000000  0.6508444  3
   1631   1630   1639   1648     1  0.0000000  1.0460000  1
   1631   1630   1639   1648     1  0.0000000  0.0000000  3
   1631   1630   1639   1640     1  0.0000000  0.6508444  3
   1631   1630   1639   1641     1  0.0000000  0.6508444  3
   1632   1630   1639   1648     1  0.0000000  1.0460000  1
   1632   1630   1639   1648     1  0.0000000  0.0000000  3
   1632   1630   1639   1640     1  0.0000000  0.6508444  3
   1632   1630   1639   1641     1  0.0000000  0.6508444  3
   1633   1621   1620   1649     1  0.0000000  0.6508444  3
   1634   1633   1645   3358     1  0.0000000  1.0460000  1
   1634   1633   1645   3358     1  0.0000000  0.0000000  3
   1634   1633   1645   1646     1  0.0000000  0.6508444  3
   1634   1633   1645   1647     1  0.0000000  0.6508444  3
   1635   1633   1645   3358     1  0.0000000  1.0460000  1
   1635   1633   1645   3358     1  0.0000000  0.0000000  3
   1635   1633   1645   1646     1  0.0000000  0.6508444  3
   1635   1633   1645   1647     1  0.0000000  0.6508444  3
   1636   1624   1620   1649     1  0.0000000  0.6508444  3
   1637   1636   1642   3328     1  0.0000000  1.0460000  1
   1637   1636   1642   3328     1  0.0000000  0.0000000  3
   1637   1636   1642   1643     1  0.0000000  0.6508444  3
   1637   1636   1642   1644     1  0.0000000  0.6508444  3
   1638   1636   1642   3328     1  0.0000000  1.0460000  1
   1638   1636   1642   3328     1  0.0000000  0.0000000  3
   1638   1636   1642   1643     1  0.0000000  0.6508444  3
   1638   1636   1642   1644     1  0.0000000  0.6508444  3
   1642   3328   3319   3320     1  0.0000000  1.6038667  3
   1642   3328   3319   3321     1  0.0000000  1.6038667  3
   1643   1642   3328   3319     1  0.0000000  1.6038667  3
   1644   1642   3328   3319     1  0.0000000  1.6038667  3
   1645   3358   3349   3350     1  0.0000000  1.6038667  3
   1645   3358   3349   3351     1  0.0000000  1.6038667  3
   1646   1645   3358   3349     1  0.0000000  1.6038667  3
   1647   1645   3358   3349     1  0.0000000  1.6038667  3
   1650   1651   1663   1664     1  0.0000000  0.6508444  3
   1650   1651   1663   1665     1  0.0000000  0.6508444  3
   1650   1654   1666   1667     1  0.0000000  0.6508444  3
   1650   1654   1666   1668     1  0.0000000  0.6508444  3
   1650   1657   1660   1661     1  0.0000000  0.6508444  3
   1650   1657   1660   1662     1  0.0000000  0.6508444  3
   1651   1650   1654   1655     1  0.0000000  0.6508444  3
   1651   1650   1654   1656     1  0.0000000  0.6508444  3
   1651   1650   1657   1658     1  0.0000000  0.6508444  3
   1651   1650   1657   1659     1  0.0000000  0.6508444  3
   1651   1663   1675   1676     1  0.0000000  0.6508444  3
   1651   1663   1675   1677     1  0.0000000  0.6508444  3
   1652   1651   1650   1654     1  0.0000000  0.6508444  3
   1652   1651   1650   1657     1  0.0000000  0.6508444  3
   1652   1651   1650   1679     1  0.0000000  0.6508444  3
   1652   1651   1663   1675     1  0.0000000  0.6508444  3
   1652   1651   1663   1664     1  0.0000000  0.6508444  3
   1652   1651   1663   1665     1  0.0000000  0.6508444  3
   1653   1651   1650   1654     1  0.0000000  0.6508444  3
   1653   1651   1650   1657     1  0.0000000  0.6508444  3
   1653   1651   1650   1679     1  0.0000000  0.6508444  3
   1653   1651   1663   1675     1  0.0000000  0.6508444  3
   1653   1651   1663   1664     1  0.0000000  0.6508444  3
   1653   1651   1663   1665     1  0.0000000  0.6508444  3
   1654   1650   1657   1658     1  0.0000000  0.6508444  3
   1654   1650   1657   1659     1  0.0000000  0.6508444  3
   1654   1666   1672   1673     1  0.0000000  0.6508444  3
   1654   1666   1672   1674     1  0.0000000  0.6508444  3
   1655   1654   1650   1657     1  0.0000000  0.6508444  3
   1655   1654   1650   1679     1  0.0000000  0.6508444  3
   1655   1654   1666   1672     1  0.0000000  0.6508444  3
   1655   1654   1666   1667     1  0.0000000  0.6508444  3
   1655   1654   1666   1668     1  0.0000000  0.6508444  3
   1656   1654   1650   1657     1  0.0000000  0.6508444  3
   1656   1654   1650   1679     1  0.0000000  0.6508444  3
   1656   1654   1666   1672     1  0.0000000  0.6508444  3
   1656   1654   1666   1667     1  0.0000000  0.6508444  3
   1656   1654   1666   1668     1  0.0000000  0.6508444  3
   1657   1660   1669   1670     1  0.0000000  0.6508444  3
   1657   1660   1669   1671     1  0.0000000  0.6508444  3
   1658   1657   1650   1679     1  0.0000000  0.6508444  3
   1658   1657   1660   1669     1  0.0000000  0.6508444  3
   1658   1657   1660   1661     1  0.0000000  0.6508444  3
   1658   1657   1660   1662     1  0.0000000  0.6508444  3
   1659   1657   1650   1679     1  0.0000000  0.6508444  3
   1659   1657   1660   1669     1  0.0000000  0.6508444  3
   1659   1657   1660   1661     1  0.0000000  0.6508444  3
   1659   1657   1660   1662     1  0.0000000  0.6508444  3
   1660   1657   1650   1679     1  0.0000000  0.6508444  3
   1661   1660   1669   1678     1  0.0000000  1.0460000  1
   1661   1660   1669   1678     1  0.0000000  0.0000000  3
   1661   1660   1669   1670     1  0.0000000  0.6508444  3
   1661   1660   1669   1671     1  0.0000000  0.6508444  3
   1662   1660   1669   1678     1  0.0000000  1.0460000  1
   1662   1660   1669   1678     1  0.0000000  0.0000000  3
   1662   1660   1669   1670     1  0.0000000  0.6508444  3
   1662   1660   1669   1671     1  0.0000000  0.6508444  3
   1663   1651   1650   1679     1  0.0000000  0.6508444  3
   1664   1663   1675   3418     1  0.0000000  1.0460000  1
   1664   1663   1675   3418     1  0.0000000  0.0000000  3
   1664   1663   1675   1676     1  0.0000000  0.6508444  3
   1664   1663   1675   1677     1  0.0000000  0.6508444  3
   1665   1663   1675   3418     1  0.0000000  1.0460000  1
   1665   1663   1675   3418     1  0.0000000  0.0000000  3
   1665   1663   1675   1676     1  0.0000000  0.6508444  3
   1665   1663   1675   1677     1  0.0000000  0.6508444  3
   1666   1654   1650   1679     1  0.0000000  0.6508444  3
   1667   1666   1672   3388     1  0.0000000  1.0460000  1
   1667   1666   1672   3388     1  0.0000000  0.0000000  3
   1667   1666   1672   1673     1  0.0000000  0.6508444  3
   1667   1666   1672   1674     1  0.0000000  0.6508444  3
   1668   1666   1672   3388     1  0.0000000  1.0460000  1
   1668   1666   1672   3388     1  0.0000000  0.0000000  3
   1668   1666   1672   1673     1  0.0000000  0.6508444  3
   1668   1666   1672   1674     1  0.0000000  0.6508444  3
   1672   3388   3379   3380     1  0.0000000  1.6038667  3
   1672   3388   3379   3381     1  0.0000000  1.6038667  3
   1673   1672   3388   3379     1  0.0000000  1.6038667  3
   1674   1672   3388   3379     1  0.0000000  1.6038667  3
   1675   3418   3409   3410     1  0.0000000  1.6038667  3
   1675   3418   3409   3411     1  0.0000000  1.6038667  3
   1676   1675   3418   3409     1  0.0000000  1.6038667  3
   1677   1675   3418   3409     1  0.0000000  1.6038667  3
   1680   1681   1693   1694     1  0.0000000  0.6508444  3
   1680   1681   1693   1695     1  0.0000000  0.6508444  3
   1680   1684   1696   1697     1  0.0000000  0.6508444  3
   1680   1684   1696   1698     1  0.0000000  0.6508444  3
   1680   1687   1690   1691     1  0.0000000  0.6508444  3
   1680   1687   1690   1692     1  0.0000000  0.6508444  3
   1681   1680   1684   1685     1  0.0000000  0.6508444  3
   1681   1680   1684   1686     1  0.0000000  0.6508444  3
   1681   1680   1687   1688     1  0.0000000  0.6508444  3
   1681   1680   1687   1689     1  0.0000000  0.6508444  3
   1681   1693   1705   1706     1  0.0000000  0.6508444  3
   1681   1693   1705   1707     1  0.0000000  0.6508444  3
   1682   1681   1680   1684     1  0.0000000  0.6508444  3
   1682   1681   1680   1687     1  0.0000000  0.6508444  3
   1682   1681   1680   1709     1  0.0000000  0.6508444  3
   1682   1681   1693   1705     1  0.0000000  0.6508444  3
   1682   1681   1693   1694     1  0.0000000  0.6508444  3
   1682   1681   1693   1695     1  0.0000000  0.6508444  3
   1683   1681   1680   1684     1  0.0000000  0.6508444  3
   1683   1681   1680   1687     1  0.0000000  0.6508444  3
   1683   1681   1680   1709     1  0.0000000  0.6508444  3
   1683   1681   1693   1705     1  0.0000000  0.6508444  3
   1683   1681   1693   1694     1  0.0000000  0.6508444  3
   1683   1681   1693   1695     1  0.0000000  0.6508444  3
   1684   1680   1687   1688     1  0.0000000  0.6508444  3
   1684   1680   1687   1689     1  0.0000000  0.6508444  3
   1684   1696   1702   1703     1  0.0000000  0.6508444  3
   1684   1696   1702   1704     1  0.0000000  0.6508444  3
   1685   1684   1680   1687     1  0.0000000  0.6508444  3
   1685   1684   1680   1709     1  0.0000000  0.6508444  3
   1685   1684   1696   1702     1  0.0000000  0.6508444  3
   1685   1684   1696   1697     1  0.0000000  0.6508444  3
   1685   1684   1696   1698     1  0.0000000  0.6508444  3
   1686   1684   1680   1687     1  0.0000000  0.6508444  3
   1686   1684   1680   1709     1  0.0000000  0.6508444  3
   1686   1684   1696   1702     1  0.0000000  0.6508444  3
   1686   1684   1696   1697     1  0.0000000  0.6508444  3
   1686   1684   1696   1698     1  0.0000000  0.6508444  3
   1687   1690   1699   1700     1  0.0000000  0.6508444  3
   1687   1690   1699   1701     1  0.0000000  0.6508444  3
   1688   1687   1680   1709     1  0.0000000  0.6508444  3
   1688   1687   1690   1699     1  0.0000000  0.6508444  3
   1688   1687   1690   1691     1  0.0000000  0.6508444  3
   1688   1687   1690   1692     1  0.0000000  0.6508444  3
   1689   1687   1680   1709     1  0.0000000  0.6508444  3
   1689   1687   1690   1699     1  0.0000000  0.6508444  3
   1689   1687   1690   1691     1  0.0000000  0.6508444  3
   1689   1687   1690   1692     1  0.0000000  0.6508444  3
   1690   1687   1680   1709     1  0.0000000  0.6508444  3
   1691   1690   1699   1708     1  0.0000000  1.0460000  1
   1691   1690   1699   1708     1  0.0000000  0.0000000  3
   1691   1690   1699   1700     1  0.0000000  0.6508444  3
   1691   1690   1699   1701     1  0.0000000  0.6508444  3
   1692   1690   1699   1708     1  0.0000000  1.0460000  1
   1692   1690   1699   1708     1  0.0000000  0.0000000  3
   1692   1690   1699   1700     1  0.0000000  0.6508444  3
   1692   1690   1699   1701     1  0.0000000  0.6508444  3
   1693   1681   1680   1709     1  0.0000000  0.6508444  3
   1694   1693   1705   3478     1  0.0000000  1.0460000  1
   1694   1693   1705   3478     1  0.0000000  0.0000000  3
   1694   1693   1705   1706     1  0.0000000  0.6508444  3
   1694   1693   1705   1707     1  0.0000000  0.6508444  3
   1695   1693   1705   3478     1  0.0000000  1.0460000  1
   1695   1693   1705   3478     1  0.0000000  0.0000000  3
   1695   1693   1705   1706     1  0.0000000  0.6508444  3
   1695   1693   1705   1707     1  0.0000000  0.6508444  3
   1696   1684   1680   1709     1  0.0000000  0.6508444  3
   1697   1696   1702   3448     1  0.0000000  1.0460000  1
   1697   1696   1702   3448     1  0.0000000  0.0000000  3
   1697   1696   1702   1703     1  0.0000000  0.6508444  3
   1697   1696   1702   1704     1  0.0000000  0.6508444  3
   1698   1696   1702   3448     1  0.0000000  1.0460000  1
   1698   1696   1702   3448     1  0.0000000  0.0000000  3
   1698   1696   1702   1703     1  0.0000000  0.6508444  3
   1698   1696   1702   1704     1  0.0000000  0.6508444  3
   1702   3448   3439   3440     1  0.0000000  1.6038667  3
   1702   3448   3439   3441     1  0.0000000  1.6038667  3
   1703   1702   3448   3439     1  0.0000000  1.6038667  3
   1704   1702   3448   3439     1  0.0000000  1.6038667  3
   1705   3478   3469   3470     1  0.0000000  1.6038667  3
   1705   3478   3469   3471     1  0.0000000  1.6038667  3
   1706   1705   3478   3469     1  0.0000000  1.6038667  3
   1707   1705   3478   3469     1  0.0000000  1.6038667  3
   1710   1711   1723   1724     1  0.0000000  0.6508444  3
   1710   1711   1723   1725     1  0.0000000  0.6508444  3
   1710   1714   1726   1727     1  0.0000000  0.6508444  3
   1710   1714   1726   1728     1  0.0000000  0.6508444  3
   1710   1717   1720   1721     1  0.0000000  0.6508444  3
   1710   1717   1720   1722     1  0.0000000  0.6508444  3
   1711   1710   1714   1715     1  0.0000000  0.6508444  3
   1711   1710   1714   1716     1  0.0000000  0.6508444  3
   1711   1710   1717   1718     1  0.0000000  0.6508444  3
   1711   1710   1717   1719     1  0.0000000  0.6508444  3
   1711   1723   1735   1736     1  0.0000000  0.6508444  3
   1711   1723   1735   1737     1  0.0000000  0.6508444  3
   1712   1711   1710   1714     1  0.0000000  0.6508444  3
   1712   1711   1710   1717     1  0.0000000  0.6508444  3
   1712   1711   1710   1739     1  0.0000000  0.6508444  3
   1712   1711   1723   1735     1  0.0000000  0.6508444  3
   1712   1711   1723   1724     1  0.0000000  0.6508444  3
   1712   1711   1723   1725     1  0.0000000  0.6508444  3
   1713   1711   1710   1714     1  0.0000000  0.6508444  3
   1713   1711   1710   1717     1  0.0000000  0.6508444  3
   1713   1711   1710   1739     1  0.0000000  0.6508444  3
   1713   1711   1723   1735     1  0.0000000  0.6508444  3
   1713   1711   1723   1724     1  0.0000000  0.6508444  3
   1713   1711   1723   1725     1  0.0000000  0.6508444  3
   1714   1710   1717   1718     1  0.0000000  0.6508444  3
   1714   1710   1717   1719     1  0.0000000  0.6508444  3
   1714   1726   1732   1733     1  0.0000000  0.6508444  3
   1714   1726   1732   1734     1  0.0000000  0.6508444  3
   1715   1714   1710   1717     1  0.0000000  0.6508444  3
   1715   1714   1710   1739     1  0.0000000  0.6508444  3
   1715   1714   1726   1732     1  0.0000000  0.6508444  3
   1715   1714   1726   1727     1  0.0000000  0.6508444  3
   1715   1714   1726   1728     1  0.0000000  0.6508444  3
   1716   1714   1710   1717     1  0.0000000  0.6508444  3
   1716   1714   1710   1739     1  0.0000000  0.6508444  3
   1716   1714   1726   1732     1  0.0000000  0.6508444  3
   1716   1714   1726   1727     1  0.0000000  0.6508444  3
   1716   1714   1726   1728     1  0.0000000  0.6508444  3
   1717   1720   1729   1730     1  0.0000000  0.6508444  3
   1717   1720   1729   1731     1  0.0000000  0.6508444  3
   1718   1717   1710   1739     1  0.0000000  0.6508444  3
   1718   1717   1720   1729     1  0.0000000  0.6508444  3
   1718   1717   1720   1721     1  0.0000000  0.6508444  3
   1718   1717   1720   1722     1  0.0000000  0.6508444  3
   1719   1717   1710   1739     1  0.0000000  0.6508444  3
   1719   1717   1720   1729     1  0.0000000  0.6508444  3
   1719   1717   1720   1721     1  0.0000000  0.6508444  3
   1719   1717   1720   1722     1  0.0000000  0.6508444  3
   1720   1717   1710   1739     1  0.0000000  0.6508444  3
   1721   1720   1729   1738     1  0.0000000  1.0460000  1
   1721   1720   1729   1738     1  0.0000000  0.0000000  3
   1721   1720   1729   1730     1  0.0000000  0.6508444  3
   1721   1720   1729   1731     1  0.0000000  0.6508444  3
   1722   1720   1729   1738     1  0.0000000  1.0460000  1
   1722   1720   1729   1738     1  0.0000000  0.0000000  3
   1722   1720   1729   1730     1  0.0000000  0.6508444  3
   1722   1720   1729   1731     1  0.0000000  0.6508444  3
   1723   1711   1710   1739     1  0.0000000  0.6508444  3
   1724   1723   1735   3538     1  0.0000000  1.0460000  1
   1724   1723   1735   3538     1  0.0000000  0.0000000  3
   1724   1723   1735   1736     1  0.0000000  0.6508444  3
   1724   1723   1735   1737     1  0.0000000  0.6508444  3
   1725   1723   1735   3538     1  0.0000000  1.0460000  1
   1725   1723   1735   3538     1  0.0000000  0.0000000  3
   1725   1723   1735   1736     1  0.0000000  0.6508444  3
   1725   1723   1735   1737     1  0.0000000  0.6508444  3
   1726   1714   1710   1739     1  0.0000000  0.6508444  3
   1727   1726   1732   3508     1  0.0000000  1.0460000  1
   1727   1726   1732   3508     1  0.0000000  0.0000000  3
   1727   1726   1732   1733     1  0.0000000  0.6508444  3
   1727   1726   1732   1734     1  0.0000000  0.6508444  3
   1728   1726   1732   3508     1  0.0000000  1.0460000  1
   1728   1726   1732   3508     1  0.0000000  0.0000000  3
   1728   1726   1732   1733     1  0.0000000  0.6508444  3
   1728   1726   1732   1734     1  0.0000000  0.6508444  3
   1732   3508   3499   3500     1  0.0000000  1.6038667  3
   1732   3508   3499   3501     1  0.0000000  1.6038667  3
   1733   1732   3508   3499     1  0.0000000  1.6038667  3
   1734   1732   3508   3499     1  0.0000000  1.6038667  3
   1735   3538   3529   3530     1  0.0000000  1.6038667  3
   1735   3538   3529   3531     1  0.0000000  1.6038667  3
   1736   1735   3538   3529     1  0.0000000  1.6038667  3
   1737   1735   3538   3529     1  0.0000000  1.6038667  3
   1740   1741   1753   1754     1  0.0000000  0.6508444  3
   1740   1741   1753   1755     1  0.0000000  0.6508444  3
   1740   1744   1756   1757     1  0.0000000  0.6508444  3
   1740   1744   1756   1758     1  0.0000000  0.6508444  3
   1740   1747   1750   1751     1  0.0000000  0.6508444  3
   1740   1747   1750   1752     1  0.0000000  0.6508444  3
   1741   1740   1744   1745     1  0.0000000  0.6508444  3
   1741   1740   1744   1746     1  0.0000000  0.6508444  3
   1741   1740   1747   1748     1  0.0000000  0.6508444  3
   1741   1740   1747   1749     1  0.0000000  0.6508444  3
   1741   1753   1765   1766     1  0.0000000  0.6508444  3
   1741   1753   1765   1767     1  0.0000000  0.6508444  3
   1742   1741   1740   1744     1  0.0000000  0.6508444  3
   1742   1741   1740   1747     1  0.0000000  0.6508444  3
   1742   1741   1740   1769     1  0.0000000  0.6508444  3
   1742   1741   1753   1765     1  0.0000000  0.6508444  3
   1742   1741   1753   1754     1  0.0000000  0.6508444  3
   1742   1741   1753   1755     1  0.0000000  0.6508444  3
   1743   1741   1740   1744     1  0.0000000  0.6508444  3
   1743   1741   1740   1747     1  0.0000000  0.6508444  3
   1743   1741   1740   1769     1  0.0000000  0.6508444  3
   1743   1741   1753   1765     1  0.0000000  0.6508444  3
   1743   1741   1753   1754     1  0.0000000  0.6508444  3
   1743   1741   1753   1755     1  0.0000000  0.6508444  3
   1744   1740   1747   1748     1  0.0000000  0.6508444  3
   1744   1740   1747   1749     1  0.0000000  0.6508444  3
   1744   1756   1762   1763     1  0.0000000  0.6508444  3
   1744   1756   1762   1764     1  0.0000000  0.6508444  3
   1745   1744   1740   1747     1  0.0000000  0.6508444  3
   1745   1744   1740   1769     1  0.0000000  0.6508444  3
   1745   1744   1756   1762     1  0.0000000  0.6508444  3
   1745   1744   1756   1757     1  0.0000000  0.6508444  3
   1745   1744   1756   1758     1  0.0000000  0.6508444  3
   1746   1744   1740   1747     1  0.0000000  0.6508444  3
   1746   1744   1740   1769     1  0.0000000  0.6508444  3
   1746   1744   1756   1762     1  0.0000000  0.6508444  3
   1746   1744   1756   1757     1  0.0000000  0.6508444  3
   1746   1744   1756   1758     1  0.0000000  0.6508444  3
   1747   1750   1759   1760     1  0.0000000  0.6508444  3
   1747   1750   1759   1761     1  0.0000000  0.6508444  3
   1748   1747   1740   1769     1  0.0000000  0.6508444  3
   1748   1747   1750   1759     1  0.0000000  0.6508444  3
   1748   1747   1750   1751     1  0.0000000  0.6508444  3
   1748   1747   1750   1752     1  0.0000000  0.6508444  3
   1749   1747   1740   1769     1  0.0000000  0.6508444  3
   1749   1747   1750   1759     1  0.0000000  0.6508444  3
   1749   1747   1750   1751     1  0.0000000  0.6508444  3
   1749   1747   1750   1752     1  0.0000000  0.6508444  3
   1750   1747   1740   1769     1  0.0000000  0.6508444  3
   1751   1750   1759   1768     1  0.0000000  1.0460000  1
   1751   1750   1759   1768     1  0.0000000  0.0000000  3
   1751   1750   1759   1760     1  0.0000000  0.6508444  3
   1751   1750   1759   1761     1  0.0000000  0.6508444  3
   1752   1750   1759   1768     1  0.0000000  1.0460000  1
   1752   1750   1759   1768     1  0.0000000  0.0000000  3
   1752   1750   1759   1760     1  0.0000000  0.6508444  3
   1752   1750   1759   1761     1  0.0000000  0.6508444  3
   1753   1741   1740   1769     1  0.0000000  0.6508444  3
   1754   1753   1765   3598     1  0.0000000  1.0460000  1
   1754   1753   1765   3598     1  0.0000000  0.0000000  3
   1754   1753   1765   1766     1  0.0000000  0.6508444  3
   1754   1753   1765   1767     1  0.0000000  0.6508444  3
   1755   1753   1765   3598     1  0.0000000  1.0460000  1
   1755   1753   1765   3598     1  0.0000000  0.0000000  3
   1755   1753   1765   1766     1  0.0000000  0.6508444  3
   1755   1753   1765   1767     1  0.0000000  0.6508444  3
   1756   1744   1740   1769     1  0.0000000  0.6508444  3
   1757   1756   1762   3568     1  0.0000000  1.0460000  1
   1757   1756   1762   3568     1  0.0000000  0.0000000  3
   1757   1756   1762   1763     1  0.0000000  0.6508444  3
   1757   1756   1762   1764     1  0.0000000  0.6508444  3
   1758   1756   1762   3568     1  0.0000000  1.0460000  1
   1758   1756   1762   3568     1  0.0000000  0.0000000  3
   1758   1756   1762   1763     1  0.0000000  0.6508444  3
   1758   1756   1762   1764     1  0.0000000  0.6508444  3
   1762   3568   3559   3560     1  0.0000000  1.6038667  3
   1762   3568   3559   3561     1  0.0000000  1.6038667  3
   1763   1762   3568   3559     1  0.0000000  1.6038667  3
   1764   1762   3568   3559     1  0.0000000  1.6038667  3
   1765   3598   3589   3590     1  0.0000000  1.6038667  3
   1765   3598   3589   3591     1  0.0000000  1.6038667  3
   1766   1765   3598   3589     1  0.0000000  1.6038667  3
   1767   1765   3598   3589     1  0.0000000  1.6038667  3
   1770   1771   1783   1784     1  0.0000000  0.6508444  3
   1770   1771   1783   1785     1  0.0000000  0.6508444  3
   1770   1774   1786   1787     1  0.0000000  0.6508444  3
   1770   1774   1786   1788     1  0.0000000  0.6508444  3
   1770   1777   1780   1781     1  0.0000000  0.6508444  3
   1770   1777   1780   1782     1  0.0000000  0.6508444  3
   1771   1770   1774   1775     1  0.0000000  0.6508444  3
   1771   1770   1774   1776     1  0.0000000  0.6508444  3
   1771   1770   1777   1778     1  0.0000000  0.6508444  3
   1771   1770   1777   1779     1  0.0000000  0.6508444  3
   1771   1783   1795   1796     1  0.0000000  0.6508444  3
   1771   1783   1795   1797     1  0.0000000  0.6508444  3
   1772   1771   1770   1774     1  0.0000000  0.6508444  3
   1772   1771   1770   1777     1  0.0000000  0.6508444  3
   1772   1771   1770   1799     1  0.0000000  0.6508444  3
   1772   1771   1783   1795     1  0.0000000  0.6508444  3
   1772   1771   1783   1784     1  0.0000000  0.6508444  3
   1772   1771   1783   1785     1  0.0000000  0.6508444  3
   1773   1771   1770   1774     1  0.0000000  0.6508444  3
   1773   1771   1770   1777     1  0.0000000  0.6508444  3
   1773   1771   1770   1799     1  0.0000000  0.6508444  3
   1773   1771   1783   1795     1  0.0000000  0.6508444  3
   1773   1771   1783   1784     1  0.0000000  0.6508444  3
   1773   1771   1783   1785     1  0.0000000  0.6508444  3
   1774   1770   1777   1778     1  0.0000000  0.6508444  3
   1774   1770   1777   1779     1  0.0000000  0.6508444  3
   1774   1786   1792   1793     1  0.0000000  0.6508444  3
   1774   1786   1792   1794     1  0.0000000  0.6508444  3
   1775   1774   1770   1777     1  0.0000000  0.6508444  3
   1775   1774   1770   1799     1  0.0000000  0.6508444  3
   1775   1774   1786   1792     1  0.0000000  0.6508444  3
   1775   1774   1786   1787     1  0.0000000  0.6508444  3
   1775   1774   1786   1788     1  0.0000000  0.6508444  3
   1776   1774   1770   1777     1  0.0000000  0.6508444  3
   1776   1774   1770   1799     1  0.0000000  0.6508444  3
   1776   1774   1786   1792     1  0.0000000  0.6508444  3
   1776   1774   1786   1787     1  0.0000000  0.6508444  3
   1776   1774   1786   1788     1  0.0000000  0.6508444  3
   1777   1780   1789   1790     1  0.0000000  0.6508444  3
   1777   1780   1789   1791     1  0.0000000  0.6508444  3
   1778   1777   1770   1799     1  0.0000000  0.6508444  3
   1778   1777   1780   1789     1  0.0000000  0.6508444  3
   1778   1777   1780   1781     1  0.0000000  0.6508444  3
   1778   1777   1780   1782     1  0.0000000  0.6508444  3
   1779   1777   1770   1799     1  0.0000000  0.6508444  3
   1779   1777   1780   1789     1  0.0000000  0.6508444  3
   1779   1777   1780   1781     1  0.0000000  0.6508444  3
   1779   1777   1780   1782     1  0.0000000  0.6508444  3
   1780   1777   1770   1799     1  0.0000000  0.6508444  3
   1781   1780   1789   1798     1  0.0000000  1.0460000  1
   1781   1780   1789   1798     1  0.0000000  0.0000000  3
   1781   1780   1789   1790     1  0.0000000  0.6508444  3
   1781   1780   1789   1791     1  0.0000000  0.6508444  3
   1782   1780   1789   1798     1  0.0000000  1.0460000  1
   1782   1780   1789   1798     1  0.0000000  0.0000000  3
   1782   1780   1789   1790     1  0.0000000  0.6508444  3
   1782   1780   1789   1791     1  0.0000000  0.6508444  3
   1783   1771   1770   1799     1  0.0000000  0.6508444  3
   1784   1783   1795   3658     1  0.0000000  1.0460000  1
   1784   1783   1795   3658     1  0.0000000  0.0000000  3
   1784   1783   1795   1796     1  0.0000000  0.6508444  3
   1784   1783   1795   1797     1  0.0000000  0.6508444  3
   1785   1783   1795   3658     1  0.0000000  1.0460000  1
   1785   1783   1795   3658     1  0.0000000  0.0000000  3
   1785   1783   1795   1796     1  0.0000000  0.6508444  3
   1785   1783   1795   1797     1  0.0000000  0.6508444  3
   1786   1774   1770   1799     1  0.0000000  0.6508444  3
   1787   1786   1792   3628     1  0.0000000  1.0460000  1
   1787   1786   1792   3628     1  0.0000000  0.0000000  3
   1787   1786   1792   1793     1  0.0000000  0.6508444  3
   1787   1786   1792   1794     1  0.0000000  0.6508444  3
   1788   1786   1792   3628     1  0.0000000  1.0460000  1
   1788   1786   1792   3628     1  0.0000000  0.0000000  3
   1788   1786   1792   1793     1  0.0000000  0.6508444  3
   1788   1786   1792   1794     1  0.0000000  0.6508444  3
   1792   3628   3619   3620     1  0.0000000  1.6038667  3
   1792   3628   3619   3621     1  0.0000000  1.6038667  3
   1793   1792   3628   3619     1  0.0000000  1.6038667  3
   1794   1792   3628   3619     1  0.0000000  1.6038667  3
   1795   3658   3649   3650     1  0.0000000  1.6038667  3
   1795   3658   3649   3651     1  0.0000000  1.6038667  3
   1796   1795   3658   3649     1  0.0000000  1.6038667  3
   1797   1795   3658   3649     1  0.0000000  1.6038667  3
   1800   1801   1813   1814     1  0.0000000  0.6508444  3
   1800   1801   1813   1815     1  0.0000000  0.6508444  3
   1800   1804   1816   1817     1  0.0000000  0.6508444  3
   1800   1804   1816   1818     1  0.0000000  0.6508444  3
   1800   1807   1810   1811     1  0.0000000  0.6508444  3
   1800   1807   1810   1812     1  0.0000000  0.6508444  3
   1801   1800   1804   1805     1  0.0000000  0.6508444  3
   1801   1800   1804   1806     1  0.0000000  0.6508444  3
   1801   1800   1807   1808     1  0.0000000  0.6508444  3
   1801   1800   1807   1809     1  0.0000000  0.6508444  3
   1801   1813   1825   1826     1  0.0000000  0.6508444  3
   1801   1813   1825   1827     1  0.0000000  0.6508444  3
   1802   1801   1800   1804     1  0.0000000  0.6508444  3
   1802   1801   1800   1807     1  0.0000000  0.6508444  3
   1802   1801   1800   1829     1  0.0000000  0.6508444  3
   1802   1801   1813   1825     1  0.0000000  0.6508444  3
   1802   1801   1813   1814     1  0.0000000  0.6508444  3
   1802   1801   1813   1815     1  0.0000000  0.6508444  3
   1803   1801   1800   1804     1  0.0000000  0.6508444  3
   1803   1801   1800   1807     1  0.0000000  0.6508444  3
   1803   1801   1800   1829     1  0.0000000  0.6508444  3
   1803   1801   1813   1825     1  0.0000000  0.6508444  3
   1803   1801   1813   1814     1  0.0000000  0.6508444  3
   1803   1801   1813   1815     1  0.0000000  0.6508444  3
   1804   1800   1807   1808     1  0.0000000  0.6508444  3
   1804   1800   1807   1809     1  0.0000000  0.6508444  3
   1804   1816   1822   1823     1  0.0000000  0.6508444  3
   1804   1816   1822   1824     1  0.0000000  0.6508444  3
   1805   1804   1800   1807     1  0.0000000  0.6508444  3
   1805   1804   1800   1829     1  0.0000000  0.6508444  3
   1805   1804   1816   1822     1  0.0000000  0.6508444  3
   1805   1804   1816   1817     1  0.0000000  0.6508444  3
   1805   1804   1816   1818     1  0.0000000  0.6508444  3
   1806   1804   1800   1807     1  0.0000000  0.6508444  3
   1806   1804   1800   1829     1  0.0000000  0.6508444  3
   1806   1804   1816   1822     1  0.0000000  0.6508444  3
   1806   1804   1816   1817     1  0.0000000  0.6508444  3
   1806   1804   1816   1818     1  0.0000000  0.6508444  3
   1807   1810   1819   1820     1  0.0000000  0.6508444  3
   1807   1810   1819   1821     1  0.0000000  0.6508444  3
   1808   1807   1800   1829     1  0.0000000  0.6508444  3
   1808   1807   1810   1819     1  0.0000000  0.6508444  3
   1808   1807   1810   1811     1  0.0000000  0.6508444  3
   1808   1807   1810   1812     1  0.0000000  0.6508444  3
   1809   1807   1800   1829     1  0.0000000  0.6508444  3
   1809   1807   1810   1819     1  0.0000000  0.6508444  3
   1809   1807   1810   1811     1  0.0000000  0.6508444  3
   1809   1807   1810   1812     1  0.0000000  0.6508444  3
   1810   1807   1800   1829     1  0.0000000  0.6508444  3
   1811   1810   1819   1828     1  0.0000000  1.0460000  1
   1811   1810   1819   1828     1  0.0000000  0.0000000  3
   1811   1810   1819   1820     1  0.0000000  0.6508444  3
   1811   1810   1819   1821     1  0.0000000  0.6508444  3
   1812   1810   1819   1828     1  0.0000000  1.0460000  1
   1812   1810   1819   1828     1  0.0000000  0.0000000  3
   1812   1810   1819   1820     1  0.0000000  0.6508444  3
   1812   1810   1819   1821     1  0.0000000  0.6508444  3
   1813   1801   1800   1829     1  0.0000000  0.6508444  3
   1814   1813   1825   3718     1  0.0000000  1.0460000  1
   1814   1813   1825   3718     1  0.0000000  0.0000000  3
   1814   1813   1825   1826     1  0.0000000  0.6508444  3
   1814   1813   1825   1827     1  0.0000000  0.6508444  3
   1815   1813   1825   3718     1  0.0000000  1.0460000  1
   1815   1813   1825   3718     1  0.0000000  0.0000000  3
   1815   1813   1825   1826     1  0.0000000  0.6508444  3
   1815   1813   1825   1827     1  0.0000000  0.6508444  3
   1816   1804   1800   1829     1  0.0000000  0.6508444  3
   1817   1816   1822   3688     1  0.0000000  1.0460000  1
   1817   1816   1822   3688     1  0.0000000  0.0000000  3
   1817   1816   1822   1823     1  0.0000000  0.6508444  3
   1817   1816   1822   1824     1  0.0000000  0.6508444  3
   1818   1816   1822   3688     1  0.0000000  1.0460000  1
   1818   1816   1822   3688     1  0.0000000  0.0000000  3
   1818   1816   1822   1823     1  0.0000000  0.6508444  3
   1818   1816   1822   1824     1  0.0000000  0.6508444  3
   1822   3688   3679   3680     1  0.0000000  1.6038667  3
   1822   3688   3679   3681     1  0.0000000  1.6038667  3
   1823   1822   3688   3679     1  0.0000000  1.6038667  3
   1824   1822   3688   3679     1  0.0000000  1.6038667  3
   1825   3718   3709   3710     1  0.0000000  1.6038667  3
   1825   3718   3709   3711     1  0.0000000  1.6038667  3
   1826   1825   3718   3709     1  0.0000000  1.6038667  3
   1827   1825   3718   3709     1  0.0000000  1.6038667  3
   1830   1831   1843   1844     1  0.0000000  0.6508444  3
   1830   1831   1843   1845     1  0.0000000  0.6508444  3
   1830   1834   1846   1847     1  0.0000000  0.6508444  3
   1830   1834   1846   1848     1  0.0000000  0.6508444  3
   1830   1837   1840   1841     1  0.0000000  0.6508444  3
   1830   1837   1840   1842     1  0.0000000  0.6508444  3
   1831   1830   1834   1835     1  0.0000000  0.6508444  3
   1831   1830   1834   1836     1  0.0000000  0.6508444  3
   1831   1830   1837   1838     1  0.0000000  0.6508444  3
   1831   1830   1837   1839     1  0.0000000  0.6508444  3
   1831   1843   1855   1856     1  0.0000000  0.6508444  3
   1831   1843   1855   1857     1  0.0000000  0.6508444  3
   1832   1831   1830   1834     1  0.0000000  0.6508444  3
   1832   1831   1830   1837     1  0.0000000  0.6508444  3
   1832   1831   1830   1859     1  0.0000000  0.6508444  3
   1832   1831   1843   1855     1  0.0000000  0.6508444  3
   1832   1831   1843   1844     1  0.0000000  0.6508444  3
   1832   1831   1843   1845     1  0.0000000  0.6508444  3
   1833   1831   1830   1834     1  0.0000000  0.6508444  3
   1833   1831   1830   1837     1  0.0000000  0.6508444  3
   1833   1831   1830   1859     1  0.0000000  0.6508444  3
   1833   1831   1843   1855     1  0.0000000  0.6508444  3
   1833   1831   1843   1844     1  0.0000000  0.6508444  3
   1833   1831   1843   1845     1  0.0000000  0.6508444  3
   1834   1830   1837   1838     1  0.0000000  0.6508444  3
   1834   1830   1837   1839     1  0.0000000  0.6508444  3
   1834   1846   1852   1853     1  0.0000000  0.6508444  3
   1834   1846   1852   1854     1  0.0000000  0.6508444  3
   1835   1834   1830   1837     1  0.0000000  0.6508444  3
   1835   1834   1830   1859     1  0.0000000  0.6508444  3
   1835   1834   1846   1852     1  0.0000000  0.6508444  3
   1835   1834   1846   1847     1  0.0000000  0.6508444  3
   1835   1834   1846   1848     1  0.0000000  0.6508444  3
   1836   1834   1830   1837     1  0.0000000  0.6508444  3
   1836   1834   1830   1859     1  0.0000000  0.6508444  3
   1836   1834   1846   1852     1  0.0000000  0.6508444  3
   1836   1834   1846   1847     1  0.0000000  0.6508444  3
   1836   1834   1846   1848     1  0.0000000  0.6508444  3
   1837   1840   1849   1850     1  0.0000000  0.6508444  3
   1837   1840   1849   1851     1  0.0000000  0.6508444  3
   1838   1837   1830   1859     1  0.0000000  0.6508444  3
   1838   1837   1840   1849     1  0.0000000  0.6508444  3
   1838   1837   1840   1841     1  0.0000000  0.6508444  3
   1838   1837   1840   1842     1  0.0000000  0.6508444  3
   1839   1837   1830   1859     1  0.0000000  0.6508444  3
   1839   1837   1840   1849     1  0.0000000  0.6508444  3
   1839   1837   1840   1841     1  0.0000000  0.6508444  3
   1839   1837   1840   1842     1  0.0000000  0.6508444  3
   1840   1837   1830   1859     1  0.0000000  0.6508444  3
   1841   1840   1849   1858     1  0.0000000  1.0460000  1
   1841   1840   1849   1858     1  0.0000000  0.0000000  3
   1841   1840   1849   1850     1  0.0000000  0.6508444  3
   1841   1840   1849   1851     1  0.0000000  0.6508444  3
   1842   1840   1849   1858     1  0.0000000  1.0460000  1
   1842   1840   1849   1858     1  0.0000000  0.0000000  3
   1842   1840   1849   1850     1  0.0000000  0.6508444  3
   1842   1840   1849   1851     1  0.0000000  0.6508444  3
   1843   1831   1830   1859     1  0.0000000  0.6508444  3
   1844   1843   1855   3778     1  0.0000000  1.0460000  1
   1844   1843   1855   3778     1  0.0000000  0.0000000  3
   1844   1843   1855   1856     1  0.0000000  0.6508444  3
   1844   1843   1855   1857     1  0.0000000  0.6508444  3
   1845   1843   1855   3778     1  0.0000000  1.0460000  1
   1845   1843   1855   3778     1  0.0000000  0.0000000  3
   1845   1843   1855   1856     1  0.0000000  0.6508444  3
   1845   1843   1855   1857     1  0.0000000  0.6508444  3
   1846   1834   1830   1859     1  0.0000000  0.6508444  3
   1847   1846   1852   3748     1  0.0000000  1.0460000  1
   1847   1846   1852   3748     1  0.0000000  0.0000000  3
   1847   1846   1852   1853     1  0.0000000  0.6508444  3
   1847   1846   1852   1854     1  0.0000000  0.6508444  3
   1848   1846   1852   3748     1  0.0000000  1.0460000  1
   1848   1846   1852   3748     1  0.0000000  0.0000000  3
   1848   1846   1852   1853     1  0.0000000  0.6508444  3
   1848   1846   1852   1854     1  0.0000000  0.6508444  3
   1852   3748   3739   3740     1  0.0000000  1.6038667  3
   1852   3748   3739   3741     1  0.0000000  1.6038667  3
   1853   1852   3748   3739     1  0.0000000  1.6038667  3
   1854   1852   3748   3739     1  0.0000000  1.6038667  3
   1855   3778   3769   3770     1  0.0000000  1.6038667  3
   1855   3778   3769   3771     1  0.0000000  1.6038667  3
   1856   1855   3778   3769     1  0.0000000  1.6038667  3
   1857   1855   3778   3769     1  0.0000000  1.6038667  3
   1860   1861   1873   1874     1  0.0000000  0.6508444  3
   1860   1861   1873   1875     1  0.0000000  0.6508444  3
   1860   1864   1876   1877     1  0.0000000  0.6508444  3
   1860   1864   1876   1878     1  0.0000000  0.6508444  3
   1860   1867   1870   1871     1  0.0000000  0.6508444  3
   1860   1867   1870   1872     1  0.0000000  0.6508444  3
   1861   1860   1864   1865     1  0.0000000  0.6508444  3
   1861   1860   1864   1866     1  0.0000000  0.6508444  3
   1861   1860   1867   1868     1  0.0000000  0.6508444  3
   1861   1860   1867   1869     1  0.0000000  0.6508444  3
   1861   1873   1885   1886     1  0.0000000  0.6508444  3
   1861   1873   1885   1887     1  0.0000000  0.6508444  3
   1862   1861   1860   1864     1  0.0000000  0.6508444  3
   1862   1861   1860   1867     1  0.0000000  0.6508444  3
   1862   1861   1860   1889     1  0.0000000  0.6508444  3
   1862   1861   1873   1885     1  0.0000000  0.6508444  3
   1862   1861   1873   1874     1  0.0000000  0.6508444  3
   1862   1861   1873   1875     1  0.0000000  0.6508444  3
   1863   1861   1860   1864     1  0.0000000  0.6508444  3
   1863   1861   1860   1867     1  0.0000000  0.6508444  3
   1863   1861   1860   1889     1  0.0000000  0.6508444  3
   1863   1861   1873   1885     1  0.0000000  0.6508444  3
   1863   1861   1873   1874     1  0.0000000  0.6508444  3
   1863   1861   1873   1875     1  0.0000000  0.6508444  3
   1864   1860   1867   1868     1  0.0000000  0.6508444  3
   1864   1860   1867   1869     1  0.0000000  0.6508444  3
   1864   1876   1882   1883     1  0.0000000  0.6508444  3
   1864   1876   1882   1884     1  0.0000000  0.6508444  3
   1865   1864   1860   1867     1  0.0000000  0.6508444  3
   1865   1864   1860   1889     1  0.0000000  0.6508444  3
   1865   1864   1876   1882     1  0.0000000  0.6508444  3
   1865   1864   1876   1877     1  0.0000000  0.6508444  3
   1865   1864   1876   1878     1  0.0000000  0.6508444  3
   1866   1864   1860   1867     1  0.0000000  0.6508444  3
   1866   1864   1860   1889     1  0.0000000  0.6508444  3
   1866   1864   1876   1882     1  0.0000000  0.6508444  3
   1866   1864   1876   1877     1  0.0000000  0.6508444  3
   1866   1864   1876   1878     1  0.0000000  0.6508444  3
   1867   1870   1879   1880     1  0.0000000  0.6508444  3
   1867   1870   1879   1881     1  0.0000000  0.6508444  3
   1868   1867   1860   1889     1  0.0000000  0.6508444  3
   1868   1867   1870   1879     1  0.0000000  0.6508444  3
   1868   1867   1870   1871     1  0.0000000  0.6508444  3
   1868   1867   1870   1872     1  0.0000000  0.6508444  3
   1869   1867   1860   1889     1  0.0000000  0.6508444  3
   1869   1867   1870   1879     1  0.0000000  0.6508444  3
   1869   1867   1870   1871     1  0.0000000  0.6508444  3
   1869   1867   1870   1872     1  0.0000000  0.6508444  3
   1870   1867   1860   1889     1  0.0000000  0.6508444  3
   1871   1870   1879   1888     1  0.0000000  1.0460000  1
   1871   1870   1879   1888     1  0.0000000  0.0000000  3
   1871   1870   1879   1880     1  0.0000000  0.6508444  3
   1871   1870   1879   1881     1  0.0000000  0.6508444  3
   1872   1870   1879   1888     1  0.0000000  1.0460000  1
   1872   1870   1879   1888     1  0.0000000  0.0000000  3
   1872   1870   1879   1880     1  0.0000000  0.6508444  3
   1872   1870   1879   1881     1  0.0000000  0.6508444  3
   1873   1861   1860   1889     1  0.0000000  0.6508444  3
   1874   1873   1885   3838     1  0.0000000  1.0460000  1
   1874   1873   1885   3838     1  0.0000000  0.0000000  3
   1874   1873   1885   1886     1  0.0000000  0.6508444  3
   1874   1873   1885   1887     1  0.0000000  0.6508444  3
   1875   1873   1885   3838     1  0.0000000  1.0460000  1
   1875   1873   1885   3838     1  0.0000000  0.0000000  3
   1875   1873   1885   1886     1  0.0000000  0.6508444  3
   1875   1873   1885   1887     1  0.0000000  0.6508444  3
   1876   1864   1860   1889     1  0.0000000  0.6508444  3
   1877   1876   1882   3808     1  0.0000000  1.0460000  1
   1877   1876   1882   3808     1  0.0000000  0.0000000  3
   1877   1876   1882   1883     1  0.0000000  0.6508444  3
   1877   1876   1882   1884     1  0.0000000  0.6508444  3
   1878   1876   1882   3808     1  0.0000000  1.0460000  1
   1878   1876   1882   3808     1  0.0000000  0.0000000  3
   1878   1876   1882   1883     1  0.0000000  0.6508444  3
   1878   1876   1882   1884     1  0.0000000  0.6508444  3
   1882   3808   3799   3800     1  0.0000000  1.6038667  3
   1882   3808   3799   3801     1  0.0000000  1.6038667  3
   1883   1882   3808   3799     1  0.0000000  1.6038667  3
   1884   1882   3808   3799     1  0.0000000  1.6038667  3
   1885   3838   3829   3830     1  0.0000000  1.6038667  3
   1885   3838   3829   3831     1  0.0000000  1.6038667  3
   1886   1885   3838   3829     1  0.0000000  1.6038667  3
   1887   1885   3838   3829     1  0.0000000  1.6038667  3
   1890   1891   1903   1904     1  0.0000000  0.6508444  3
   1890   1891   1903   1905     1  0.0000000  0.6508444  3
   1890   1894   1906   1907     1  0.0000000  0.6508444  3
   1890   1894   1906   1908     1  0.0000000  0.6508444  3
   1890   1897   1900   1901     1  0.0000000  0.6508444  3
   1890   1897   1900   1902     1  0.0000000  0.6508444  3
   1891   1890   1894   1895     1  0.0000000  0.6508444  3
   1891   1890   1894   1896     1  0.0000000  0.6508444  3
   1891   1890   1897   1898     1  0.0000000  0.6508444  3
   1891   1890   1897   1899     1  0.0000000  0.6508444  3
   1891   1903   1915   1916     1  0.0000000  0.6508444  3
   1891   1903   1915   1917     1  0.0000000  0.6508444  3
   1892   1891   1890   1894     1  0.0000000  0.6508444  3
   1892   1891   1890   1897     1  0.0000000  0.6508444  3
   1892   1891   1890   1919     1  0.0000000  0.6508444  3
   1892   1891   1903   1915     1  0.0000000  0.6508444  3
   1892   1891   1903   1904     1  0.0000000  0.6508444  3
   1892   1891   1903   1905     1  0.0000000  0.6508444  3
   1893   1891   1890   1894     1  0.0000000  0.6508444  3
   1893   1891   1890   1897     1  0.0000000  0.6508444  3
   1893   1891   1890   1919     1  0.0000000  0.6508444  3
   1893   1891   1903   1915     1  0.0000000  0.6508444  3
   1893   1891   1903   1904     1  0.0000000  0.6508444  3
   1893   1891   1903   1905     1  0.0000000  0.6508444  3
   1894   1890   1897   1898     1  0.0000000  0.6508444  3
   1894   1890   1897   1899     1  0.0000000  0.6508444  3
   1894   1906   1912   1913     1  0.0000000  0.6508444  3
   1894   1906   1912   1914     1  0.0000000  0.6508444  3
   1895   1894   1890   1897     1  0.0000000  0.6508444  3
   1895   1894   1890   1919     1  0.0000000  0.6508444  3
   1895   1894   1906   1912     1  0.0000000  0.6508444  3
   1895   1894   1906   1907     1  0.0000000  0.6508444  3
   1895   1894   1906   1908     1  0.0000000  0.6508444  3
   1896   1894   1890   1897     1  0.0000000  0.6508444  3
   1896   1894   1890   1919     1  0.0000000  0.6508444  3
   1896   1894   1906   1912     1  0.0000000  0.6508444  3
   1896   1894   1906   1907     1  0.0000000  0.6508444  3
   1896   1894   1906   1908     1  0.0000000  0.6508444  3
   1897   1900   1909   1910     1  0.0000000  0.6508444  3
   1897   1900   1909   1911     1  0.0000000  0.6508444  3
   1898   1897   1890   1919     1  0.0000000  0.6508444  3
   1898   1897   1900   1909     1  0.0000000  0.6508444  3
   1898   1897   1900   1901     1  0.0000000  0.6508444  3
   1898   1897   1900   1902     1  0.0000000  0.6508444  3
   1899   1897   1890   1919     1  0.0000000  0.6508444  3
   1899   1897   1900   1909     1  0.0000000  0.6508444  3
   1899   1897   1900   1901     1  0.0000000  0.6508444  3
   1899   1897   1900   1902     1  0.0000000  0.6508444  3
   1900   1897   1890   1919     1  0.0000000  0.6508444  3
   1901   1900   1909   1918     1  0.0000000  1.0460000  1
   1901   1900   1909   1918     1  0.0000000  0.0000000  3
   1901   1900   1909   1910     1  0.0000000  0.6508444  3
   1901   1900   1909   1911     1  0.0000000  0.6508444  3
   1902   1900   1909   1918     1  0.0000000  1.0460000  1
   1902   1900   1909   1918     1  0.0000000  0.0000000  3
   1902   1900   1909   1910     1  0.0000000  0.6508444  3
   1902   1900   1909   1911     1  0.0000000  0.6508444  3
   1903   1891   1890   1919     1  0.0000000  0.6508444  3
   1904   1903   1915   3898     1  0.0000000  1.0460000  1
   1904   1903   1915   3898     1  0.0000000  0.0000000  3
   1904   1903   1915   1916     1  0.0000000  0.6508444  3
   1904   1903   1915   1917     1  0.0000000  0.6508444  3
   1905   1903   1915   3898     1  0.0000000  1.0460000  1
   1905   1903   1915   3898     1  0.0000000  0.0000000  3
   1905   1903   1915   1916     1  0.0000000  0.6508444  3
   1905   1903   1915   1917     1  0.0000000  0.6508444  3
   1906   1894   1890   1919     1  0.0000000  0.6508444  3
   1907   1906   1912   3868     1  0.0000000  1.0460000  1
   1907   1906   1912   3868     1  0.0000000  0.0000000  3
   1907   1906   1912   1913     1  0.0000000  0.6508444  3
   1907   1906   1912   1914     1  0.0000000  0.6508444  3
   1908   1906   1912   3868     1  0.0000000  1.0460000  1
   1908   1906   1912   3868     1  0.0000000  0.0000000  3
   1908   1906   1912   1913     1  0.0000000  0.6508444  3
   1908   1906   1912   1914     1  0.0000000  0.6508444  3
   1912   3868   3859   3860     1  0.0000000  1.6038667  3
   1912   3868   3859   3861     1  0.0000000  1.6038667  3
   1913   1912   3868   3859     1  0.0000000  1.6038667  3
   1914   1912   3868   3859     1  0.0000000  1.6038667  3
   1915   3898   3889   3890     1  0.0000000  1.6038667  3
   1915   3898   3889   3891     1  0.0000000  1.6038667  3
   1916   1915   3898   3889     1  0.0000000  1.6038667  3
   1917   1915   3898   3889     1  0.0000000  1.6038667  3
   1920   1921   1933   1934     1  0.0000000  0.6508444  3
   1920   1921   1933   1935     1  0.0000000  0.6508444  3
   1920   1924   1936   1937     1  0.0000000  0.6508444  3
   1920   1924   1936   1938     1  0.0000000  0.6508444  3
   1920   1927   1930   1931     1  0.0000000  0.6508444  3
   1920   1927   1930   1932     1  0.0000000  0.6508444  3
   1921   1920   1924   1925     1  0.0000000  0.6508444  3
   1921   1920   1924   1926     1  0.0000000  0.6508444  3
   1921   1920   1927   1928     1  0.0000000  0.6508444  3
   1921   1920   1927   1929     1  0.0000000  0.6508444  3
   1921   1933   1945   1946     1  0.0000000  0.6508444  3
   1921   1933   1945   1947     1  0.0000000  0.6508444  3
   1922   1921   1920   1924     1  0.0000000  0.6508444  3
   1922   1921   1920   1927     1  0.0000000  0.6508444  3
   1922   1921   1920   1949     1  0.0000000  0.6508444  3
   1922   1921   1933   1945     1  0.0000000  0.6508444  3
   1922   1921   1933   1934     1  0.0000000  0.6508444  3
   1922   1921   1933   1935     1  0.0000000  0.6508444  3
   1923   1921   1920   1924     1  0.0000000  0.6508444  3
   1923   1921   1920   1927     1  0.0000000  0.6508444  3
   1923   1921   1920   1949     1  0.0000000  0.6508444  3
   1923   1921   1933   1945     1  0.0000000  0.6508444  3
   1923   1921   1933   1934     1  0.0000000  0.6508444  3
   1923   1921   1933   1935     1  0.0000000  0.6508444  3
   1924   1920   1927   1928     1  0.0000000  0.6508444  3
   1924   1920   1927   1929     1  0.0000000  0.6508444  3
   1924   1936   1942   1943     1  0.0000000  0.6508444  3
   1924   1936   1942   1944     1  0.0000000  0.6508444  3
   1925   1924   1920   1927     1  0.0000000  0.6508444  3
   1925   1924   1920   1949     1  0.0000000  0.6508444  3
   1925   1924   1936   1942     1  0.0000000  0.6508444  3
   1925   1924   1936   1937     1  0.0000000  0.6508444  3
   1925   1924   1936   1938     1  0.0000000  0.6508444  3
   1926   1924   1920   1927     1  0.0000000  0.6508444  3
   1926   1924   1920   1949     1  0.0000000  0.6508444  3
   1926   1924   1936   1942     1  0.0000000  0.6508444  3
   1926   1924   1936   1937     1  0.0000000  0.6508444  3
   1926   1924   1936   1938     1  0.0000000  0.6508444  3
   1927   1930   1939   1940     1  0.0000000  0.6508444  3
   1927   1930   1939   1941     1  0.0000000  0.6508444  3
   1928   1927   1920   1949     1  0.0000000  0.6508444  3
   1928   1927   1930   1939     1  0.0000000  0.6508444  3
   1928   1927   1930   1931     1  0.0000000  0.6508444  3
   1928   1927   1930   1932     1  0.0000000  0.6508444  3
   1929   1927   1920   1949     1  0.0000000  0.6508444  3
   1929   1927   1930   1939     1  0.0000000  0.6508444  3
   1929   1927   1930   1931     1  0.0000000  0.6508444  3
   1929   1927   1930   1932     1  0.0000000  0.6508444  3
   1930   1927   1920   1949     1  0.0000000  0.6508444  3
   1931   1930   1939   1948     1  0.0000000  1.0460000  1
   1931   1930   1939   1948     1  0.0000000  0.0000000  3
   1931   1930   1939   1940     1  0.0000000  0.6508444  3
   1931   1930   1939   1941     1  0.0000000  0.6508444  3
   1932   1930   1939   1948     1  0.0000000  1.0460000  1
   1932   1930   1939   1948     1  0.0000000  0.0000000  3
   1932   1930   1939   1940     1  0.0000000  0.6508444  3
   1932   1930   1939   1941     1  0.0000000  0.6508444  3
   1933   1921   1920   1949     1  0.0000000  0.6508444  3
   1934   1933   1945   3958     1  0.0000000  1.0460000  1
   1934   1933   1945   3958     1  0.0000000  0.0000000  3
   1934   1933   1945   1946     1  0.0000000  0.6508444  3
   1934   1933   1945   1947     1  0.0000000  0.6508444  3
   1935   1933   1945   3958     1  0.0000000  1.0460000  1
   1935   1933   1945   3958     1  0.0000000  0.0000000  3
   1935   1933   1945   1946     1  0.0000000  0.6508444  3
   1935   1933   1945   1947     1  0.0000000  0.6508444  3
   1936   1924   1920   1949     1  0.0000000  0.6508444  3
   1937   1936   1942   3928     1  0.0000000  1.0460000  1
   1937   1936   1942   3928     1  0.0000000  0.0000000  3
   1937   1936   1942   1943     1  0.0000000  0.6508444  3
   1937   1936   1942   1944     1  0.0000000  0.6508444  3
   1938   1936   1942   3928     1  0.0000000  1.0460000  1
   1938   1936   1942   3928     1  0.0000000  0.0000000  3
   1938   1936   1942   1943     1  0.0000000  0.6508444  3
   1938   1936   1942   1944     1  0.0000000  0.6508444  3
   1942   3928   3919   3920     1  0.0000000  1.6038667  3
   1942   3928   3919   3921     1  0.0000000  1.6038667  3
   1943   1942   3928   3919     1  0.0000000  1.6038667  3
   1944   1942   3928   3919     1  0.0000000  1.6038667  3
   1945   3958   3949   3950     1  0.0000000  1.6038667  3
   1945   3958   3949   3951     1  0.0000000  1.6038667  3
   1946   1945   3958   3949     1  0.0000000  1.6038667  3
   1947   1945   3958   3949     1  0.0000000  1.6038667  3
   1950   1951   1963   1964     1  0.0000000  0.6508444  3
   1950   1951   1963   1965     1  0.0000000  0.6508444  3
   1950   1954   1966   1967     1  0.0000000  0.6508444  3
   1950   1954   1966   1968     1  0.0000000  0.6508444  3
   1950   1957   1960   1961     1  0.0000000  0.6508444  3
   1950   1957   1960   1962     1  0.0000000  0.6508444  3
   1951   1950   1954   1955     1  0.0000000  0.6508444  3
   1951   1950   1954   1956     1  0.0000000  0.6508444  3
   1951   1950   1957   1958     1  0.0000000  0.6508444  3
   1951   1950   1957   1959     1  0.0000000  0.6508444  3
   1951   1963   1975   1976     1  0.0000000  0.6508444  3
   1951   1963   1975   1977     1  0.0000000  0.6508444  3
   1952   1951   1950   1954     1  0.0000000  0.6508444  3
   1952   1951   1950   1957     1  0.0000000  0.6508444  3
   1952   1951   1950   1979     1  0.0000000  0.6508444  3
   1952   1951   1963   1975     1  0.0000000  0.6508444  3
   1952   1951   1963   1964     1  0.0000000  0.6508444  3
   1952   1951   1963   1965     1  0.0000000  0.6508444  3
   1953   1951   1950   1954     1  0.0000000  0.6508444  3
   1953   1951   1950   1957     1  0.0000000  0.6508444  3
   1953   1951   1950   1979     1  0.0000000  0.6508444  3
   1953   1951   1963   1975     1  0.0000000  0.6508444  3
   1953   1951   1963   1964     1  0.0000000  0.6508444  3
   1953   1951   1963   1965     1  0.0000000  0.6508444  3
   1954   1950   1957   1958     1  0.0000000  0.6508444  3
   1954   1950   1957   1959     1  0.0000000  0.6508444  3
   1954   1966   1972   1973     1  0.0000000  0.6508444  3
   1954   1966   1972   1974     1  0.0000000  0.6508444  3
   1955   1954   1950   1957     1  0.0000000  0.6508444  3
   1955   1954   1950   1979     1  0.0000000  0.6508444  3
   1955   1954   1966   1972     1  0.0000000  0.6508444  3
   1955   1954   1966   1967     1  0.0000000  0.6508444  3
   1955   1954   1966   1968     1  0.0000000  0.6508444  3
   1956   1954   1950   1957     1  0.0000000  0.6508444  3
   1956   1954   1950   1979     1  0.0000000  0.6508444  3
   1956   1954   1966   1972     1  0.0000000  0.6508444  3
   1956   1954   1966   1967     1  0.0000000  0.6508444  3
   1956   1954   1966   1968     1  0.0000000  0.6508444  3
   1957   1960   1969   1970     1  0.0000000  0.6508444  3
   1957   1960   1969   1971     1  0.0000000  0.6508444  3
   1958   1957   1950   1979     1  0.0000000  0.6508444  3
   1958   1957   1960   1969     1  0.0000000  0.6508444  3
   1958   1957   1960   1961     1  0.0000000  0.6508444  3
   1958   1957   1960   1962     1  0.0000000  0.6508444  3
   1959   1957   1950   1979     1  0.0000000  0.6508444  3
   1959   1957   1960   1969     1  0.0000000  0.6508444  3
   1959   1957   1960   1961     1  0.0000000  0.6508444  3
   1959   1957   1960   1962     1  0.0000000  0.6508444  3
   1960   1957   1950   1979     1  0.0000000  0.6508444  3
   1961   1960   1969   1978     1  0.0000000  1.0460000  1
   1961   1960   1969   1978     1  0.0000000  0.0000000  3
   1961   1960   1969   1970     1  0.0000000  0.6508444  3
   1961   1960   1969   1971     1  0.0000000  0.6508444  3
   1962   1960   1969   1978     1  0.0000000  1.0460000  1
   1962   1960   1969   1978     1  0.0000000  0.0000000  3
   1962   1960   1969   1970     1  0.0000000  0.6508444  3
   1962   1960   1969   1971     1  0.0000000  0.6508444  3
   1963   1951   1950   1979     1  0.0000000  0.6508444  3
   1964   1963   1975   4018     1  0.0000000  1.0460000  1
   1964   1963   1975   4018     1  0.0000000  0.0000000  3
   1964   1963   1975   1976     1  0.0000000  0.6508444  3
   1964   1963   1975   1977     1  0.0000000  0.6508444  3
   1965   1963   1975   4018     1  0.0000000  1.0460000  1
   1965   1963   1975   4018     1  0.0000000  0.0000000  3
   1965   1963   1975   1976     1  0.0000000  0.6508444  3
   1965   1963   1975   1977     1  0.0000000  0.6508444  3
   1966   1954   1950   1979     1  0.0000000  0.6508444  3
   1967   1966   1972   3988     1  0.0000000  1.0460000  1
   1967   1966   1972   3988     1  0.0000000  0.0000000  3
   1967   1966   1972   1973     1  0.0000000  0.6508444  3
   1967   1966   1972   1974     1  0.0000000  0.6508444  3
   1968   1966   1972   3988     1  0.0000000  1.0460000  1
   1968   1966   1972   3988     1  0.0000000  0.0000000  3
   1968   1966   1972   1973     1  0.0000000  0.6508444  3
   1968   1966   1972   1974     1  0.0000000  0.6508444  3
   1972   3988   3979   3980     1  0.0000000  1.6038667  3
   1972   3988   3979   3981     1  0.0000000  1.6038667  3
   1973   1972   3988   3979     1  0.0000000  1.6038667  3
   1974   1972   3988   3979     1  0.0000000  1.6038667  3
   1975   4018   4009   4010     1  0.0000000  1.6038667  3
   1975   4018   4009   4011     1  0.0000000  1.6038667  3
   1976   1975   4018   4009     1  0.0000000  1.6038667  3
   1977   1975   4018   4009     1  0.0000000  1.6038667  3
   1980   1981   1993   1994     1  0.0000000  0.6508444  3
   1980   1981   1993   1995     1  0.0000000  0.6508444  3
   1980   1984   1996   1997     1  0.0000000  0.6508444  3
   1980   1984   1996   1998     1  0.0000000  0.6508444  3
   1980   1987   1990   1991     1  0.0000000  0.6508444  3
   1980   1987   1990   1992     1  0.0000000  0.6508444  3
   1981   1980   1984   1985     1  0.0000000  0.6508444  3
   1981   1980   1984   1986     1  0.0000000  0.6508444  3
   1981   1980   1987   1988     1  0.0000000  0.6508444  3
   1981   1980   1987   1989     1  0.0000000  0.6508444  3
   1981   1993   2005   2006     1  0.0000000  0.6508444  3
   1981   1993   2005   2007     1  0.0000000  0.6508444  3
   1982   1981   1980   1984     1  0.0000000  0.6508444  3
   1982   1981   1980   1987     1  0.0000000  0.6508444  3
   1982   1981   1980   2009     1  0.0000000  0.6508444  3
   1982   1981   1993   2005     1  0.0000000  0.6508444  3
   1982   1981   1993   1994     1  0.0000000  0.6508444  3
   1982   1981   1993   1995     1  0.0000000  0.6508444  3
   1983   1981   1980   1984     1  0.0000000  0.6508444  3
   1983   1981   1980   1987     1  0.0000000  0.6508444  3
   1983   1981   1980   2009     1  0.0000000  0.6508444  3
   1983   1981   1993   2005     1  0.0000000  0.6508444  3
   1983   1981   1993   1994     1  0.0000000  0.6508444  3
   1983   1981   1993   1995     1  0.0000000  0.6508444  3
   1984   1980   1987   1988     1  0.0000000  0.6508444  3
   1984   1980   1987   1989     1  0.0000000  0.6508444  3
   1984   1996   2002   2003     1  0.0000000  0.6508444  3
   1984   1996   2002   2004     1  0.0000000  0.6508444  3
   1985   1984   1980   1987     1  0.0000000  0.6508444  3
   1985   1984   1980   2009     1  0.0000000  0.6508444  3
   1985   1984   1996   2002     1  0.0000000  0.6508444  3
   1985   1984   1996   1997     1  0.0000000  0.6508444  3
   1985   1984   1996   1998     1  0.0000000  0.6508444  3
   1986   1984   1980   1987     1  0.0000000  0.6508444  3
   1986   1984   1980   2009     1  0.0000000  0.6508444  3
   1986   1984   1996   2002     1  0.0000000  0.6508444  3
   1986   1984   1996   1997     1  0.0000000  0.6508444  3
   1986   1984   1996   1998     1  0.0000000  0.6508444  3
   1987   1990   1999   2000     1  0.0000000  0.6508444  3
   1987   1990   1999   2001     1  0.0000000  0.6508444  3
   1988   1987   1980   2009     1  0.0000000  0.6508444  3
   1988   1987   1990   1999     1  0.0000000  0.6508444  3
   1988   1987   1990   1991     1  0.0000000  0.6508444  3
   1988   1987   1990   1992     1  0.0000000  0.6508444  3
   1989   1987   1980   2009     1  0.0000000  0.6508444  3
   1989   1987   1990   1999     1  0.0000000  0.6508444  3
   1989   1987   1990   1991     1  0.0000000  0.6508444  3
   1989   1987   1990   1992     1  0.0000000  0.6508444  3
   1990   1987   1980   2009     1  0.0000000  0.6508444  3
   1991   1990   1999   2008     1  0.0000000  1.0460000  1
   1991   1990   1999   2008     1  0.0000000  0.0000000  3
   1991   1990   1999   2000     1  0.0000000  0.6508444  3
   1991   1990   1999   2001     1  0.0000000  0.6508444  3
   1992   1990   1999   2008     1  0.0000000  1.0460000  1
   1992   1990   1999   2008     1  0.0000000  0.0000000  3
   1992   1990   1999   2000     1  0.0000000  0.6508444  3
   1992   1990   1999   2001     1  0.0000000  0.6508444  3
   1993   1981   1980   2009     1  0.0000000  0.6508444  3
   1994   1993   2005   4078     1  0.0000000  1.0460000  1
   1994   1993   2005   4078     1  0.0000000  0.0000000  3
   1994   1993   2005   2006     1  0.0000000  0.6508444  3
   1994   1993   2005   2007     1  0.0000000  0.6508444  3
   1995   1993   2005   4078     1  0.0000000  1.0460000  1
   1995   1993   2005   4078     1  0.0000000  0.0000000  3
   1995   1993   2005   2006     1  0.0000000  0.6508444  3
   1995   1993   2005   2007     1  0.0000000  0.6508444  3
   1996   1984   1980   2009     1  0.0000000  0.6508444  3
   1997   1996   2002   4048     1  0.0000000  1.0460000  1
   1997   1996   2002   4048     1  0.0000000  0.0000000  3
   1997   1996   2002   2003     1  0.0000000  0.6508444  3
   1997   1996   2002   2004     1  0.0000000  0.6508444  3
   1998   1996   2002   4048     1  0.0000000  1.0460000  1
   1998   1996   2002   4048     1  0.0000000  0.0000000  3
   1998   1996   2002   2003     1  0.0000000  0.6508444  3
   1998   1996   2002   2004     1  0.0000000  0.6508444  3
   2002   4048   4039   4040     1  0.0000000  1.6038667  3
   2002   4048   4039   4041     1  0.0000000  1.6038667  3
   2003   2002   4048   4039     1  0.0000000  1.6038667  3
   2004   2002   4048   4039     1  0.0000000  1.6038667  3
   2005   4078   4069   4070     1  0.0000000  1.6038667  3
   2005   4078   4069   4071     1  0.0000000  1.6038667  3
   2006   2005   4078   4069     1  0.0000000  1.6038667  3
   2007   2005   4078   4069     1  0.0000000  1.6038667  3
   2010   2011   2023   2024     1  0.0000000  0.6508444  3
   2010   2011   2023   2025     1  0.0000000  0.6508444  3
   2010   2014   2026   2027     1  0.0000000  0.6508444  3
   2010   2014   2026   2028     1  0.0000000  0.6508444  3
   2010   2017   2020   2021     1  0.0000000  0.6508444  3
   2010   2017   2020   2022     1  0.0000000  0.6508444  3
   2011   2010   2014   2015     1  0.0000000  0.6508444  3
   2011   2010   2014   2016     1  0.0000000  0.6508444  3
   2011   2010   2017   2018     1  0.0000000  0.6508444  3
   2011   2010   2017   2019     1  0.0000000  0.6508444  3
   2011   2023   2035   2036     1  0.0000000  0.6508444  3
   2011   2023   2035   2037     1  0.0000000  0.6508444  3
   2012   2011   2010   2014     1  0.0000000  0.6508444  3
   2012   2011   2010   2017     1  0.0000000  0.6508444  3
   2012   2011   2010   2039     1  0.0000000  0.6508444  3
   2012   2011   2023   2035     1  0.0000000  0.6508444  3
   2012   2011   2023   2024     1  0.0000000  0.6508444  3
   2012   2011   2023   2025     1  0.0000000  0.6508444  3
   2013   2011   2010   2014     1  0.0000000  0.6508444  3
   2013   2011   2010   2017     1  0.0000000  0.6508444  3
   2013   2011   2010   2039     1  0.0000000  0.6508444  3
   2013   2011   2023   2035     1  0.0000000  0.6508444  3
   2013   2011   2023   2024     1  0.0000000  0.6508444  3
   2013   2011   2023   2025     1  0.0000000  0.6508444  3
   2014   2010   2017   2018     1  0.0000000  0.6508444  3
   2014   2010   2017   2019     1  0.0000000  0.6508444  3
   2014   2026   2032   2033     1  0.0000000  0.6508444  3
   2014   2026   2032   2034     1  0.0000000  0.6508444  3
   2015   2014   2010   2017     1  0.0000000  0.6508444  3
   2015   2014   2010   2039     1  0.0000000  0.6508444  3
   2015   2014   2026   2032     1  0.0000000  0.6508444  3
   2015   2014   2026   2027     1  0.0000000  0.6508444  3
   2015   2014   2026   2028     1  0.0000000  0.6508444  3
   2016   2014   2010   2017     1  0.0000000  0.6508444  3
   2016   2014   2010   2039     1  0.0000000  0.6508444  3
   2016   2014   2026   2032     1  0.0000000  0.6508444  3
   2016   2014   2026   2027     1  0.0000000  0.6508444  3
   2016   2014   2026   2028     1  0.0000000  0.6508444  3
   2017   2020   2029   2030     1  0.0000000  0.6508444  3
   2017   2020   2029   2031     1  0.0000000  0.6508444  3
   2018   2017   2010   2039     1  0.0000000  0.6508444  3
   2018   2017   2020   2029     1  0.0000000  0.6508444  3
   2018   2017   2020   2021     1  0.0000000  0.6508444  3
   2018   2017   2020   2022     1  0.0000000  0.6508444  3
   2019   2017   2010   2039     1  0.0000000  0.6508444  3
   2019   2017   2020   2029     1  0.0000000  0.6508444  3
   2019   2017   2020   2021     1  0.0000000  0.6508444  3
   2019   2017   2020   2022     1  0.0000000  0.6508444  3
   2020   2017   2010   2039     1  0.0000000  0.6508444  3
   2021   2020   2029   2038     1  0.0000000  1.0460000  1
   2021   2020   2029   2038     1  0.0000000  0.0000000  3
   2021   2020   2029   2030     1  0.0000000  0.6508444  3
   2021   2020   2029   2031     1  0.0000000  0.6508444  3
   2022   2020   2029   2038     1  0.0000000  1.0460000  1
   2022   2020   2029   2038     1  0.0000000  0.0000000  3
   2022   2020   2029   2030     1  0.0000000  0.6508444  3
   2022   2020   2029   2031     1  0.0000000  0.6508444  3
   2023   2011   2010   2039     1  0.0000000  0.6508444  3
   2024   2023   2035   4138     1  0.0000000  1.0460000  1
   2024   2023   2035   4138     1  0.0000000  0.0000000  3
   2024   2023   2035   2036     1  0.0000000  0.6508444  3
   2024   2023   2035   2037     1  0.0000000  0.6508444  3
   2025   2023   2035   4138     1  0.0000000  1.0460000  1
   2025   2023   2035   4138     1  0.0000000  0.0000000  3
   2025   2023   2035   2036     1  0.0000000  0.6508444  3
   2025   2023   2035   2037     1  0.0000000  0.6508444  3
   2026   2014   2010   2039     1  0.0000000  0.6508444  3
   2027   2026   2032   4108     1  0.0000000  1.0460000  1
   2027   2026   2032   4108     1  0.0000000  0.0000000  3
   2027   2026   2032   2033     1  0.0000000  0.6508444  3
   2027   2026   2032   2034     1  0.0000000  0.6508444  3
   2028   2026   2032   4108     1  0.0000000  1.0460000  1
   2028   2026   2032   4108     1  0.0000000  0.0000000  3
   2028   2026   2032   2033     1  0.0000000  0.6508444  3
   2028   2026   2032   2034     1  0.0000000  0.6508444  3
   2032   4108   4099   4100     1  0.0000000  1.6038667  3
   2032   4108   4099   4101     1  0.0000000  1.6038667  3
   2033   2032   4108   4099     1  0.0000000  1.6038667  3
   2034   2032   4108   4099     1  0.0000000  1.6038667  3
   2035   4138   4129   4130     1  0.0000000  1.6038667  3
   2035   4138   4129   4131     1  0.0000000  1.6038667  3
   2036   2035   4138   4129     1  0.0000000  1.6038667  3
   2037   2035   4138   4129     1  0.0000000  1.6038667  3
   2040   2041   2053   2054     1  0.0000000  0.6508444  3
   2040   2041   2053   2055     1  0.0000000  0.6508444  3
   2040   2044   2056   2057     1  0.0000000  0.6508444  3
   2040   2044   2056   2058     1  0.0000000  0.6508444  3
   2040   2047   2050   2051     1  0.0000000  0.6508444  3
   2040   2047   2050   2052     1  0.0000000  0.6508444  3
   2041   2040   2044   2045     1  0.0000000  0.6508444  3
   2041   2040   2044   2046     1  0.0000000  0.6508444  3
   2041   2040   2047   2048     1  0.0000000  0.6508444  3
   2041   2040   2047   2049     1  0.0000000  0.6508444  3
   2041   2053   2065   2066     1  0.0000000  0.6508444  3
   2041   2053   2065   2067     1  0.0000000  0.6508444  3
   2042   2041   2040   2044     1  0.0000000  0.6508444  3
   2042   2041   2040   2047     1  0.0000000  0.6508444  3
   2042   2041   2040   2069     1  0.0000000  0.6508444  3
   2042   2041   2053   2065     1  0.0000000  0.6508444  3
   2042   2041   2053   2054     1  0.0000000  0.6508444  3
   2042   2041   2053   2055     1  0.0000000  0.6508444  3
   2043   2041   2040   2044     1  0.0000000  0.6508444  3
   2043   2041   2040   2047     1  0.0000000  0.6508444  3
   2043   2041   2040   2069     1  0.0000000  0.6508444  3
   2043   2041   2053   2065     1  0.0000000  0.6508444  3
   2043   2041   2053   2054     1  0.0000000  0.6508444  3
   2043   2041   2053   2055     1  0.0000000  0.6508444  3
   2044   2040   2047   2048     1  0.0000000  0.6508444  3
   2044   2040   2047   2049     1  0.0000000  0.6508444  3
   2044   2056   2062   2063     1  0.0000000  0.6508444  3
   2044   2056   2062   2064     1  0.0000000  0.6508444  3
   2045   2044   2040   2047     1  0.0000000  0.6508444  3
   2045   2044   2040   2069     1  0.0000000  0.6508444  3
   2045   2044   2056   2062     1  0.0000000  0.6508444  3
   2045   2044   2056   2057     1  0.0000000  0.6508444  3
   2045   2044   2056   2058     1  0.0000000  0.6508444  3
   2046   2044   2040   2047     1  0.0000000  0.6508444  3
   2046   2044   2040   2069     1  0.0000000  0.6508444  3
   2046   2044   2056   2062     1  0.0000000  0.6508444  3
   2046   2044   2056   2057     1  0.0000000  0.6508444  3
   2046   2044   2056   2058     1  0.0000000  0.6508444  3
   2047   2050   2059   2060     1  0.0000000  0.6508444  3
   2047   2050   2059   2061     1  0.0000000  0.6508444  3
   2048   2047   2040   2069     1  0.0000000  0.6508444  3
   2048   2047   2050   2059     1  0.0000000  0.6508444  3
   2048   2047   2050   2051     1  0.0000000  0.6508444  3
   2048   2047   2050   2052     1  0.0000000  0.6508444  3
   2049   2047   2040   2069     1  0.0000000  0.6508444  3
   2049   2047   2050   2059     1  0.0000000  0.6508444  3
   2049   2047   2050   2051     1  0.0000000  0.6508444  3
   2049   2047   2050   2052     1  0.0000000  0.6508444  3
   2050   2047   2040   2069     1  0.0000000  0.6508444  3
   2051   2050   2059   2068     1  0.0000000  1.0460000  1
   2051   2050   2059   2068     1  0.0000000  0.0000000  3
   2051   2050   2059   2060     1  0.0000000  0.6508444  3
   2051   2050   2059   2061     1  0.0000000  0.6508444  3
   2052   2050   2059   2068     1  0.0000000  1.0460000  1
   2052   2050   2059   2068     1  0.0000000  0.0000000  3
   2052   2050   2059   2060     1  0.0000000  0.6508444  3
   2052   2050   2059   2061     1  0.0000000  0.6508444  3
   2053   2041   2040   2069     1  0.0000000  0.6508444  3
   2054   2053   2065   4198     1  0.0000000  1.0460000  1
   2054   2053   2065   4198     1  0.0000000  0.0000000  3
   2054   2053   2065   2066     1  0.0000000  0.6508444  3
   2054   2053   2065   2067     1  0.0000000  0.6508444  3
   2055   2053   2065   4198     1  0.0000000  1.0460000  1
   2055   2053   2065   4198     1  0.0000000  0.0000000  3
   2055   2053   2065   2066     1  0.0000000  0.6508444  3
   2055   2053   2065   2067     1  0.0000000  0.6508444  3
   2056   2044   2040   2069     1  0.0000000  0.6508444  3
   2057   2056   2062   4168     1  0.0000000  1.0460000  1
   2057   2056   2062   4168     1  0.0000000  0.0000000  3
   2057   2056   2062   2063     1  0.0000000  0.6508444  3
   2057   2056   2062   2064     1  0.0000000  0.6508444  3
   2058   2056   2062   4168     1  0.0000000  1.0460000  1
   2058   2056   2062   4168     1  0.0000000  0.0000000  3
   2058   2056   2062   2063     1  0.0000000  0.6508444  3
   2058   2056   2062   2064     1  0.0000000  0.6508444  3
   2062   4168   4159   4160     1  0.0000000  1.6038667  3
   2062   4168   4159   4161     1  0.0000000  1.6038667  3
   2063   2062   4168   4159     1  0.0000000  1.6038667  3
   2064   2062   4168   4159     1  0.0000000  1.6038667  3
   2065   4198   4189   4190     1  0.0000000  1.6038667  3
   2065   4198   4189   4191     1  0.0000000  1.6038667  3
   2066   2065   4198   4189     1  0.0000000  1.6038667  3
   2067   2065   4198   4189     1  0.0000000  1.6038667  3
   2070   2071   2083   2084     1  0.0000000  0.6508444  3
   2070   2071   2083   2085     1  0.0000000  0.6508444  3
   2070   2074   2086   2087     1  0.0000000  0.6508444  3
   2070   2074   2086   2088     1  0.0000000  0.6508444  3
   2070   2077   2080   2081     1  0.0000000  0.6508444  3
   2070   2077   2080   2082     1  0.0000000  0.6508444  3
   2071   2070   2074   2075     1  0.0000000  0.6508444  3
   2071   2070   2074   2076     1  0.0000000  0.6508444  3
   2071   2070   2077   2078     1  0.0000000  0.6508444  3
   2071   2070   2077   2079     1  0.0000000  0.6508444  3
   2071   2083   2095   2096     1  0.0000000  0.6508444  3
   2071   2083   2095   2097     1  0.0000000  0.6508444  3
   2072   2071   2070   2074     1  0.0000000  0.6508444  3
   2072   2071   2070   2077     1  0.0000000  0.6508444  3
   2072   2071   2070   2099     1  0.0000000  0.6508444  3
   2072   2071   2083   2095     1  0.0000000  0.6508444  3
   2072   2071   2083   2084     1  0.0000000  0.6508444  3
   2072   2071   2083   2085     1  0.0000000  0.6508444  3
   2073   2071   2070   2074     1  0.0000000  0.6508444  3
   2073   2071   2070   2077     1  0.0000000  0.6508444  3
   2073   2071   2070   2099     1  0.0000000  0.6508444  3
   2073   2071   2083   2095     1  0.0000000  0.6508444  3
   2073   2071   2083   2084     1  0.0000000  0.6508444  3
   2073   2071   2083   2085     1  0.0000000  0.6508444  3
   2074   2070   2077   2078     1  0.0000000  0.6508444  3
   2074   2070   2077   2079     1  0.0000000  0.6508444  3
   2074   2086   2092   2093     1  0.0000000  0.6508444  3
   2074   2086   2092   2094     1  0.0000000  0.6508444  3
   2075   2074   2070   2077     1  0.0000000  0.6508444  3
   2075   2074   2070   2099     1  0.0000000  0.6508444  3
   2075   2074   2086   2092     1  0.0000000  0.6508444  3
   2075   2074   2086   2087     1  0.0000000  0.6508444  3
   2075   2074   2086   2088     1  0.0000000  0.6508444  3
   2076   2074   2070   2077     1  0.0000000  0.6508444  3
   2076   2074   2070   2099     1  0.0000000  0.6508444  3
   2076   2074   2086   2092     1  0.0000000  0.6508444  3
   2076   2074   2086   2087     1  0.0000000  0.6508444  3
   2076   2074   2086   2088     1  0.0000000  0.6508444  3
   2077   2080   2089   2090     1  0.0000000  0.6508444  3
   2077   2080   2089   2091     1  0.0000000  0.6508444  3
   2078   2077   2070   2099     1  0.0000000  0.6508444  3
   2078   2077   2080   2089     1  0.0000000  0.6508444  3
   2078   2077   2080   2081     1  0.0000000  0.6508444  3
   2078   2077   2080   2082     1  0.0000000  0.6508444  3
   2079   2077   2070   2099     1  0.0000000  0.6508444  3
   2079   2077   2080   2089     1  0.0000000  0.6508444  3
   2079   2077   2080   2081     1  0.0000000  0.6508444  3
   2079   2077   2080   2082     1  0.0000000  0.6508444  3
   2080   2077   2070   2099     1  0.0000000  0.6508444  3
   2081   2080   2089   2098     1  0.0000000  1.0460000  1
   2081   2080   2089   2098     1  0.0000000  0.0000000  3
   2081   2080   2089   2090     1  0.0000000  0.6508444  3
   2081   2080   2089   2091     1  0.0000000  0.6508444  3
   2082   2080   2089   2098     1  0.0000000  1.0460000  1
   2082   2080   2089   2098     1  0.0000000  0.0000000  3
   2082   2080   2089   2090     1  0.0000000  0.6508444  3
   2082   2080   2089   2091     1  0.0000000  0.6508444  3
   2083   2071   2070   2099     1  0.0000000  0.6508444  3
   2084   2083   2095   4258     1  0.0000000  1.0460000  1
   2084   2083   2095   4258     1  0.0000000  0.0000000  3
   2084   2083   2095   2096     1  0.0000000  0.6508444  3
   2084   2083   2095   2097     1  0.0000000  0.6508444  3
   2085   2083   2095   4258     1  0.0000000  1.0460000  1
   2085   2083   2095   4258     1  0.0000000  0.0000000  3
   2085   2083   2095   2096     1  0.0000000  0.6508444  3
   2085   2083   2095   2097     1  0.0000000  0.6508444  3
   2086   2074   2070   2099     1  0.0000000  0.6508444  3
   2087   2086   2092   4228     1  0.0000000  1.0460000  1
   2087   2086   2092   4228     1  0.0000000  0.0000000  3
   2087   2086   2092   2093     1  0.0000000  0.6508444  3
   2087   2086   2092   2094     1  0.0000000  0.6508444  3
   2088   2086   2092   4228     1  0.0000000  1.0460000  1
   2088   2086   2092   4228     1  0.0000000  0.0000000  3
   2088   2086   2092   2093     1  0.0000000  0.6508444  3
   2088   2086   2092   2094     1  0.0000000  0.6508444  3
   2092   4228   4219   4220     1  0.0000000  1.6038667  3
   2092   4228   4219   4221     1  0.0000000  1.6038667  3
   2093   2092   4228   4219     1  0.0000000  1.6038667  3
   2094   2092   4228   4219     1  0.0000000  1.6038667  3
   2095   4258   4249   4250     1  0.0000000  1.6038667  3
   2095   4258   4249   4251     1  0.0000000  1.6038667  3
   2096   2095   4258   4249     1  0.0000000  1.6038667  3
   2097   2095   4258   4249     1  0.0000000  1.6038667  3
   2100   2101   2113   2114     1  0.0000000  0.6508444  3
   2100   2101   2113   2115     1  0.0000000  0.6508444  3
   2100   2104   2116   2117     1  0.0000000  0.6508444  3
   2100   2104   2116   2118     1  0.0000000  0.6508444  3
   2100   2107   2110   2111     1  0.0000000  0.6508444  3
   2100   2107   2110   2112     1  0.0000000  0.6508444  3
   2101   2100   2104   2105     1  0.0000000  0.6508444  3
   2101   2100   2104   2106     1  0.0000000  0.6508444  3
   2101   2100   2107   2108     1  0.0000000  0.6508444  3
   2101   2100   2107   2109     1  0.0000000  0.6508444  3
   2101   2113   2125   2126     1  0.0000000  0.6508444  3
   2101   2113   2125   2127     1  0.0000000  0.6508444  3
   2102   2101   2100   2104     1  0.0000000  0.6508444  3
   2102   2101   2100   2107     1  0.0000000  0.6508444  3
   2102   2101   2100   2129     1  0.0000000  0.6508444  3
   2102   2101   2113   2125     1  0.0000000  0.6508444  3
   2102   2101   2113   2114     1  0.0000000  0.6508444  3
   2102   2101   2113   2115     1  0.0000000  0.6508444  3
   2103   2101   2100   2104     1  0.0000000  0.6508444  3
   2103   2101   2100   2107     1  0.0000000  0.6508444  3
   2103   2101   2100   2129     1  0.0000000  0.6508444  3
   2103   2101   2113   2125     1  0.0000000  0.6508444  3
   2103   2101   2113   2114     1  0.0000000  0.6508444  3
   2103   2101   2113   2115     1  0.0000000  0.6508444  3
   2104   2100   2107   2108     1  0.0000000  0.6508444  3
   2104   2100   2107   2109     1  0.0000000  0.6508444  3
   2104   2116   2122   2123     1  0.0000000  0.6508444  3
   2104   2116   2122   2124     1  0.0000000  0.6508444  3
   2105   2104   2100   2107     1  0.0000000  0.6508444  3
   2105   2104   2100   2129     1  0.0000000  0.6508444  3
   2105   2104   2116   2122     1  0.0000000  0.6508444  3
   2105   2104   2116   2117     1  0.0000000  0.6508444  3
   2105   2104   2116   2118     1  0.0000000  0.6508444  3
   2106   2104   2100   2107     1  0.0000000  0.6508444  3
   2106   2104   2100   2129     1  0.0000000  0.6508444  3
   2106   2104   2116   2122     1  0.0000000  0.6508444  3
   2106   2104   2116   2117     1  0.0000000  0.6508444  3
   2106   2104   2116   2118     1  0.0000000  0.6508444  3
   2107   2110   2119   2120     1  0.0000000  0.6508444  3
   2107   2110   2119   2121     1  0.0000000  0.6508444  3
   2108   2107   2100   2129     1  0.0000000  0.6508444  3
   2108   2107   2110   2119     1  0.0000000  0.6508444  3
   2108   2107   2110   2111     1  0.0000000  0.6508444  3
   2108   2107   2110   2112     1  0.0000000  0.6508444  3
   2109   2107   2100   2129     1  0.0000000  0.6508444  3
   2109   2107   2110   2119     1  0.0000000  0.6508444  3
   2109   2107   2110   2111     1  0.0000000  0.6508444  3
   2109   2107   2110   2112     1  0.0000000  0.6508444  3
   2110   2107   2100   2129     1  0.0000000  0.6508444  3
   2111   2110   2119   2128     1  0.0000000  1.0460000  1
   2111   2110   2119   2128     1  0.0000000  0.0000000  3
   2111   2110   2119   2120     1  0.0000000  0.6508444  3
   2111   2110   2119   2121     1  0.0000000  0.6508444  3
   2112   2110   2119   2128     1  0.0000000  1.0460000  1
   2112   2110   2119   2128     1  0.0000000  0.0000000  3
   2112   2110   2119   2120     1  0.0000000  0.6508444  3
   2112   2110   2119   2121     1  0.0000000  0.6508444  3
   2113   2101   2100   2129     1  0.0000000  0.6508444  3
   2114   2113   2125   4318     1  0.0000000  1.0460000  1
   2114   2113   2125   4318     1  0.0000000  0.0000000  3
   2114   2113   2125   2126     1  0.0000000  0.6508444  3
   2114   2113   2125   2127     1  0.0000000  0.6508444  3
   2115   2113   2125   4318     1  0.0000000  1.0460000  1
   2115   2113   2125   4318     1  0.0000000  0.0000000  3
   2115   2113   2125   2126     1  0.0000000  0.6508444  3
   2115   2113   2125   2127     1  0.0000000  0.6508444  3
   2116   2104   2100   2129     1  0.0000000  0.6508444  3
   2117   2116   2122   4288     1  0.0000000  1.0460000  1
   2117   2116   2122   4288     1  0.0000000  0.0000000  3
   2117   2116   2122   2123     1  0.0000000  0.6508444  3
   2117   2116   2122   2124     1  0.0000000  0.6508444  3
   2118   2116   2122   4288     1  0.0000000  1.0460000  1
   2118   2116   2122   4288     1  0.0000000  0.0000000  3
   2118   2116   2122   2123     1  0.0000000  0.6508444  3
   2118   2116   2122   2124     1  0.0000000  0.6508444  3
   2122   4288   4279   4280     1  0.0000000  1.6038667  3
   2122   4288   4279   4281     1  0.0000000  1.6038667  3
   2123   2122   4288   4279     1  0.0000000  1.6038667  3
   2124   2122   4288   4279     1  0.0000000  1.6038667  3
   2125   4318   4309   4310     1  0.0000000  1.6038667  3
   2125   4318   4309   4311     1  0.0000000  1.6038667  3
   2126   2125   4318   4309     1  0.0000000  1.6038667  3
   2127   2125   4318   4309     1  0.0000000  1.6038667  3
   2130   2131   2143   2144     1  0.0000000  0.6508444  3
   2130   2131   2143   2145     1  0.0000000  0.6508444  3
   2130   2134   2146   2147     1  0.0000000  0.6508444  3
   2130   2134   2146   2148     1  0.0000000  0.6508444  3
   2130   2137   2140   2141     1  0.0000000  0.6508444  3
   2130   2137   2140   2142     1  0.0000000  0.6508444  3
   2131   2130   2134   2135     1  0.0000000  0.6508444  3
   2131   2130   2134   2136     1  0.0000000  0.6508444  3
   2131   2130   2137   2138     1  0.0000000  0.6508444  3
   2131   2130   2137   2139     1  0.0000000  0.6508444  3
   2131   2143   2155   2156     1  0.0000000  0.6508444  3
   2131   2143   2155   2157     1  0.0000000  0.6508444  3
   2132   2131   2130   2134     1  0.0000000  0.6508444  3
   2132   2131   2130   2137     1  0.0000000  0.6508444  3
   2132   2131   2130   2159     1  0.0000000  0.6508444  3
   2132   2131   2143   2155     1  0.0000000  0.6508444  3
   2132   2131   2143   2144     1  0.0000000  0.6508444  3
   2132   2131   2143   2145     1  0.0000000  0.6508444  3
   2133   2131   2130   2134     1  0.0000000  0.6508444  3
   2133   2131   2130   2137     1  0.0000000  0.6508444  3
   2133   2131   2130   2159     1  0.0000000  0.6508444  3
   2133   2131   2143   2155     1  0.0000000  0.6508444  3
   2133   2131   2143   2144     1  0.0000000  0.6508444  3
   2133   2131   2143   2145     1  0.0000000  0.6508444  3
   2134   2130   2137   2138     1  0.0000000  0.6508444  3
   2134   2130   2137   2139     1  0.0000000  0.6508444  3
   2134   2146   2152   2153     1  0.0000000  0.6508444  3
   2134   2146   2152   2154     1  0.0000000  0.6508444  3
   2135   2134   2130   2137     1  0.0000000  0.6508444  3
   2135   2134   2130   2159     1  0.0000000  0.6508444  3
   2135   2134   2146   2152     1  0.0000000  0.6508444  3
   2135   2134   2146   2147     1  0.0000000  0.6508444  3
   2135   2134   2146   2148     1  0.0000000  0.6508444  3
   2136   2134   2130   2137     1  0.0000000  0.6508444  3
   2136   2134   2130   2159     1  0.0000000  0.6508444  3
   2136   2134   2146   2152     1  0.0000000  0.6508444  3
   2136   2134   2146   2147     1  0.0000000  0.6508444  3
   2136   2134   2146   2148     1  0.0000000  0.6508444  3
   2137   2140   2149   2150     1  0.0000000  0.6508444  3
   2137   2140   2149   2151     1  0.0000000  0.6508444  3
   2138   2137   2130   2159     1  0.0000000  0.6508444  3
   2138   2137   2140   2149     1  0.0000000  0.6508444  3
   2138   2137   2140   2141     1  0.0000000  0.6508444  3
   2138   2137   2140   2142     1  0.0000000  0.6508444  3
   2139   2137   2130   2159     1  0.0000000  0.6508444  3
   2139   2137   2140   2149     1  0.0000000  0.6508444  3
   2139   2137   2140   2141     1  0.0000000  0.6508444  3
   2139   2137   2140   2142     1  0.0000000  0.6508444  3
   2140   2137   2130   2159     1  0.0000000  0.6508444  3
   2141   2140   2149   2158     1  0.0000000  1.0460000  1
   2141   2140   2149   2158     1  0.0000000  0.0000000  3
   2141   2140   2149   2150     1  0.0000000  0.6508444  3
   2141   2140   2149   2151     1  0.0000000  0.6508444  3
   2142   2140   2149   2158     1  0.0000000  1.0460000  1
   2142   2140   2149   2158     1  0.0000000  0.0000000  3
   2142   2140   2149   2150     1  0.0000000  0.6508444  3
   2142   2140   2149   2151     1  0.0000000  0.6508444  3
   2143   2131   2130   2159     1  0.0000000  0.6508444  3
   2144   2143   2155   4378     1  0.0000000  1.0460000  1
   2144   2143   2155   4378     1  0.0000000  0.0000000  3
   2144   2143   2155   2156     1  0.0000000  0.6508444  3
   2144   2143   2155   2157     1  0.0000000  0.6508444  3
   2145   2143   2155   4378     1  0.0000000  1.0460000  1
   2145   2143   2155   4378     1  0.0000000  0.0000000  3
   2145   2143   2155   2156     1  0.0000000  0.6508444  3
   2145   2143   2155   2157     1  0.0000000  0.6508444  3
   2146   2134   2130   2159     1  0.0000000  0.6508444  3
   2147   2146   2152   4348     1  0.0000000  1.0460000  1
   2147   2146   2152   4348     1  0.0000000  0.0000000  3
   2147   2146   2152   2153     1  0.0000000  0.6508444  3
   2147   2146   2152   2154     1  0.0000000  0.6508444  3
   2148   2146   2152   4348     1  0.0000000  1.0460000  1
   2148   2146   2152   4348     1  0.0000000  0.0000000  3
   2148   2146   2152   2153     1  0.0000000  0.6508444  3
   2148   2146   2152   2154     1  0.0000000  0.6508444  3
   2152   4348   4339   4340     1  0.0000000  1.6038667  3
   2152   4348   4339   4341     1  0.0000000  1.6038667  3
   2153   2152   4348   4339     1  0.0000000  1.6038667  3
   2154   2152   4348   4339     1  0.0000000  1.6038667  3
   2155   4378   4369   4370     1  0.0000000  1.6038667  3
   2155   4378   4369   4371     1  0.0000000  1.6038667  3
   2156   2155   4378   4369     1  0.0000000  1.6038667  3
   2157   2155   4378   4369     1  0.0000000  1.6038667  3
   2160   2161   2173   2174     1  0.0000000  0.6508444  3
   2160   2161   2173   2175     1  0.0000000  0.6508444  3
   2160   2164   2176   2177     1  0.0000000  0.6508444  3
   2160   2164   2176   2178     1  0.0000000  0.6508444  3
   2160   2167   2170   2171     1  0.0000000  0.6508444  3
   2160   2167   2170   2172     1  0.0000000  0.6508444  3
   2161   2160   2164   2165     1  0.0000000  0.6508444  3
   2161   2160   2164   2166     1  0.0000000  0.6508444  3
   2161   2160   2167   2168     1  0.0000000  0.6508444  3
   2161   2160   2167   2169     1  0.0000000  0.6508444  3
   2161   2173   2185   2186     1  0.0000000  0.6508444  3
   2161   2173   2185   2187     1  0.0000000  0.6508444  3
   2162   2161   2160   2164     1  0.0000000  0.6508444  3
   2162   2161   2160   2167     1  0.0000000  0.6508444  3
   2162   2161   2160   2189     1  0.0000000  0.6508444  3
   2162   2161   2173   2185     1  0.0000000  0.6508444  3
   2162   2161   2173   2174     1  0.0000000  0.6508444  3
   2162   2161   2173   2175     1  0.0000000  0.6508444  3
   2163   2161   2160   2164     1  0.0000000  0.6508444  3
   2163   2161   2160   2167     1  0.0000000  0.6508444  3
   2163   2161   2160   2189     1  0.0000000  0.6508444  3
   2163   2161   2173   2185     1  0.0000000  0.6508444  3
   2163   2161   2173   2174     1  0.0000000  0.6508444  3
   2163   2161   2173   2175     1  0.0000000  0.6508444  3
   2164   2160   2167   2168     1  0.0000000  0.6508444  3
   2164   2160   2167   2169     1  0.0000000  0.6508444  3
   2164   2176   2182   2183     1  0.0000000  0.6508444  3
   2164   2176   2182   2184     1  0.0000000  0.6508444  3
   2165   2164   2160   2167     1  0.0000000  0.6508444  3
   2165   2164   2160   2189     1  0.0000000  0.6508444  3
   2165   2164   2176   2182     1  0.0000000  0.6508444  3
   2165   2164   2176   2177     1  0.0000000  0.6508444  3
   2165   2164   2176   2178     1  0.0000000  0.6508444  3
   2166   2164   2160   2167     1  0.0000000  0.6508444  3
   2166   2164   2160   2189     1  0.0000000  0.6508444  3
   2166   2164   2176   2182     1  0.0000000  0.6508444  3
   2166   2164   2176   2177     1  0.0000000  0.6508444  3
   2166   2164   2176   2178     1  0.0000000  0.6508444  3
   2167   2170   2179   2180     1  0.0000000  0.6508444  3
   2167   2170   2179   2181     1  0.0000000  0.6508444  3
   2168   2167   2160   2189     1  0.0000000  0.6508444  3
   2168   2167   2170   2179     1  0.0000000  0.6508444  3
   2168   2167   2170   2171     1  0.0000000  0.6508444  3
   2168   2167   2170   2172     1  0.0000000  0.6508444  3
   2169   2167   2160   2189     1  0.0000000  0.6508444  3
   2169   2167   2170   2179     1  0.0000000  0.6508444  3
   2169   2167   2170   2171     1  0.0000000  0.6508444  3
   2169   2167   2170   2172     1  0.0000000  0.6508444  3
   2170   2167   2160   2189     1  0.0000000  0.6508444  3
   2171   2170   2179   2188     1  0.0000000  1.0460000  1
   2171   2170   2179   2188     1  0.0000000  0.0000000  3
   2171   2170   2179   2180     1  0.0000000  0.6508444  3
   2171   2170   2179   2181     1  0.0000000  0.6508444  3
   2172   2170   2179   2188     1  0.0000000  1.0460000  1
   2172   2170   2179   2188     1  0.0000000  0.0000000  3
   2172   2170   2179   2180     1  0.0000000  0.6508444  3
   2172   2170   2179   2181     1  0.0000000  0.6508444  3
   2173   2161   2160   2189     1  0.0000000  0.6508444  3
   2174   2173   2185   4438     1  0.0000000  1.0460000  1
   2174   2173   2185   4438     1  0.0000000  0.0000000  3
   2174   2173   2185   2186     1  0.0000000  0.6508444  3
   2174   2173   2185   2187     1  0.0000000  0.6508444  3
   2175   2173   2185   4438     1  0.0000000  1.0460000  1
   2175   2173   2185   4438     1  0.0000000  0.0000000  3
   2175   2173   2185   2186     1  0.0000000  0.6508444  3
   2175   2173   2185   2187     1  0.0000000  0.6508444  3
   2176   2164   2160   2189     1  0.0000000  0.6508444  3
   2177   2176   2182   4408     1  0.0000000  1.0460000  1
   2177   2176   2182   4408     1  0.0000000  0.0000000  3
   2177   2176   2182   2183     1  0.0000000  0.6508444  3
   2177   2176   2182   2184     1  0.0000000  0.6508444  3
   2178   2176   2182   4408     1  0.0000000  1.0460000  1
   2178   2176   2182   4408     1  0.0000000  0.0000000  3
   2178   2176   2182   2183     1  0.0000000  0.6508444  3
   2178   2176   2182   2184     1  0.0000000  0.6508444  3
   2182   4408   4399   4400     1  0.0000000  1.6038667  3
   2182   4408   4399   4401     1  0.0000000  1.6038667  3
   2183   2182   4408   4399     1  0.0000000  1.6038667  3
   2184   2182   4408   4399     1  0.0000000  1.6038667  3
   2185   4438   4429   4430     1  0.0000000  1.6038667  3
   2185   4438   4429   4431     1  0.0000000  1.6038667  3
   2186   2185   4438   4429     1  0.0000000  1.6038667  3
   2187   2185   4438   4429     1  0.0000000  1.6038667  3
   2190   2191   2203   2204     1  0.0000000  0.6508444  3
   2190   2191   2203   2205     1  0.0000000  0.6508444  3
   2190   2194   2206   2207     1  0.0000000  0.6508444  3
   2190   2194   2206   2208     1  0.0000000  0.6508444  3
   2190   2197   2200   2201     1  0.0000000  0.6508444  3
   2190   2197   2200   2202     1  0.0000000  0.6508444  3
   2191   2190   2194   2195     1  0.0000000  0.6508444  3
   2191   2190   2194   2196     1  0.0000000  0.6508444  3
   2191   2190   2197   2198     1  0.0000000  0.6508444  3
   2191   2190   2197   2199     1  0.0000000  0.6508444  3
   2191   2203   2215   2216     1  0.0000000  0.6508444  3
   2191   2203   2215   2217     1  0.0000000  0.6508444  3
   2192   2191   2190   2194     1  0.0000000  0.6508444  3
   2192   2191   2190   2197     1  0.0000000  0.6508444  3
   2192   2191   2190   2219     1  0.0000000  0.6508444  3
   2192   2191   2203   2215     1  0.0000000  0.6508444  3
   2192   2191   2203   2204     1  0.0000000  0.6508444  3
   2192   2191   2203   2205     1  0.0000000  0.6508444  3
   2193   2191   2190   2194     1  0.0000000  0.6508444  3
   2193   2191   2190   2197     1  0.0000000  0.6508444  3
   2193   2191   2190   2219     1  0.0000000  0.6508444  3
   2193   2191   2203   2215     1  0.0000000  0.6508444  3
   2193   2191   2203   2204     1  0.0000000  0.6508444  3
   2193   2191   2203   2205     1  0.0000000  0.6508444  3
   2194   2190   2197   2198     1  0.0000000  0.6508444  3
   2194   2190   2197   2199     1  0.0000000  0.6508444  3
   2194   2206   2212   2213     1  0.0000000  0.6508444  3
   2194   2206   2212   2214     1  0.0000000  0.6508444  3
   2195   2194   2190   2197     1  0.0000000  0.6508444  3
   2195   2194   2190   2219     1  0.0000000  0.6508444  3
   2195   2194   2206   2212     1  0.0000000  0.6508444  3
   2195   2194   2206   2207     1  0.0000000  0.6508444  3
   2195   2194   2206   2208     1  0.0000000  0.6508444  3
   2196   2194   2190   2197     1  0.0000000  0.6508444  3
   2196   2194   2190   2219     1  0.0000000  0.6508444  3
   2196   2194   2206   2212     1  0.0000000  0.6508444  3
   2196   2194   2206   2207     1  0.0000000  0.6508444  3
   2196   2194   2206   2208     1  0.0000000  0.6508444  3
   2197   2200   2209   2210     1  0.0000000  0.6508444  3
   2197   2200   2209   2211     1  0.0000000  0.6508444  3
   2198   2197   2190   2219     1  0.0000000  0.6508444  3
   2198   2197   2200   2209     1  0.0000000  0.6508444  3
   2198   2197   2200   2201     1  0.0000000  0.6508444  3
   2198   2197   2200   2202     1  0.0000000  0.6508444  3
   2199   2197   2190   2219     1  0.0000000  0.6508444  3
   2199   2197   2200   2209     1  0.0000000  0.6508444  3
   2199   2197   2200   2201     1  0.0000000  0.6508444  3
   2199   2197   2200   2202     1  0.0000000  0.6508444  3
   2200   2197   2190   2219     1  0.0000000  0.6508444  3
   2201   2200   2209   2218     1  0.0000000  1.0460000  1
   2201   2200   2209   2218     1  0.0000000  0.0000000  3
   2201   2200   2209   2210     1  0.0000000  0.6508444  3
   2201   2200   2209   2211     1  0.0000000  0.6508444  3
   2202   2200   2209   2218     1  0.0000000  1.0460000  1
   2202   2200   2209   2218     1  0.0000000  0.0000000  3
   2202   2200   2209   2210     1  0.0000000  0.6508444  3
   2202   2200   2209   2211     1  0.0000000  0.6508444  3
   2203   2191   2190   2219     1  0.0000000  0.6508444  3
   2204   2203   2215   4498     1  0.0000000  1.0460000  1
   2204   2203   2215   4498     1  0.0000000  0.0000000  3
   2204   2203   2215   2216     1  0.0000000  0.6508444  3
   2204   2203   2215   2217     1  0.0000000  0.6508444  3
   2205   2203   2215   4498     1  0.0000000  1.0460000  1
   2205   2203   2215   4498     1  0.0000000  0.0000000  3
   2205   2203   2215   2216     1  0.0000000  0.6508444  3
   2205   2203   2215   2217     1  0.0000000  0.6508444  3
   2206   2194   2190   2219     1  0.0000000  0.6508444  3
   2207   2206   2212   4468     1  0.0000000  1.0460000  1
   2207   2206   2212   4468     1  0.0000000  0.0000000  3
   2207   2206   2212   2213     1  0.0000000  0.6508444  3
   2207   2206   2212   2214     1  0.0000000  0.6508444  3
   2208   2206   2212   4468     1  0.0000000  1.0460000  1
   2208   2206   2212   4468     1  0.0000000  0.0000000  3
   2208   2206   2212   2213     1  0.0000000  0.6508444  3
   2208   2206   2212   2214     1  0.0000000  0.6508444  3
   2212   4468   4459   4460     1  0.0000000  1.6038667  3
   2212   4468   4459   4461     1  0.0000000  1.6038667  3
   2213   2212   4468   4459     1  0.0000000  1.6038667  3
   2214   2212   4468   4459     1  0.0000000  1.6038667  3
   2215   4498   4489   4490     1  0.0000000  1.6038667  3
   2215   4498   4489   4491     1  0.0000000  1.6038667  3
   2216   2215   4498   4489     1  0.0000000  1.6038667  3
   2217   2215   4498   4489     1  0.0000000  1.6038667  3
   2220   2221   2233   2234     1  0.0000000  0.6508444  3
   2220   2221   2233   2235     1  0.0000000  0.6508444  3
   2220   2224   2236   2237     1  0.0000000  0.6508444  3
   2220   2224   2236   2238     1  0.0000000  0.6508444  3
   2220   2227   2230   2231     1  0.0000000  0.6508444  3
   2220   2227   2230   2232     1  0.0000000  0.6508444  3
   2221   2220   2224   2225     1  0.0000000  0.6508444  3
   2221   2220   2224   2226     1  0.0000000  0.6508444  3
   2221   2220   2227   2228     1  0.0000000  0.6508444  3
   2221   2220   2227   2229     1  0.0000000  0.6508444  3
   2221   2233   2245   2246     1  0.0000000  0.6508444  3
   2221   2233   2245   2247     1  0.0000000  0.6508444  3
   2222   2221   2220   2224     1  0.0000000  0.6508444  3
   2222   2221   2220   2227     1  0.0000000  0.6508444  3
   2222   2221   2220   2249     1  0.0000000  0.6508444  3
   2222   2221   2233   2245     1  0.0000000  0.6508444  3
   2222   2221   2233   2234     1  0.0000000  0.6508444  3
   2222   2221   2233   2235     1  0.0000000  0.6508444  3
   2223   2221   2220   2224     1  0.0000000  0.6508444  3
   2223   2221   2220   2227     1  0.0000000  0.6508444  3
   2223   2221   2220   2249     1  0.0000000  0.6508444  3
   2223   2221   2233   2245     1  0.0000000  0.6508444  3
   2223   2221   2233   2234     1  0.0000000  0.6508444  3
   2223   2221   2233   2235     1  0.0000000  0.6508444  3
   2224   2220   2227   2228     1  0.0000000  0.6508444  3
   2224   2220   2227   2229     1  0.0000000  0.6508444  3
   2224   2236   2242   2243     1  0.0000000  0.6508444  3
   2224   2236   2242   2244     1  0.0000000  0.6508444  3
   2225   2224   2220   2227     1  0.0000000  0.6508444  3
   2225   2224   2220   2249     1  0.0000000  0.6508444  3
   2225   2224   2236   2242     1  0.0000000  0.6508444  3
   2225   2224   2236   2237     1  0.0000000  0.6508444  3
   2225   2224   2236   2238     1  0.0000000  0.6508444  3
   2226   2224   2220   2227     1  0.0000000  0.6508444  3
   2226   2224   2220   2249     1  0.0000000  0.6508444  3
   2226   2224   2236   2242     1  0.0000000  0.6508444  3
   2226   2224   2236   2237     1  0.0000000  0.6508444  3
   2226   2224   2236   2238     1  0.0000000  0.6508444  3
   2227   2230   2239   2240     1  0.0000000  0.6508444  3
   2227   2230   2239   2241     1  0.0000000  0.6508444  3
   2228   2227   2220   2249     1  0.0000000  0.6508444  3
   2228   2227   2230   2239     1  0.0000000  0.6508444  3
   2228   2227   2230   2231     1  0.0000000  0.6508444  3
   2228   2227   2230   2232     1  0.0000000  0.6508444  3
   2229   2227   2220   2249     1  0.0000000  0.6508444  3
   2229   2227   2230   2239     1  0.0000000  0.6508444  3
   2229   2227   2230   2231     1  0.0000000  0.6508444  3
   2229   2227   2230   2232     1  0.0000000  0.6508444  3
   2230   2227   2220   2249     1  0.0000000  0.6508444  3
   2231   2230   2239   2248     1  0.0000000  1.0460000  1
   2231   2230   2239   2248     1  0.0000000  0.0000000  3
   2231   2230   2239   2240     1  0.0000000  0.6508444  3
   2231   2230   2239   2241     1  0.0000000  0.6508444  3
   2232   2230   2239   2248     1  0.0000000  1.0460000  1
   2232   2230   2239   2248     1  0.0000000  0.0000000  3
   2232   2230   2239   2240     1  0.0000000  0.6508444  3
   2232   2230   2239   2241     1  0.0000000  0.6508444  3
   2233   2221   2220   2249     1  0.0000000  0.6508444  3
   2234   2233   2245   4558     1  0.0000000  1.0460000  1
   2234   2233   2245   4558     1  0.0000000  0.0000000  3
   2234   2233   2245   2246     1  0.0000000  0.6508444  3
   2234   2233   2245   2247     1  0.0000000  0.6508444  3
   2235   2233   2245   4558     1  0.0000000  1.0460000  1
   2235   2233   2245   4558     1  0.0000000  0.0000000  3
   2235   2233   2245   2246     1  0.0000000  0.6508444  3
   2235   2233   2245   2247     1  0.0000000  0.6508444  3
   2236   2224   2220   2249     1  0.0000000  0.6508444  3
   2237   2236   2242   4528     1  0.0000000  1.0460000  1
   2237   2236   2242   4528     1  0.0000000  0.0000000  3
   2237   2236   2242   2243     1  0.0000000  0.6508444  3
   2237   2236   2242   2244     1  0.0000000  0.6508444  3
   2238   2236   2242   4528     1  0.0000000  1.0460000  1
   2238   2236   2242   4528     1  0.0000000  0.0000000  3
   2238   2236   2242   2243     1  0.0000000  0.6508444  3
   2238   2236   2242   2244     1  0.0000000  0.6508444  3
   2242   4528   4519   4520     1  0.0000000  1.6038667  3
   2242   4528   4519   4521     1  0.0000000  1.6038667  3
   2243   2242   4528   4519     1  0.0000000  1.6038667  3
   2244   2242   4528   4519     1  0.0000000  1.6038667  3
   2245   4558   4549   4550     1  0.0000000  1.6038667  3
   2245   4558   4549   4551     1  0.0000000  1.6038667  3
   2246   2245   4558   4549     1  0.0000000  1.6038667  3
   2247   2245   4558   4549     1  0.0000000  1.6038667  3
   2250   2251   2263   2264     1  0.0000000  0.6508444  3
   2250   2251   2263   2265     1  0.0000000  0.6508444  3
   2250   2254   2266   2267     1  0.0000000  0.6508444  3
   2250   2254   2266   2268     1  0.0000000  0.6508444  3
   2250   2257   2260   2261     1  0.0000000  0.6508444  3
   2250   2257   2260   2262     1  0.0000000  0.6508444  3
   2251   2250   2254   2255     1  0.0000000  0.6508444  3
   2251   2250   2254   2256     1  0.0000000  0.6508444  3
   2251   2250   2257   2258     1  0.0000000  0.6508444  3
   2251   2250   2257   2259     1  0.0000000  0.6508444  3
   2251   2263   2275   2276     1  0.0000000  0.6508444  3
   2251   2263   2275   2277     1  0.0000000  0.6508444  3
   2252   2251   2250   2254     1  0.0000000  0.6508444  3
   2252   2251   2250   2257     1  0.0000000  0.6508444  3
   2252   2251   2250   2279     1  0.0000000  0.6508444  3
   2252   2251   2263   2275     1  0.0000000  0.6508444  3
   2252   2251   2263   2264     1  0.0000000  0.6508444  3
   2252   2251   2263   2265     1  0.0000000  0.6508444  3
   2253   2251   2250   2254     1  0.0000000  0.6508444  3
   2253   2251   2250   2257     1  0.0000000  0.6508444  3
   2253   2251   2250   2279     1  0.0000000  0.6508444  3
   2253   2251   2263   2275     1  0.0000000  0.6508444  3
   2253   2251   2263   2264     1  0.0000000  0.6508444  3
   2253   2251   2263   2265     1  0.0000000  0.6508444  3
   2254   2250   2257   2258     1  0.0000000  0.6508444  3
   2254   2250   2257   2259     1  0.0000000  0.6508444  3
   2254   2266   2272   2273     1  0.0000000  0.6508444  3
   2254   2266   2272   2274     1  0.0000000  0.6508444  3
   2255   2254   2250   2257     1  0.0000000  0.6508444  3
   2255   2254   2250   2279     1  0.0000000  0.6508444  3
   2255   2254   2266   2272     1  0.0000000  0.6508444  3
   2255   2254   2266   2267     1  0.0000000  0.6508444  3
   2255   2254   2266   2268     1  0.0000000  0.6508444  3
   2256   2254   2250   2257     1  0.0000000  0.6508444  3
   2256   2254   2250   2279     1  0.0000000  0.6508444  3
   2256   2254   2266   2272     1  0.0000000  0.6508444  3
   2256   2254   2266   2267     1  0.0000000  0.6508444  3
   2256   2254   2266   2268     1  0.0000000  0.6508444  3
   2257   2260   2269   2270     1  0.0000000  0.6508444  3
   2257   2260   2269   2271     1  0.0000000  0.6508444  3
   2258   2257   2250   2279     1  0.0000000  0.6508444  3
   2258   2257   2260   2269     1  0.0000000  0.6508444  3
   2258   2257   2260   2261     1  0.0000000  0.6508444  3
   2258   2257   2260   2262     1  0.0000000  0.6508444  3
   2259   2257   2250   2279     1  0.0000000  0.6508444  3
   2259   2257   2260   2269     1  0.0000000  0.6508444  3
   2259   2257   2260   2261     1  0.0000000  0.6508444  3
   2259   2257   2260   2262     1  0.0000000  0.6508444  3
   2260   2257   2250   2279     1  0.0000000  0.6508444  3
   2261   2260   2269   2278     1  0.0000000  1.0460000  1
   2261   2260   2269   2278     1  0.0000000  0.0000000  3
   2261   2260   2269   2270     1  0.0000000  0.6508444  3
   2261   2260   2269   2271     1  0.0000000  0.6508444  3
   2262   2260   2269   2278     1  0.0000000  1.0460000  1
   2262   2260   2269   2278     1  0.0000000  0.0000000  3
   2262   2260   2269   2270     1  0.0000000  0.6508444  3
   2262   2260   2269   2271     1  0.0000000  0.6508444  3
   2263   2251   2250   2279     1  0.0000000  0.6508444  3
   2264   2263   2275   4618     1  0.0000000  1.0460000  1
   2264   2263   2275   4618     1  0.0000000  0.0000000  3
   2264   2263   2275   2276     1  0.0000000  0.6508444  3
   2264   2263   2275   2277     1  0.0000000  0.6508444  3
   2265   2263   2275   4618     1  0.0000000  1.0460000  1
   2265   2263   2275   4618     1  0.0000000  0.0000000  3
   2265   2263   2275   2276     1  0.0000000  0.6508444  3
   2265   2263   2275   2277     1  0.0000000  0.6508444  3
   2266   2254   2250   2279     1  0.0000000  0.6508444  3
   2267   2266   2272   4588     1  0.0000000  1.0460000  1
   2267   2266   2272   4588     1  0.0000000  0.0000000  3
   2267   2266   2272   2273     1  0.0000000  0.6508444  3
   2267   2266   2272   2274     1  0.0000000  0.6508444  3
   2268   2266   2272   4588     1  0.0000000  1.0460000  1
   2268   2266   2272   4588     1  0.0000000  0.0000000  3
   2268   2266   2272   2273     1  0.0000000  0.6508444  3
   2268   2266   2272   2274     1  0.0000000  0.6508444  3
   2272   4588   4579   4580     1  0.0000000  1.6038667  3
   2272   4588   4579   4581     1  0.0000000  1.6038667  3
   2273   2272   4588   4579     1  0.0000000  1.6038667  3
   2274   2272   4588   4579     1  0.0000000  1.6038667  3
   2275   4618   4609   4610     1  0.0000000  1.6038667  3
   2275   4618   4609   4611     1  0.0000000  1.6038667  3
   2276   2275   4618   4609     1  0.0000000  1.6038667  3
   2277   2275   4618   4609     1  0.0000000  1.6038667  3
   2280   2281   2293   2294     1  0.0000000  0.6508444  3
   2280   2281   2293   2295     1  0.0000000  0.6508444  3
   2280   2284   2296   2297     1  0.0000000  0.6508444  3
   2280   2284   2296   2298     1  0.0000000  0.6508444  3
   2280   2287   2290   2291     1  0.0000000  0.6508444  3
   2280   2287   2290   2292     1  0.0000000  0.6508444  3
   2281   2280   2284   2285     1  0.0000000  0.6508444  3
   2281   2280   2284   2286     1  0.0000000  0.6508444  3
   2281   2280   2287   2288     1  0.0000000  0.6508444  3
   2281   2280   2287   2289     1  0.0000000  0.6508444  3
   2281   2293   2305   2306     1  0.0000000  0.6508444  3
   2281   2293   2305   2307     1  0.0000000  0.6508444  3
   2282   2281   2280   2284     1  0.0000000  0.6508444  3
   2282   2281   2280   2287     1  0.0000000  0.6508444  3
   2282   2281   2280   2309     1  0.0000000  0.6508444  3
   2282   2281   2293   2305     1  0.0000000  0.6508444  3
   2282   2281   2293   2294     1  0.0000000  0.6508444  3
   2282   2281   2293   2295     1  0.0000000  0.6508444  3
   2283   2281   2280   2284     1  0.0000000  0.6508444  3
   2283   2281   2280   2287     1  0.0000000  0.6508444  3
   2283   2281   2280   2309     1  0.0000000  0.6508444  3
   2283   2281   2293   2305     1  0.0000000  0.6508444  3
   2283   2281   2293   2294     1  0.0000000  0.6508444  3
   2283   2281   2293   2295     1  0.0000000  0.6508444  3
   2284   2280   2287   2288     1  0.0000000  0.6508444  3
   2284   2280   2287   2289     1  0.0000000  0.6508444  3
   2284   2296   2302   2303     1  0.0000000  0.6508444  3
   2284   2296   2302   2304     1  0.0000000  0.6508444  3
   2285   2284   2280   2287     1  0.0000000  0.6508444  3
   2285   2284   2280   2309     1  0.0000000  0.6508444  3
   2285   2284   2296   2302     1  0.0000000  0.6508444  3
   2285   2284   2296   2297     1  0.0000000  0.6508444  3
   2285   2284   2296   2298     1  0.0000000  0.6508444  3
   2286   2284   2280   2287     1  0.0000000  0.6508444  3
   2286   2284   2280   2309     1  0.0000000  0.6508444  3
   2286   2284   2296   2302     1  0.0000000  0.6508444  3
   2286   2284   2296   2297     1  0.0000000  0.6508444  3
   2286   2284   2296   2298     1  0.0000000  0.6508444  3
   2287   2290   2299   2300     1  0.0000000  0.6508444  3
   2287   2290   2299   2301     1  0.0000000  0.6508444  3
   2288   2287   2280   2309     1  0.0000000  0.6508444  3
   2288   2287   2290   2299     1  0.0000000  0.6508444  3
   2288   2287   2290   2291     1  0.0000000  0.6508444  3
   2288   2287   2290   2292     1  0.0000000  0.6508444  3
   2289   2287   2280   2309     1  0.0000000  0.6508444  3
   2289   2287   2290   2299     1  0.0000000  0.6508444  3
   2289   2287   2290   2291     1  0.0000000  0.6508444  3
   2289   2287   2290   2292     1  0.0000000  0.6508444  3
   2290   2287   2280   2309     1  0.0000000  0.6508444  3
   2291   2290   2299   2308     1  0.0000000  1.0460000  1
   2291   2290   2299   2308     1  0.0000000  0.0000000  3
   2291   2290   2299   2300     1  0.0000000  0.6508444  3
   2291   2290   2299   2301     1  0.0000000  0.6508444  3
   2292   2290   2299   2308     1  0.0000000  1.0460000  1
   2292   2290   2299   2308     1  0.0000000  0.0000000  3
   2292   2290   2299   2300     1  0.0000000  0.6508444  3
   2292   2290   2299   2301     1  0.0000000  0.6508444  3
   2293   2281   2280   2309     1  0.0000000  0.6508444  3
   2294   2293   2305   4678     1  0.0000000  1.0460000  1
   2294   2293   2305   4678     1  0.0000000  0.0000000  3
   2294   2293   2305   2306     1  0.0000000  0.6508444  3
   2294   2293   2305   2307     1  0.0000000  0.6508444  3
   2295   2293   2305   4678     1  0.0000000  1.0460000  1
   2295   2293   2305   4678     1  0.0000000  0.0000000  3
   2295   2293   2305   2306     1  0.0000000  0.6508444  3
   2295   2293   2305   2307     1  0.0000000  0.6508444  3
   2296   2284   2280   2309     1  0.0000000  0.6508444  3
   2297   2296   2302   4648     1  0.0000000  1.0460000  1
   2297   2296   2302   4648     1  0.0000000  0.0000000  3
   2297   2296   2302   2303     1  0.0000000  0.6508444  3
   2297   2296   2302   2304     1  0.0000000  0.6508444  3
   2298   2296   2302   4648     1  0.0000000  1.0460000  1
   2298   2296   2302   4648     1  0.0000000  0.0000000  3
   2298   2296   2302   2303     1  0.0000000  0.6508444  3
   2298   2296   2302   2304     1  0.0000000  0.6508444  3
   2302   4648   4639   4640     1  0.0000000  1.6038667  3
   2302   4648   4639   4641     1  0.0000000  1.6038667  3
   2303   2302   4648   4639     1  0.0000000  1.6038667  3
   2304   2302   4648   4639     1  0.0000000  1.6038667  3
   2305   4678   4669   4670     1  0.0000000  1.6038667  3
   2305   4678   4669   4671     1  0.0000000  1.6038667  3
   2306   2305   4678   4669     1  0.0000000  1.6038667  3
   2307   2305   4678   4669     1  0.0000000  1.6038667  3
   2310   2311   2323   2324     1  0.0000000  0.6508444  3
   2310   2311   2323   2325     1  0.0000000  0.6508444  3
   2310   2314   2326   2327     1  0.0000000  0.6508444  3
   2310   2314   2326   2328     1  0.0000000  0.6508444  3
   2310   2317   2320   2321     1  0.0000000  0.6508444  3
   2310   2317   2320   2322     1  0.0000000  0.6508444  3
   2311   2310   2314   2315     1  0.0000000  0.6508444  3
   2311   2310   2314   2316     1  0.0000000  0.6508444  3
   2311   2310   2317   2318     1  0.0000000  0.6508444  3
   2311   2310   2317   2319     1  0.0000000  0.6508444  3
   2311   2323   2335   2336     1  0.0000000  0.6508444  3
   2311   2323   2335   2337     1  0.0000000  0.6508444  3
   2312   2311   2310   2314     1  0.0000000  0.6508444  3
   2312   2311   2310   2317     1  0.0000000  0.6508444  3
   2312   2311   2310   2339     1  0.0000000  0.6508444  3
   2312   2311   2323   2335     1  0.0000000  0.6508444  3
   2312   2311   2323   2324     1  0.0000000  0.6508444  3
   2312   2311   2323   2325     1  0.0000000  0.6508444  3
   2313   2311   2310   2314     1  0.0000000  0.6508444  3
   2313   2311   2310   2317     1  0.0000000  0.6508444  3
   2313   2311   2310   2339     1  0.0000000  0.6508444  3
   2313   2311   2323   2335     1  0.0000000  0.6508444  3
   2313   2311   2323   2324     1  0.0000000  0.6508444  3
   2313   2311   2323   2325     1  0.0000000  0.6508444  3
   2314   2310   2317   2318     1  0.0000000  0.6508444  3
   2314   2310   2317   2319     1  0.0000000  0.6508444  3
   2314   2326   2332   2333     1  0.0000000  0.6508444  3
   2314   2326   2332   2334     1  0.0000000  0.6508444  3
   2315   2314   2310   2317     1  0.0000000  0.6508444  3
   2315   2314   2310   2339     1  0.0000000  0.6508444  3
   2315   2314   2326   2332     1  0.0000000  0.6508444  3
   2315   2314   2326   2327     1  0.0000000  0.6508444  3
   2315   2314   2326   2328     1  0.0000000  0.6508444  3
   2316   2314   2310   2317     1  0.0000000  0.6508444  3
   2316   2314   2310   2339     1  0.0000000  0.6508444  3
   2316   2314   2326   2332     1  0.0000000  0.6508444  3
   2316   2314   2326   2327     1  0.0000000  0.6508444  3
   2316   2314   2326   2328     1  0.0000000  0.6508444  3
   2317   2320   2329   2330     1  0.0000000  0.6508444  3
   2317   2320   2329   2331     1  0.0000000  0.6508444  3
   2318   2317   2310   2339     1  0.0000000  0.6508444  3
   2318   2317   2320   2329     1  0.0000000  0.6508444  3
   2318   2317   2320   2321     1  0.0000000  0.6508444  3
   2318   2317   2320   2322     1  0.0000000  0.6508444  3
   2319   2317   2310   2339     1  0.0000000  0.6508444  3
   2319   2317   2320   2329     1  0.0000000  0.6508444  3
   2319   2317   2320   2321     1  0.0000000  0.6508444  3
   2319   2317   2320   2322     1  0.0000000  0.6508444  3
   2320   2317   2310   2339     1  0.0000000  0.6508444  3
   2321   2320   2329   2338     1  0.0000000  1.0460000  1
   2321   2320   2329   2338     1  0.0000000  0.0000000  3
   2321   2320   2329   2330     1  0.0000000  0.6508444  3
   2321   2320   2329   2331     1  0.0000000  0.6508444  3
   2322   2320   2329   2338     1  0.0000000  1.0460000  1
   2322   2320   2329   2338     1  0.0000000  0.0000000  3
   2322   2320   2329   2330     1  0.0000000  0.6508444  3
   2322   2320   2329   2331     1  0.0000000  0.6508444  3
   2323   2311   2310   2339     1  0.0000000  0.6508444  3
   2324   2323   2335   4738     1  0.0000000  1.0460000  1
   2324   2323   2335   4738     1  0.0000000  0.0000000  3
   2324   2323   2335   2336     1  0.0000000  0.6508444  3
   2324   2323   2335   2337     1  0.0000000  0.6508444  3
   2325   2323   2335   4738     1  0.0000000  1.0460000  1
   2325   2323   2335   4738     1  0.0000000  0.0000000  3
   2325   2323   2335   2336     1  0.0000000  0.6508444  3
   2325   2323   2335   2337     1  0.0000000  0.6508444  3
   2326   2314   2310   2339     1  0.0000000  0.6508444  3
   2327   2326   2332   4708     1  0.0000000  1.0460000  1
   2327   2326   2332   4708     1  0.0000000  0.0000000  3
   2327   2326   2332   2333     1  0.0000000  0.6508444  3
   2327   2326   2332   2334     1  0.0000000  0.6508444  3
   2328   2326   2332   4708     1  0.0000000  1.0460000  1
   2328   2326   2332   4708     1  0.0000000  0.0000000  3
   2328   2326   2332   2333     1  0.0000000  0.6508444  3
   2328   2326   2332   2334     1  0.0000000  0.6508444  3
   2332   4708   4699   4700     1  0.0000000  1.6038667  3
   2332   4708   4699   4701     1  0.0000000  1.6038667  3
   2333   2332   4708   4699     1  0.0000000  1.6038667  3
   2334   2332   4708   4699     1  0.0000000  1.6038667  3
   2335   4738   4729   4730     1  0.0000000  1.6038667  3
   2335   4738   4729   4731     1  0.0000000  1.6038667  3
   2336   2335   4738   4729     1  0.0000000  1.6038667  3
   2337   2335   4738   4729     1  0.0000000  1.6038667  3
   2340   2341   2353   2354     1  0.0000000  0.6508444  3
   2340   2341   2353   2355     1  0.0000000  0.6508444  3
   2340   2344   2356   2357     1  0.0000000  0.6508444  3
   2340   2344   2356   2358     1  0.0000000  0.6508444  3
   2340   2347   2350   2351     1  0.0000000  0.6508444  3
   2340   2347   2350   2352     1  0.0000000  0.6508444  3
   2341   2340   2344   2345     1  0.0000000  0.6508444  3
   2341   2340   2344   2346     1  0.0000000  0.6508444  3
   2341   2340   2347   2348     1  0.0000000  0.6508444  3
   2341   2340   2347   2349     1  0.0000000  0.6508444  3
   2341   2353   2365   2366     1  0.0000000  0.6508444  3
   2341   2353   2365   2367     1  0.0000000  0.6508444  3
   2342   2341   2340   2344     1  0.0000000  0.6508444  3
   2342   2341   2340   2347     1  0.0000000  0.6508444  3
   2342   2341   2340   2369     1  0.0000000  0.6508444  3
   2342   2341   2353   2365     1  0.0000000  0.6508444  3
   2342   2341   2353   2354     1  0.0000000  0.6508444  3
   2342   2341   2353   2355     1  0.0000000  0.6508444  3
   2343   2341   2340   2344     1  0.0000000  0.6508444  3
   2343   2341   2340   2347     1  0.0000000  0.6508444  3
   2343   2341   2340   2369     1  0.0000000  0.6508444  3
   2343   2341   2353   2365     1  0.0000000  0.6508444  3
   2343   2341   2353   2354     1  0.0000000  0.6508444  3
   2343   2341   2353   2355     1  0.0000000  0.6508444  3
   2344   2340   2347   2348     1  0.0000000  0.6508444  3
   2344   2340   2347   2349     1  0.0000000  0.6508444  3
   2344   2356   2362   2363     1  0.0000000  0.6508444  3
   2344   2356   2362   2364     1  0.0000000  0.6508444  3
   2345   2344   2340   2347     1  0.0000000  0.6508444  3
   2345   2344   2340   2369     1  0.0000000  0.6508444  3
   2345   2344   2356   2362     1  0.0000000  0.6508444  3
   2345   2344   2356   2357     1  0.0000000  0.6508444  3
   2345   2344   2356   2358     1  0.0000000  0.6508444  3
   2346   2344   2340   2347     1  0.0000000  0.6508444  3
   2346   2344   2340   2369     1  0.0000000  0.6508444  3
   2346   2344   2356   2362     1  0.0000000  0.6508444  3
   2346   2344   2356   2357     1  0.0000000  0.6508444  3
   2346   2344   2356   2358     1  0.0000000  0.6508444  3
   2347   2350   2359   2360     1  0.0000000  0.6508444  3
   2347   2350   2359   2361     1  0.0000000  0.6508444  3
   2348   2347   2340   2369     1  0.0000000  0.6508444  3
   2348   2347   2350   2359     1  0.0000000  0.6508444  3
   2348   2347   2350   2351     1  0.0000000  0.6508444  3
   2348   2347   2350   2352     1  0.0000000  0.6508444  3
   2349   2347   2340   2369     1  0.0000000  0.6508444  3
   2349   2347   2350   2359     1  0.0000000  0.6508444  3
   2349   2347   2350   2351     1  0.0000000  0.6508444  3
   2349   2347   2350   2352     1  0.0000000  0.6508444  3
   2350   2347   2340   2369     1  0.0000000  0.6508444  3
   2351   2350   2359   2368     1  0.0000000  1.0460000  1
   2351   2350   2359   2368     1  0.0000000  0.0000000  3
   2351   2350   2359   2360     1  0.0000000  0.6508444  3
   2351   2350   2359   2361     1  0.0000000  0.6508444  3
   2352   2350   2359   2368     1  0.0000000  1.0460000  1
   2352   2350   2359   2368     1  0.0000000  0.0000000  3
   2352   2350   2359   2360     1  0.0000000  0.6508444  3
   2352   2350   2359   2361     1  0.0000000  0.6508444  3
   2353   2341   2340   2369     1  0.0000000  0.6508444  3
   2354   2353   2365   4798     1  0.0000000  1.0460000  1
   2354   2353   2365   4798     1  0.0000000  0.0000000  3
   2354   2353   2365   2366     1  0.0000000  0.6508444  3
   2354   2353   2365   2367     1  0.0000000  0.6508444  3
   2355   2353   2365   4798     1  0.0000000  1.0460000  1
   2355   2353   2365   4798     1  0.0000000  0.0000000  3
   2355   2353   2365   2366     1  0.0000000  0.6508444  3
   2355   2353   2365   2367     1  0.0000000  0.6508444  3
   2356   2344   2340   2369     1  0.0000000  0.6508444  3
   2357   2356   2362   4768     1  0.0000000  1.0460000  1
   2357   2356   2362   4768     1  0.0000000  0.0000000  3
   2357   2356   2362   2363     1  0.0000000  0.6508444  3
   2357   2356   2362   2364     1  0.0000000  0.6508444  3
   2358   2356   2362   4768     1  0.0000000  1.0460000  1
   2358   2356   2362   4768     1  0.0000000  0.0000000  3
   2358   2356   2362   2363     1  0.0000000  0.6508444  3
   2358   2356   2362   2364     1  0.0000000  0.6508444  3
   2362   4768   4759   4760     1  0.0000000  1.6038667  3
   2362   4768   4759   4761     1  0.0000000  1.6038667  3
   2363   2362   4768   4759     1  0.0000000  1.6038667  3
   2364   2362   4768   4759     1  0.0000000  1.6038667  3
   2365   4798   4789   4790     1  0.0000000  1.6038667  3
   2365   4798   4789   4791     1  0.0000000  1.6038667  3
   2366   2365   4798   4789     1  0.0000000  1.6038667  3
   2367   2365   4798   4789     1  0.0000000  1.6038667  3
   2370   2371   2383   2384     1  0.0000000  0.6508444  3
   2370   2371   2383   2385     1  0.0000000  0.6508444  3
   2370   2374   2386   2387     1  0.0000000  0.6508444  3
   2370   2374   2386   2388     1  0.0000000  0.6508444  3
   2370   2377   2380   2381     1  0.0000000  0.6508444  3
   2370   2377   2380   2382     1  0.0000000  0.6508444  3
   2371   2370   2374   2375     1  0.0000000  0.6508444  3
   2371   2370   2374   2376     1  0.0000000  0.6508444  3
   2371   2370   2377   2378     1  0.0000000  0.6508444  3
   2371   2370   2377   2379     1  0.0000000  0.6508444  3
   2371   2383   2395   2396     1  0.0000000  0.6508444  3
   2371   2383   2395   2397     1  0.0000000  0.6508444  3
   2372   2371   2370   2374     1  0.0000000  0.6508444  3
   2372   2371   2370   2377     1  0.0000000  0.6508444  3
   2372   2371   2370   2399     1  0.0000000  0.6508444  3
   2372   2371   2383   2395     1  0.0000000  0.6508444  3
   2372   2371   2383   2384     1  0.0000000  0.6508444  3
   2372   2371   2383   2385     1  0.0000000  0.6508444  3
   2373   2371   2370   2374     1  0.0000000  0.6508444  3
   2373   2371   2370   2377     1  0.0000000  0.6508444  3
   2373   2371   2370   2399     1  0.0000000  0.6508444  3
   2373   2371   2383   2395     1  0.0000000  0.6508444  3
   2373   2371   2383   2384     1  0.0000000  0.6508444  3
   2373   2371   2383   2385     1  0.0000000  0.6508444  3
   2374   2370   2377   2378     1  0.0000000  0.6508444  3
   2374   2370   2377   2379     1  0.0000000  0.6508444  3
   2374   2386   2392   2393     1  0.0000000  0.6508444  3
   2374   2386   2392   2394     1  0.0000000  0.6508444  3
   2375   2374   2370   2377     1  0.0000000  0.6508444  3
   2375   2374   2370   2399     1  0.0000000  0.6508444  3
   2375   2374   2386   2392     1  0.0000000  0.6508444  3
   2375   2374   2386   2387     1  0.0000000  0.6508444  3
   2375   2374   2386   2388     1  0.0000000  0.6508444  3
   2376   2374   2370   2377     1  0.0000000  0.6508444  3
   2376   2374   2370   2399     1  0.0000000  0.6508444  3
   2376   2374   2386   2392     1  0.0000000  0.6508444  3
   2376   2374   2386   2387     1  0.0000000  0.6508444  3
   2376   2374   2386   2388     1  0.0000000  0.6508444  3
   2377   2380   2389   2390     1  0.0000000  0.6508444  3
   2377   2380   2389   2391     1  0.0000000  0.6508444  3
   2378   2377   2370   2399     1  0.0000000  0.6508444  3
   2378   2377   2380   2389     1  0.0000000  0.6508444  3
   2378   2377   2380   2381     1  0.0000000  0.6508444  3
   2378   2377   2380   2382     1  0.0000000  0.6508444  3
   2379   2377   2370   2399     1  0.0000000  0.6508444  3
   2379   2377   2380   2389     1  0.0000000  0.6508444  3
   2379   2377   2380   2381     1  0.0000000  0.6508444  3
   2379   2377   2380   2382     1  0.0000000  0.6508444  3
   2380   2377   2370   2399     1  0.0000000  0.6508444  3
   2381   2380   2389   2398     1  0.0000000  1.0460000  1
   2381   2380   2389   2398     1  0.0000000  0.0000000  3
   2381   2380   2389   2390     1  0.0000000  0.6508444  3
   2381   2380   2389   2391     1  0.0000000  0.6508444  3
   2382   2380   2389   2398     1  0.0000000  1.0460000  1
   2382   2380   2389   2398     1  0.0000000  0.0000000  3
   2382   2380   2389   2390     1  0.0000000  0.6508444  3
   2382   2380   2389   2391     1  0.0000000  0.6508444  3
   2383   2371   2370   2399     1  0.0000000  0.6508444  3
   2384   2383   2395   4858     1  0.0000000  1.0460000  1
   2384   2383   2395   4858     1  0.0000000  0.0000000  3
   2384   2383   2395   2396     1  0.0000000  0.6508444  3
   2384   2383   2395   2397     1  0.0000000  0.6508444  3
   2385   2383   2395   4858     1  0.0000000  1.0460000  1
   2385   2383   2395   4858     1  0.0000000  0.0000000  3
   2385   2383   2395   2396     1  0.0000000  0.6508444  3
   2385   2383   2395   2397     1  0.0000000  0.6508444  3
   2386   2374   2370   2399     1  0.0000000  0.6508444  3
   2387   2386   2392   4828     1  0.0000000  1.0460000  1
   2387   2386   2392   4828     1  0.0000000  0.0000000  3
   2387   2386   2392   2393     1  0.0000000  0.6508444  3
   2387   2386   2392   2394     1  0.0000000  0.6508444  3
   2388   2386   2392   4828     1  0.0000000  1.0460000  1
   2388   2386   2392   4828     1  0.0000000  0.0000000  3
   2388   2386   2392   2393     1  0.0000000  0.6508444  3
   2388   2386   2392   2394     1  0.0000000  0.6508444  3
   2392   4828   4819   4820     1  0.0000000  1.6038667  3
   2392   4828   4819   4821     1  0.0000000  1.6038667  3
   2393   2392   4828   4819     1  0.0000000  1.6038667  3
   2394   2392   4828   4819     1  0.0000000  1.6038667  3
   2395   4858   4849   4850     1  0.0000000  1.6038667  3
   2395   4858   4849   4851     1  0.0000000  1.6038667  3
   2396   2395   4858   4849     1  0.0000000  1.6038667  3
   2397   2395   4858   4849     1  0.0000000  1.6038667  3
   2400   2401   2413   2414     1  0.0000000  0.6508444  3
   2400   2401   2413   2415     1  0.0000000  0.6508444  3
   2400   2404   2416   2417     1  0.0000000  0.6508444  3
   2400   2404   2416   2418     1  0.0000000  0.6508444  3
   2400   2407   2410   2411     1  0.0000000  0.6508444  3
   2400   2407   2410   2412     1  0.0000000  0.6508444  3
   2401   2400   2404   2405     1  0.0000000  0.6508444  3
   2401   2400   2404   2406     1  0.0000000  0.6508444  3
   2401   2400   2407   2408     1  0.0000000  0.6508444  3
   2401   2400   2407   2409     1  0.0000000  0.6508444  3
   2401   2413   2425   2426     1  0.0000000  0.6508444  3
   2401   2413   2425   2427     1  0.0000000  0.6508444  3
   2402   2401   2400   2404     1  0.0000000  0.6508444  3
   2402   2401   2400   2407     1  0.0000000  0.6508444  3
   2402   2401   2400   2429     1  0.0000000  0.6508444  3
   2402   2401   2413   2425     1  0.0000000  0.6508444  3
   2402   2401   2413   2414     1  0.0000000  0.6508444  3
   2402   2401   2413   2415     1  0.0000000  0.6508444  3
   2403   2401   2400   2404     1  0.0000000  0.6508444  3
   2403   2401   2400   2407     1  0.0000000  0.6508444  3
   2403   2401   2400   2429     1  0.0000000  0.6508444  3
   2403   2401   2413   2425     1  0.0000000  0.6508444  3
   2403   2401   2413   2414     1  0.0000000  0.6508444  3
   2403   2401   2413   2415     1  0.0000000  0.6508444  3
   2404   2400   2407   2408     1  0.0000000  0.6508444  3
   2404   2400   2407   2409     1  0.0000000  0.6508444  3
   2404   2416   2422   2423     1  0.0000000  0.6508444  3
   2404   2416   2422   2424     1  0.0000000  0.6508444  3
   2405   2404   2400   2407     1  0.0000000  0.6508444  3
   2405   2404   2400   2429     1  0.0000000  0.6508444  3
   2405   2404   2416   2422     1  0.0000000  0.6508444  3
   2405   2404   2416   2417     1  0.0000000  0.6508444  3
   2405   2404   2416   2418     1  0.0000000  0.6508444  3
   2406   2404   2400   2407     1  0.0000000  0.6508444  3
   2406   2404   2400   2429     1  0.0000000  0.6508444  3
   2406   2404   2416   2422     1  0.0000000  0.6508444  3
   2406   2404   2416   2417     1  0.0000000  0.6508444  3
   2406   2404   2416   2418     1  0.0000000  0.6508444  3
   2407   2410   2419   2420     1  0.0000000  0.6508444  3
   2407   2410   2419   2421     1  0.0000000  0.6508444  3
   2408   2407   2400   2429     1  0.0000000  0.6508444  3
   2408   2407   2410   2419     1  0.0000000  0.6508444  3
   2408   2407   2410   2411     1  0.0000000  0.6508444  3
   2408   2407   2410   2412     1  0.0000000  0.6508444  3
   2409   2407   2400   2429     1  0.0000000  0.6508444  3
   2409   2407   2410   2419     1  0.0000000  0.6508444  3
   2409   2407   2410   2411     1  0.0000000  0.6508444  3
   2409   2407   2410   2412     1  0.0000000  0.6508444  3
   2410   2407   2400   2429     1  0.0000000  0.6508444  3
   2411   2410   2419   2428     1  0.0000000  1.0460000  1
   2411   2410   2419   2428     1  0.0000000  0.0000000  3
   2411   2410   2419   2420     1  0.0000000  0.6508444  3
   2411   2410   2419   2421     1  0.0000000  0.6508444  3
   2412   2410   2419   2428     1  0.0000000  1.0460000  1
   2412   2410   2419   2428     1  0.0000000  0.0000000  3
   2412   2410   2419   2420     1  0.0000000  0.6508444  3
   2412   2410   2419   2421     1  0.0000000  0.6508444  3
   2413   2401   2400   2429     1  0.0000000  0.6508444  3
   2414   2413   2425   4918     1  0.0000000  1.0460000  1
   2414   2413   2425   4918     1  0.0000000  0.0000000  3
   2414   2413   2425   2426     1  0.0000000  0.6508444  3
   2414   2413   2425   2427     1  0.0000000  0.6508444  3
   2415   2413   2425   4918     1  0.0000000  1.0460000  1
   2415   2413   2425   4918     1  0.0000000  0.0000000  3
   2415   2413   2425   2426     1  0.0000000  0.6508444  3
   2415   2413   2425   2427     1  0.0000000  0.6508444  3
   2416   2404   2400   2429     1  0.0000000  0.6508444  3
   2417   2416   2422   4888     1  0.0000000  1.0460000  1
   2417   2416   2422   4888     1  0.0000000  0.0000000  3
   2417   2416   2422   2423     1  0.0000000  0.6508444  3
   2417   2416   2422   2424     1  0.0000000  0.6508444  3
   2418   2416   2422   4888     1  0.0000000  1.0460000  1
   2418   2416   2422   4888     1  0.0000000  0.0000000  3
   2418   2416   2422   2423     1  0.0000000  0.6508444  3
   2418   2416   2422   2424     1  0.0000000  0.6508444  3
   2422   4888   4879   4880     1  0.0000000  1.6038667  3
   2422   4888   4879   4881     1  0.0000000  1.6038667  3
   2423   2422   4888   4879     1  0.0000000  1.6038667  3
   2424   2422   4888   4879     1  0.0000000  1.6038667  3
   2425   4918   4909   4910     1  0.0000000  1.6038667  3
   2425   4918   4909   4911     1  0.0000000  1.6038667  3
   2426   2425   4918   4909     1  0.0000000  1.6038667  3
   2427   2425   4918   4909     1  0.0000000  1.6038667  3
   2430   2431   2443   2444     1  0.0000000  0.6508444  3
   2430   2431   2443   2445     1  0.0000000  0.6508444  3
   2430   2434   2446   2447     1  0.0000000  0.6508444  3
   2430   2434   2446   2448     1  0.0000000  0.6508444  3
   2430   2437   2440   2441     1  0.0000000  0.6508444  3
   2430   2437   2440   2442     1  0.0000000  0.6508444  3
   2431   2430   2434   2435     1  0.0000000  0.6508444  3
   2431   2430   2434   2436     1  0.0000000  0.6508444  3
   2431   2430   2437   2438     1  0.0000000  0.6508444  3
   2431   2430   2437   2439     1  0.0000000  0.6508444  3
   2431   2443   2455   2456     1  0.0000000  0.6508444  3
   2431   2443   2455   2457     1  0.0000000  0.6508444  3
   2432   2431   2430   2434     1  0.0000000  0.6508444  3
   2432   2431   2430   2437     1  0.0000000  0.6508444  3
   2432   2431   2430   2459     1  0.0000000  0.6508444  3
   2432   2431   2443   2455     1  0.0000000  0.6508444  3
   2432   2431   2443   2444     1  0.0000000  0.6508444  3
   2432   2431   2443   2445     1  0.0000000  0.6508444  3
   2433   2431   2430   2434     1  0.0000000  0.6508444  3
   2433   2431   2430   2437     1  0.0000000  0.6508444  3
   2433   2431   2430   2459     1  0.0000000  0.6508444  3
   2433   2431   2443   2455     1  0.0000000  0.6508444  3
   2433   2431   2443   2444     1  0.0000000  0.6508444  3
   2433   2431   2443   2445     1  0.0000000  0.6508444  3
   2434   2430   2437   2438     1  0.0000000  0.6508444  3
   2434   2430   2437   2439     1  0.0000000  0.6508444  3
   2434   2446   2452   2453     1  0.0000000  0.6508444  3
   2434   2446   2452   2454     1  0.0000000  0.6508444  3
   2435   2434   2430   2437     1  0.0000000  0.6508444  3
   2435   2434   2430   2459     1  0.0000000  0.6508444  3
   2435   2434   2446   2452     1  0.0000000  0.6508444  3
   2435   2434   2446   2447     1  0.0000000  0.6508444  3
   2435   2434   2446   2448     1  0.0000000  0.6508444  3
   2436   2434   2430   2437     1  0.0000000  0.6508444  3
   2436   2434   2430   2459     1  0.0000000  0.6508444  3
   2436   2434   2446   2452     1  0.0000000  0.6508444  3
   2436   2434   2446   2447     1  0.0000000  0.6508444  3
   2436   2434   2446   2448     1  0.0000000  0.6508444  3
   2437   2440   2449   2450     1  0.0000000  0.6508444  3
   2437   2440   2449   2451     1  0.0000000  0.6508444  3
   2438   2437   2430   2459     1  0.0000000  0.6508444  3
   2438   2437   2440   2449     1  0.0000000  0.6508444  3
   2438   2437   2440   2441     1  0.0000000  0.6508444  3
   2438   2437   2440   2442     1  0.0000000  0.6508444  3
   2439   2437   2430   2459     1  0.0000000  0.6508444  3
   2439   2437   2440   2449     1  0.0000000  0.6508444  3
   2439   2437   2440   2441     1  0.0000000  0.6508444  3
   2439   2437   2440   2442     1  0.0000000  0.6508444  3
   2440   2437   2430   2459     1  0.0000000  0.6508444  3
   2441   2440   2449   2458     1  0.0000000  1.0460000  1
   2441   2440   2449   2458     1  0.0000000  0.0000000  3
   2441   2440   2449   2450     1  0.0000000  0.6508444  3
   2441   2440   2449   2451     1  0.0000000  0.6508444  3
   2442   2440   2449   2458     1  0.0000000  1.0460000  1
   2442   2440   2449   2458     1  0.0000000  0.0000000  3
   2442   2440   2449   2450     1  0.0000000  0.6508444  3
   2442   2440   2449   2451     1  0.0000000  0.6508444  3
   2443   2431   2430   2459     1  0.0000000  0.6508444  3
   2444   2443   2455   4978     1  0.0000000  1.0460000  1
   2444   2443   2455   4978     1  0.0000000  0.0000000  3
   2444   2443   2455   2456     1  0.0000000  0.6508444  3
   2444   2443   2455   2457     1  0.0000000  0.6508444  3
   2445   2443   2455   4978     1  0.0000000  1.0460000  1
   2445   2443   2455   4978     1  0.0000000  0.0000000  3
   2445   2443   2455   2456     1  0.0000000  0.6508444  3
   2445   2443   2455   2457     1  0.0000000  0.6508444  3
   2446   2434   2430   2459     1  0.0000000  0.6508444  3
   2447   2446   2452   4948     1  0.0000000  1.0460000  1
   2447   2446   2452   4948     1  0.0000000  0.0000000  3
   2447   2446   2452   2453     1  0.0000000  0.6508444  3
   2447   2446   2452   2454     1  0.0000000  0.6508444  3
   2448   2446   2452   4948     1  0.0000000  1.0460000  1
   2448   2446   2452   4948     1  0.0000000  0.0000000  3
   2448   2446   2452   2453     1  0.0000000  0.6508444  3
   2448   2446   2452   2454     1  0.0000000  0.6508444  3
   2452   4948   4939   4940     1  0.0000000  1.6038667  3
   2452   4948   4939   4941     1  0.0000000  1.6038667  3
   2453   2452   4948   4939     1  0.0000000  1.6038667  3
   2454   2452   4948   4939     1  0.0000000  1.6038667  3
   2455   4978   4969   4970     1  0.0000000  1.6038667  3
   2455   4978   4969   4971     1  0.0000000  1.6038667  3
   2456   2455   4978   4969     1  0.0000000  1.6038667  3
   2457   2455   4978   4969     1  0.0000000  1.6038667  3
   2460   2461   2473   2474     1  0.0000000  0.6508444  3
   2460   2461   2473   2475     1  0.0000000  0.6508444  3
   2460   2464   2476   2477     1  0.0000000  0.6508444  3
   2460   2464   2476   2478     1  0.0000000  0.6508444  3
   2460   2467   2470   2471     1  0.0000000  0.6508444  3
   2460   2467   2470   2472     1  0.0000000  0.6508444  3
   2461   2460   2464   2465     1  0.0000000  0.6508444  3
   2461   2460   2464   2466     1  0.0000000  0.6508444  3
   2461   2460   2467   2468     1  0.0000000  0.6508444  3
   2461   2460   2467   2469     1  0.0000000  0.6508444  3
   2461   2473   2485   2486     1  0.0000000  0.6508444  3
   2461   2473   2485   2487     1  0.0000000  0.6508444  3
   2462   2461   2460   2464     1  0.0000000  0.6508444  3
   2462   2461   2460   2467     1  0.0000000  0.6508444  3
   2462   2461   2460   2489     1  0.0000000  0.6508444  3
   2462   2461   2473   2485     1  0.0000000  0.6508444  3
   2462   2461   2473   2474     1  0.0000000  0.6508444  3
   2462   2461   2473   2475     1  0.0000000  0.6508444  3
   2463   2461   2460   2464     1  0.0000000  0.6508444  3
   2463   2461   2460   2467     1  0.0000000  0.6508444  3
   2463   2461   2460   2489     1  0.0000000  0.6508444  3
   2463   2461   2473   2485     1  0.0000000  0.6508444  3
   2463   2461   2473   2474     1  0.0000000  0.6508444  3
   2463   2461   2473   2475     1  0.0000000  0.6508444  3
   2464   2460   2467   2468     1  0.0000000  0.6508444  3
   2464   2460   2467   2469     1  0.0000000  0.6508444  3
   2464   2476   2482   2483     1  0.0000000  0.6508444  3
   2464   2476   2482   2484     1  0.0000000  0.6508444  3
   2465   2464   2460   2467     1  0.0000000  0.6508444  3
   2465   2464   2460   2489     1  0.0000000  0.6508444  3
   2465   2464   2476   2482     1  0.0000000  0.6508444  3
   2465   2464   2476   2477     1  0.0000000  0.6508444  3
   2465   2464   2476   2478     1  0.0000000  0.6508444  3
   2466   2464   2460   2467     1  0.0000000  0.6508444  3
   2466   2464   2460   2489     1  0.0000000  0.6508444  3
   2466   2464   2476   2482     1  0.0000000  0.6508444  3
   2466   2464   2476   2477     1  0.0000000  0.6508444  3
   2466   2464   2476   2478     1  0.0000000  0.6508444  3
   2467   2470   2479   2480     1  0.0000000  0.6508444  3
   2467   2470   2479   2481     1  0.0000000  0.6508444  3
   2468   2467   2460   2489     1  0.0000000  0.6508444  3
   2468   2467   2470   2479     1  0.0000000  0.6508444  3
   2468   2467   2470   2471     1  0.0000000  0.6508444  3
   2468   2467   2470   2472     1  0.0000000  0.6508444  3
   2469   2467   2460   2489     1  0.0000000  0.6508444  3
   2469   2467   2470   2479     1  0.0000000  0.6508444  3
   2469   2467   2470   2471     1  0.0000000  0.6508444  3
   2469   2467   2470   2472     1  0.0000000  0.6508444  3
   2470   2467   2460   2489     1  0.0000000  0.6508444  3
   2471   2470   2479   2488     1  0.0000000  1.0460000  1
   2471   2470   2479   2488     1  0.0000000  0.0000000  3
   2471   2470   2479   2480     1  0.0000000  0.6508444  3
   2471   2470   2479   2481     1  0.0000000  0.6508444  3
   2472   2470   2479   2488     1  0.0000000  1.0460000  1
   2472   2470   2479   2488     1  0.0000000  0.0000000  3
   2472   2470   2479   2480     1  0.0000000  0.6508444  3
   2472   2470   2479   2481     1  0.0000000  0.6508444  3
   2473   2461   2460   2489     1  0.0000000  0.6508444  3
   2474   2473   2485   5038     1  0.0000000  1.0460000  1
   2474   2473   2485   5038     1  0.0000000  0.0000000  3
   2474   2473   2485   2486     1  0.0000000  0.6508444  3
   2474   2473   2485   2487     1  0.0000000  0.6508444  3
   2475   2473   2485   5038     1  0.0000000  1.0460000  1
   2475   2473   2485   5038     1  0.0000000  0.0000000  3
   2475   2473   2485   2486     1  0.0000000  0.6508444  3
   2475   2473   2485   2487     1  0.0000000  0.6508444  3
   2476   2464   2460   2489     1  0.0000000  0.6508444  3
   2477   2476   2482   5008     1  0.0000000  1.0460000  1
   2477   2476   2482   5008     1  0.0000000  0.0000000  3
   2477   2476   2482   2483     1  0.0000000  0.6508444  3
   2477   2476   2482   2484     1  0.0000000  0.6508444  3
   2478   2476   2482   5008     1  0.0000000  1.0460000  1
   2478   2476   2482   5008     1  0.0000000  0.0000000  3
   2478   2476   2482   2483     1  0.0000000  0.6508444  3
   2478   2476   2482   2484     1  0.0000000  0.6508444  3
   2482   5008   4999   5000     1  0.0000000  1.6038667  3
   2482   5008   4999   5001     1  0.0000000  1.6038667  3
   2483   2482   5008   4999     1  0.0000000  1.6038667  3
   2484   2482   5008   4999     1  0.0000000  1.6038667  3
   2485   5038   5029   5030     1  0.0000000  1.6038667  3
   2485   5038   5029   5031     1  0.0000000  1.6038667  3
   2486   2485   5038   5029     1  0.0000000  1.6038667  3
   2487   2485   5038   5029     1  0.0000000  1.6038667  3
   2490   2491   2503   2504     1  0.0000000  0.6508444  3
   2490   2491   2503   2505     1  0.0000000  0.6508444  3
   2490   2494   2506   2507     1  0.0000000  0.6508444  3
   2490   2494   2506   2508     1  0.0000000  0.6508444  3
   2490   2497   2500   2501     1  0.0000000  0.6508444  3
   2490   2497   2500   2502     1  0.0000000  0.6508444  3
   2491   2490   2494   2495     1  0.0000000  0.6508444  3
   2491   2490   2494   2496     1  0.0000000  0.6508444  3
   2491   2490   2497   2498     1  0.0000000  0.6508444  3
   2491   2490   2497   2499     1  0.0000000  0.6508444  3
   2491   2503   2515   2516     1  0.0000000  0.6508444  3
   2491   2503   2515   2517     1  0.0000000  0.6508444  3
   2492   2491   2490   2494     1  0.0000000  0.6508444  3
   2492   2491   2490   2497     1  0.0000000  0.6508444  3
   2492   2491   2490   2519     1  0.0000000  0.6508444  3
   2492   2491   2503   2515     1  0.0000000  0.6508444  3
   2492   2491   2503   2504     1  0.0000000  0.6508444  3
   2492   2491   2503   2505     1  0.0000000  0.6508444  3
   2493   2491   2490   2494     1  0.0000000  0.6508444  3
   2493   2491   2490   2497     1  0.0000000  0.6508444  3
   2493   2491   2490   2519     1  0.0000000  0.6508444  3
   2493   2491   2503   2515     1  0.0000000  0.6508444  3
   2493   2491   2503   2504     1  0.0000000  0.6508444  3
   2493   2491   2503   2505     1  0.0000000  0.6508444  3
   2494   2490   2497   2498     1  0.0000000  0.6508444  3
   2494   2490   2497   2499     1  0.0000000  0.6508444  3
   2494   2506   2512   2513     1  0.0000000  0.6508444  3
   2494   2506   2512   2514     1  0.0000000  0.6508444  3
   2495   2494   2490   2497     1  0.0000000  0.6508444  3
   2495   2494   2490   2519     1  0.0000000  0.6508444  3
   2495   2494   2506   2512     1  0.0000000  0.6508444  3
   2495   2494   2506   2507     1  0.0000000  0.6508444  3
   2495   2494   2506   2508     1  0.0000000  0.6508444  3
   2496   2494   2490   2497     1  0.0000000  0.6508444  3
   2496   2494   2490   2519     1  0.0000000  0.6508444  3
   2496   2494   2506   2512     1  0.0000000  0.6508444  3
   2496   2494   2506   2507     1  0.0000000  0.6508444  3
   2496   2494   2506   2508     1  0.0000000  0.6508444  3
   2497   2500   2509   2510     1  0.0000000  0.6508444  3
   2497   2500   2509   2511     1  0.0000000  0.6508444  3
   2498   2497   2490   2519     1  0.0000000  0.6508444  3
   2498   2497   2500   2509     1  0.0000000  0.6508444  3
   2498   2497   2500   2501     1  0.0000000  0.6508444  3
   2498   2497   2500   2502     1  0.0000000  0.6508444  3
   2499   2497   2490   2519     1  0.0000000  0.6508444  3
   2499   2497   2500   2509     1  0.0000000  0.6508444  3
   2499   2497   2500   2501     1  0.0000000  0.6508444  3
   2499   2497   2500   2502     1  0.0000000  0.6508444  3
   2500   2497   2490   2519     1  0.0000000  0.6508444  3
   2501   2500   2509   2518     1  0.0000000  1.0460000  1
   2501   2500   2509   2518     1  0.0000000  0.0000000  3
   2501   2500   2509   2510     1  0.0000000  0.6508444  3
   2501   2500   2509   2511     1  0.0000000  0.6508444  3
   2502   2500   2509   2518     1  0.0000000  1.0460000  1
   2502   2500   2509   2518     1  0.0000000  0.0000000  3
   2502   2500   2509   2510     1  0.0000000  0.6508444  3
   2502   2500   2509   2511     1  0.0000000  0.6508444  3
   2503   2491   2490   2519     1  0.0000000  0.6508444  3
   2504   2503   2515   5098     1  0.0000000  1.0460000  1
   2504   2503   2515   5098     1  0.0000000  0.0000000  3
   2504   2503   2515   2516     1  0.0000000  0.6508444  3
   2504   2503   2515   2517     1  0.0000000  0.6508444  3
   2505   2503   2515   5098     1  0.0000000  1.0460000  1
   2505   2503   2515   5098     1  0.0000000  0.0000000  3
   2505   2503   2515   2516     1  0.0000000  0.6508444  3
   2505   2503   2515   2517     1  0.0000000  0.6508444  3
   2506   2494   2490   2519     1  0.0000000  0.6508444  3
   2507   2506   2512   5068     1  0.0000000  1.0460000  1
   2507   2506   2512   5068     1  0.0000000  0.0000000  3
   2507   2506   2512   2513     1  0.0000000  0.6508444  3
   2507   2506   2512   2514     1  0.0000000  0.6508444  3
   2508   2506   2512   5068     1  0.0000000  1.0460000  1
   2508   2506   2512   5068     1  0.0000000  0.0000000  3
   2508   2506   2512   2513     1  0.0000000  0.6508444  3
   2508   2506   2512   2514     1  0.0000000  0.6508444  3
   2512   5068   5059   5060     1  0.0000000  1.6038667  3
   2512   5068   5059   5061     1  0.0000000  1.6038667  3
   2513   2512   5068   5059     1  0.0000000  1.6038667  3
   2514   2512   5068   5059     1  0.0000000  1.6038667  3
   2515   5098   5089   5090     1  0.0000000  1.6038667  3
   2515   5098   5089   5091     1  0.0000000  1.6038667  3
   2516   2515   5098   5089     1  0.0000000  1.6038667  3
   2517   2515   5098   5089     1  0.0000000  1.6038667  3
   2520   2521   2533   2534     1  0.0000000  0.6508444  3
   2520   2521   2533   2535     1  0.0000000  0.6508444  3
   2520   2524   2536   2537     1  0.0000000  0.6508444  3
   2520   2524   2536   2538     1  0.0000000  0.6508444  3
   2520   2527   2530   2531     1  0.0000000  0.6508444  3
   2520   2527   2530   2532     1  0.0000000  0.6508444  3
   2521   2520   2524   2525     1  0.0000000  0.6508444  3
   2521   2520   2524   2526     1  0.0000000  0.6508444  3
   2521   2520   2527   2528     1  0.0000000  0.6508444  3
   2521   2520   2527   2529     1  0.0000000  0.6508444  3
   2521   2533   2545   2546     1  0.0000000  0.6508444  3
   2521   2533   2545   2547     1  0.0000000  0.6508444  3
   2522   2521   2520   2524     1  0.0000000  0.6508444  3
   2522   2521   2520   2527     1  0.0000000  0.6508444  3
   2522   2521   2520   2549     1  0.0000000  0.6508444  3
   2522   2521   2533   2545     1  0.0000000  0.6508444  3
   2522   2521   2533   2534     1  0.0000000  0.6508444  3
   2522   2521   2533   2535     1  0.0000000  0.6508444  3
   2523   2521   2520   2524     1  0.0000000  0.6508444  3
   2523   2521   2520   2527     1  0.0000000  0.6508444  3
   2523   2521   2520   2549     1  0.0000000  0.6508444  3
   2523   2521   2533   2545     1  0.0000000  0.6508444  3
   2523   2521   2533   2534     1  0.0000000  0.6508444  3
   2523   2521   2533   2535     1  0.0000000  0.6508444  3
   2524   2520   2527   2528     1  0.0000000  0.6508444  3
   2524   2520   2527   2529     1  0.0000000  0.6508444  3
   2524   2536   2542   2543     1  0.0000000  0.6508444  3
   2524   2536   2542   2544     1  0.0000000  0.6508444  3
   2525   2524   2520   2527     1  0.0000000  0.6508444  3
   2525   2524   2520   2549     1  0.0000000  0.6508444  3
   2525   2524   2536   2542     1  0.0000000  0.6508444  3
   2525   2524   2536   2537     1  0.0000000  0.6508444  3
   2525   2524   2536   2538     1  0.0000000  0.6508444  3
   2526   2524   2520   2527     1  0.0000000  0.6508444  3
   2526   2524   2520   2549     1  0.0000000  0.6508444  3
   2526   2524   2536   2542     1  0.0000000  0.6508444  3
   2526   2524   2536   2537     1  0.0000000  0.6508444  3
   2526   2524   2536   2538     1  0.0000000  0.6508444  3
   2527   2530   2539   2540     1  0.0000000  0.6508444  3
   2527   2530   2539   2541     1  0.0000000  0.6508444  3
   2528   2527   2520   2549     1  0.0000000  0.6508444  3
   2528   2527   2530   2539     1  0.0000000  0.6508444  3
   2528   2527   2530   2531     1  0.0000000  0.6508444  3
   2528   2527   2530   2532     1  0.0000000  0.6508444  3
   2529   2527   2520   2549     1  0.0000000  0.6508444  3
   2529   2527   2530   2539     1  0.0000000  0.6508444  3
   2529   2527   2530   2531     1  0.0000000  0.6508444  3
   2529   2527   2530   2532     1  0.0000000  0.6508444  3
   2530   2527   2520   2549     1  0.0000000  0.6508444  3
   2531   2530   2539   2548     1  0.0000000  1.0460000  1
   2531   2530   2539   2548     1  0.0000000  0.0000000  3
   2531   2530   2539   2540     1  0.0000000  0.6508444  3
   2531   2530   2539   2541     1  0.0000000  0.6508444  3
   2532   2530   2539   2548     1  0.0000000  1.0460000  1
   2532   2530   2539   2548     1  0.0000000  0.0000000  3
   2532   2530   2539   2540     1  0.0000000  0.6508444  3
   2532   2530   2539   2541     1  0.0000000  0.6508444  3
   2533   2521   2520   2549     1  0.0000000  0.6508444  3
   2534   2533   2545   5158     1  0.0000000  1.0460000  1
   2534   2533   2545   5158     1  0.0000000  0.0000000  3
   2534   2533   2545   2546     1  0.0000000  0.6508444  3
   2534   2533   2545   2547     1  0.0000000  0.6508444  3
   2535   2533   2545   5158     1  0.0000000  1.0460000  1
   2535   2533   2545   5158     1  0.0000000  0.0000000  3
   2535   2533   2545   2546     1  0.0000000  0.6508444  3
   2535   2533   2545   2547     1  0.0000000  0.6508444  3
   2536   2524   2520   2549     1  0.0000000  0.6508444  3
   2537   2536   2542   5128     1  0.0000000  1.0460000  1
   2537   2536   2542   5128     1  0.0000000  0.0000000  3
   2537   2536   2542   2543     1  0.0000000  0.6508444  3
   2537   2536   2542   2544     1  0.0000000  0.6508444  3
   2538   2536   2542   5128     1  0.0000000  1.0460000  1
   2538   2536   2542   5128     1  0.0000000  0.0000000  3
   2538   2536   2542   2543     1  0.0000000  0.6508444  3
   2538   2536   2542   2544     1  0.0000000  0.6508444  3
   2542   5128   5119   5120     1  0.0000000  1.6038667  3
   2542   5128   5119   5121     1  0.0000000  1.6038667  3
   2543   2542   5128   5119     1  0.0000000  1.6038667  3
   2544   2542   5128   5119     1  0.0000000  1.6038667  3
   2545   5158   5149   5150     1  0.0000000  1.6038667  3
   2545   5158   5149   5151     1  0.0000000  1.6038667  3
   2546   2545   5158   5149     1  0.0000000  1.6038667  3
   2547   2545   5158   5149     1  0.0000000  1.6038667  3
   2550   2551   2563   2564     1  0.0000000  0.6508444  3
   2550   2551   2563   2565     1  0.0000000  0.6508444  3
   2550   2554   2566   2567     1  0.0000000  0.6508444  3
   2550   2554   2566   2568     1  0.0000000  0.6508444  3
   2550   2557   2560   2561     1  0.0000000  0.6508444  3
   2550   2557   2560   2562     1  0.0000000  0.6508444  3
   2551   2550   2554   2555     1  0.0000000  0.6508444  3
   2551   2550   2554   2556     1  0.0000000  0.6508444  3
   2551   2550   2557   2558     1  0.0000000  0.6508444  3
   2551   2550   2557   2559     1  0.0000000  0.6508444  3
   2551   2563   2575   2576     1  0.0000000  0.6508444  3
   2551   2563   2575   2577     1  0.0000000  0.6508444  3
   2552   2551   2550   2554     1  0.0000000  0.6508444  3
   2552   2551   2550   2557     1  0.0000000  0.6508444  3
   2552   2551   2550   2579     1  0.0000000  0.6508444  3
   2552   2551   2563   2575     1  0.0000000  0.6508444  3
   2552   2551   2563   2564     1  0.0000000  0.6508444  3
   2552   2551   2563   2565     1  0.0000000  0.6508444  3
   2553   2551   2550   2554     1  0.0000000  0.6508444  3
   2553   2551   2550   2557     1  0.0000000  0.6508444  3
   2553   2551   2550   2579     1  0.0000000  0.6508444  3
   2553   2551   2563   2575     1  0.0000000  0.6508444  3
   2553   2551   2563   2564     1  0.0000000  0.6508444  3
   2553   2551   2563   2565     1  0.0000000  0.6508444  3
   2554   2550   2557   2558     1  0.0000000  0.6508444  3
   2554   2550   2557   2559     1  0.0000000  0.6508444  3
   2554   2566   2572   2573     1  0.0000000  0.6508444  3
   2554   2566   2572   2574     1  0.0000000  0.6508444  3
   2555   2554   2550   2557     1  0.0000000  0.6508444  3
   2555   2554   2550   2579     1  0.0000000  0.6508444  3
   2555   2554   2566   2572     1  0.0000000  0.6508444  3
   2555   2554   2566   2567     1  0.0000000  0.6508444  3
   2555   2554   2566   2568     1  0.0000000  0.6508444  3
   2556   2554   2550   2557     1  0.0000000  0.6508444  3
   2556   2554   2550   2579     1  0.0000000  0.6508444  3
   2556   2554   2566   2572     1  0.0000000  0.6508444  3
   2556   2554   2566   2567     1  0.0000000  0.6508444  3
   2556   2554   2566   2568     1  0.0000000  0.6508444  3
   2557   2560   2569   2570     1  0.0000000  0.6508444  3
   2557   2560   2569   2571     1  0.0000000  0.6508444  3
   2558   2557   2550   2579     1  0.0000000  0.6508444  3
   2558   2557   2560   2569     1  0.0000000  0.6508444  3
   2558   2557   2560   2561     1  0.0000000  0.6508444  3
   2558   2557   2560   2562     1  0.0000000  0.6508444  3
   2559   2557   2550   2579     1  0.0000000  0.6508444  3
   2559   2557   2560   2569     1  0.0000000  0.6508444  3
   2559   2557   2560   2561     1  0.0000000  0.6508444  3
   2559   2557   2560   2562     1  0.0000000  0.6508444  3
   2560   2557   2550   2579     1  0.0000000  0.6508444  3
   2561   2560   2569   2578     1  0.0000000  1.0460000  1
   2561   2560   2569   2578     1  0.0000000  0.0000000  3
   2561   2560   2569   2570     1  0.0000000  0.6508444  3
   2561   2560   2569   2571     1  0.0000000  0.6508444  3
   2562   2560   2569   2578     1  0.0000000  1.0460000  1
   2562   2560   2569   2578     1  0.0000000  0.0000000  3
   2562   2560   2569   2570     1  0.0000000  0.6508444  3
   2562   2560   2569   2571     1  0.0000000  0.6508444  3
   2563   2551   2550   2579     1  0.0000000  0.6508444  3
   2564   2563   2575   5218     1  0.0000000  1.0460000  1
   2564   2563   2575   5218     1  0.0000000  0.0000000  3
   2564   2563   2575   2576     1  0.0000000  0.6508444  3
   2564   2563   2575   2577     1  0.0000000  0.6508444  3
   2565   2563   2575   5218     1  0.0000000  1.0460000  1
   2565   2563   2575   5218     1  0.0000000  0.0000000  3
   2565   2563   2575   2576     1  0.0000000  0.6508444  3
   2565   2563   2575   2577     1  0.0000000  0.6508444  3
   2566   2554   2550   2579     1  0.0000000  0.6508444  3
   2567   2566   2572   5188     1  0.0000000  1.0460000  1
   2567   2566   2572   5188     1  0.0000000  0.0000000  3
   2567   2566   2572   2573     1  0.0000000  0.6508444  3
   2567   2566   2572   2574     1  0.0000000  0.6508444  3
   2568   2566   2572   5188     1  0.0000000  1.0460000  1
   2568   2566   2572   5188     1  0.0000000  0.0000000  3
   2568   2566   2572   2573     1  0.0000000  0.6508444  3
   2568   2566   2572   2574     1  0.0000000  0.6508444  3
   2572   5188   5179   5180     1  0.0000000  1.6038667  3
   2572   5188   5179   5181     1  0.0000000  1.6038667  3
   2573   2572   5188   5179     1  0.0000000  1.6038667  3
   2574   2572   5188   5179     1  0.0000000  1.6038667  3
   2575   5218   5209   5210     1  0.0000000  1.6038667  3
   2575   5218   5209   5211     1  0.0000000  1.6038667  3
   2576   2575   5218   5209     1  0.0000000  1.6038667  3
   2577   2575   5218   5209     1  0.0000000  1.6038667  3
   2580   2581   2593   2594     1  0.0000000  0.6508444  3
   2580   2581   2593   2595     1  0.0000000  0.6508444  3
   2580   2584   2596   2597     1  0.0000000  0.6508444  3
   2580   2584   2596   2598     1  0.0000000  0.6508444  3
   2580   2587   2590   2591     1  0.0000000  0.6508444  3
   2580   2587   2590   2592     1  0.0000000  0.6508444  3
   2581   2580   2584   2585     1  0.0000000  0.6508444  3
   2581   2580   2584   2586     1  0.0000000  0.6508444  3
   2581   2580   2587   2588     1  0.0000000  0.6508444  3
   2581   2580   2587   2589     1  0.0000000  0.6508444  3
   2581   2593   2605   2606     1  0.0000000  0.6508444  3
   2581   2593   2605   2607     1  0.0000000  0.6508444  3
   2582   2581   2580   2584     1  0.0000000  0.6508444  3
   2582   2581   2580   2587     1  0.0000000  0.6508444  3
   2582   2581   2580   2609     1  0.0000000  0.6508444  3
   2582   2581   2593   2605     1  0.0000000  0.6508444  3
   2582   2581   2593   2594     1  0.0000000  0.6508444  3
   2582   2581   2593   2595     1  0.0000000  0.6508444  3
   2583   2581   2580   2584     1  0.0000000  0.6508444  3
   2583   2581   2580   2587     1  0.0000000  0.6508444  3
   2583   2581   2580   2609     1  0.0000000  0.6508444  3
   2583   2581   2593   2605     1  0.0000000  0.6508444  3
   2583   2581   2593   2594     1  0.0000000  0.6508444  3
   2583   2581   2593   2595     1  0.0000000  0.6508444  3
   2584   2580   2587   2588     1  0.0000000  0.6508444  3
   2584   2580   2587   2589     1  0.0000000  0.6508444  3
   2584   2596   2602   2603     1  0.0000000  0.6508444  3
   2584   2596   2602   2604     1  0.0000000  0.6508444  3
   2585   2584   2580   2587     1  0.0000000  0.6508444  3
   2585   2584   2580   2609     1  0.0000000  0.6508444  3
   2585   2584   2596   2602     1  0.0000000  0.6508444  3
   2585   2584   2596   2597     1  0.0000000  0.6508444  3
   2585   2584   2596   2598     1  0.0000000  0.6508444  3
   2586   2584   2580   2587     1  0.0000000  0.6508444  3
   2586   2584   2580   2609     1  0.0000000  0.6508444  3
   2586   2584   2596   2602     1  0.0000000  0.6508444  3
   2586   2584   2596   2597     1  0.0000000  0.6508444  3
   2586   2584   2596   2598     1  0.0000000  0.6508444  3
   2587   2590   2599   2600     1  0.0000000  0.6508444  3
   2587   2590   2599   2601     1  0.0000000  0.6508444  3
   2588   2587   2580   2609     1  0.0000000  0.6508444  3
   2588   2587   2590   2599     1  0.0000000  0.6508444  3
   2588   2587   2590   2591     1  0.0000000  0.6508444  3
   2588   2587   2590   2592     1  0.0000000  0.6508444  3
   2589   2587   2580   2609     1  0.0000000  0.6508444  3
   2589   2587   2590   2599     1  0.0000000  0.6508444  3
   2589   2587   2590   2591     1  0.0000000  0.6508444  3
   2589   2587   2590   2592     1  0.0000000  0.6508444  3
   2590   2587   2580   2609     1  0.0000000  0.6508444  3
   2591   2590   2599   2608     1  0.0000000  1.0460000  1
   2591   2590   2599   2608     1  0.0000000  0.0000000  3
   2591   2590   2599   2600     1  0.0000000  0.6508444  3
   2591   2590   2599   2601     1  0.0000000  0.6508444  3
   2592   2590   2599   2608     1  0.0000000  1.0460000  1
   2592   2590   2599   2608     1  0.0000000  0.0000000  3
   2592   2590   2599   2600     1  0.0000000  0.6508444  3
   2592   2590   2599   2601     1  0.0000000  0.6508444  3
   2593   2581   2580   2609     1  0.0000000  0.6508444  3
   2594   2593   2605   5278     1  0.0000000  1.0460000  1
   2594   2593   2605   5278     1  0.0000000  0.0000000  3
   2594   2593   2605   2606     1  0.0000000  0.6508444  3
   2594   2593   2605   2607     1  0.0000000  0.6508444  3
   2595   2593   2605   5278     1  0.0000000  1.0460000  1
   2595   2593   2605   5278     1  0.0000000  0.0000000  3
   2595   2593   2605   2606     1  0.0000000  0.6508444  3
   2595   2593   2605   2607     1  0.0000000  0.6508444  3
   2596   2584   2580   2609     1  0.0000000  0.6508444  3
   2597   2596   2602   5248     1  0.0000000  1.0460000  1
   2597   2596   2602   5248     1  0.0000000  0.0000000  3
   2597   2596   2602   2603     1  0.0000000  0.6508444  3
   2597   2596   2602   2604     1  0.0000000  0.6508444  3
   2598   2596   2602   5248     1  0.0000000  1.0460000  1
   2598   2596   2602   5248     1  0.0000000  0.0000000  3
   2598   2596   2602   2603     1  0.0000000  0.6508444  3
   2598   2596   2602   2604     1  0.0000000  0.6508444  3
   2602   5248   5239   5240     1  0.0000000  1.6038667  3
   2602   5248   5239   5241     1  0.0000000  1.6038667  3
   2603   2602   5248   5239     1  0.0000000  1.6038667  3
   2604   2602   5248   5239     1  0.0000000  1.6038667  3
   2605   5278   5269   5270     1  0.0000000  1.6038667  3
   2605   5278   5269   5271     1  0.0000000  1.6038667  3
   2606   2605   5278   5269     1  0.0000000  1.6038667  3
   2607   2605   5278   5269     1  0.0000000  1.6038667  3
   2610   2611   2623   2624     1  0.0000000  0.6508444  3
   2610   2611   2623   2625     1  0.0000000  0.6508444  3
   2610   2614   2626   2627     1  0.0000000  0.6508444  3
   2610   2614   2626   2628     1  0.0000000  0.6508444  3
   2610   2617   2620   2621     1  0.0000000  0.6508444  3
   2610   2617   2620   2622     1  0.0000000  0.6508444  3
   2611   2610   2614   2615     1  0.0000000  0.6508444  3
   2611   2610   2614   2616     1  0.0000000  0.6508444  3
   2611   2610   2617   2618     1  0.0000000  0.6508444  3
   2611   2610   2617   2619     1  0.0000000  0.6508444  3
   2611   2623   2635   2636     1  0.0000000  0.6508444  3
   2611   2623   2635   2637     1  0.0000000  0.6508444  3
   2612   2611   2610   2614     1  0.0000000  0.6508444  3
   2612   2611   2610   2617     1  0.0000000  0.6508444  3
   2612   2611   2610   2639     1  0.0000000  0.6508444  3
   2612   2611   2623   2635     1  0.0000000  0.6508444  3
   2612   2611   2623   2624     1  0.0000000  0.6508444  3
   2612   2611   2623   2625     1  0.0000000  0.6508444  3
   2613   2611   2610   2614     1  0.0000000  0.6508444  3
   2613   2611   2610   2617     1  0.0000000  0.6508444  3
   2613   2611   2610   2639     1  0.0000000  0.6508444  3
   2613   2611   2623   2635     1  0.0000000  0.6508444  3
   2613   2611   2623   2624     1  0.0000000  0.6508444  3
   2613   2611   2623   2625     1  0.0000000  0.6508444  3
   2614   2610   2617   2618     1  0.0000000  0.6508444  3
   2614   2610   2617   2619     1  0.0000000  0.6508444  3
   2614   2626   2632   2633     1  0.0000000  0.6508444  3
   2614   2626   2632   2634     1  0.0000000  0.6508444  3
   2615   2614   2610   2617     1  0.0000000  0.6508444  3
   2615   2614   2610   2639     1  0.0000000  0.6508444  3
   2615   2614   2626   2632     1  0.0000000  0.6508444  3
   2615   2614   2626   2627     1  0.0000000  0.6508444  3
   2615   2614   2626   2628     1  0.0000000  0.6508444  3
   2616   2614   2610   2617     1  0.0000000  0.6508444  3
   2616   2614   2610   2639     1  0.0000000  0.6508444  3
   2616   2614   2626   2632     1  0.0000000  0.6508444  3
   2616   2614   2626   2627     1  0.0000000  0.6508444  3
   2616   2614   2626   2628     1  0.0000000  0.6508444  3
   2617   2620   2629   2630     1  0.0000000  0.6508444  3
   2617   2620   2629   2631     1  0.0000000  0.6508444  3
   2618   2617   2610   2639     1  0.0000000  0.6508444  3
   2618   2617   2620   2629     1  0.0000000  0.6508444  3
   2618   2617   2620   2621     1  0.0000000  0.6508444  3
   2618   2617   2620   2622     1  0.0000000  0.6508444  3
   2619   2617   2610   2639     1  0.0000000  0.6508444  3
   2619   2617   2620   2629     1  0.0000000  0.6508444  3
   2619   2617   2620   2621     1  0.0000000  0.6508444  3
   2619   2617   2620   2622     1  0.0000000  0.6508444  3
   2620   2617   2610   2639     1  0.0000000  0.6508444  3
   2621   2620   2629   2638     1  0.0000000  1.0460000  1
   2621   2620   2629   2638     1  0.0000000  0.0000000  3
   2621   2620   2629   2630     1  0.0000000  0.6508444  3
   2621   2620   2629   2631     1  0.0000000  0.6508444  3
   2622   2620   2629   2638     1  0.0000000  1.0460000  1
   2622   2620   2629   2638     1  0.0000000  0.0000000  3
   2622   2620   2629   2630     1  0.0000000  0.6508444  3
   2622   2620   2629   2631     1  0.0000000  0.6508444  3
   2623   2611   2610   2639     1  0.0000000  0.6508444  3
   2624   2623   2635   5338     1  0.0000000  1.0460000  1
   2624   2623   2635   5338     1  0.0000000  0.0000000  3
   2624   2623   2635   2636     1  0.0000000  0.6508444  3
   2624   2623   2635   2637     1  0.0000000  0.6508444  3
   2625   2623   2635   5338     1  0.0000000  1.0460000  1
   2625   2623   2635   5338     1  0.0000000  0.0000000  3
   2625   2623   2635   2636     1  0.0000000  0.6508444  3
   2625   2623   2635   2637     1  0.0000000  0.6508444  3
   2626   2614   2610   2639     1  0.0000000  0.6508444  3
   2627   2626   2632   5308     1  0.0000000  1.0460000  1
   2627   2626   2632   5308     1  0.0000000  0.0000000  3
   2627   2626   2632   2633     1  0.0000000  0.6508444  3
   2627   2626   2632   2634     1  0.0000000  0.6508444  3
   2628   2626   2632   5308     1  0.0000000  1.0460000  1
   2628   2626   2632   5308     1  0.0000000  0.0000000  3
   2628   2626   2632   2633     1  0.0000000  0.6508444  3
   2628   2626   2632   2634     1  0.0000000  0.6508444  3
   2632   5308   5299   5300     1  0.0000000  1.6038667  3
   2632   5308   5299   5301     1  0.0000000  1.6038667  3
   2633   2632   5308   5299     1  0.0000000  1.6038667  3
   2634   2632   5308   5299     1  0.0000000  1.6038667  3
   2635   5338   5329   5330     1  0.0000000  1.6038667  3
   2635   5338   5329   5331     1  0.0000000  1.6038667  3
   2636   2635   5338   5329     1  0.0000000  1.6038667  3
   2637   2635   5338   5329     1  0.0000000  1.6038667  3
   2640   2641   2653   2654     1  0.0000000  0.6508444  3
   2640   2641   2653   2655     1  0.0000000  0.6508444  3
   2640   2644   2656   2657     1  0.0000000  0.6508444  3
   2640   2644   2656   2658     1  0.0000000  0.6508444  3
   2640   2647   2650   2651     1  0.0000000  0.6508444  3
   2640   2647   2650   2652     1  0.0000000  0.6508444  3
   2641   2640   2644   2645     1  0.0000000  0.6508444  3
   2641   2640   2644   2646     1  0.0000000  0.6508444  3
   2641   2640   2647   2648     1  0.0000000  0.6508444  3
   2641   2640   2647   2649     1  0.0000000  0.6508444  3
   2641   2653   2665   2666     1  0.0000000  0.6508444  3
   2641   2653   2665   2667     1  0.0000000  0.6508444  3
   2642   2641   2640   2644     1  0.0000000  0.6508444  3
   2642   2641   2640   2647     1  0.0000000  0.6508444  3
   2642   2641   2640   2669     1  0.0000000  0.6508444  3
   2642   2641   2653   2665     1  0.0000000  0.6508444  3
   2642   2641   2653   2654     1  0.0000000  0.6508444  3
   2642   2641   2653   2655     1  0.0000000  0.6508444  3
   2643   2641   2640   2644     1  0.0000000  0.6508444  3
   2643   2641   2640   2647     1  0.0000000  0.6508444  3
   2643   2641   2640   2669     1  0.0000000  0.6508444  3
   2643   2641   2653   2665     1  0.0000000  0.6508444  3
   2643   2641   2653   2654     1  0.0000000  0.6508444  3
   2643   2641   2653   2655     1  0.0000000  0.6508444  3
   2644   2640   2647   2648     1  0.0000000  0.6508444  3
   2644   2640   2647   2649     1  0.0000000  0.6508444  3
   2644   2656   2662   2663     1  0.0000000  0.6508444  3
   2644   2656   2662   2664     1  0.0000000  0.6508444  3
   2645   2644   2640   2647     1  0.0000000  0.6508444  3
   2645   2644   2640   2669     1  0.0000000  0.6508444  3
   2645   2644   2656   2662     1  0.0000000  0.6508444  3
   2645   2644   2656   2657     1  0.0000000  0.6508444  3
   2645   2644   2656   2658     1  0.0000000  0.6508444  3
   2646   2644   2640   2647     1  0.0000000  0.6508444  3
   2646   2644   2640   2669     1  0.0000000  0.6508444  3
   2646   2644   2656   2662     1  0.0000000  0.6508444  3
   2646   2644   2656   2657     1  0.0000000  0.6508444  3
   2646   2644   2656   2658     1  0.0000000  0.6508444  3
   2647   2650   2659   2660     1  0.0000000  0.6508444  3
   2647   2650   2659   2661     1  0.0000000  0.6508444  3
   2648   2647   2640   2669     1  0.0000000  0.6508444  3
   2648   2647   2650   2659     1  0.0000000  0.6508444  3
   2648   2647   2650   2651     1  0.0000000  0.6508444  3
   2648   2647   2650   2652     1  0.0000000  0.6508444  3
   2649   2647   2640   2669     1  0.0000000  0.6508444  3
   2649   2647   2650   2659     1  0.0000000  0.6508444  3
   2649   2647   2650   2651     1  0.0000000  0.6508444  3
   2649   2647   2650   2652     1  0.0000000  0.6508444  3
   2650   2647   2640   2669     1  0.0000000  0.6508444  3
   2651   2650   2659   2668     1  0.0000000  1.0460000  1
   2651   2650   2659   2668     1  0.0000000  0.0000000  3
   2651   2650   2659   2660     1  0.0000000  0.6508444  3
   2651   2650   2659   2661     1  0.0000000  0.6508444  3
   2652   2650   2659   2668     1  0.0000000  1.0460000  1
   2652   2650   2659   2668     1  0.0000000  0.0000000  3
   2652   2650   2659   2660     1  0.0000000  0.6508444  3
   2652   2650   2659   2661     1  0.0000000  0.6508444  3
   2653   2641   2640   2669     1  0.0000000  0.6508444  3
   2654   2653   2665   5398     1  0.0000000  1.0460000  1
   2654   2653   2665   5398     1  0.0000000  0.0000000  3
   2654   2653   2665   2666     1  0.0000000  0.6508444  3
   2654   2653   2665   2667     1  0.0000000  0.6508444  3
   2655   2653   2665   5398     1  0.0000000  1.0460000  1
   2655   2653   2665   5398     1  0.0000000  0.0000000  3
   2655   2653   2665   2666     1  0.0000000  0.6508444  3
   2655   2653   2665   2667     1  0.0000000  0.6508444  3
   2656   2644   2640   2669     1  0.0000000  0.6508444  3
   2657   2656   2662   5368     1  0.0000000  1.0460000  1
   2657   2656   2662   5368     1  0.0000000  0.0000000  3
   2657   2656   2662   2663     1  0.0000000  0.6508444  3
   2657   2656   2662   2664     1  0.0000000  0.6508444  3
   2658   2656   2662   5368     1  0.0000000  1.0460000  1
   2658   2656   2662   5368     1  0.0000000  0.0000000  3
   2658   2656   2662   2663     1  0.0000000  0.6508444  3
   2658   2656   2662   2664     1  0.0000000  0.6508444  3
   2662   5368   5359   5360     1  0.0000000  1.6038667  3
   2662   5368   5359   5361     1  0.0000000  1.6038667  3
   2663   2662   5368   5359     1  0.0000000  1.6038667  3
   2664   2662   5368   5359     1  0.0000000  1.6038667  3
   2665   5398   5389   5390     1  0.0000000  1.6038667  3
   2665   5398   5389   5391     1  0.0000000  1.6038667  3
   2666   2665   5398   5389     1  0.0000000  1.6038667  3
   2667   2665   5398   5389     1  0.0000000  1.6038667  3
   2670   2671   2683   2684     1  0.0000000  0.6508444  3
   2670   2671   2683   2685     1  0.0000000  0.6508444  3
   2670   2674   2686   2687     1  0.0000000  0.6508444  3
   2670   2674   2686   2688     1  0.0000000  0.6508444  3
   2670   2677   2680   2681     1  0.0000000  0.6508444  3
   2670   2677   2680   2682     1  0.0000000  0.6508444  3
   2671   2670   2674   2675     1  0.0000000  0.6508444  3
   2671   2670   2674   2676     1  0.0000000  0.6508444  3
   2671   2670   2677   2678     1  0.0000000  0.6508444  3
   2671   2670   2677   2679     1  0.0000000  0.6508444  3
   2671   2683   2695   2696     1  0.0000000  0.6508444  3
   2671   2683   2695   2697     1  0.0000000  0.6508444  3
   2672   2671   2670   2674     1  0.0000000  0.6508444  3
   2672   2671   2670   2677     1  0.0000000  0.6508444  3
   2672   2671   2670   2699     1  0.0000000  0.6508444  3
   2672   2671   2683   2695     1  0.0000000  0.6508444  3
   2672   2671   2683   2684     1  0.0000000  0.6508444  3
   2672   2671   2683   2685     1  0.0000000  0.6508444  3
   2673   2671   2670   2674     1  0.0000000  0.6508444  3
   2673   2671   2670   2677     1  0.0000000  0.6508444  3
   2673   2671   2670   2699     1  0.0000000  0.6508444  3
   2673   2671   2683   2695     1  0.0000000  0.6508444  3
   2673   2671   2683   2684     1  0.0000000  0.6508444  3
   2673   2671   2683   2685     1  0.0000000  0.6508444  3
   2674   2670   2677   2678     1  0.0000000  0.6508444  3
   2674   2670   2677   2679     1  0.0000000  0.6508444  3
   2674   2686   2692   2693     1  0.0000000  0.6508444  3
   2674   2686   2692   2694     1  0.0000000  0.6508444  3
   2675   2674   2670   2677     1  0.0000000  0.6508444  3
   2675   2674   2670   2699     1  0.0000000  0.6508444  3
   2675   2674   2686   2692     1  0.0000000  0.6508444  3
   2675   2674   2686   2687     1  0.0000000  0.6508444  3
   2675   2674   2686   2688     1  0.0000000  0.6508444  3
   2676   2674   2670   2677     1  0.0000000  0.6508444  3
   2676   2674   2670   2699     1  0.0000000  0.6508444  3
   2676   2674   2686   2692     1  0.0000000  0.6508444  3
   2676   2674   2686   2687     1  0.0000000  0.6508444  3
   2676   2674   2686   2688     1  0.0000000  0.6508444  3
   2677   2680   2689   2690     1  0.0000000  0.6508444  3
   2677   2680   2689   2691     1  0.0000000  0.6508444  3
   2678   2677   2670   2699     1  0.0000000  0.6508444  3
   2678   2677   2680   2689     1  0.0000000  0.6508444  3
   2678   2677   2680   2681     1  0.0000000  0.6508444  3
   2678   2677   2680   2682     1  0.0000000  0.6508444  3
   2679   2677   2670   2699     1  0.0000000  0.6508444  3
   2679   2677   2680   2689     1  0.0000000  0.6508444  3
   2679   2677   2680   2681     1  0.0000000  0.6508444  3
   2679   2677   2680   2682     1  0.0000000  0.6508444  3
   2680   2677   2670   2699     1  0.0000000  0.6508444  3
   2681   2680   2689   2698     1  0.0000000  1.0460000  1
   2681   2680   2689   2698     1  0.0000000  0.0000000  3
   2681   2680   2689   2690     1  0.0000000  0.6508444  3
   2681   2680   2689   2691     1  0.0000000  0.6508444  3
   2682   2680   2689   2698     1  0.0000000  1.0460000  1
   2682   2680   2689   2698     1  0.0000000  0.0000000  3
   2682   2680   2689   2690     1  0.0000000  0.6508444  3
   2682   2680   2689   2691     1  0.0000000  0.6508444  3
   2683   2671   2670   2699     1  0.0000000  0.6508444  3
   2684   2683   2695   5458     1  0.0000000  1.0460000  1
   2684   2683   2695   5458     1  0.0000000  0.0000000  3
   2684   2683   2695   2696     1  0.0000000  0.6508444  3
   2684   2683   2695   2697     1  0.0000000  0.6508444  3
   2685   2683   2695   5458     1  0.0000000  1.0460000  1
   2685   2683   2695   5458     1  0.0000000  0.0000000  3
   2685   2683   2695   2696     1  0.0000000  0.6508444  3
   2685   2683   2695   2697     1  0.0000000  0.6508444  3
   2686   2674   2670   2699     1  0.0000000  0.6508444  3
   2687   2686   2692   5428     1  0.0000000  1.0460000  1
   2687   2686   2692   5428     1  0.0000000  0.0000000  3
   2687   2686   2692   2693     1  0.0000000  0.6508444  3
   2687   2686   2692   2694     1  0.0000000  0.6508444  3
   2688   2686   2692   5428     1  0.0000000  1.0460000  1
   2688   2686   2692   5428     1  0.0000000  0.0000000  3
   2688   2686   2692   2693     1  0.0000000  0.6508444  3
   2688   2686   2692   2694     1  0.0000000  0.6508444  3
   2692   5428   5419   5420     1  0.0000000  1.6038667  3
   2692   5428   5419   5421     1  0.0000000  1.6038667  3
   2693   2692   5428   5419     1  0.0000000  1.6038667  3
   2694   2692   5428   5419     1  0.0000000  1.6038667  3
   2695   5458   5449   5450     1  0.0000000  1.6038667  3
   2695   5458   5449   5451     1  0.0000000  1.6038667  3
   2696   2695   5458   5449     1  0.0000000  1.6038667  3
   2697   2695   5458   5449     1  0.0000000  1.6038667  3
   2700   2701   2713   2714     1  0.0000000  0.6508444  3
   2700   2701   2713   2715     1  0.0000000  0.6508444  3
   2700   2704   2716   2717     1  0.0000000  0.6508444  3
   2700   2704   2716   2718     1  0.0000000  0.6508444  3
   2700   2707   2710   2711     1  0.0000000  0.6508444  3
   2700   2707   2710   2712     1  0.0000000  0.6508444  3
   2701   2700   2704   2705     1  0.0000000  0.6508444  3
   2701   2700   2704   2706     1  0.0000000  0.6508444  3
   2701   2700   2707   2708     1  0.0000000  0.6508444  3
   2701   2700   2707   2709     1  0.0000000  0.6508444  3
   2701   2713   2725   2726     1  0.0000000  0.6508444  3
   2701   2713   2725   2727     1  0.0000000  0.6508444  3
   2702   2701   2700   2704     1  0.0000000  0.6508444  3
   2702   2701   2700   2707     1  0.0000000  0.6508444  3
   2702   2701   2700   2729     1  0.0000000  0.6508444  3
   2702   2701   2713   2725     1  0.0000000  0.6508444  3
   2702   2701   2713   2714     1  0.0000000  0.6508444  3
   2702   2701   2713   2715     1  0.0000000  0.6508444  3
   2703   2701   2700   2704     1  0.0000000  0.6508444  3
   2703   2701   2700   2707     1  0.0000000  0.6508444  3
   2703   2701   2700   2729     1  0.0000000  0.6508444  3
   2703   2701   2713   2725     1  0.0000000  0.6508444  3
   2703   2701   2713   2714     1  0.0000000  0.6508444  3
   2703   2701   2713   2715     1  0.0000000  0.6508444  3
   2704   2700   2707   2708     1  0.0000000  0.6508444  3
   2704   2700   2707   2709     1  0.0000000  0.6508444  3
   2704   2716   2722   2723     1  0.0000000  0.6508444  3
   2704   2716   2722   2724     1  0.0000000  0.6508444  3
   2705   2704   2700   2707     1  0.0000000  0.6508444  3
   2705   2704   2700   2729     1  0.0000000  0.6508444  3
   2705   2704   2716   2722     1  0.0000000  0.6508444  3
   2705   2704   2716   2717     1  0.0000000  0.6508444  3
   2705   2704   2716   2718     1  0.0000000  0.6508444  3
   2706   2704   2700   2707     1  0.0000000  0.6508444  3
   2706   2704   2700   2729     1  0.0000000  0.6508444  3
   2706   2704   2716   2722     1  0.0000000  0.6508444  3
   2706   2704   2716   2717     1  0.0000000  0.6508444  3
   2706   2704   2716   2718     1  0.0000000  0.6508444  3
   2707   2710   2719   2720     1  0.0000000  0.6508444  3
   2707   2710   2719   2721     1  0.0000000  0.6508444  3
   2708   2707   2700   2729     1  0.0000000  0.6508444  3
   2708   2707   2710   2719     1  0.0000000  0.6508444  3
   2708   2707   2710   2711     1  0.0000000  0.6508444  3
   2708   2707   2710   2712     1  0.0000000  0.6508444  3
   2709   2707   2700   2729     1  0.0000000  0.6508444  3
   2709   2707   2710   2719     1  0.0000000  0.6508444  3
   2709   2707   2710   2711     1  0.0000000  0.6508444  3
   2709   2707   2710   2712     1  0.0000000  0.6508444  3
   2710   2707   2700   2729     1  0.0000000  0.6508444  3
   2711   2710   2719   2728     1  0.0000000  1.0460000  1
   2711   2710   2719   2728     1  0.0000000  0.0000000  3
   2711   2710   2719   2720     1  0.0000000  0.6508444  3
   2711   2710   2719   2721     1  0.0000000  0.6508444  3
   2712   2710   2719   2728     1  0.0000000  1.0460000  1
   2712   2710   2719   2728     1  0.0000000  0.0000000  3
   2712   2710   2719   2720     1  0.0000000  0.6508444  3
   2712   2710   2719   2721     1  0.0000000  0.6508444  3
   2713   2701   2700   2729     1  0.0000000  0.6508444  3
   2714   2713   2725   5518     1  0.0000000  1.0460000  1
   2714   2713   2725   5518     1  0.0000000  0.0000000  3
   2714   2713   2725   2726     1  0.0000000  0.6508444  3
   2714   2713   2725   2727     1  0.0000000  0.6508444  3
   2715   2713   2725   5518     1  0.0000000  1.0460000  1
   2715   2713   2725   5518     1  0.0000000  0.0000000  3
   2715   2713   2725   2726     1  0.0000000  0.6508444  3
   2715   2713   2725   2727     1  0.0000000  0.6508444  3
   2716   2704   2700   2729     1  0.0000000  0.6508444  3
   2717   2716   2722   5488     1  0.0000000  1.0460000  1
   2717   2716   2722   5488     1  0.0000000  0.0000000  3
   2717   2716   2722   2723     1  0.0000000  0.6508444  3
   2717   2716   2722   2724     1  0.0000000  0.6508444  3
   2718   2716   2722   5488     1  0.0000000  1.0460000  1
   2718   2716   2722   5488     1  0.0000000  0.0000000  3
   2718   2716   2722   2723     1  0.0000000  0.6508444  3
   2718   2716   2722   2724     1  0.0000000  0.6508444  3
   2722   5488   5479   5480     1  0.0000000  1.6038667  3
   2722   5488   5479   5481     1  0.0000000  1.6038667  3
   2723   2722   5488   5479     1  0.0000000  1.6038667  3
   2724   2722   5488   5479     1  0.0000000  1.6038667  3
   2725   5518   5509   5510     1  0.0000000  1.6038667  3
   2725   5518   5509   5511     1  0.0000000  1.6038667  3
   2726   2725   5518   5509     1  0.0000000  1.6038667  3
   2727   2725   5518   5509     1  0.0000000  1.6038667  3
   2730   2731   2743   2744     1  0.0000000  0.6508444  3
   2730   2731   2743   2745     1  0.0000000  0.6508444  3
   2730   2734   2746   2747     1  0.0000000  0.6508444  3
   2730   2734   2746   2748     1  0.0000000  0.6508444  3
   2730   2737   2740   2741     1  0.0000000  0.6508444  3
   2730   2737   2740   2742     1  0.0000000  0.6508444  3
   2731   2730   2734   2735     1  0.0000000  0.6508444  3
   2731   2730   2734   2736     1  0.0000000  0.6508444  3
   2731   2730   2737   2738     1  0.0000000  0.6508444  3
   2731   2730   2737   2739     1  0.0000000  0.6508444  3
   2731   2743   2755   2756     1  0.0000000  0.6508444  3
   2731   2743   2755   2757     1  0.0000000  0.6508444  3
   2732   2731   2730   2734     1  0.0000000  0.6508444  3
   2732   2731   2730   2737     1  0.0000000  0.6508444  3
   2732   2731   2730   2759     1  0.0000000  0.6508444  3
   2732   2731   2743   2755     1  0.0000000  0.6508444  3
   2732   2731   2743   2744     1  0.0000000  0.6508444  3
   2732   2731   2743   2745     1  0.0000000  0.6508444  3
   2733   2731   2730   2734     1  0.0000000  0.6508444  3
   2733   2731   2730   2737     1  0.0000000  0.6508444  3
   2733   2731   2730   2759     1  0.0000000  0.6508444  3
   2733   2731   2743   2755     1  0.0000000  0.6508444  3
   2733   2731   2743   2744     1  0.0000000  0.6508444  3
   2733   2731   2743   2745     1  0.0000000  0.6508444  3
   2734   2730   2737   2738     1  0.0000000  0.6508444  3
   2734   2730   2737   2739     1  0.0000000  0.6508444  3
   2734   2746   2752   2753     1  0.0000000  0.6508444  3
   2734   2746   2752   2754     1  0.0000000  0.6508444  3
   2735   2734   2730   2737     1  0.0000000  0.6508444  3
   2735   2734   2730   2759     1  0.0000000  0.6508444  3
   2735   2734   2746   2752     1  0.0000000  0.6508444  3
   2735   2734   2746   2747     1  0.0000000  0.6508444  3
   2735   2734   2746   2748     1  0.0000000  0.6508444  3
   2736   2734   2730   2737     1  0.0000000  0.6508444  3
   2736   2734   2730   2759     1  0.0000000  0.6508444  3
   2736   2734   2746   2752     1  0.0000000  0.6508444  3
   2736   2734   2746   2747     1  0.0000000  0.6508444  3
   2736   2734   2746   2748     1  0.0000000  0.6508444  3
   2737   2740   2749   2750     1  0.0000000  0.6508444  3
   2737   2740   2749   2751     1  0.0000000  0.6508444  3
   2738   2737   2730   2759     1  0.0000000  0.6508444  3
   2738   2737   2740   2749     1  0.0000000  0.6508444  3
   2738   2737   2740   2741     1  0.0000000  0.6508444  3
   2738   2737   2740   2742     1  0.0000000  0.6508444  3
   2739   2737   2730   2759     1  0.0000000  0.6508444  3
   2739   2737   2740   2749     1  0.0000000  0.6508444  3
   2739   2737   2740   2741     1  0.0000000  0.6508444  3
   2739   2737   2740   2742     1  0.0000000  0.6508444  3
   2740   2737   2730   2759     1  0.0000000  0.6508444  3
   2741   2740   2749   2758     1  0.0000000  1.0460000  1
   2741   2740   2749   2758     1  0.0000000  0.0000000  3
   2741   2740   2749   2750     1  0.0000000  0.6508444  3
   2741   2740   2749   2751     1  0.0000000  0.6508444  3
   2742   2740   2749   2758     1  0.0000000  1.0460000  1
   2742   2740   2749   2758     1  0.0000000  0.0000000  3
   2742   2740   2749   2750     1  0.0000000  0.6508444  3
   2742   2740   2749   2751     1  0.0000000  0.6508444  3
   2743   2731   2730   2759     1  0.0000000  0.6508444  3
   2744   2743   2755   5578     1  0.0000000  1.0460000  1
   2744   2743   2755   5578     1  0.0000000  0.0000000  3
   2744   2743   2755   2756     1  0.0000000  0.6508444  3
   2744   2743   2755   2757     1  0.0000000  0.6508444  3
   2745   2743   2755   5578     1  0.0000000  1.0460000  1
   2745   2743   2755   5578     1  0.0000000  0.0000000  3
   2745   2743   2755   2756     1  0.0000000  0.6508444  3
   2745   2743   2755   2757     1  0.0000000  0.6508444  3
   2746   2734   2730   2759     1  0.0000000  0.6508444  3
   2747   2746   2752   5548     1  0.0000000  1.0460000  1
   2747   2746   2752   5548     1  0.0000000  0.0000000  3
   2747   2746   2752   2753     1  0.0000000  0.6508444  3
   2747   2746   2752   2754     1  0.0000000  0.6508444  3
   2748   2746   2752   5548     1  0.0000000  1.0460000  1
   2748   2746   2752   5548     1  0.0000000  0.0000000  3
   2748   2746   2752   2753     1  0.0000000  0.6508444  3
   2748   2746   2752   2754     1  0.0000000  0.6508444  3
   2752   5548   5539   5540     1  0.0000000  1.6038667  3
   2752   5548   5539   5541     1  0.0000000  1.6038667  3
   2753   2752   5548   5539     1  0.0000000  1.6038667  3
   2754   2752   5548   5539     1  0.0000000  1.6038667  3
   2755   5578   5569   5570     1  0.0000000  1.6038667  3
   2755   5578   5569   5571     1  0.0000000  1.6038667  3
   2756   2755   5578   5569     1  0.0000000  1.6038667  3
   2757   2755   5578   5569     1  0.0000000  1.6038667  3
   2760   2761   2773   2774     1  0.0000000  0.6508444  3
   2760   2761   2773   2775     1  0.0000000  0.6508444  3
   2760   2764   2776   2777     1  0.0000000  0.6508444  3
   2760   2764   2776   2778     1  0.0000000  0.6508444  3
   2760   2767   2770   2771     1  0.0000000  0.6508444  3
   2760   2767   2770   2772     1  0.0000000  0.6508444  3
   2761   2760   2764   2765     1  0.0000000  0.6508444  3
   2761   2760   2764   2766     1  0.0000000  0.6508444  3
   2761   2760   2767   2768     1  0.0000000  0.6508444  3
   2761   2760   2767   2769     1  0.0000000  0.6508444  3
   2761   2773   2785   2786     1  0.0000000  0.6508444  3
   2761   2773   2785   2787     1  0.0000000  0.6508444  3
   2762   2761   2760   2764     1  0.0000000  0.6508444  3
   2762   2761   2760   2767     1  0.0000000  0.6508444  3
   2762   2761   2760   2789     1  0.0000000  0.6508444  3
   2762   2761   2773   2785     1  0.0000000  0.6508444  3
   2762   2761   2773   2774     1  0.0000000  0.6508444  3
   2762   2761   2773   2775     1  0.0000000  0.6508444  3
   2763   2761   2760   2764     1  0.0000000  0.6508444  3
   2763   2761   2760   2767     1  0.0000000  0.6508444  3
   2763   2761   2760   2789     1  0.0000000  0.6508444  3
   2763   2761   2773   2785     1  0.0000000  0.6508444  3
   2763   2761   2773   2774     1  0.0000000  0.6508444  3
   2763   2761   2773   2775     1  0.0000000  0.6508444  3
   2764   2760   2767   2768     1  0.0000000  0.6508444  3
   2764   2760   2767   2769     1  0.0000000  0.6508444  3
   2764   2776   2782   2783     1  0.0000000  0.6508444  3
   2764   2776   2782   2784     1  0.0000000  0.6508444  3
   2765   2764   2760   2767     1  0.0000000  0.6508444  3
   2765   2764   2760   2789     1  0.0000000  0.6508444  3
   2765   2764   2776   2782     1  0.0000000  0.6508444  3
   2765   2764   2776   2777     1  0.0000000  0.6508444  3
   2765   2764   2776   2778     1  0.0000000  0.6508444  3
   2766   2764   2760   2767     1  0.0000000  0.6508444  3
   2766   2764   2760   2789     1  0.0000000  0.6508444  3
   2766   2764   2776   2782     1  0.0000000  0.6508444  3
   2766   2764   2776   2777     1  0.0000000  0.6508444  3
   2766   2764   2776   2778     1  0.0000000  0.6508444  3
   2767   2770   2779   2780     1  0.0000000  0.6508444  3
   2767   2770   2779   2781     1  0.0000000  0.6508444  3
   2768   2767   2760   2789     1  0.0000000  0.6508444  3
   2768   2767   2770   2779     1  0.0000000  0.6508444  3
   2768   2767   2770   2771     1  0.0000000  0.6508444  3
   2768   2767   2770   2772     1  0.0000000  0.6508444  3
   2769   2767   2760   2789     1  0.0000000  0.6508444  3
   2769   2767   2770   2779     1  0.0000000  0.6508444  3
   2769   2767   2770   2771     1  0.0000000  0.6508444  3
   2769   2767   2770   2772     1  0.0000000  0.6508444  3
   2770   2767   2760   2789     1  0.0000000  0.6508444  3
   2771   2770   2779   2788     1  0.0000000  1.0460000  1
   2771   2770   2779   2788     1  0.0000000  0.0000000  3
   2771   2770   2779   2780     1  0.0000000  0.6508444  3
   2771   2770   2779   2781     1  0.0000000  0.6508444  3
   2772   2770   2779   2788     1  0.0000000  1.0460000  1
   2772   2770   2779   2788     1  0.0000000  0.0000000  3
   2772   2770   2779   2780     1  0.0000000  0.6508444  3
   2772   2770   2779   2781     1  0.0000000  0.6508444  3
   2773   2761   2760   2789     1  0.0000000  0.6508444  3
   2774   2773   2785   5638     1  0.0000000  1.0460000  1
   2774   2773   2785   5638     1  0.0000000  0.0000000  3
   2774   2773   2785   2786     1  0.0000000  0.6508444  3
   2774   2773   2785   2787     1  0.0000000  0.6508444  3
   2775   2773   2785   5638     1  0.0000000  1.0460000  1
   2775   2773   2785   5638     1  0.0000000  0.0000000  3
   2775   2773   2785   2786     1  0.0000000  0.6508444  3
   2775   2773   2785   2787     1  0.0000000  0.6508444  3
   2776   2764   2760   2789     1  0.0000000  0.6508444  3
   2777   2776   2782   5608     1  0.0000000  1.0460000  1
   2777   2776   2782   5608     1  0.0000000  0.0000000  3
   2777   2776   2782   2783     1  0.0000000  0.6508444  3
   2777   2776   2782   2784     1  0.0000000  0.6508444  3
   2778   2776   2782   5608     1  0.0000000  1.0460000  1
   2778   2776   2782   5608     1  0.0000000  0.0000000  3
   2778   2776   2782   2783     1  0.0000000  0.6508444  3
   2778   2776   2782   2784     1  0.0000000  0.6508444  3
   2782   5608   5599   5600     1  0.0000000  1.6038667  3
   2782   5608   5599   5601     1  0.0000000  1.6038667  3
   2783   2782   5608   5599     1  0.0000000  1.6038667  3
   2784   2782   5608   5599     1  0.0000000  1.6038667  3
   2785   5638   5629   5630     1  0.0000000  1.6038667  3
   2785   5638   5629   5631     1  0.0000000  1.6038667  3
   2786   2785   5638   5629     1  0.0000000  1.6038667  3
   2787   2785   5638   5629     1  0.0000000  1.6038667  3
   2790   2791   2803   2804     1  0.0000000  0.6508444  3
   2790   2791   2803   2805     1  0.0000000  0.6508444  3
   2790   2794   2806   2807     1  0.0000000  0.6508444  3
   2790   2794   2806   2808     1  0.0000000  0.6508444  3
   2790   2797   2800   2801     1  0.0000000  0.6508444  3
   2790   2797   2800   2802     1  0.0000000  0.6508444  3
   2791   2790   2794   2795     1  0.0000000  0.6508444  3
   2791   2790   2794   2796     1  0.0000000  0.6508444  3
   2791   2790   2797   2798     1  0.0000000  0.6508444  3
   2791   2790   2797   2799     1  0.0000000  0.6508444  3
   2791   2803   2815   2816     1  0.0000000  0.6508444  3
   2791   2803   2815   2817     1  0.0000000  0.6508444  3
   2792   2791   2790   2794     1  0.0000000  0.6508444  3
   2792   2791   2790   2797     1  0.0000000  0.6508444  3
   2792   2791   2790   2819     1  0.0000000  0.6508444  3
   2792   2791   2803   2815     1  0.0000000  0.6508444  3
   2792   2791   2803   2804     1  0.0000000  0.6508444  3
   2792   2791   2803   2805     1  0.0000000  0.6508444  3
   2793   2791   2790   2794     1  0.0000000  0.6508444  3
   2793   2791   2790   2797     1  0.0000000  0.6508444  3
   2793   2791   2790   2819     1  0.0000000  0.6508444  3
   2793   2791   2803   2815     1  0.0000000  0.6508444  3
   2793   2791   2803   2804     1  0.0000000  0.6508444  3
   2793   2791   2803   2805     1  0.0000000  0.6508444  3
   2794   2790   2797   2798     1  0.0000000  0.6508444  3
   2794   2790   2797   2799     1  0.0000000  0.6508444  3
   2794   2806   2812   2813     1  0.0000000  0.6508444  3
   2794   2806   2812   2814     1  0.0000000  0.6508444  3
   2795   2794   2790   2797     1  0.0000000  0.6508444  3
   2795   2794   2790   2819     1  0.0000000  0.6508444  3
   2795   2794   2806   2812     1  0.0000000  0.6508444  3
   2795   2794   2806   2807     1  0.0000000  0.6508444  3
   2795   2794   2806   2808     1  0.0000000  0.6508444  3
   2796   2794   2790   2797     1  0.0000000  0.6508444  3
   2796   2794   2790   2819     1  0.0000000  0.6508444  3
   2796   2794   2806   2812     1  0.0000000  0.6508444  3
   2796   2794   2806   2807     1  0.0000000  0.6508444  3
   2796   2794   2806   2808     1  0.0000000  0.6508444  3
   2797   2800   2809   2810     1  0.0000000  0.6508444  3
   2797   2800   2809   2811     1  0.0000000  0.6508444  3
   2798   2797   2790   2819     1  0.0000000  0.6508444  3
   2798   2797   2800   2809     1  0.0000000  0.6508444  3
   2798   2797   2800   2801     1  0.0000000  0.6508444  3
   2798   2797   2800   2802     1  0.0000000  0.6508444  3
   2799   2797   2790   2819     1  0.0000000  0.6508444  3
   2799   2797   2800   2809     1  0.0000000  0.6508444  3
   2799   2797   2800   2801     1  0.0000000  0.6508444  3
   2799   2797   2800   2802     1  0.0000000  0.6508444  3
   2800   2797   2790   2819     1  0.0000000  0.6508444  3
   2801   2800   2809   2818     1  0.0000000  1.0460000  1
   2801   2800   2809   2818     1  0.0000000  0.0000000  3
   2801   2800   2809   2810     1  0.0000000  0.6508444  3
   2801   2800   2809   2811     1  0.0000000  0.6508444  3
   2802   2800   2809   2818     1  0.0000000  1.0460000  1
   2802   2800   2809   2818     1  0.0000000  0.0000000  3
   2802   2800   2809   2810     1  0.0000000  0.6508444  3
   2802   2800   2809   2811     1  0.0000000  0.6508444  3
   2803   2791   2790   2819     1  0.0000000  0.6508444  3
   2804   2803   2815   5698     1  0.0000000  1.0460000  1
   2804   2803   2815   5698     1  0.0000000  0.0000000  3
   2804   2803   2815   2816     1  0.0000000  0.6508444  3
   2804   2803   2815   2817     1  0.0000000  0.6508444  3
   2805   2803   2815   5698     1  0.0000000  1.0460000  1
   2805   2803   2815   5698     1  0.0000000  0.0000000  3
   2805   2803   2815   2816     1  0.0000000  0.6508444  3
   2805   2803   2815   2817     1  0.0000000  0.6508444  3
   2806   2794   2790   2819     1  0.0000000  0.6508444  3
   2807   2806   2812   5668     1  0.0000000  1.0460000  1
   2807   2806   2812   5668     1  0.0000000  0.0000000  3
   2807   2806   2812   2813     1  0.0000000  0.6508444  3
   2807   2806   2812   2814     1  0.0000000  0.6508444  3
   2808   2806   2812   5668     1  0.0000000  1.0460000  1
   2808   2806   2812   5668     1  0.0000000  0.0000000  3
   2808   2806   2812   2813     1  0.0000000  0.6508444  3
   2808   2806   2812   2814     1  0.0000000  0.6508444  3
   2812   5668   5659   5660     1  0.0000000  1.6038667  3
   2812   5668   5659   5661     1  0.0000000  1.6038667  3
   2813   2812   5668   5659     1  0.0000000  1.6038667  3
   2814   2812   5668   5659     1  0.0000000  1.6038667  3
   2815   5698   5689   5690     1  0.0000000  1.6038667  3
   2815   5698   5689   5691     1  0.0000000  1.6038667  3
   2816   2815   5698   5689     1  0.0000000  1.6038667  3
   2817   2815   5698   5689     1  0.0000000  1.6038667  3
   2820   2821   2833   2834     1  0.0000000  0.6508444  3
   2820   2821   2833   2835     1  0.0000000  0.6508444  3
   2820   2824   2836   2837     1  0.0000000  0.6508444  3
   2820   2824   2836   2838     1  0.0000000  0.6508444  3
   2820   2827   2830   2831     1  0.0000000  0.6508444  3
   2820   2827   2830   2832     1  0.0000000  0.6508444  3
   2821   2820   2824   2825     1  0.0000000  0.6508444  3
   2821   2820   2824   2826     1  0.0000000  0.6508444  3
   2821   2820   2827   2828     1  0.0000000  0.6508444  3
   2821   2820   2827   2829     1  0.0000000  0.6508444  3
   2821   2833   2845   2846     1  0.0000000  0.6508444  3
   2821   2833   2845   2847     1  0.0000000  0.6508444  3
   2822   2821   2820   2824     1  0.0000000  0.6508444  3
   2822   2821   2820   2827     1  0.0000000  0.6508444  3
   2822   2821   2820   2849     1  0.0000000  0.6508444  3
   2822   2821   2833   2845     1  0.0000000  0.6508444  3
   2822   2821   2833   2834     1  0.0000000  0.6508444  3
   2822   2821   2833   2835     1  0.0000000  0.6508444  3
   2823   2821   2820   2824     1  0.0000000  0.6508444  3
   2823   2821   2820   2827     1  0.0000000  0.6508444  3
   2823   2821   2820   2849     1  0.0000000  0.6508444  3
   2823   2821   2833   2845     1  0.0000000  0.6508444  3
   2823   2821   2833   2834     1  0.0000000  0.6508444  3
   2823   2821   2833   2835     1  0.0000000  0.6508444  3
   2824   2820   2827   2828     1  0.0000000  0.6508444  3
   2824   2820   2827   2829     1  0.0000000  0.6508444  3
   2824   2836   2842   2843     1  0.0000000  0.6508444  3
   2824   2836   2842   2844     1  0.0000000  0.6508444  3
   2825   2824   2820   2827     1  0.0000000  0.6508444  3
   2825   2824   2820   2849     1  0.0000000  0.6508444  3
   2825   2824   2836   2842     1  0.0000000  0.6508444  3
   2825   2824   2836   2837     1  0.0000000  0.6508444  3
   2825   2824   2836   2838     1  0.0000000  0.6508444  3
   2826   2824   2820   2827     1  0.0000000  0.6508444  3
   2826   2824   2820   2849     1  0.0000000  0.6508444  3
   2826   2824   2836   2842     1  0.0000000  0.6508444  3
   2826   2824   2836   2837     1  0.0000000  0.6508444  3
   2826   2824   2836   2838     1  0.0000000  0.6508444  3
   2827   2830   2839   2840     1  0.0000000  0.6508444  3
   2827   2830   2839   2841     1  0.0000000  0.6508444  3
   2828   2827   2820   2849     1  0.0000000  0.6508444  3
   2828   2827   2830   2839     1  0.0000000  0.6508444  3
   2828   2827   2830   2831     1  0.0000000  0.6508444  3
   2828   2827   2830   2832     1  0.0000000  0.6508444  3
   2829   2827   2820   2849     1  0.0000000  0.6508444  3
   2829   2827   2830   2839     1  0.0000000  0.6508444  3
   2829   2827   2830   2831     1  0.0000000  0.6508444  3
   2829   2827   2830   2832     1  0.0000000  0.6508444  3
   2830   2827   2820   2849     1  0.0000000  0.6508444  3
   2831   2830   2839   2848     1  0.0000000  1.0460000  1
   2831   2830   2839   2848     1  0.0000000  0.0000000  3
   2831   2830   2839   2840     1  0.0000000  0.6508444  3
   2831   2830   2839   2841     1  0.0000000  0.6508444  3
   2832   2830   2839   2848     1  0.0000000  1.0460000  1
   2832   2830   2839   2848     1  0.0000000  0.0000000  3
   2832   2830   2839   2840     1  0.0000000  0.6508444  3
   2832   2830   2839   2841     1  0.0000000  0.6508444  3
   2833   2821   2820   2849     1  0.0000000  0.6508444  3
   2834   2833   2845   5758     1  0.0000000  1.0460000  1
   2834   2833   2845   5758     1  0.0000000  0.0000000  3
   2834   2833   2845   2846     1  0.0000000  0.6508444  3
   2834   2833   2845   2847     1  0.0000000  0.6508444  3
   2835   2833   2845   5758     1  0.0000000  1.0460000  1
   2835   2833   2845   5758     1  0.0000000  0.0000000  3
   2835   2833   2845   2846     1  0.0000000  0.6508444  3
   2835   2833   2845   2847     1  0.0000000  0.6508444  3
   2836   2824   2820   2849     1  0.0000000  0.6508444  3
   2837   2836   2842   5728     1  0.0000000  1.0460000  1
   2837   2836   2842   5728     1  0.0000000  0.0000000  3
   2837   2836   2842   2843     1  0.0000000  0.6508444  3
   2837   2836   2842   2844     1  0.0000000  0.6508444  3
   2838   2836   2842   5728     1  0.0000000  1.0460000  1
   2838   2836   2842   5728     1  0.0000000  0.0000000  3
   2838   2836   2842   2843     1  0.0000000  0.6508444  3
   2838   2836   2842   2844     1  0.0000000  0.6508444  3
   2842   5728   5719   5720     1  0.0000000  1.6038667  3
   2842   5728   5719   5721     1  0.0000000  1.6038667  3
   2843   2842   5728   5719     1  0.0000000  1.6038667  3
   2844   2842   5728   5719     1  0.0000000  1.6038667  3
   2845   5758   5749   5750     1  0.0000000  1.6038667  3
   2845   5758   5749   5751     1  0.0000000  1.6038667  3
   2846   2845   5758   5749     1  0.0000000  1.6038667  3
   2847   2845   5758   5749     1  0.0000000  1.6038667  3
   2850   2851   2863   2864     1  0.0000000  0.6508444  3
   2850   2851   2863   2865     1  0.0000000  0.6508444  3
   2850   2854   2866   2867     1  0.0000000  0.6508444  3
   2850   2854   2866   2868     1  0.0000000  0.6508444  3
   2850   2857   2860   2861     1  0.0000000  0.6508444  3
   2850   2857   2860   2862     1  0.0000000  0.6508444  3
   2851   2850   2854   2855     1  0.0000000  0.6508444  3
   2851   2850   2854   2856     1  0.0000000  0.6508444  3
   2851   2850   2857   2858     1  0.0000000  0.6508444  3
   2851   2850   2857   2859     1  0.0000000  0.6508444  3
   2851   2863   2875   2876     1  0.0000000  0.6508444  3
   2851   2863   2875   2877     1  0.0000000  0.6508444  3
   2852   2851   2850   2854     1  0.0000000  0.6508444  3
   2852   2851   2850   2857     1  0.0000000  0.6508444  3
   2852   2851   2850   2879     1  0.0000000  0.6508444  3
   2852   2851   2863   2875     1  0.0000000  0.6508444  3
   2852   2851   2863   2864     1  0.0000000  0.6508444  3
   2852   2851   2863   2865     1  0.0000000  0.6508444  3
   2853   2851   2850   2854     1  0.0000000  0.6508444  3
   2853   2851   2850   2857     1  0.0000000  0.6508444  3
   2853   2851   2850   2879     1  0.0000000  0.6508444  3
   2853   2851   2863   2875     1  0.0000000  0.6508444  3
   2853   2851   2863   2864     1  0.0000000  0.6508444  3
   2853   2851   2863   2865     1  0.0000000  0.6508444  3
   2854   2850   2857   2858     1  0.0000000  0.6508444  3
   2854   2850   2857   2859     1  0.0000000  0.6508444  3
   2854   2866   2872   2873     1  0.0000000  0.6508444  3
   2854   2866   2872   2874     1  0.0000000  0.6508444  3
   2855   2854   2850   2857     1  0.0000000  0.6508444  3
   2855   2854   2850   2879     1  0.0000000  0.6508444  3
   2855   2854   2866   2872     1  0.0000000  0.6508444  3
   2855   2854   2866   2867     1  0.0000000  0.6508444  3
   2855   2854   2866   2868     1  0.0000000  0.6508444  3
   2856   2854   2850   2857     1  0.0000000  0.6508444  3
   2856   2854   2850   2879     1  0.0000000  0.6508444  3
   2856   2854   2866   2872     1  0.0000000  0.6508444  3
   2856   2854   2866   2867     1  0.0000000  0.6508444  3
   2856   2854   2866   2868     1  0.0000000  0.6508444  3
   2857   2860   2869   2870     1  0.0000000  0.6508444  3
   2857   2860   2869   2871     1  0.0000000  0.6508444  3
   2858   2857   2850   2879     1  0.0000000  0.6508444  3
   2858   2857   2860   2869     1  0.0000000  0.6508444  3
   2858   2857   2860   2861     1  0.0000000  0.6508444  3
   2858   2857   2860   2862     1  0.0000000  0.6508444  3
   2859   2857   2850   2879     1  0.0000000  0.6508444  3
   2859   2857   2860   2869     1  0.0000000  0.6508444  3
   2859   2857   2860   2861     1  0.0000000  0.6508444  3
   2859   2857   2860   2862     1  0.0000000  0.6508444  3
   2860   2857   2850   2879     1  0.0000000  0.6508444  3
   2861   2860   2869   2878     1  0.0000000  1.0460000  1
   2861   2860   2869   2878     1  0.0000000  0.0000000  3
   2861   2860   2869   2870     1  0.0000000  0.6508444  3
   2861   2860   2869   2871     1  0.0000000  0.6508444  3
   2862   2860   2869   2878     1  0.0000000  1.0460000  1
   2862   2860   2869   2878     1  0.0000000  0.0000000  3
   2862   2860   2869   2870     1  0.0000000  0.6508444  3
   2862   2860   2869   2871     1  0.0000000  0.6508444  3
   2863   2851   2850   2879     1  0.0000000  0.6508444  3
   2864   2863   2875   5818     1  0.0000000  1.0460000  1
   2864   2863   2875   5818     1  0.0000000  0.0000000  3
   2864   2863   2875   2876     1  0.0000000  0.6508444  3
   2864   2863   2875   2877     1  0.0000000  0.6508444  3
   2865   2863   2875   5818     1  0.0000000  1.0460000  1
   2865   2863   2875   5818     1  0.0000000  0.0000000  3
   2865   2863   2875   2876     1  0.0000000  0.6508444  3
   2865   2863   2875   2877     1  0.0000000  0.6508444  3
   2866   2854   2850   2879     1  0.0000000  0.6508444  3
   2867   2866   2872   5788     1  0.0000000  1.0460000  1
   2867   2866   2872   5788     1  0.0000000  0.0000000  3
   2867   2866   2872   2873     1  0.0000000  0.6508444  3
   2867   2866   2872   2874     1  0.0000000  0.6508444  3
   2868   2866   2872   5788     1  0.0000000  1.0460000  1
   2868   2866   2872   5788     1  0.0000000  0.0000000  3
   2868   2866   2872   2873     1  0.0000000  0.6508444  3
   2868   2866   2872   2874     1  0.0000000  0.6508444  3
   2872   5788   5779   5780     1  0.0000000  1.6038667  3
   2872   5788   5779   5781     1  0.0000000  1.6038667  3
   2873   2872   5788   5779     1  0.0000000  1.6038667  3
   2874   2872   5788   5779     1  0.0000000  1.6038667  3
   2875   5818   5809   5810     1  0.0000000  1.6038667  3
   2875   5818   5809   5811     1  0.0000000  1.6038667  3
   2876   2875   5818   5809     1  0.0000000  1.6038667  3
   2877   2875   5818   5809     1  0.0000000  1.6038667  3
   2880   2881   2893   2894     1  0.0000000  0.6508444  3
   2880   2881   2893   2895     1  0.0000000  0.6508444  3
   2880   2884   2896   2897     1  0.0000000  0.6508444  3
   2880   2884   2896   2898     1  0.0000000  0.6508444  3
   2880   2887   2890   2891     1  0.0000000  0.6508444  3
   2880   2887   2890   2892     1  0.0000000  0.6508444  3
   2881   2880   2884   2885     1  0.0000000  0.6508444  3
   2881   2880   2884   2886     1  0.0000000  0.6508444  3
   2881   2880   2887   2888     1  0.0000000  0.6508444  3
   2881   2880   2887   2889     1  0.0000000  0.6508444  3
   2881   2893   2905   2906     1  0.0000000  0.6508444  3
   2881   2893   2905   2907     1  0.0000000  0.6508444  3
   2882   2881   2880   2884     1  0.0000000  0.6508444  3
   2882   2881   2880   2887     1  0.0000000  0.6508444  3
   2882   2881   2880   2909     1  0.0000000  0.6508444  3
   2882   2881   2893   2905     1  0.0000000  0.6508444  3
   2882   2881   2893   2894     1  0.0000000  0.6508444  3
   2882   2881   2893   2895     1  0.0000000  0.6508444  3
   2883   2881   2880   2884     1  0.0000000  0.6508444  3
   2883   2881   2880   2887     1  0.0000000  0.6508444  3
   2883   2881   2880   2909     1  0.0000000  0.6508444  3
   2883   2881   2893   2905     1  0.0000000  0.6508444  3
   2883   2881   2893   2894     1  0.0000000  0.6508444  3
   2883   2881   2893   2895     1  0.0000000  0.6508444  3
   2884   2880   2887   2888     1  0.0000000  0.6508444  3
   2884   2880   2887   2889     1  0.0000000  0.6508444  3
   2884   2896   2902   2903     1  0.0000000  0.6508444  3
   2884   2896   2902   2904     1  0.0000000  0.6508444  3
   2885   2884   2880   2887     1  0.0000000  0.6508444  3
   2885   2884   2880   2909     1  0.0000000  0.6508444  3
   2885   2884   2896   2902     1  0.0000000  0.6508444  3
   2885   2884   2896   2897     1  0.0000000  0.6508444  3
   2885   2884   2896   2898     1  0.0000000  0.6508444  3
   2886   2884   2880   2887     1  0.0000000  0.6508444  3
   2886   2884   2880   2909     1  0.0000000  0.6508444  3
   2886   2884   2896   2902     1  0.0000000  0.6508444  3
   2886   2884   2896   2897     1  0.0000000  0.6508444  3
   2886   2884   2896   2898     1  0.0000000  0.6508444  3
   2887   2890   2899   2900     1  0.0000000  0.6508444  3
   2887   2890   2899   2901     1  0.0000000  0.6508444  3
   2888   2887   2880   2909     1  0.0000000  0.6508444  3
   2888   2887   2890   2899     1  0.0000000  0.6508444  3
   2888   2887   2890   2891     1  0.0000000  0.6508444  3
   2888   2887   2890   2892     1  0.0000000  0.6508444  3
   2889   2887   2880   2909     1  0.0000000  0.6508444  3
   2889   2887   2890   2899     1  0.0000000  0.6508444  3
   2889   2887   2890   2891     1  0.0000000  0.6508444  3
   2889   2887   2890   2892     1  0.0000000  0.6508444  3
   2890   2887   2880   2909     1  0.0000000  0.6508444  3
   2891   2890   2899   2908     1  0.0000000  1.0460000  1
   2891   2890   2899   2908     1  0.0000000  0.0000000  3
   2891   2890   2899   2900     1  0.0000000  0.6508444  3
   2891   2890   2899   2901     1  0.0000000  0.6508444  3
   2892   2890   2899   2908     1  0.0000000  1.0460000  1
   2892   2890   2899   2908     1  0.0000000  0.0000000  3
   2892   2890   2899   2900     1  0.0000000  0.6508444  3
   2892   2890   2899   2901     1  0.0000000  0.6508444  3
   2893   2881   2880   2909     1  0.0000000  0.6508444  3
   2894   2893   2905   5878     1  0.0000000  1.0460000  1
   2894   2893   2905   5878     1  0.0000000  0.0000000  3
   2894   2893   2905   2906     1  0.0000000  0.6508444  3
   2894   2893   2905   2907     1  0.0000000  0.6508444  3
   2895   2893   2905   5878     1  0.0000000  1.0460000  1
   2895   2893   2905   5878     1  0.0000000  0.0000000  3
   2895   2893   2905   2906     1  0.0000000  0.6508444  3
   2895   2893   2905   2907     1  0.0000000  0.6508444  3
   2896   2884   2880   2909     1  0.0000000  0.6508444  3
   2897   2896   2902   5848     1  0.0000000  1.0460000  1
   2897   2896   2902   5848     1  0.0000000  0.0000000  3
   2897   2896   2902   2903     1  0.0000000  0.6508444  3
   2897   2896   2902   2904     1  0.0000000  0.6508444  3
   2898   2896   2902   5848     1  0.0000000  1.0460000  1
   2898   2896   2902   5848     1  0.0000000  0.0000000  3
   2898   2896   2902   2903     1  0.0000000  0.6508444  3
   2898   2896   2902   2904     1  0.0000000  0.6508444  3
   2902   5848   5839   5840     1  0.0000000  1.6038667  3
   2902   5848   5839   5841     1  0.0000000  1.6038667  3
   2903   2902   5848   5839     1  0.0000000  1.6038667  3
   2904   2902   5848   5839     1  0.0000000  1.6038667  3
   2905   5878   5869   5870     1  0.0000000  1.6038667  3
   2905   5878   5869   5871     1  0.0000000  1.6038667  3
   2906   2905   5878   5869     1  0.0000000  1.6038667  3
   2907   2905   5878   5869     1  0.0000000  1.6038667  3
   2910   2911   2923   2924     1  0.0000000  0.6508444  3
   2910   2911   2923   2925     1  0.0000000  0.6508444  3
   2910   2914   2926   2927     1  0.0000000  0.6508444  3
   2910   2914   2926   2928     1  0.0000000  0.6508444  3
   2910   2917   2920   2921     1  0.0000000  0.6508444  3
   2910   2917   2920   2922     1  0.0000000  0.6508444  3
   2911   2910   2914   2915     1  0.0000000  0.6508444  3
   2911   2910   2914   2916     1  0.0000000  0.6508444  3
   2911   2910   2917   2918     1  0.0000000  0.6508444  3
   2911   2910   2917   2919     1  0.0000000  0.6508444  3
   2911   2923   2935   2936     1  0.0000000  0.6508444  3
   2911   2923   2935   2937     1  0.0000000  0.6508444  3
   2912   2911   2910   2914     1  0.0000000  0.6508444  3
   2912   2911   2910   2917     1  0.0000000  0.6508444  3
   2912   2911   2910   2939     1  0.0000000  0.6508444  3
   2912   2911   2923   2935     1  0.0000000  0.6508444  3
   2912   2911   2923   2924     1  0.0000000  0.6508444  3
   2912   2911   2923   2925     1  0.0000000  0.6508444  3
   2913   2911   2910   2914     1  0.0000000  0.6508444  3
   2913   2911   2910   2917     1  0.0000000  0.6508444  3
   2913   2911   2910   2939     1  0.0000000  0.6508444  3
   2913   2911   2923   2935     1  0.0000000  0.6508444  3
   2913   2911   2923   2924     1  0.0000000  0.6508444  3
   2913   2911   2923   2925     1  0.0000000  0.6508444  3
   2914   2910   2917   2918     1  0.0000000  0.6508444  3
   2914   2910   2917   2919     1  0.0000000  0.6508444  3
   2914   2926   2932   2933     1  0.0000000  0.6508444  3
   2914   2926   2932   2934     1  0.0000000  0.6508444  3
   2915   2914   2910   2917     1  0.0000000  0.6508444  3
   2915   2914   2910   2939     1  0.0000000  0.6508444  3
   2915   2914   2926   2932     1  0.0000000  0.6508444  3
   2915   2914   2926   2927     1  0.0000000  0.6508444  3
   2915   2914   2926   2928     1  0.0000000  0.6508444  3
   2916   2914   2910   2917     1  0.0000000  0.6508444  3
   2916   2914   2910   2939     1  0.0000000  0.6508444  3
   2916   2914   2926   2932     1  0.0000000  0.6508444  3
   2916   2914   2926   2927     1  0.0000000  0.6508444  3
   2916   2914   2926   2928     1  0.0000000  0.6508444  3
   2917   2920   2929   2930     1  0.0000000  0.6508444  3
   2917   2920   2929   2931     1  0.0000000  0.6508444  3
   2918   2917   2910   2939     1  0.0000000  0.6508444  3
   2918   2917   2920   2929     1  0.0000000  0.6508444  3
   2918   2917   2920   2921     1  0.0000000  0.6508444  3
   2918   2917   2920   2922     1  0.0000000  0.6508444  3
   2919   2917   2910   2939     1  0.0000000  0.6508444  3
   2919   2917   2920   2929     1  0.0000000  0.6508444  3
   2919   2917   2920   2921     1  0.0000000  0.6508444  3
   2919   2917   2920   2922     1  0.0000000  0.6508444  3
   2920   2917   2910   2939     1  0.0000000  0.6508444  3
   2921   2920   2929   2938     1  0.0000000  1.0460000  1
   2921   2920   2929   2938     1  0.0000000  0.0000000  3
   2921   2920   2929   2930     1  0.0000000  0.6508444  3
   2921   2920   2929   2931     1  0.0000000  0.6508444  3
   2922   2920   2929   2938     1  0.0000000  1.0460000  1
   2922   2920   2929   2938     1  0.0000000  0.0000000  3
   2922   2920   2929   2930     1  0.0000000  0.6508444  3
   2922   2920   2929   2931     1  0.0000000  0.6508444  3
   2923   2911   2910   2939     1  0.0000000  0.6508444  3
   2924   2923   2935   5938     1  0.0000000  1.0460000  1
   2924   2923   2935   5938     1  0.0000000  0.0000000  3
   2924   2923   2935   2936     1  0.0000000  0.6508444  3
   2924   2923   2935   2937     1  0.0000000  0.6508444  3
   2925   2923   2935   5938     1  0.0000000  1.0460000  1
   2925   2923   2935   5938     1  0.0000000  0.0000000  3
   2925   2923   2935   2936     1  0.0000000  0.6508444  3
   2925   2923   2935   2937     1  0.0000000  0.6508444  3
   2926   2914   2910   2939     1  0.0000000  0.6508444  3
   2927   2926   2932   5908     1  0.0000000  1.0460000  1
   2927   2926   2932   5908     1  0.0000000  0.0000000  3
   2927   2926   2932   2933     1  0.0000000  0.6508444  3
   2927   2926   2932   2934     1  0.0000000  0.6508444  3
   2928   2926   2932   5908     1  0.0000000  1.0460000  1
   2928   2926   2932   5908     1  0.0000000  0.0000000  3
   2928   2926   2932   2933     1  0.0000000  0.6508444  3
   2928   2926   2932   2934     1  0.0000000  0.6508444  3
   2932   5908   5899   5900     1  0.0000000  1.6038667  3
   2932   5908   5899   5901     1  0.0000000  1.6038667  3
   2933   2932   5908   5899     1  0.0000000  1.6038667  3
   2934   2932   5908   5899     1  0.0000000  1.6038667  3
   2935   5938   5929   5930     1  0.0000000  1.6038667  3
   2935   5938   5929   5931     1  0.0000000  1.6038667  3
   2936   2935   5938   5929     1  0.0000000  1.6038667  3
   2937   2935   5938   5929     1  0.0000000  1.6038667  3
   2940   2941   2953   2954     1  0.0000000  0.6508444  3
   2940   2941   2953   2955     1  0.0000000  0.6508444  3
   2940   2944   2956   2957     1  0.0000000  0.6508444  3
   2940   2944   2956   2958     1  0.0000000  0.6508444  3
   2940   2947   2950   2951     1  0.0000000  0.6508444  3
   2940   2947   2950   2952     1  0.0000000  0.6508444  3
   2941   2940   2944   2945     1  0.0000000  0.6508444  3
   2941   2940   2944   2946     1  0.0000000  0.6508444  3
   2941   2940   2947   2948     1  0.0000000  0.6508444  3
   2941   2940   2947   2949     1  0.0000000  0.6508444  3
   2941   2953   2965   2966     1  0.0000000  0.6508444  3
   2941   2953   2965   2967     1  0.0000000  0.6508444  3
   2942   2941   2940   2944     1  0.0000000  0.6508444  3
   2942   2941   2940   2947     1  0.0000000  0.6508444  3
   2942   2941   2940   2969     1  0.0000000  0.6508444  3
   2942   2941   2953   2965     1  0.0000000  0.6508444  3
   2942   2941   2953   2954     1  0.0000000  0.6508444  3
   2942   2941   2953   2955     1  0.0000000  0.6508444  3
   2943   2941   2940   2944     1  0.0000000  0.6508444  3
   2943   2941   2940   2947     1  0.0000000  0.6508444  3
   2943   2941   2940   2969     1  0.0000000  0.6508444  3
   2943   2941   2953   2965     1  0.0000000  0.6508444  3
   2943   2941   2953   2954     1  0.0000000  0.6508444  3
   2943   2941   2953   2955     1  0.0000000  0.6508444  3
   2944   2940   2947   2948     1  0.0000000  0.6508444  3
   2944   2940   2947   2949     1  0.0000000  0.6508444  3
   2944   2956   2962   2963     1  0.0000000  0.6508444  3
   2944   2956   2962   2964     1  0.0000000  0.6508444  3
   2945   2944   2940   2947     1  0.0000000  0.6508444  3
   2945   2944   2940   2969     1  0.0000000  0.6508444  3
   2945   2944   2956   2962     1  0.0000000  0.6508444  3
   2945   2944   2956   2957     1  0.0000000  0.6508444  3
   2945   2944   2956   2958     1  0.0000000  0.6508444  3
   2946   2944   2940   2947     1  0.0000000  0.6508444  3
   2946   2944   2940   2969     1  0.0000000  0.6508444  3
   2946   2944   2956   2962     1  0.0000000  0.6508444  3
   2946   2944   2956   2957     1  0.0000000  0.6508444  3
   2946   2944   2956   2958     1  0.0000000  0.6508444  3
   2947   2950   2959   2960     1  0.0000000  0.6508444  3
   2947   2950   2959   2961     1  0.0000000  0.6508444  3
   2948   2947   2940   2969     1  0.0000000  0.6508444  3
   2948   2947   2950   2959     1  0.0000000  0.6508444  3
   2948   2947   2950   2951     1  0.0000000  0.6508444  3
   2948   2947   2950   2952     1  0.0000000  0.6508444  3
   2949   2947   2940   2969     1  0.0000000  0.6508444  3
   2949   2947   2950   2959     1  0.0000000  0.6508444  3
   2949   2947   2950   2951     1  0.0000000  0.6508444  3
   2949   2947   2950   2952     1  0.0000000  0.6508444  3
   2950   2947   2940   2969     1  0.0000000  0.6508444  3
   2951   2950   2959   2968     1  0.0000000  1.0460000  1
   2951   2950   2959   2968     1  0.0000000  0.0000000  3
   2951   2950   2959   2960     1  0.0000000  0.6508444  3
   2951   2950   2959   2961     1  0.0000000  0.6508444  3
   2952   2950   2959   2968     1  0.0000000  1.0460000  1
   2952   2950   2959   2968     1  0.0000000  0.0000000  3
   2952   2950   2959   2960     1  0.0000000  0.6508444  3
   2952   2950   2959   2961     1  0.0000000  0.6508444  3
   2953   2941   2940   2969     1  0.0000000  0.6508444  3
   2954   2953   2965   5998     1  0.0000000  1.0460000  1
   2954   2953   2965   5998     1  0.0000000  0.0000000  3
   2954   2953   2965   2966     1  0.0000000  0.6508444  3
   2954   2953   2965   2967     1  0.0000000  0.6508444  3
   2955   2953   2965   5998     1  0.0000000  1.0460000  1
   2955   2953   2965   5998     1  0.0000000  0.0000000  3
   2955   2953   2965   2966     1  0.0000000  0.6508444  3
   2955   2953   2965   2967     1  0.0000000  0.6508444  3
   2956   2944   2940   2969     1  0.0000000  0.6508444  3
   2957   2956   2962   5968     1  0.0000000  1.0460000  1
   2957   2956   2962   5968     1  0.0000000  0.0000000  3
   2957   2956   2962   2963     1  0.0000000  0.6508444  3
   2957   2956   2962   2964     1  0.0000000  0.6508444  3
   2958   2956   2962   5968     1  0.0000000  1.0460000  1
   2958   2956   2962   5968     1  0.0000000  0.0000000  3
   2958   2956   2962   2963     1  0.0000000  0.6508444  3
   2958   2956   2962   2964     1  0.0000000  0.6508444  3
   2962   5968   5959   5960     1  0.0000000  1.6038667  3
   2962   5968   5959   5961     1  0.0000000  1.6038667  3
   2963   2962   5968   5959     1  0.0000000  1.6038667  3
   2964   2962   5968   5959     1  0.0000000  1.6038667  3
   2965   5998   5989   5990     1  0.0000000  1.6038667  3
   2965   5998   5989   5991     1  0.0000000  1.6038667  3
   2966   2965   5998   5989     1  0.0000000  1.6038667  3
   2967   2965   5998   5989     1  0.0000000  1.6038667  3
   2970   2971   2983   2984     1  0.0000000  0.6508444  3
   2970   2971   2983   2985     1  0.0000000  0.6508444  3
   2970   2974   2986   2987     1  0.0000000  0.6508444  3
   2970   2974   2986   2988     1  0.0000000  0.6508444  3
   2970   2977   2980   2981     1  0.0000000  0.6508444  3
   2970   2977   2980   2982     1  0.0000000  0.6508444  3
   2971   2970   2974   2975     1  0.0000000  0.6508444  3
   2971   2970   2974   2976     1  0.0000000  0.6508444  3
   2971   2970   2977   2978     1  0.0000000  0.6508444  3
   2971   2970   2977   2979     1  0.0000000  0.6508444  3
   2971   2983   2995   2996     1  0.0000000  0.6508444  3
   2971   2983   2995   2997     1  0.0000000  0.6508444  3
   2972   2971   2970   2974     1  0.0000000  0.6508444  3
   2972   2971   2970   2977     1  0.0000000  0.6508444  3
   2972   2971   2970   2999     1  0.0000000  0.6508444  3
   2972   2971   2983   2995     1  0.0000000  0.6508444  3
   2972   2971   2983   2984     1  0.0000000  0.6508444  3
   2972   2971   2983   2985     1  0.0000000  0.6508444  3
   2973   2971   2970   2974     1  0.0000000  0.6508444  3
   2973   2971   2970   2977     1  0.0000000  0.6508444  3
   2973   2971   2970   2999     1  0.0000000  0.6508444  3
   2973   2971   2983   2995     1  0.0000000  0.6508444  3
   2973   2971   2983   2984     1  0.0000000  0.6508444  3
   2973   2971   2983   2985     1  0.0000000  0.6508444  3
   2974   2970   2977   2978     1  0.0000000  0.6508444  3
   2974   2970   2977   2979     1  0.0000000  0.6508444  3
   2974   2986   2992   2993     1  0.0000000  0.6508444  3
   2974   2986   2992   2994     1  0.0000000  0.6508444  3
   2975   2974   2970   2977     1  0.0000000  0.6508444  3
   2975   2974   2970   2999     1  0.0000000  0.6508444  3
   2975   2974   2986   2992     1  0.0000000  0.6508444  3
   2975   2974   2986   2987     1  0.0000000  0.6508444  3
   2975   2974   2986   2988     1  0.0000000  0.6508444  3
   2976   2974   2970   2977     1  0.0000000  0.6508444  3
   2976   2974   2970   2999     1  0.0000000  0.6508444  3
   2976   2974   2986   2992     1  0.0000000  0.6508444  3
   2976   2974   2986   2987     1  0.0000000  0.6508444  3
   2976   2974   2986   2988     1  0.0000000  0.6508444  3
   2977   2980   2989   2990     1  0.0000000  0.6508444  3
   2977   2980   2989   2991     1  0.0000000  0.6508444  3
   2978   2977   2970   2999     1  0.0000000  0.6508444  3
   2978   2977   2980   2989     1  0.0000000  0.6508444  3
   2978   2977   2980   2981     1  0.0000000  0.6508444  3
   2978   2977   2980   2982     1  0.0000000  0.6508444  3
   2979   2977   2970   2999     1  0.0000000  0.6508444  3
   2979   2977   2980   2989     1  0.0000000  0.6508444  3
   2979   2977   2980   2981     1  0.0000000  0.6508444  3
   2979   2977   2980   2982     1  0.0000000  0.6508444  3
   2980   2977   2970   2999     1  0.0000000  0.6508444  3
   2981   2980   2989   2998     1  0.0000000  1.0460000  1
   2981   2980   2989   2998     1  0.0000000  0.0000000  3
   2981   2980   2989   2990     1  0.0000000  0.6508444  3
   2981   2980   2989   2991     1  0.0000000  0.6508444  3
   2982   2980   2989   2998     1  0.0000000  1.0460000  1
   2982   2980   2989   2998     1  0.0000000  0.0000000  3
   2982   2980   2989   2990     1  0.0000000  0.6508444  3
   2982   2980   2989   2991     1  0.0000000  0.6508444  3
   2983   2971   2970   2999     1  0.0000000  0.6508444  3
   2984   2983   2995   6058     1  0.0000000  1.0460000  1
   2984   2983   2995   6058     1  0.0000000  0.0000000  3
   2984   2983   2995   2996     1  0.0000000  0.6508444  3
   2984   2983   2995   2997     1  0.0000000  0.6508444  3
   2985   2983   2995   6058     1  0.0000000  1.0460000  1
   2985   2983   2995   6058     1  0.0000000  0.0000000  3
   2985   2983   2995   2996     1  0.0000000  0.6508444  3
   2985   2983   2995   2997     1  0.0000000  0.6508444  3
   2986   2974   2970   2999     1  0.0000000  0.6508444  3
   2987   2986   2992   6028     1  0.0000000  1.0460000  1
   2987   2986   2992   6028     1  0.0000000  0.0000000  3
   2987   2986   2992   2993     1  0.0000000  0.6508444  3
   2987   2986   2992   2994     1  0.0000000  0.6508444  3
   2988   2986   2992   6028     1  0.0000000  1.0460000  1
   2988   2986   2992   6028     1  0.0000000  0.0000000  3
   2988   2986   2992   2993     1  0.0000000  0.6508444  3
   2988   2986   2992   2994     1  0.0000000  0.6508444  3
   2992   6028   6019   6020     1  0.0000000  1.6038667  3
   2992   6028   6019   6021     1  0.0000000  1.6038667  3
   2993   2992   6028   6019     1  0.0000000  1.6038667  3
   2994   2992   6028   6019     1  0.0000000  1.6038667  3
   2995   6058   6049   6050     1  0.0000000  1.6038667  3
   2995   6058   6049   6051     1  0.0000000  1.6038667  3
   2996   2995   6058   6049     1  0.0000000  1.6038667  3
   2997   2995   6058   6049     1  0.0000000  1.6038667  3
   3000   3001   3013   3014     1  0.0000000  0.6508444  3
   3000   3001   3013   3015     1  0.0000000  0.6508444  3
   3000   3004   3016   3017     1  0.0000000  0.6508444  3
   3000   3004   3016   3018     1  0.0000000  0.6508444  3
   3000   3007   3010   3011     1  0.0000000  0.6508444  3
   3000   3007   3010   3012     1  0.0000000  0.6508444  3
   3001   3000   3004   3005     1  0.0000000  0.6508444  3
   3001   3000   3004   3006     1  0.0000000  0.6508444  3
   3001   3000   3007   3008     1  0.0000000  0.6508444  3
   3001   3000   3007   3009     1  0.0000000  0.6508444  3
   3001   3013   3025   3026     1  0.0000000  0.6508444  3
   3001   3013   3025   3027     1  0.0000000  0.6508444  3
   3002   3001   3000   3004     1  0.0000000  0.6508444  3
   3002   3001   3000   3007     1  0.0000000  0.6508444  3
   3002   3001   3000   3029     1  0.0000000  0.6508444  3
   3002   3001   3013   3025     1  0.0000000  0.6508444  3
   3002   3001   3013   3014     1  0.0000000  0.6508444  3
   3002   3001   3013   3015     1  0.0000000  0.6508444  3
   3003   3001   3000   3004     1  0.0000000  0.6508444  3
   3003   3001   3000   3007     1  0.0000000  0.6508444  3
   3003   3001   3000   3029     1  0.0000000  0.6508444  3
   3003   3001   3013   3025     1  0.0000000  0.6508444  3
   3003   3001   3013   3014     1  0.0000000  0.6508444  3
   3003   3001   3013   3015     1  0.0000000  0.6508444  3
   3004   3000   3007   3008     1  0.0000000  0.6508444  3
   3004   3000   3007   3009     1  0.0000000  0.6508444  3
   3004   3016   3022   3023     1  0.0000000  0.6508444  3
   3004   3016   3022   3024     1  0.0000000  0.6508444  3
   3005   3004   3000   3007     1  0.0000000  0.6508444  3
   3005   3004   3000   3029     1  0.0000000  0.6508444  3
   3005   3004   3016   3022     1  0.0000000  0.6508444  3
   3005   3004   3016   3017     1  0.0000000  0.6508444  3
   3005   3004   3016   3018     1  0.0000000  0.6508444  3
   3006   3004   3000   3007     1  0.0000000  0.6508444  3
   3006   3004   3000   3029     1  0.0000000  0.6508444  3
   3006   3004   3016   3022     1  0.0000000  0.6508444  3
   3006   3004   3016   3017     1  0.0000000  0.6508444  3
   3006   3004   3016   3018     1  0.0000000  0.6508444  3
   3007   3010   3019   3020     1  0.0000000  0.6508444  3
   3007   3010   3019   3021     1  0.0000000  0.6508444  3
   3008   3007   3000   3029     1  0.0000000  0.6508444  3
   3008   3007   3010   3019     1  0.0000000  0.6508444  3
   3008   3007   3010   3011     1  0.0000000  0.6508444  3
   3008   3007   3010   3012     1  0.0000000  0.6508444  3
   3009   3007   3000   3029     1  0.0000000  0.6508444  3
   3009   3007   3010   3019     1  0.0000000  0.6508444  3
   3009   3007   3010   3011     1  0.0000000  0.6508444  3
   3009   3007   3010   3012     1  0.0000000  0.6508444  3
   3010   3007   3000   3029     1  0.0000000  0.6508444  3
   3011   3010   3019   3028     1  0.0000000  1.0460000  1
   3011   3010   3019   3028     1  0.0000000  0.0000000  3
   3011   3010   3019   3020     1  0.0000000  0.6508444  3
   3011   3010   3019   3021     1  0.0000000  0.6508444  3
   3012   3010   3019   3028     1  0.0000000  1.0460000  1
   3012   3010   3019   3028     1  0.0000000  0.0000000  3
   3012   3010   3019   3020     1  0.0000000  0.6508444  3
   3012   3010   3019   3021     1  0.0000000  0.6508444  3
   3013   3001   3000   3029     1  0.0000000  0.6508444  3
   3014   3013   3025   6118     1  0.0000000  1.0460000  1
   3014   3013   3025   6118     1  0.0000000  0.0000000  3
   3014   3013   3025   3026     1  0.0000000  0.6508444  3
   3014   3013   3025   3027     1  0.0000000  0.6508444  3
   3015   3013   3025   6118     1  0.0000000  1.0460000  1
   3015   3013   3025   6118     1  0.0000000  0.0000000  3
   3015   3013   3025   3026     1  0.0000000  0.6508444  3
   3015   3013   3025   3027     1  0.0000000  0.6508444  3
   3016   3004   3000   3029     1  0.0000000  0.6508444  3
   3017   3016   3022   6088     1  0.0000000  1.0460000  1
   3017   3016   3022   6088     1  0.0000000  0.0000000  3
   3017   3016   3022   3023     1  0.0000000  0.6508444  3
   3017   3016   3022   3024     1  0.0000000  0.6508444  3
   3018   3016   3022   6088     1  0.0000000  1.0460000  1
   3018   3016   3022   6088     1  0.0000000  0.0000000  3
   3018   3016   3022   3023     1  0.0000000  0.6508444  3
   3018   3016   3022   3024     1  0.0000000  0.6508444  3
   3022   6088   6079   6080     1  0.0000000  1.6038667  3
   3022   6088   6079   6081     1  0.0000000  1.6038667  3
   3023   3022   6088   6079     1  0.0000000  1.6038667  3
   3024   3022   6088   6079     1  0.0000000  1.6038667  3
   3025   6118   6109   6110     1  0.0000000  1.6038667  3
   3025   6118   6109   6111     1  0.0000000  1.6038667  3
   3026   3025   6118   6109     1  0.0000000  1.6038667  3
   3027   3025   6118   6109     1  0.0000000  1.6038667  3
   3030   3031   3043   3044     1  0.0000000  0.6508444  3
   3030   3031   3043   3045     1  0.0000000  0.6508444  3
   3030   3034   3046   3047     1  0.0000000  0.6508444  3
   3030   3034   3046   3048     1  0.0000000  0.6508444  3
   3030   3037   3040   3041     1  0.0000000  0.6508444  3
   3030   3037   3040   3042     1  0.0000000  0.6508444  3
   3031   3030   3034   3035     1  0.0000000  0.6508444  3
   3031   3030   3034   3036     1  0.0000000  0.6508444  3
   3031   3030   3037   3038     1  0.0000000  0.6508444  3
   3031   3030   3037   3039     1  0.0000000  0.6508444  3
   3031   3043   3055   3056     1  0.0000000  0.6508444  3
   3031   3043   3055   3057     1  0.0000000  0.6508444  3
   3032   3031   3030   3034     1  0.0000000  0.6508444  3
   3032   3031   3030   3037     1  0.0000000  0.6508444  3
   3032   3031   3030   3059     1  0.0000000  0.6508444  3
   3032   3031   3043   3055     1  0.0000000  0.6508444  3
   3032   3031   3043   3044     1  0.0000000  0.6508444  3
   3032   3031   3043   3045     1  0.0000000  0.6508444  3
   3033   3031   3030   3034     1  0.0000000  0.6508444  3
   3033   3031   3030   3037     1  0.0000000  0.6508444  3
   3033   3031   3030   3059     1  0.0000000  0.6508444  3
   3033   3031   3043   3055     1  0.0000000  0.6508444  3
   3033   3031   3043   3044     1  0.0000000  0.6508444  3
   3033   3031   3043   3045     1  0.0000000  0.6508444  3
   3034   3030   3037   3038     1  0.0000000  0.6508444  3
   3034   3030   3037   3039     1  0.0000000  0.6508444  3
   3034   3046   3052   3053     1  0.0000000  0.6508444  3
   3034   3046   3052   3054     1  0.0000000  0.6508444  3
   3035   3034   3030   3037     1  0.0000000  0.6508444  3
   3035   3034   3030   3059     1  0.0000000  0.6508444  3
   3035   3034   3046   3052     1  0.0000000  0.6508444  3
   3035   3034   3046   3047     1  0.0000000  0.6508444  3
   3035   3034   3046   3048     1  0.0000000  0.6508444  3
   3036   3034   3030   3037     1  0.0000000  0.6508444  3
   3036   3034   3030   3059     1  0.0000000  0.6508444  3
   3036   3034   3046   3052     1  0.0000000  0.6508444  3
   3036   3034   3046   3047     1  0.0000000  0.6508444  3
   3036   3034   3046   3048     1  0.0000000  0.6508444  3
   3037   3040   3049   3050     1  0.0000000  0.6508444  3
   3037   3040   3049   3051     1  0.0000000  0.6508444  3
   3038   3037   3030   3059     1  0.0000000  0.6508444  3
   3038   3037   3040   3049     1  0.0000000  0.6508444  3
   3038   3037   3040   3041     1  0.0000000  0.6508444  3
   3038   3037   3040   3042     1  0.0000000  0.6508444  3
   3039   3037   3030   3059     1  0.0000000  0.6508444  3
   3039   3037   3040   3049     1  0.0000000  0.6508444  3
   3039   3037   3040   3041     1  0.0000000  0.6508444  3
   3039   3037   3040   3042     1  0.0000000  0.6508444  3
   3040   3037   3030   3059     1  0.0000000  0.6508444  3
   3041   3040   3049   3058     1  0.0000000  1.0460000  1
   3041   3040   3049   3058     1  0.0000000  0.0000000  3
   3041   3040   3049   3050     1  0.0000000  0.6508444  3
   3041   3040   3049   3051     1  0.0000000  0.6508444  3
   3042   3040   3049   3058     1  0.0000000  1.0460000  1
   3042   3040   3049   3058     1  0.0000000  0.0000000  3
   3042   3040   3049   3050     1  0.0000000  0.6508444  3
   3042   3040   3049   3051     1  0.0000000  0.6508444  3
   3043   3031   3030   3059     1  0.0000000  0.6508444  3
   3044   3043   3055   6178     1  0.0000000  1.0460000  1
   3044   3043   3055   6178     1  0.0000000  0.0000000  3
   3044   3043   3055   3056     1  0.0000000  0.6508444  3
   3044   3043   3055   3057     1  0.0000000  0.6508444  3
   3045   3043   3055   6178     1  0.0000000  1.0460000  1
   3045   3043   3055   6178     1  0.0000000  0.0000000  3
   3045   3043   3055   3056     1  0.0000000  0.6508444  3
   3045   3043   3055   3057     1  0.0000000  0.6508444  3
   3046   3034   3030   3059     1  0.0000000  0.6508444  3
   3047   3046   3052   6148     1  0.0000000  1.0460000  1
   3047   3046   3052   6148     1  0.0000000  0.0000000  3
   3047   3046   3052   3053     1  0.0000000  0.6508444  3
   3047   3046   3052   3054     1  0.0000000  0.6508444  3
   3048   3046   3052   6148     1  0.0000000  1.0460000  1
   3048   3046   3052   6148     1  0.0000000  0.0000000  3
   3048   3046   3052   3053     1  0.0000000  0.6508444  3
   3048   3046   3052   3054     1  0.0000000  0.6508444  3
   3052   6148   6139   6140     1  0.0000000  1.6038667  3
   3052   6148   6139   6141     1  0.0000000  1.6038667  3
   3053   3052   6148   6139     1  0.0000000  1.6038667  3
   3054   3052   6148   6139     1  0.0000000  1.6038667  3
   3055   6178   6169   6170     1  0.0000000  1.6038667  3
   3055   6178   6169   6171     1  0.0000000  1.6038667  3
   3056   3055   6178   6169     1  0.0000000  1.6038667  3
   3057   3055   6178   6169     1  0.0000000  1.6038667  3
   3060   3061   3073   3074     1  0.0000000  0.6508444  3
   3060   3061   3073   3075     1  0.0000000  0.6508444  3
   3060   3064   3076   3077     1  0.0000000  0.6508444  3
   3060   3064   3076   3078     1  0.0000000  0.6508444  3
   3060   3067   3070   3071     1  0.0000000  0.6508444  3
   3060   3067   3070   3072     1  0.0000000  0.6508444  3
   3061   3060   3064   3065     1  0.0000000  0.6508444  3
   3061   3060   3064   3066     1  0.0000000  0.6508444  3
   3061   3060   3067   3068     1  0.0000000  0.6508444  3
   3061   3060   3067   3069     1  0.0000000  0.6508444  3
   3061   3073   3085   3086     1  0.0000000  0.6508444  3
   3061   3073   3085   3087     1  0.0000000  0.6508444  3
   3062   3061   3060   3064     1  0.0000000  0.6508444  3
   3062   3061   3060   3067     1  0.0000000  0.6508444  3
   3062   3061   3060   3089     1  0.0000000  0.6508444  3
   3062   3061   3073   3085     1  0.0000000  0.6508444  3
   3062   3061   3073   3074     1  0.0000000  0.6508444  3
   3062   3061   3073   3075     1  0.0000000  0.6508444  3
   3063   3061   3060   3064     1  0.0000000  0.6508444  3
   3063   3061   3060   3067     1  0.0000000  0.6508444  3
   3063   3061   3060   3089     1  0.0000000  0.6508444  3
   3063   3061   3073   3085     1  0.0000000  0.6508444  3
   3063   3061   3073   3074     1  0.0000000  0.6508444  3
   3063   3061   3073   3075     1  0.0000000  0.6508444  3
   3064   3060   3067   3068     1  0.0000000  0.6508444  3
   3064   3060   3067   3069     1  0.0000000  0.6508444  3
   3064   3076   3082   3083     1  0.0000000  0.6508444  3
   3064   3076   3082   3084     1  0.0000000  0.6508444  3
   3065   3064   3060   3067     1  0.0000000  0.6508444  3
   3065   3064   3060   3089     1  0.0000000  0.6508444  3
   3065   3064   3076   3082     1  0.0000000  0.6508444  3
   3065   3064   3076   3077     1  0.0000000  0.6508444  3
   3065   3064   3076   3078     1  0.0000000  0.6508444  3
   3066   3064   3060   3067     1  0.0000000  0.6508444  3
   3066   3064   3060   3089     1  0.0000000  0.6508444  3
   3066   3064   3076   3082     1  0.0000000  0.6508444  3
   3066   3064   3076   3077     1  0.0000000  0.6508444  3
   3066   3064   3076   3078     1  0.0000000  0.6508444  3
   3067   3070   3079   3080     1  0.0000000  0.6508444  3
   3067   3070   3079   3081     1  0.0000000  0.6508444  3
   3068   3067   3060   3089     1  0.0000000  0.6508444  3
   3068   3067   3070   3079     1  0.0000000  0.6508444  3
   3068   3067   3070   3071     1  0.0000000  0.6508444  3
   3068   3067   3070   3072     1  0.0000000  0.6508444  3
   3069   3067   3060   3089     1  0.0000000  0.6508444  3
   3069   3067   3070   3079     1  0.0000000  0.6508444  3
   3069   3067   3070   3071     1  0.0000000  0.6508444  3
   3069   3067   3070   3072     1  0.0000000  0.6508444  3
   3070   3067   3060   3089     1  0.0000000  0.6508444  3
   3071   3070   3079   3088     1  0.0000000  1.0460000  1
   3071   3070   3079   3088     1  0.0000000  0.0000000  3
   3071   3070   3079   3080     1  0.0000000  0.6508444  3
   3071   3070   3079   3081     1  0.0000000  0.6508444  3
   3072   3070   3079   3088     1  0.0000000  1.0460000  1
   3072   3070   3079   3088     1  0.0000000  0.0000000  3
   3072   3070   3079   3080     1  0.0000000  0.6508444  3
   3072   3070   3079   3081     1  0.0000000  0.6508444  3
   3073   3061   3060   3089     1  0.0000000  0.6508444  3
   3074   3073   3085   6238     1  0.0000000  1.0460000  1
   3074   3073   3085   6238     1  0.0000000  0.0000000  3
   3074   3073   3085   3086     1  0.0000000  0.6508444  3
   3074   3073   3085   3087     1  0.0000000  0.6508444  3
   3075   3073   3085   6238     1  0.0000000  1.0460000  1
   3075   3073   3085   6238     1  0.0000000  0.0000000  3
   3075   3073   3085   3086     1  0.0000000  0.6508444  3
   3075   3073   3085   3087     1  0.0000000  0.6508444  3
   3076   3064   3060   3089     1  0.0000000  0.6508444  3
   3077   3076   3082   6208     1  0.0000000  1.0460000  1
   3077   3076   3082   6208     1  0.0000000  0.0000000  3
   3077   3076   3082   3083     1  0.0000000  0.6508444  3
   3077   3076   3082   3084     1  0.0000000  0.6508444  3
   3078   3076   3082   6208     1  0.0000000  1.0460000  1
   3078   3076   3082   6208     1  0.0000000  0.0000000  3
   3078   3076   3082   3083     1  0.0000000  0.6508444  3
   3078   3076   3082   3084     1  0.0000000  0.6508444  3
   3082   6208   6199   6200     1  0.0000000  1.6038667  3
   3082   6208   6199   6201     1  0.0000000  1.6038667  3
   3083   3082   6208   6199     1  0.0000000  1.6038667  3
   3084   3082   6208   6199     1  0.0000000  1.6038667  3
   3085   6238   6229   6230     1  0.0000000  1.6038667  3
   3085   6238   6229   6231     1  0.0000000  1.6038667  3
   3086   3085   6238   6229     1  0.0000000  1.6038667  3
   3087   3085   6238   6229     1  0.0000000  1.6038667  3
   3090   3091   3103   3104     1  0.0000000  0.6508444  3
   3090   3091   3103   3105     1  0.0000000  0.6508444  3
   3090   3094   3106   3107     1  0.0000000  0.6508444  3
   3090   3094   3106   3108     1  0.0000000  0.6508444  3
   3090   3097   3100   3101     1  0.0000000  0.6508444  3
   3090   3097   3100   3102     1  0.0000000  0.6508444  3
   3091   3090   3094   3095     1  0.0000000  0.6508444  3
   3091   3090   3094   3096     1  0.0000000  0.6508444  3
   3091   3090   3097   3098     1  0.0000000  0.6508444  3
   3091   3090   3097   3099     1  0.0000000  0.6508444  3
   3091   3103   3115   3116     1  0.0000000  0.6508444  3
   3091   3103   3115   3117     1  0.0000000  0.6508444  3
   3092   3091   3090   3094     1  0.0000000  0.6508444  3
   3092   3091   3090   3097     1  0.0000000  0.6508444  3
   3092   3091   3090   3119     1  0.0000000  0.6508444  3
   3092   3091   3103   3115     1  0.0000000  0.6508444  3
   3092   3091   3103   3104     1  0.0000000  0.6508444  3
   3092   3091   3103   3105     1  0.0000000  0.6508444  3
   3093   3091   3090   3094     1  0.0000000  0.6508444  3
   3093   3091   3090   3097     1  0.0000000  0.6508444  3
   3093   3091   3090   3119     1  0.0000000  0.6508444  3
   3093   3091   3103   3115     1  0.0000000  0.6508444  3
   3093   3091   3103   3104     1  0.0000000  0.6508444  3
   3093   3091   3103   3105     1  0.0000000  0.6508444  3
   3094   3090   3097   3098     1  0.0000000  0.6508444  3
   3094   3090   3097   3099     1  0.0000000  0.6508444  3
   3094   3106   3112   3113     1  0.0000000  0.6508444  3
   3094   3106   3112   3114     1  0.0000000  0.6508444  3
   3095   3094   3090   3097     1  0.0000000  0.6508444  3
   3095   3094   3090   3119     1  0.0000000  0.6508444  3
   3095   3094   3106   3112     1  0.0000000  0.6508444  3
   3095   3094   3106   3107     1  0.0000000  0.6508444  3
   3095   3094   3106   3108     1  0.0000000  0.6508444  3
   3096   3094   3090   3097     1  0.0000000  0.6508444  3
   3096   3094   3090   3119     1  0.0000000  0.6508444  3
   3096   3094   3106   3112     1  0.0000000  0.6508444  3
   3096   3094   3106   3107     1  0.0000000  0.6508444  3
   3096   3094   3106   3108     1  0.0000000  0.6508444  3
   3097   3100   3109   3110     1  0.0000000  0.6508444  3
   3097   3100   3109   3111     1  0.0000000  0.6508444  3
   3098   3097   3090   3119     1  0.0000000  0.6508444  3
   3098   3097   3100   3109     1  0.0000000  0.6508444  3
   3098   3097   3100   3101     1  0.0000000  0.6508444  3
   3098   3097   3100   3102     1  0.0000000  0.6508444  3
   3099   3097   3090   3119     1  0.0000000  0.6508444  3
   3099   3097   3100   3109     1  0.0000000  0.6508444  3
   3099   3097   3100   3101     1  0.0000000  0.6508444  3
   3099   3097   3100   3102     1  0.0000000  0.6508444  3
   3100   3097   3090   3119     1  0.0000000  0.6508444  3
   3101   3100   3109   3118     1  0.0000000  1.0460000  1
   3101   3100   3109   3118     1  0.0000000  0.0000000  3
   3101   3100   3109   3110     1  0.0000000  0.6508444  3
   3101   3100   3109   3111     1  0.0000000  0.6508444  3
   3102   3100   3109   3118     1  0.0000000  1.0460000  1
   3102   3100   3109   3118     1  0.0000000  0.0000000  3
   3102   3100   3109   3110     1  0.0000000  0.6508444  3
   3102   3100   3109   3111     1  0.0000000  0.6508444  3
   3103   3091   3090   3119     1  0.0000000  0.6508444  3
   3104   3103   3115   6298     1  0.0000000  1.0460000  1
   3104   3103   3115   6298     1  0.0000000  0.0000000  3
   3104   3103   3115   3116     1  0.0000000  0.6508444  3
   3104   3103   3115   3117     1  0.0000000  0.6508444  3
   3105   3103   3115   6298     1  0.0000000  1.0460000  1
   3105   3103   3115   6298     1  0.0000000  0.0000000  3
   3105   3103   3115   3116     1  0.0000000  0.6508444  3
   3105   3103   3115   3117     1  0.0000000  0.6508444  3
   3106   3094   3090   3119     1  0.0000000  0.6508444  3
   3107   3106   3112   6268     1  0.0000000  1.0460000  1
   3107   3106   3112   6268     1  0.0000000  0.0000000  3
   3107   3106   3112   3113     1  0.0000000  0.6508444  3
   3107   3106   3112   3114     1  0.0000000  0.6508444  3
   3108   3106   3112   6268     1  0.0000000  1.0460000  1
   3108   3106   3112   6268     1  0.0000000  0.0000000  3
   3108   3106   3112   3113     1  0.0000000  0.6508444  3
   3108   3106   3112   3114     1  0.0000000  0.6508444  3
   3112   6268   6259   6260     1  0.0000000  1.6038667  3
   3112   6268   6259   6261     1  0.0000000  1.6038667  3
   3113   3112   6268   6259     1  0.0000000  1.6038667  3
   3114   3112   6268   6259     1  0.0000000  1.6038667  3
   3115   6298   6289   6290     1  0.0000000  1.6038667  3
   3115   6298   6289   6291     1  0.0000000  1.6038667  3
   3116   3115   6298   6289     1  0.0000000  1.6038667  3
   3117   3115   6298   6289     1  0.0000000  1.6038667  3
   3120   3121   3133   3134     1  0.0000000  0.6508444  3
   3120   3121   3133   3135     1  0.0000000  0.6508444  3
   3120   3124   3136   3137     1  0.0000000  0.6508444  3
   3120   3124   3136   3138     1  0.0000000  0.6508444  3
   3120   3127   3130   3131     1  0.0000000  0.6508444  3
   3120   3127   3130   3132     1  0.0000000  0.6508444  3
   3121   3120   3124   3125     1  0.0000000  0.6508444  3
   3121   3120   3124   3126     1  0.0000000  0.6508444  3
   3121   3120   3127   3128     1  0.0000000  0.6508444  3
   3121   3120   3127   3129     1  0.0000000  0.6508444  3
   3121   3133   3145   3146     1  0.0000000  0.6508444  3
   3121   3133   3145   3147     1  0.0000000  0.6508444  3
   3122   3121   3120   3124     1  0.0000000  0.6508444  3
   3122   3121   3120   3127     1  0.0000000  0.6508444  3
   3122   3121   3120   3149     1  0.0000000  0.6508444  3
   3122   3121   3133   3145     1  0.0000000  0.6508444  3
   3122   3121   3133   3134     1  0.0000000  0.6508444  3
   3122   3121   3133   3135     1  0.0000000  0.6508444  3
   3123   3121   3120   3124     1  0.0000000  0.6508444  3
   3123   3121   3120   3127     1  0.0000000  0.6508444  3
   3123   3121   3120   3149     1  0.0000000  0.6508444  3
   3123   3121   3133   3145     1  0.0000000  0.6508444  3
   3123   3121   3133   3134     1  0.0000000  0.6508444  3
   3123   3121   3133   3135     1  0.0000000  0.6508444  3
   3124   3120   3127   3128     1  0.0000000  0.6508444  3
   3124   3120   3127   3129     1  0.0000000  0.6508444  3
   3124   3136   3142   3143     1  0.0000000  0.6508444  3
   3124   3136   3142   3144     1  0.0000000  0.6508444  3
   3125   3124   3120   3127     1  0.0000000  0.6508444  3
   3125   3124   3120   3149     1  0.0000000  0.6508444  3
   3125   3124   3136   3142     1  0.0000000  0.6508444  3
   3125   3124   3136   3137     1  0.0000000  0.6508444  3
   3125   3124   3136   3138     1  0.0000000  0.6508444  3
   3126   3124   3120   3127     1  0.0000000  0.6508444  3
   3126   3124   3120   3149     1  0.0000000  0.6508444  3
   3126   3124   3136   3142     1  0.0000000  0.6508444  3
   3126   3124   3136   3137     1  0.0000000  0.6508444  3
   3126   3124   3136   3138     1  0.0000000  0.6508444  3
   3127   3130   3139   3140     1  0.0000000  0.6508444  3
   3127   3130   3139   3141     1  0.0000000  0.6508444  3
   3128   3127   3120   3149     1  0.0000000  0.6508444  3
   3128   3127   3130   3139     1  0.0000000  0.6508444  3
   3128   3127   3130   3131     1  0.0000000  0.6508444  3
   3128   3127   3130   3132     1  0.0000000  0.6508444  3
   3129   3127   3120   3149     1  0.0000000  0.6508444  3
   3129   3127   3130   3139     1  0.0000000  0.6508444  3
   3129   3127   3130   3131     1  0.0000000  0.6508444  3
   3129   3127   3130   3132     1  0.0000000  0.6508444  3
   3130   3127   3120   3149     1  0.0000000  0.6508444  3
   3131   3130   3139   3148     1  0.0000000  1.0460000  1
   3131   3130   3139   3148     1  0.0000000  0.0000000  3
   3131   3130   3139   3140     1  0.0000000  0.6508444  3
   3131   3130   3139   3141     1  0.0000000  0.6508444  3
   3132   3130   3139   3148     1  0.0000000  1.0460000  1
   3132   3130   3139   3148     1  0.0000000  0.0000000  3
   3132   3130   3139   3140     1  0.0000000  0.6508444  3
   3132   3130   3139   3141     1  0.0000000  0.6508444  3
   3133   3121   3120   3149     1  0.0000000  0.6508444  3
   3134   3133   3145   6358     1  0.0000000  1.0460000  1
   3134   3133   3145   6358     1  0.0000000  0.0000000  3
   3134   3133   3145   3146     1  0.0000000  0.6508444  3
   3134   3133   3145   3147     1  0.0000000  0.6508444  3
   3135   3133   3145   6358     1  0.0000000  1.0460000  1
   3135   3133   3145   6358     1  0.0000000  0.0000000  3
   3135   3133   3145   3146     1  0.0000000  0.6508444  3
   3135   3133   3145   3147     1  0.0000000  0.6508444  3
   3136   3124   3120   3149     1  0.0000000  0.6508444  3
   3137   3136   3142   6328     1  0.0000000  1.0460000  1
   3137   3136   3142   6328     1  0.0000000  0.0000000  3
   3137   3136   3142   3143     1  0.0000000  0.6508444  3
   3137   3136   3142   3144     1  0.0000000  0.6508444  3
   3138   3136   3142   6328     1  0.0000000  1.0460000  1
   3138   3136   3142   6328     1  0.0000000  0.0000000  3
   3138   3136   3142   3143     1  0.0000000  0.6508444  3
   3138   3136   3142   3144     1  0.0000000  0.6508444  3
   3142   6328   6319   6320     1  0.0000000  1.6038667  3
   3142   6328   6319   6321     1  0.0000000  1.6038667  3
   3143   3142   6328   6319     1  0.0000000  1.6038667  3
   3144   3142   6328   6319     1  0.0000000  1.6038667  3
   3145   6358   6349   6350     1  0.0000000  1.6038667  3
   3145   6358   6349   6351     1  0.0000000  1.6038667  3
   3146   3145   6358   6349     1  0.0000000  1.6038667  3
   3147   3145   6358   6349     1  0.0000000  1.6038667  3
   3150   3151   3163   3164     1  0.0000000  0.6508444  3
   3150   3151   3163   3165     1  0.0000000  0.6508444  3
   3150   3154   3166   3167     1  0.0000000  0.6508444  3
   3150   3154   3166   3168     1  0.0000000  0.6508444  3
   3150   3157   3160   3161     1  0.0000000  0.6508444  3
   3150   3157   3160   3162     1  0.0000000  0.6508444  3
   3151   3150   3154   3155     1  0.0000000  0.6508444  3
   3151   3150   3154   3156     1  0.0000000  0.6508444  3
   3151   3150   3157   3158     1  0.0000000  0.6508444  3
   3151   3150   3157   3159     1  0.0000000  0.6508444  3
   3151   3163   3175   3176     1  0.0000000  0.6508444  3
   3151   3163   3175   3177     1  0.0000000  0.6508444  3
   3152   3151   3150   3154     1  0.0000000  0.6508444  3
   3152   3151   3150   3157     1  0.0000000  0.6508444  3
   3152   3151   3150   3179     1  0.0000000  0.6508444  3
   3152   3151   3163   3175     1  0.0000000  0.6508444  3
   3152   3151   3163   3164     1  0.0000000  0.6508444  3
   3152   3151   3163   3165     1  0.0000000  0.6508444  3
   3153   3151   3150   3154     1  0.0000000  0.6508444  3
   3153   3151   3150   3157     1  0.0000000  0.6508444  3
   3153   3151   3150   3179     1  0.0000000  0.6508444  3
   3153   3151   3163   3175     1  0.0000000  0.6508444  3
   3153   3151   3163   3164     1  0.0000000  0.6508444  3
   3153   3151   3163   3165     1  0.0000000  0.6508444  3
   3154   3150   3157   3158     1  0.0000000  0.6508444  3
   3154   3150   3157   3159     1  0.0000000  0.6508444  3
   3154   3166   3172   3173     1  0.0000000  0.6508444  3
   3154   3166   3172   3174     1  0.0000000  0.6508444  3
   3155   3154   3150   3157     1  0.0000000  0.6508444  3
   3155   3154   3150   3179     1  0.0000000  0.6508444  3
   3155   3154   3166   3172     1  0.0000000  0.6508444  3
   3155   3154   3166   3167     1  0.0000000  0.6508444  3
   3155   3154   3166   3168     1  0.0000000  0.6508444  3
   3156   3154   3150   3157     1  0.0000000  0.6508444  3
   3156   3154   3150   3179     1  0.0000000  0.6508444  3
   3156   3154   3166   3172     1  0.0000000  0.6508444  3
   3156   3154   3166   3167     1  0.0000000  0.6508444  3
   3156   3154   3166   3168     1  0.0000000  0.6508444  3
   3157   3160   3169   3170     1  0.0000000  0.6508444  3
   3157   3160   3169   3171     1  0.0000000  0.6508444  3
   3158   3157   3150   3179     1  0.0000000  0.6508444  3
   3158   3157   3160   3169     1  0.0000000  0.6508444  3
   3158   3157   3160   3161     1  0.0000000  0.6508444  3
   3158   3157   3160   3162     1  0.0000000  0.6508444  3
   3159   3157   3150   3179     1  0.0000000  0.6508444  3
   3159   3157   3160   3169     1  0.0000000  0.6508444  3
   3159   3157   3160   3161     1  0.0000000  0.6508444  3
   3159   3157   3160   3162     1  0.0000000  0.6508444  3
   3160   3157   3150   3179     1  0.0000000  0.6508444  3
   3161   3160   3169   3178     1  0.0000000  1.0460000  1
   3161   3160   3169   3178     1  0.0000000  0.0000000  3
   3161   3160   3169   3170     1  0.0000000  0.6508444  3
   3161   3160   3169   3171     1  0.0000000  0.6508444  3
   3162   3160   3169   3178     1  0.0000000  1.0460000  1
   3162   3160   3169   3178     1  0.0000000  0.0000000  3
   3162   3160   3169   3170     1  0.0000000  0.6508444  3
   3162   3160   3169   3171     1  0.0000000  0.6508444  3
   3163   3151   3150   3179     1  0.0000000  0.6508444  3
   3164   3163   3175   6418     1  0.0000000  1.0460000  1
   3164   3163   3175   6418     1  0.0000000  0.0000000  3
   3164   3163   3175   3176     1  0.0000000  0.6508444  3
   3164   3163   3175   3177     1  0.0000000  0.6508444  3
   3165   3163   3175   6418     1  0.0000000  1.0460000  1
   3165   3163   3175   6418     1  0.0000000  0.0000000  3
   3165   3163   3175   3176     1  0.0000000  0.6508444  3
   3165   3163   3175   3177     1  0.0000000  0.6508444  3
   3166   3154   3150   3179     1  0.0000000  0.6508444  3
   3167   3166   3172   6388     1  0.0000000  1.0460000  1
   3167   3166   3172   6388     1  0.0000000  0.0000000  3
   3167   3166   3172   3173     1  0.0000000  0.6508444  3
   3167   3166   3172   3174     1  0.0000000  0.6508444  3
   3168   3166   3172   6388     1  0.0000000  1.0460000  1
   3168   3166   3172   6388     1  0.0000000  0.0000000  3
   3168   3166   3172   3173     1  0.0000000  0.6508444  3
   3168   3166   3172   3174     1  0.0000000  0.6508444  3
   3172   6388   6379   6380     1  0.0000000  1.6038667  3
   3172   6388   6379   6381     1  0.0000000  1.6038667  3
   3173   3172   6388   6379     1  0.0000000  1.6038667  3
   3174   3172   6388   6379     1  0.0000000  1.6038667  3
   3175   6418   6409   6410     1  0.0000000  1.6038667  3
   3175   6418   6409   6411     1  0.0000000  1.6038667  3
   3176   3175   6418   6409     1  0.0000000  1.6038667  3
   3177   3175   6418   6409     1  0.0000000  1.6038667  3
   3180   3181   3193   3194     1  0.0000000  0.6508444  3
   3180   3181   3193   3195     1  0.0000000  0.6508444  3
   3180   3184   3196   3197     1  0.0000000  0.6508444  3
   3180   3184   3196   3198     1  0.0000000  0.6508444  3
   3180   3187   3190   3191     1  0.0000000  0.6508444  3
   3180   3187   3190   3192     1  0.0000000  0.6508444  3
   3181   3180   3184   3185     1  0.0000000  0.6508444  3
   3181   3180   3184   3186     1  0.0000000  0.6508444  3
   3181   3180   3187   3188     1  0.0000000  0.6508444  3
   3181   3180   3187   3189     1  0.0000000  0.6508444  3
   3181   3193   3205   3206     1  0.0000000  0.6508444  3
   3181   3193   3205   3207     1  0.0000000  0.6508444  3
   3182   3181   3180   3184     1  0.0000000  0.6508444  3
   3182   3181   3180   3187     1  0.0000000  0.6508444  3
   3182   3181   3180   3209     1  0.0000000  0.6508444  3
   3182   3181   3193   3205     1  0.0000000  0.6508444  3
   3182   3181   3193   3194     1  0.0000000  0.6508444  3
   3182   3181   3193   3195     1  0.0000000  0.6508444  3
   3183   3181   3180   3184     1  0.0000000  0.6508444  3
   3183   3181   3180   3187     1  0.0000000  0.6508444  3
   3183   3181   3180   3209     1  0.0000000  0.6508444  3
   3183   3181   3193   3205     1  0.0000000  0.6508444  3
   3183   3181   3193   3194     1  0.0000000  0.6508444  3
   3183   3181   3193   3195     1  0.0000000  0.6508444  3
   3184   3180   3187   3188     1  0.0000000  0.6508444  3
   3184   3180   3187   3189     1  0.0000000  0.6508444  3
   3184   3196   3202   3203     1  0.0000000  0.6508444  3
   3184   3196   3202   3204     1  0.0000000  0.6508444  3
   3185   3184   3180   3187     1  0.0000000  0.6508444  3
   3185   3184   3180   3209     1  0.0000000  0.6508444  3
   3185   3184   3196   3202     1  0.0000000  0.6508444  3
   3185   3184   3196   3197     1  0.0000000  0.6508444  3
   3185   3184   3196   3198     1  0.0000000  0.6508444  3
   3186   3184   3180   3187     1  0.0000000  0.6508444  3
   3186   3184   3180   3209     1  0.0000000  0.6508444  3
   3186   3184   3196   3202     1  0.0000000  0.6508444  3
   3186   3184   3196   3197     1  0.0000000  0.6508444  3
   3186   3184   3196   3198     1  0.0000000  0.6508444  3
   3187   3190   3199   3200     1  0.0000000  0.6508444  3
   3187   3190   3199   3201     1  0.0000000  0.6508444  3
   3188   3187   3180   3209     1  0.0000000  0.6508444  3
   3188   3187   3190   3199     1  0.0000000  0.6508444  3
   3188   3187   3190   3191     1  0.0000000  0.6508444  3
   3188   3187   3190   3192     1  0.0000000  0.6508444  3
   3189   3187   3180   3209     1  0.0000000  0.6508444  3
   3189   3187   3190   3199     1  0.0000000  0.6508444  3
   3189   3187   3190   3191     1  0.0000000  0.6508444  3
   3189   3187   3190   3192     1  0.0000000  0.6508444  3
   3190   3187   3180   3209     1  0.0000000  0.6508444  3
   3191   3190   3199   3208     1  0.0000000  1.0460000  1
   3191   3190   3199   3208     1  0.0000000  0.0000000  3
   3191   3190   3199   3200     1  0.0000000  0.6508444  3
   3191   3190   3199   3201     1  0.0000000  0.6508444  3
   3192   3190   3199   3208     1  0.0000000  1.0460000  1
   3192   3190   3199   3208     1  0.0000000  0.0000000  3
   3192   3190   3199   3200     1  0.0000000  0.6508444  3
   3192   3190   3199   3201     1  0.0000000  0.6508444  3
   3193   3181   3180   3209     1  0.0000000  0.6508444  3
   3194   3193   3205   6478     1  0.0000000  1.0460000  1
   3194   3193   3205   6478     1  0.0000000  0.0000000  3
   3194   3193   3205   3206     1  0.0000000  0.6508444  3
   3194   3193   3205   3207     1  0.0000000  0.6508444  3
   3195   3193   3205   6478     1  0.0000000  1.0460000  1
   3195   3193   3205   6478     1  0.0000000  0.0000000  3
   3195   3193   3205   3206     1  0.0000000  0.6508444  3
   3195   3193   3205   3207     1  0.0000000  0.6508444  3
   3196   3184   3180   3209     1  0.0000000  0.6508444  3
   3197   3196   3202   6448     1  0.0000000  1.0460000  1
   3197   3196   3202   6448     1  0.0000000  0.0000000  3
   3197   3196   3202   3203     1  0.0000000  0.6508444  3
   3197   3196   3202   3204     1  0.0000000  0.6508444  3
   3198   3196   3202   6448     1  0.0000000  1.0460000  1
   3198   3196   3202   6448     1  0.0000000  0.0000000  3
   3198   3196   3202   3203     1  0.0000000  0.6508444  3
   3198   3196   3202   3204     1  0.0000000  0.6508444  3
   3202   6448   6439   6440     1  0.0000000  1.6038667  3
   3202   6448   6439   6441     1  0.0000000  1.6038667  3
   3203   3202   6448   6439     1  0.0000000  1.6038667  3
   3204   3202   6448   6439     1  0.0000000  1.6038667  3
   3205   6478   6469   6470     1  0.0000000  1.6038667  3
   3205   6478   6469   6471     1  0.0000000  1.6038667  3
   3206   3205   6478   6469     1  0.0000000  1.6038667  3
   3207   3205   6478   6469     1  0.0000000  1.6038667  3
   3210   3211   3223   3224     1  0.0000000  0.6508444  3
   3210   3211   3223   3225     1  0.0000000  0.6508444  3
   3210   3214   3226   3227     1  0.0000000  0.6508444  3
   3210   3214   3226   3228     1  0.0000000  0.6508444  3
   3210   3217   3220   3221     1  0.0000000  0.6508444  3
   3210   3217   3220   3222     1  0.0000000  0.6508444  3
   3211   3210   3214   3215     1  0.0000000  0.6508444  3
   3211   3210   3214   3216     1  0.0000000  0.6508444  3
   3211   3210   3217   3218     1  0.0000000  0.6508444  3
   3211   3210   3217   3219     1  0.0000000  0.6508444  3
   3211   3223   3235   3236     1  0.0000000  0.6508444  3
   3211   3223   3235   3237     1  0.0000000  0.6508444  3
   3212   3211   3210   3214     1  0.0000000  0.6508444  3
   3212   3211   3210   3217     1  0.0000000  0.6508444  3
   3212   3211   3210   3239     1  0.0000000  0.6508444  3
   3212   3211   3223   3235     1  0.0000000  0.6508444  3
   3212   3211   3223   3224     1  0.0000000  0.6508444  3
   3212   3211   3223   3225     1  0.0000000  0.6508444  3
   3213   3211   3210   3214     1  0.0000000  0.6508444  3
   3213   3211   3210   3217     1  0.0000000  0.6508444  3
   3213   3211   3210   3239     1  0.0000000  0.6508444  3
   3213   3211   3223   3235     1  0.0000000  0.6508444  3
   3213   3211   3223   3224     1  0.0000000  0.6508444  3
   3213   3211   3223   3225     1  0.0000000  0.6508444  3
   3214   3210   3217   3218     1  0.0000000  0.6508444  3
   3214   3210   3217   3219     1  0.0000000  0.6508444  3
   3214   3226   3232   3233     1  0.0000000  0.6508444  3
   3214   3226   3232   3234     1  0.0000000  0.6508444  3
   3215   3214   3210   3217     1  0.0000000  0.6508444  3
   3215   3214   3210   3239     1  0.0000000  0.6508444  3
   3215   3214   3226   3232     1  0.0000000  0.6508444  3
   3215   3214   3226   3227     1  0.0000000  0.6508444  3
   3215   3214   3226   3228     1  0.0000000  0.6508444  3
   3216   3214   3210   3217     1  0.0000000  0.6508444  3
   3216   3214   3210   3239     1  0.0000000  0.6508444  3
   3216   3214   3226   3232     1  0.0000000  0.6508444  3
   3216   3214   3226   3227     1  0.0000000  0.6508444  3
   3216   3214   3226   3228     1  0.0000000  0.6508444  3
   3217   3220   3229   3230     1  0.0000000  0.6508444  3
   3217   3220   3229   3231     1  0.0000000  0.6508444  3
   3218   3217   3210   3239     1  0.0000000  0.6508444  3
   3218   3217   3220   3229     1  0.0000000  0.6508444  3
   3218   3217   3220   3221     1  0.0000000  0.6508444  3
   3218   3217   3220   3222     1  0.0000000  0.6508444  3
   3219   3217   3210   3239     1  0.0000000  0.6508444  3
   3219   3217   3220   3229     1  0.0000000  0.6508444  3
   3219   3217   3220   3221     1  0.0000000  0.6508444  3
   3219   3217   3220   3222     1  0.0000000  0.6508444  3
   3220   3217   3210   3239     1  0.0000000  0.6508444  3
   3221   3220   3229   3238     1  0.0000000  1.0460000  1
   3221   3220   3229   3238     1  0.0000000  0.0000000  3
   3221   3220   3229   3230     1  0.0000000  0.6508444  3
   3221   3220   3229   3231     1  0.0000000  0.6508444  3
   3222   3220   3229   3238     1  0.0000000  1.0460000  1
   3222   3220   3229   3238     1  0.0000000  0.0000000  3
   3222   3220   3229   3230     1  0.0000000  0.6508444  3
   3222   3220   3229   3231     1  0.0000000  0.6508444  3
   3223   3211   3210   3239     1  0.0000000  0.6508444  3
   3224   3223   3235   6538     1  0.0000000  1.0460000  1
   3224   3223   3235   6538     1  0.0000000  0.0000000  3
   3224   3223   3235   3236     1  0.0000000  0.6508444  3
   3224   3223   3235   3237     1  0.0000000  0.6508444  3
   3225   3223   3235   6538     1  0.0000000  1.0460000  1
   3225   3223   3235   6538     1  0.0000000  0.0000000  3
   3225   3223   3235   3236     1  0.0000000  0.6508444  3
   3225   3223   3235   3237     1  0.0000000  0.6508444  3
   3226   3214   3210   3239     1  0.0000000  0.6508444  3
   3227   3226   3232   6508     1  0.0000000  1.0460000  1
   3227   3226   3232   6508     1  0.0000000  0.0000000  3
   3227   3226   3232   3233     1  0.0000000  0.6508444  3
   3227   3226   3232   3234     1  0.0000000  0.6508444  3
   3228   3226   3232   6508     1  0.0000000  1.0460000  1
   3228   3226   3232   6508     1  0.0000000  0.0000000  3
   3228   3226   3232   3233     1  0.0000000  0.6508444  3
   3228   3226   3232   3234     1  0.0000000  0.6508444  3
   3232   6508   6499   6500     1  0.0000000  1.6038667  3
   3232   6508   6499   6501     1  0.0000000  1.6038667  3
   3233   3232   6508   6499     1  0.0000000  1.6038667  3
   3234   3232   6508   6499     1  0.0000000  1.6038667  3
   3235   6538   6529   6530     1  0.0000000  1.6038667  3
   3235   6538   6529   6531     1  0.0000000  1.6038667  3
   3236   3235   6538   6529     1  0.0000000  1.6038667  3
   3237   3235   6538   6529     1  0.0000000  1.6038667  3
   3240   3241   3253   3254     1  0.0000000  0.6508444  3
   3240   3241   3253   3255     1  0.0000000  0.6508444  3
   3240   3244   3256   3257     1  0.0000000  0.6508444  3
   3240   3244   3256   3258     1  0.0000000  0.6508444  3
   3240   3247   3250   3251     1  0.0000000  0.6508444  3
   3240   3247   3250   3252     1  0.0000000  0.6508444  3
   3241   3240   3244   3245     1  0.0000000  0.6508444  3
   3241   3240   3244   3246     1  0.0000000  0.6508444  3
   3241   3240   3247   3248     1  0.0000000  0.6508444  3
   3241   3240   3247   3249     1  0.0000000  0.6508444  3
   3241   3253   3265   3266     1  0.0000000  0.6508444  3
   3241   3253   3265   3267     1  0.0000000  0.6508444  3
   3242   3241   3240   3244     1  0.0000000  0.6508444  3
   3242   3241   3240   3247     1  0.0000000  0.6508444  3
   3242   3241   3240   3269     1  0.0000000  0.6508444  3
   3242   3241   3253   3265     1  0.0000000  0.6508444  3
   3242   3241   3253   3254     1  0.0000000  0.6508444  3
   3242   3241   3253   3255     1  0.0000000  0.6508444  3
   3243   3241   3240   3244     1  0.0000000  0.6508444  3
   3243   3241   3240   3247     1  0.0000000  0.6508444  3
   3243   3241   3240   3269     1  0.0000000  0.6508444  3
   3243   3241   3253   3265     1  0.0000000  0.6508444  3
   3243   3241   3253   3254     1  0.0000000  0.6508444  3
   3243   3241   3253   3255     1  0.0000000  0.6508444  3
   3244   3240   3247   3248     1  0.0000000  0.6508444  3
   3244   3240   3247   3249     1  0.0000000  0.6508444  3
   3244   3256   3262   3263     1  0.0000000  0.6508444  3
   3244   3256   3262   3264     1  0.0000000  0.6508444  3
   3245   3244   3240   3247     1  0.0000000  0.6508444  3
   3245   3244   3240   3269     1  0.0000000  0.6508444  3
   3245   3244   3256   3262     1  0.0000000  0.6508444  3
   3245   3244   3256   3257     1  0.0000000  0.6508444  3
   3245   3244   3256   3258     1  0.0000000  0.6508444  3
   3246   3244   3240   3247     1  0.0000000  0.6508444  3
   3246   3244   3240   3269     1  0.0000000  0.6508444  3
   3246   3244   3256   3262     1  0.0000000  0.6508444  3
   3246   3244   3256   3257     1  0.0000000  0.6508444  3
   3246   3244   3256   3258     1  0.0000000  0.6508444  3
   3247   3250   3259   3260     1  0.0000000  0.6508444  3
   3247   3250   3259   3261     1  0.0000000  0.6508444  3
   3248   3247   3240   3269     1  0.0000000  0.6508444  3
   3248   3247   3250   3259     1  0.0000000  0.6508444  3
   3248   3247   3250   3251     1  0.0000000  0.6508444  3
   3248   3247   3250   3252     1  0.0000000  0.6508444  3
   3249   3247   3240   3269     1  0.0000000  0.6508444  3
   3249   3247   3250   3259     1  0.0000000  0.6508444  3
   3249   3247   3250   3251     1  0.0000000  0.6508444  3
   3249   3247   3250   3252     1  0.0000000  0.6508444  3
   3250   3247   3240   3269     1  0.0000000  0.6508444  3
   3251   3250   3259   3268     1  0.0000000  1.0460000  1
   3251   3250   3259   3268     1  0.0000000  0.0000000  3
   3251   3250   3259   3260     1  0.0000000  0.6508444  3
   3251   3250   3259   3261     1  0.0000000  0.6508444  3
   3252   3250   3259   3268     1  0.0000000  1.0460000  1
   3252   3250   3259   3268     1  0.0000000  0.0000000  3
   3252   3250   3259   3260     1  0.0000000  0.6508444  3
   3252   3250   3259   3261     1  0.0000000  0.6508444  3
   3253   3241   3240   3269     1  0.0000000  0.6508444  3
   3254   3253   3265   6598     1  0.0000000  1.0460000  1
   3254   3253   3265   6598     1  0.0000000  0.0000000  3
   3254   3253   3265   3266     1  0.0000000  0.6508444  3
   3254   3253   3265   3267     1  0.0000000  0.6508444  3
   3255   3253   3265   6598     1  0.0000000  1.0460000  1
   3255   3253   3265   6598     1  0.0000000  0.0000000  3
   3255   3253   3265   3266     1  0.0000000  0.6508444  3
   3255   3253   3265   3267     1  0.0000000  0.6508444  3
   3256   3244   3240   3269     1  0.0000000  0.6508444  3
   3257   3256   3262   6568     1  0.0000000  1.0460000  1
   3257   3256   3262   6568     1  0.0000000  0.0000000  3
   3257   3256   3262   3263     1  0.0000000  0.6508444  3
   3257   3256   3262   3264     1  0.0000000  0.6508444  3
   3258   3256   3262   6568     1  0.0000000  1.0460000  1
   3258   3256   3262   6568     1  0.0000000  0.0000000  3
   3258   3256   3262   3263     1  0.0000000  0.6508444  3
   3258   3256   3262   3264     1  0.0000000  0.6508444  3
   3262   6568   6559   6560     1  0.0000000  1.6038667  3
   3262   6568   6559   6561     1  0.0000000  1.6038667  3
   3263   3262   6568   6559     1  0.0000000  1.6038667  3
   3264   3262   6568   6559     1  0.0000000  1.6038667  3
   3265   6598   6589   6590     1  0.0000000  1.6038667  3
   3265   6598   6589   6591     1  0.0000000  1.6038667  3
   3266   3265   6598   6589     1  0.0000000  1.6038667  3
   3267   3265   6598   6589     1  0.0000000  1.6038667  3
   3270   3271   3283   3284     1  0.0000000  0.6508444  3
   3270   3271   3283   3285     1  0.0000000  0.6508444  3
   3270   3274   3286   3287     1  0.0000000  0.6508444  3
   3270   3274   3286   3288     1  0.0000000  0.6508444  3
   3270   3277   3280   3281     1  0.0000000  0.6508444  3
   3270   3277   3280   3282     1  0.0000000  0.6508444  3
   3271   3270   3274   3275     1  0.0000000  0.6508444  3
   3271   3270   3274   3276     1  0.0000000  0.6508444  3
   3271   3270   3277   3278     1  0.0000000  0.6508444  3
   3271   3270   3277   3279     1  0.0000000  0.6508444  3
   3271   3283   3295   3296     1  0.0000000  0.6508444  3
   3271   3283   3295   3297     1  0.0000000  0.6508444  3
   3272   3271   3270   3274     1  0.0000000  0.6508444  3
   3272   3271   3270   3277     1  0.0000000  0.6508444  3
   3272   3271   3270   3299     1  0.0000000  0.6508444  3
   3272   3271   3283   3295     1  0.0000000  0.6508444  3
   3272   3271   3283   3284     1  0.0000000  0.6508444  3
   3272   3271   3283   3285     1  0.0000000  0.6508444  3
   3273   3271   3270   3274     1  0.0000000  0.6508444  3
   3273   3271   3270   3277     1  0.0000000  0.6508444  3
   3273   3271   3270   3299     1  0.0000000  0.6508444  3
   3273   3271   3283   3295     1  0.0000000  0.6508444  3
   3273   3271   3283   3284     1  0.0000000  0.6508444  3
   3273   3271   3283   3285     1  0.0000000  0.6508444  3
   3274   3270   3277   3278     1  0.0000000  0.6508444  3
   3274   3270   3277   3279     1  0.0000000  0.6508444  3
   3274   3286   3292   3293     1  0.0000000  0.6508444  3
   3274   3286   3292   3294     1  0.0000000  0.6508444  3
   3275   3274   3270   3277     1  0.0000000  0.6508444  3
   3275   3274   3270   3299     1  0.0000000  0.6508444  3
   3275   3274   3286   3292     1  0.0000000  0.6508444  3
   3275   3274   3286   3287     1  0.0000000  0.6508444  3
   3275   3274   3286   3288     1  0.0000000  0.6508444  3
   3276   3274   3270   3277     1  0.0000000  0.6508444  3
   3276   3274   3270   3299     1  0.0000000  0.6508444  3
   3276   3274   3286   3292     1  0.0000000  0.6508444  3
   3276   3274   3286   3287     1  0.0000000  0.6508444  3
   3276   3274   3286   3288     1  0.0000000  0.6508444  3
   3277   3280   3289   3290     1  0.0000000  0.6508444  3
   3277   3280   3289   3291     1  0.0000000  0.6508444  3
   3278   3277   3270   3299     1  0.0000000  0.6508444  3
   3278   3277   3280   3289     1  0.0000000  0.6508444  3
   3278   3277   3280   3281     1  0.0000000  0.6508444  3
   3278   3277   3280   3282     1  0.0000000  0.6508444  3
   3279   3277   3270   3299     1  0.0000000  0.6508444  3
   3279   3277   3280   3289     1  0.0000000  0.6508444  3
   3279   3277   3280   3281     1  0.0000000  0.6508444  3
   3279   3277   3280   3282     1  0.0000000  0.6508444  3
   3280   3277   3270   3299     1  0.0000000  0.6508444  3
   3281   3280   3289   3298     1  0.0000000  1.0460000  1
   3281   3280   3289   3298     1  0.0000000  0.0000000  3
   3281   3280   3289   3290     1  0.0000000  0.6508444  3
   3281   3280   3289   3291     1  0.0000000  0.6508444  3
   3282   3280   3289   3298     1  0.0000000  1.0460000  1
   3282   3280   3289   3298     1  0.0000000  0.0000000  3
   3282   3280   3289   3290     1  0.0000000  0.6508444  3
   3282   3280   3289   3291     1  0.0000000  0.6508444  3
   3283   3271   3270   3299     1  0.0000000  0.6508444  3
   3284   3283   3295   6658     1  0.0000000  1.0460000  1
   3284   3283   3295   6658     1  0.0000000  0.0000000  3
   3284   3283   3295   3296     1  0.0000000  0.6508444  3
   3284   3283   3295   3297     1  0.0000000  0.6508444  3
   3285   3283   3295   6658     1  0.0000000  1.0460000  1
   3285   3283   3295   6658     1  0.0000000  0.0000000  3
   3285   3283   3295   3296     1  0.0000000  0.6508444  3
   3285   3283   3295   3297     1  0.0000000  0.6508444  3
   3286   3274   3270   3299     1  0.0000000  0.6508444  3
   3287   3286   3292   6628     1  0.0000000  1.0460000  1
   3287   3286   3292   6628     1  0.0000000  0.0000000  3
   3287   3286   3292   3293     1  0.0000000  0.6508444  3
   3287   3286   3292   3294     1  0.0000000  0.6508444  3
   3288   3286   3292   6628     1  0.0000000  1.0460000  1
   3288   3286   3292   6628     1  0.0000000  0.0000000  3
   3288   3286   3292   3293     1  0.0000000  0.6508444  3
   3288   3286   3292   3294     1  0.0000000  0.6508444  3
   3292   6628   6619   6620     1  0.0000000  1.6038667  3
   3292   6628   6619   6621     1  0.0000000  1.6038667  3
   3293   3292   6628   6619     1  0.0000000  1.6038667  3
   3294   3292   6628   6619     1  0.0000000  1.6038667  3
   3295   6658   6649   6650     1  0.0000000  1.6038667  3
   3295   6658   6649   6651     1  0.0000000  1.6038667  3
   3296   3295   6658   6649     1  0.0000000  1.6038667  3
   3297   3295   6658   6649     1  0.0000000  1.6038667  3
   3300   3301   3313   3314     1  0.0000000  0.6508444  3
   3300   3301   3313   3315     1  0.0000000  0.6508444  3
   3300   3304   3316   3317     1  0.0000000  0.6508444  3
   3300   3304   3316   3318     1  0.0000000  0.6508444  3
   3300   3307   3310   3311     1  0.0000000  0.6508444  3
   3300   3307   3310   3312     1  0.0000000  0.6508444  3
   3301   3300   3304   3305     1  0.0000000  0.6508444  3
   3301   3300   3304   3306     1  0.0000000  0.6508444  3
   3301   3300   3307   3308     1  0.0000000  0.6508444  3
   3301   3300   3307   3309     1  0.0000000  0.6508444  3
   3301   3313   3325   3326     1  0.0000000  0.6508444  3
   3301   3313   3325   3327     1  0.0000000  0.6508444  3
   3302   3301   3300   3304     1  0.0000000  0.6508444  3
   3302   3301   3300   3307     1  0.0000000  0.6508444  3
   3302   3301   3300   3329     1  0.0000000  0.6508444  3
   3302   3301   3313   3325     1  0.0000000  0.6508444  3
   3302   3301   3313   3314     1  0.0000000  0.6508444  3
   3302   3301   3313   3315     1  0.0000000  0.6508444  3
   3303   3301   3300   3304     1  0.0000000  0.6508444  3
   3303   3301   3300   3307     1  0.0000000  0.6508444  3
   3303   3301   3300   3329     1  0.0000000  0.6508444  3
   3303   3301   3313   3325     1  0.0000000  0.6508444  3
   3303   3301   3313   3314     1  0.0000000  0.6508444  3
   3303   3301   3313   3315     1  0.0000000  0.6508444  3
   3304   3300   3307   3308     1  0.0000000  0.6508444  3
   3304   3300   3307   3309     1  0.0000000  0.6508444  3
   3304   3316   3322   3323     1  0.0000000  0.6508444  3
   3304   3316   3322   3324     1  0.0000000  0.6508444  3
   3305   3304   3300   3307     1  0.0000000  0.6508444  3
   3305   3304   3300   3329     1  0.0000000  0.6508444  3
   3305   3304   3316   3322     1  0.0000000  0.6508444  3
   3305   3304   3316   3317     1  0.0000000  0.6508444  3
   3305   3304   3316   3318     1  0.0000000  0.6508444  3
   3306   3304   3300   3307     1  0.0000000  0.6508444  3
   3306   3304   3300   3329     1  0.0000000  0.6508444  3
   3306   3304   3316   3322     1  0.0000000  0.6508444  3
   3306   3304   3316   3317     1  0.0000000  0.6508444  3
   3306   3304   3316   3318     1  0.0000000  0.6508444  3
   3307   3310   3319   3320     1  0.0000000  0.6508444  3
   3307   3310   3319   3321     1  0.0000000  0.6508444  3
   3308   3307   3300   3329     1  0.0000000  0.6508444  3
   3308   3307   3310   3319     1  0.0000000  0.6508444  3
   3308   3307   3310   3311     1  0.0000000  0.6508444  3
   3308   3307   3310   3312     1  0.0000000  0.6508444  3
   3309   3307   3300   3329     1  0.0000000  0.6508444  3
   3309   3307   3310   3319     1  0.0000000  0.6508444  3
   3309   3307   3310   3311     1  0.0000000  0.6508444  3
   3309   3307   3310   3312     1  0.0000000  0.6508444  3
   3310   3307   3300   3329     1  0.0000000  0.6508444  3
   3311   3310   3319   3328     1  0.0000000  1.0460000  1
   3311   3310   3319   3328     1  0.0000000  0.0000000  3
   3311   3310   3319   3320     1  0.0000000  0.6508444  3
   3311   3310   3319   3321     1  0.0000000  0.6508444  3
   3312   3310   3319   3328     1  0.0000000  1.0460000  1
   3312   3310   3319   3328     1  0.0000000  0.0000000  3
   3312   3310   3319   3320     1  0.0000000  0.6508444  3
   3312   3310   3319   3321     1  0.0000000  0.6508444  3
   3313   3301   3300   3329     1  0.0000000  0.6508444  3
   3314   3313   3325   6718     1  0.0000000  1.0460000  1
   3314   3313   3325   6718     1  0.0000000  0.0000000  3
   3314   3313   3325   3326     1  0.0000000  0.6508444  3
   3314   3313   3325   3327     1  0.0000000  0.6508444  3
   3315   3313   3325   6718     1  0.0000000  1.0460000  1
   3315   3313   3325   6718     1  0.0000000  0.0000000  3
   3315   3313   3325   3326     1  0.0000000  0.6508444  3
   3315   3313   3325   3327     1  0.0000000  0.6508444  3
   3316   3304   3300   3329     1  0.0000000  0.6508444  3
   3317   3316   3322   6688     1  0.0000000  1.0460000  1
   3317   3316   3322   6688     1  0.0000000  0.0000000  3
   3317   3316   3322   3323     1  0.0000000  0.6508444  3
   3317   3316   3322   3324     1  0.0000000  0.6508444  3
   3318   3316   3322   6688     1  0.0000000  1.0460000  1
   3318   3316   3322   6688     1  0.0000000  0.0000000  3
   3318   3316   3322   3323     1  0.0000000  0.6508444  3
   3318   3316   3322   3324     1  0.0000000  0.6508444  3
   3322   6688   6679   6680     1  0.0000000  1.6038667  3
   3322   6688   6679   6681     1  0.0000000  1.6038667  3
   3323   3322   6688   6679     1  0.0000000  1.6038667  3
   3324   3322   6688   6679     1  0.0000000  1.6038667  3
   3325   6718   6709   6710     1  0.0000000  1.6038667  3
   3325   6718   6709   6711     1  0.0000000  1.6038667  3
   3326   3325   6718   6709     1  0.0000000  1.6038667  3
   3327   3325   6718   6709     1  0.0000000  1.6038667  3
   3330   3331   3343   3344     1  0.0000000  0.6508444  3
   3330   3331   3343   3345     1  0.0000000  0.6508444  3
   3330   3334   3346   3347     1  0.0000000  0.6508444  3
   3330   3334   3346   3348     1  0.0000000  0.6508444  3
   3330   3337   3340   3341     1  0.0000000  0.6508444  3
   3330   3337   3340   3342     1  0.0000000  0.6508444  3
   3331   3330   3334   3335     1  0.0000000  0.6508444  3
   3331   3330   3334   3336     1  0.0000000  0.6508444  3
   3331   3330   3337   3338     1  0.0000000  0.6508444  3
   3331   3330   3337   3339     1  0.0000000  0.6508444  3
   3331   3343   3355   3356     1  0.0000000  0.6508444  3
   3331   3343   3355   3357     1  0.0000000  0.6508444  3
   3332   3331   3330   3334     1  0.0000000  0.6508444  3
   3332   3331   3330   3337     1  0.0000000  0.6508444  3
   3332   3331   3330   3359     1  0.0000000  0.6508444  3
   3332   3331   3343   3355     1  0.0000000  0.6508444  3
   3332   3331   3343   3344     1  0.0000000  0.6508444  3
   3332   3331   3343   3345     1  0.0000000  0.6508444  3
   3333   3331   3330   3334     1  0.0000000  0.6508444  3
   3333   3331   3330   3337     1  0.0000000  0.6508444  3
   3333   3331   3330   3359     1  0.0000000  0.6508444  3
   3333   3331   3343   3355     1  0.0000000  0.6508444  3
   3333   3331   3343   3344     1  0.0000000  0.6508444  3
   3333   3331   3343   3345     1  0.0000000  0.6508444  3
   3334   3330   3337   3338     1  0.0000000  0.6508444  3
   3334   3330   3337   3339     1  0.0000000  0.6508444  3
   3334   3346   3352   3353     1  0.0000000  0.6508444  3
   3334   3346   3352   3354     1  0.0000000  0.6508444  3
   3335   3334   3330   3337     1  0.0000000  0.6508444  3
   3335   3334   3330   3359     1  0.0000000  0.6508444  3
   3335   3334   3346   3352     1  0.0000000  0.6508444  3
   3335   3334   3346   3347     1  0.0000000  0.6508444  3
   3335   3334   3346   3348     1  0.0000000  0.6508444  3
   3336   3334   3330   3337     1  0.0000000  0.6508444  3
   3336   3334   3330   3359     1  0.0000000  0.6508444  3
   3336   3334   3346   3352     1  0.0000000  0.6508444  3
   3336   3334   3346   3347     1  0.0000000  0.6508444  3
   3336   3334   3346   3348     1  0.0000000  0.6508444  3
   3337   3340   3349   3350     1  0.0000000  0.6508444  3
   3337   3340   3349   3351     1  0.0000000  0.6508444  3
   3338   3337   3330   3359     1  0.0000000  0.6508444  3
   3338   3337   3340   3349     1  0.0000000  0.6508444  3
   3338   3337   3340   3341     1  0.0000000  0.6508444  3
   3338   3337   3340   3342     1  0.0000000  0.6508444  3
   3339   3337   3330   3359     1  0.0000000  0.6508444  3
   3339   3337   3340   3349     1  0.0000000  0.6508444  3
   3339   3337   3340   3341     1  0.0000000  0.6508444  3
   3339   3337   3340   3342     1  0.0000000  0.6508444  3
   3340   3337   3330   3359     1  0.0000000  0.6508444  3
   3341   3340   3349   3358     1  0.0000000  1.0460000  1
   3341   3340   3349   3358     1  0.0000000  0.0000000  3
   3341   3340   3349   3350     1  0.0000000  0.6508444  3
   3341   3340   3349   3351     1  0.0000000  0.6508444  3
   3342   3340   3349   3358     1  0.0000000  1.0460000  1
   3342   3340   3349   3358     1  0.0000000  0.0000000  3
   3342   3340   3349   3350     1  0.0000000  0.6508444  3
   3342   3340   3349   3351     1  0.0000000  0.6508444  3
   3343   3331   3330   3359     1  0.0000000  0.6508444  3
   3344   3343   3355   6778     1  0.0000000  1.0460000  1
   3344   3343   3355   6778     1  0.0000000  0.0000000  3
   3344   3343   3355   3356     1  0.0000000  0.6508444  3
   3344   3343   3355   3357     1  0.0000000  0.6508444  3
   3345   3343   3355   6778     1  0.0000000  1.0460000  1
   3345   3343   3355   6778     1  0.0000000  0.0000000  3
   3345   3343   3355   3356     1  0.0000000  0.6508444  3
   3345   3343   3355   3357     1  0.0000000  0.6508444  3
   3346   3334   3330   3359     1  0.0000000  0.6508444  3
   3347   3346   3352   6748     1  0.0000000  1.0460000  1
   3347   3346   3352   6748     1  0.0000000  0.0000000  3
   3347   3346   3352   3353     1  0.0000000  0.6508444  3
   3347   3346   3352   3354     1  0.0000000  0.6508444  3
   3348   3346   3352   6748     1  0.0000000  1.0460000  1
   3348   3346   3352   6748     1  0.0000000  0.0000000  3
   3348   3346   3352   3353     1  0.0000000  0.6508444  3
   3348   3346   3352   3354     1  0.0000000  0.6508444  3
   3352   6748   6739   6740     1  0.0000000  1.6038667  3
   3352   6748   6739   6741     1  0.0000000  1.6038667  3
   3353   3352   6748   6739     1  0.0000000  1.6038667  3
   3354   3352   6748   6739     1  0.0000000  1.6038667  3
   3355   6778   6769   6770     1  0.0000000  1.6038667  3
   3355   6778   6769   6771     1  0.0000000  1.6038667  3
   3356   3355   6778   6769     1  0.0000000  1.6038667  3
   3357   3355   6778   6769     1  0.0000000  1.6038667  3
   3360   3361   3373   3374     1  0.0000000  0.6508444  3
   3360   3361   3373   3375     1  0.0000000  0.6508444  3
   3360   3364   3376   3377     1  0.0000000  0.6508444  3
   3360   3364   3376   3378     1  0.0000000  0.6508444  3
   3360   3367   3370   3371     1  0.0000000  0.6508444  3
   3360   3367   3370   3372     1  0.0000000  0.6508444  3
   3361   3360   3364   3365     1  0.0000000  0.6508444  3
   3361   3360   3364   3366     1  0.0000000  0.6508444  3
   3361   3360   3367   3368     1  0.0000000  0.6508444  3
   3361   3360   3367   3369     1  0.0000000  0.6508444  3
   3361   3373   3385   3386     1  0.0000000  0.6508444  3
   3361   3373   3385   3387     1  0.0000000  0.6508444  3
   3362   3361   3360   3364     1  0.0000000  0.6508444  3
   3362   3361   3360   3367     1  0.0000000  0.6508444  3
   3362   3361   3360   3389     1  0.0000000  0.6508444  3
   3362   3361   3373   3385     1  0.0000000  0.6508444  3
   3362   3361   3373   3374     1  0.0000000  0.6508444  3
   3362   3361   3373   3375     1  0.0000000  0.6508444  3
   3363   3361   3360   3364     1  0.0000000  0.6508444  3
   3363   3361   3360   3367     1  0.0000000  0.6508444  3
   3363   3361   3360   3389     1  0.0000000  0.6508444  3
   3363   3361   3373   3385     1  0.0000000  0.6508444  3
   3363   3361   3373   3374     1  0.0000000  0.6508444  3
   3363   3361   3373   3375     1  0.0000000  0.6508444  3
   3364   3360   3367   3368     1  0.0000000  0.6508444  3
   3364   3360   3367   3369     1  0.0000000  0.6508444  3
   3364   3376   3382   3383     1  0.0000000  0.6508444  3
   3364   3376   3382   3384     1  0.0000000  0.6508444  3
   3365   3364   3360   3367     1  0.0000000  0.6508444  3
   3365   3364   3360   3389     1  0.0000000  0.6508444  3
   3365   3364   3376   3382     1  0.0000000  0.6508444  3
   3365   3364   3376   3377     1  0.0000000  0.6508444  3
   3365   3364   3376   3378     1  0.0000000  0.6508444  3
   3366   3364   3360   3367     1  0.0000000  0.6508444  3
   3366   3364   3360   3389     1  0.0000000  0.6508444  3
   3366   3364   3376   3382     1  0.0000000  0.6508444  3
   3366   3364   3376   3377     1  0.0000000  0.6508444  3
   3366   3364   3376   3378     1  0.0000000  0.6508444  3
   3367   3370   3379   3380     1  0.0000000  0.6508444  3
   3367   3370   3379   3381     1  0.0000000  0.6508444  3
   3368   3367   3360   3389     1  0.0000000  0.6508444  3
   3368   3367   3370   3379     1  0.0000000  0.6508444  3
   3368   3367   3370   3371     1  0.0000000  0.6508444  3
   3368   3367   3370   3372     1  0.0000000  0.6508444  3
   3369   3367   3360   3389     1  0.0000000  0.6508444  3
   3369   3367   3370   3379     1  0.0000000  0.6508444  3
   3369   3367   3370   3371     1  0.0000000  0.6508444  3
   3369   3367   3370   3372     1  0.0000000  0.6508444  3
   3370   3367   3360   3389     1  0.0000000  0.6508444  3
   3371   3370   3379   3388     1  0.0000000  1.0460000  1
   3371   3370   3379   3388     1  0.0000000  0.0000000  3
   3371   3370   3379   3380     1  0.0000000  0.6508444  3
   3371   3370   3379   3381     1  0.0000000  0.6508444  3
   3372   3370   3379   3388     1  0.0000000  1.0460000  1
   3372   3370   3379   3388     1  0.0000000  0.0000000  3
   3372   3370   3379   3380     1  0.0000000  0.6508444  3
   3372   3370   3379   3381     1  0.0000000  0.6508444  3
   3373   3361   3360   3389     1  0.0000000  0.6508444  3
   3374   3373   3385   6838     1  0.0000000  1.0460000  1
   3374   3373   3385   6838     1  0.0000000  0.0000000  3
   3374   3373   3385   3386     1  0.0000000  0.6508444  3
   3374   3373   3385   3387     1  0.0000000  0.6508444  3
   3375   3373   3385   6838     1  0.0000000  1.0460000  1
   3375   3373   3385   6838     1  0.0000000  0.0000000  3
   3375   3373   3385   3386     1  0.0000000  0.6508444  3
   3375   3373   3385   3387     1  0.0000000  0.6508444  3
   3376   3364   3360   3389     1  0.0000000  0.6508444  3
   3377   3376   3382   6808     1  0.0000000  1.0460000  1
   3377   3376   3382   6808     1  0.0000000  0.0000000  3
   3377   3376   3382   3383     1  0.0000000  0.6508444  3
   3377   3376   3382   3384     1  0.0000000  0.6508444  3
   3378   3376   3382   6808     1  0.0000000  1.0460000  1
   3378   3376   3382   6808     1  0.0000000  0.0000000  3
   3378   3376   3382   3383     1  0.0000000  0.6508444  3
   3378   3376   3382   3384     1  0.0000000  0.6508444  3
   3382   6808   6799   6800     1  0.0000000  1.6038667  3
   3382   6808   6799   6801     1  0.0000000  1.6038667  3
   3383   3382   6808   6799     1  0.0000000  1.6038667  3
   3384   3382   6808   6799     1  0.0000000  1.6038667  3
   3385   6838   6829   6830     1  0.0000000  1.6038667  3
   3385   6838   6829   6831     1  0.0000000  1.6038667  3
   3386   3385   6838   6829     1  0.0000000  1.6038667  3
   3387   3385   6838   6829     1  0.0000000  1.6038667  3
   3390   3391   3403   3404     1  0.0000000  0.6508444  3
   3390   3391   3403   3405     1  0.0000000  0.6508444  3
   3390   3394   3406   3407     1  0.0000000  0.6508444  3
   3390   3394   3406   3408     1  0.0000000  0.6508444  3
   3390   3397   3400   3401     1  0.0000000  0.6508444  3
   3390   3397   3400   3402     1  0.0000000  0.6508444  3
   3391   3390   3394   3395     1  0.0000000  0.6508444  3
   3391   3390   3394   3396     1  0.0000000  0.6508444  3
   3391   3390   3397   3398     1  0.0000000  0.6508444  3
   3391   3390   3397   3399     1  0.0000000  0.6508444  3
   3391   3403   3415   3416     1  0.0000000  0.6508444  3
   3391   3403   3415   3417     1  0.0000000  0.6508444  3
   3392   3391   3390   3394     1  0.0000000  0.6508444  3
   3392   3391   3390   3397     1  0.0000000  0.6508444  3
   3392   3391   3390   3419     1  0.0000000  0.6508444  3
   3392   3391   3403   3415     1  0.0000000  0.6508444  3
   3392   3391   3403   3404     1  0.0000000  0.6508444  3
   3392   3391   3403   3405     1  0.0000000  0.6508444  3
   3393   3391   3390   3394     1  0.0000000  0.6508444  3
   3393   3391   3390   3397     1  0.0000000  0.6508444  3
   3393   3391   3390   3419     1  0.0000000  0.6508444  3
   3393   3391   3403   3415     1  0.0000000  0.6508444  3
   3393   3391   3403   3404     1  0.0000000  0.6508444  3
   3393   3391   3403   3405     1  0.0000000  0.6508444  3
   3394   3390   3397   3398     1  0.0000000  0.6508444  3
   3394   3390   3397   3399     1  0.0000000  0.6508444  3
   3394   3406   3412   3413     1  0.0000000  0.6508444  3
   3394   3406   3412   3414     1  0.0000000  0.6508444  3
   3395   3394   3390   3397     1  0.0000000  0.6508444  3
   3395   3394   3390   3419     1  0.0000000  0.6508444  3
   3395   3394   3406   3412     1  0.0000000  0.6508444  3
   3395   3394   3406   3407     1  0.0000000  0.6508444  3
   3395   3394   3406   3408     1  0.0000000  0.6508444  3
   3396   3394   3390   3397     1  0.0000000  0.6508444  3
   3396   3394   3390   3419     1  0.0000000  0.6508444  3
   3396   3394   3406   3412     1  0.0000000  0.6508444  3
   3396   3394   3406   3407     1  0.0000000  0.6508444  3
   3396   3394   3406   3408     1  0.0000000  0.6508444  3
   3397   3400   3409   3410     1  0.0000000  0.6508444  3
   3397   3400   3409   3411     1  0.0000000  0.6508444  3
   3398   3397   3390   3419     1  0.0000000  0.6508444  3
   3398   3397   3400   3409     1  0.0000000  0.6508444  3
   3398   3397   3400   3401     1  0.0000000  0.6508444  3
   3398   3397   3400   3402     1  0.0000000  0.6508444  3
   3399   3397   3390   3419     1  0.0000000  0.6508444  3
   3399   3397   3400   3409     1  0.0000000  0.6508444  3
   3399   3397   3400   3401     1  0.0000000  0.6508444  3
   3399   3397   3400   3402     1  0.0000000  0.6508444  3
   3400   3397   3390   3419     1  0.0000000  0.6508444  3
   3401   3400   3409   3418     1  0.0000000  1.0460000  1
   3401   3400   3409   3418     1  0.0000000  0.0000000  3
   3401   3400   3409   3410     1  0.0000000  0.6508444  3
   3401   3400   3409   3411     1  0.0000000  0.6508444  3
   3402   3400   3409   3418     1  0.0000000  1.0460000  1
   3402   3400   3409   3418     1  0.0000000  0.0000000  3
   3402   3400   3409   3410     1  0.0000000  0.6508444  3
   3402   3400   3409   3411     1  0.0000000  0.6508444  3
   3403   3391   3390   3419     1  0.0000000  0.6508444  3
   3404   3403   3415   6898     1  0.0000000  1.0460000  1
   3404   3403   3415   6898     1  0.0000000  0.0000000  3
   3404   3403   3415   3416     1  0.0000000  0.6508444  3
   3404   3403   3415   3417     1  0.0000000  0.6508444  3
   3405   3403   3415   6898     1  0.0000000  1.0460000  1
   3405   3403   3415   6898     1  0.0000000  0.0000000  3
   3405   3403   3415   3416     1  0.0000000  0.6508444  3
   3405   3403   3415   3417     1  0.0000000  0.6508444  3
   3406   3394   3390   3419     1  0.0000000  0.6508444  3
   3407   3406   3412   6868     1  0.0000000  1.0460000  1
   3407   3406   3412   6868     1  0.0000000  0.0000000  3
   3407   3406   3412   3413     1  0.0000000  0.6508444  3
   3407   3406   3412   3414     1  0.0000000  0.6508444  3
   3408   3406   3412   6868     1  0.0000000  1.0460000  1
   3408   3406   3412   6868     1  0.0000000  0.0000000  3
   3408   3406   3412   3413     1  0.0000000  0.6508444  3
   3408   3406   3412   3414     1  0.0000000  0.6508444  3
   3412   6868   6859   6860     1  0.0000000  1.6038667  3
   3412   6868   6859   6861     1  0.0000000  1.6038667  3
   3413   3412   6868   6859     1  0.0000000  1.6038667  3
   3414   3412   6868   6859     1  0.0000000  1.6038667  3
   3415   6898   6889   6890     1  0.0000000  1.6038667  3
   3415   6898   6889   6891     1  0.0000000  1.6038667  3
   3416   3415   6898   6889     1  0.0000000  1.6038667  3
   3417   3415   6898   6889     1  0.0000000  1.6038667  3
   3420   3421   3433   3434     1  0.0000000  0.6508444  3
   3420   3421   3433   3435     1  0.0000000  0.6508444  3
   3420   3424   3436   3437     1  0.0000000  0.6508444  3
   3420   3424   3436   3438     1  0.0000000  0.6508444  3
   3420   3427   3430   3431     1  0.0000000  0.6508444  3
   3420   3427   3430   3432     1  0.0000000  0.6508444  3
   3421   3420   3424   3425     1  0.0000000  0.6508444  3
   3421   3420   3424   3426     1  0.0000000  0.6508444  3
   3421   3420   3427   3428     1  0.0000000  0.6508444  3
   3421   3420   3427   3429     1  0.0000000  0.6508444  3
   3421   3433   3445   3446     1  0.0000000  0.6508444  3
   3421   3433   3445   3447     1  0.0000000  0.6508444  3
   3422   3421   3420   3424     1  0.0000000  0.6508444  3
   3422   3421   3420   3427     1  0.0000000  0.6508444  3
   3422   3421   3420   3449     1  0.0000000  0.6508444  3
   3422   3421   3433   3445     1  0.0000000  0.6508444  3
   3422   3421   3433   3434     1  0.0000000  0.6508444  3
   3422   3421   3433   3435     1  0.0000000  0.6508444  3
   3423   3421   3420   3424     1  0.0000000  0.6508444  3
   3423   3421   3420   3427     1  0.0000000  0.6508444  3
   3423   3421   3420   3449     1  0.0000000  0.6508444  3
   3423   3421   3433   3445     1  0.0000000  0.6508444  3
   3423   3421   3433   3434     1  0.0000000  0.6508444  3
   3423   3421   3433   3435     1  0.0000000  0.6508444  3
   3424   3420   3427   3428     1  0.0000000  0.6508444  3
   3424   3420   3427   3429     1  0.0000000  0.6508444  3
   3424   3436   3442   3443     1  0.0000000  0.6508444  3
   3424   3436   3442   3444     1  0.0000000  0.6508444  3
   3425   3424   3420   3427     1  0.0000000  0.6508444  3
   3425   3424   3420   3449     1  0.0000000  0.6508444  3
   3425   3424   3436   3442     1  0.0000000  0.6508444  3
   3425   3424   3436   3437     1  0.0000000  0.6508444  3
   3425   3424   3436   3438     1  0.0000000  0.6508444  3
   3426   3424   3420   3427     1  0.0000000  0.6508444  3
   3426   3424   3420   3449     1  0.0000000  0.6508444  3
   3426   3424   3436   3442     1  0.0000000  0.6508444  3
   3426   3424   3436   3437     1  0.0000000  0.6508444  3
   3426   3424   3436   3438     1  0.0000000  0.6508444  3
   3427   3430   3439   3440     1  0.0000000  0.6508444  3
   3427   3430   3439   3441     1  0.0000000  0.6508444  3
   3428   3427   3420   3449     1  0.0000000  0.6508444  3
   3428   3427   3430   3439     1  0.0000000  0.6508444  3
   3428   3427   3430   3431     1  0.0000000  0.6508444  3
   3428   3427   3430   3432     1  0.0000000  0.6508444  3
   3429   3427   3420   3449     1  0.0000000  0.6508444  3
   3429   3427   3430   3439     1  0.0000000  0.6508444  3
   3429   3427   3430   3431     1  0.0000000  0.6508444  3
   3429   3427   3430   3432     1  0.0000000  0.6508444  3
   3430   3427   3420   3449     1  0.0000000  0.6508444  3
   3431   3430   3439   3448     1  0.0000000  1.0460000  1
   3431   3430   3439   3448     1  0.0000000  0.0000000  3
   3431   3430   3439   3440     1  0.0000000  0.6508444  3
   3431   3430   3439   3441     1  0.0000000  0.6508444  3
   3432   3430   3439   3448     1  0.0000000  1.0460000  1
   3432   3430   3439   3448     1  0.0000000  0.0000000  3
   3432   3430   3439   3440     1  0.0000000  0.6508444  3
   3432   3430   3439   3441     1  0.0000000  0.6508444  3
   3433   3421   3420   3449     1  0.0000000  0.6508444  3
   3434   3433   3445   6958     1  0.0000000  1.0460000  1
   3434   3433   3445   6958     1  0.0000000  0.0000000  3
   3434   3433   3445   3446     1  0.0000000  0.6508444  3
   3434   3433   3445   3447     1  0.0000000  0.6508444  3
   3435   3433   3445   6958     1  0.0000000  1.0460000  1
   3435   3433   3445   6958     1  0.0000000  0.0000000  3
   3435   3433   3445   3446     1  0.0000000  0.6508444  3
   3435   3433   3445   3447     1  0.0000000  0.6508444  3
   3436   3424   3420   3449     1  0.0000000  0.6508444  3
   3437   3436   3442   6928     1  0.0000000  1.0460000  1
   3437   3436   3442   6928     1  0.0000000  0.0000000  3
   3437   3436   3442   3443     1  0.0000000  0.6508444  3
   3437   3436   3442   3444     1  0.0000000  0.6508444  3
   3438   3436   3442   6928     1  0.0000000  1.0460000  1
   3438   3436   3442   6928     1  0.0000000  0.0000000  3
   3438   3436   3442   3443     1  0.0000000  0.6508444  3
   3438   3436   3442   3444     1  0.0000000  0.6508444  3
   3442   6928   6919   6920     1  0.0000000  1.6038667  3
   3442   6928   6919   6921     1  0.0000000  1.6038667  3
   3443   3442   6928   6919     1  0.0000000  1.6038667  3
   3444   3442   6928   6919     1  0.0000000  1.6038667  3
   3445   6958   6949   6950     1  0.0000000  1.6038667  3
   3445   6958   6949   6951     1  0.0000000  1.6038667  3
   3446   3445   6958   6949     1  0.0000000  1.6038667  3
   3447   3445   6958   6949     1  0.0000000  1.6038667  3
   3450   3451   3463   3464     1  0.0000000  0.6508444  3
   3450   3451   3463   3465     1  0.0000000  0.6508444  3
   3450   3454   3466   3467     1  0.0000000  0.6508444  3
   3450   3454   3466   3468     1  0.0000000  0.6508444  3
   3450   3457   3460   3461     1  0.0000000  0.6508444  3
   3450   3457   3460   3462     1  0.0000000  0.6508444  3
   3451   3450   3454   3455     1  0.0000000  0.6508444  3
   3451   3450   3454   3456     1  0.0000000  0.6508444  3
   3451   3450   3457   3458     1  0.0000000  0.6508444  3
   3451   3450   3457   3459     1  0.0000000  0.6508444  3
   3451   3463   3475   3476     1  0.0000000  0.6508444  3
   3451   3463   3475   3477     1  0.0000000  0.6508444  3
   3452   3451   3450   3454     1  0.0000000  0.6508444  3
   3452   3451   3450   3457     1  0.0000000  0.6508444  3
   3452   3451   3450   3479     1  0.0000000  0.6508444  3
   3452   3451   3463   3475     1  0.0000000  0.6508444  3
   3452   3451   3463   3464     1  0.0000000  0.6508444  3
   3452   3451   3463   3465     1  0.0000000  0.6508444  3
   3453   3451   3450   3454     1  0.0000000  0.6508444  3
   3453   3451   3450   3457     1  0.0000000  0.6508444  3
   3453   3451   3450   3479     1  0.0000000  0.6508444  3
   3453   3451   3463   3475     1  0.0000000  0.6508444  3
   3453   3451   3463   3464     1  0.0000000  0.6508444  3
   3453   3451   3463   3465     1  0.0000000  0.6508444  3
   3454   3450   3457   3458     1  0.0000000  0.6508444  3
   3454   3450   3457   3459     1  0.0000000  0.6508444  3
   3454   3466   3472   3473     1  0.0000000  0.6508444  3
   3454   3466   3472   3474     1  0.0000000  0.6508444  3
   3455   3454   3450   3457     1  0.0000000  0.6508444  3
   3455   3454   3450   3479     1  0.0000000  0.6508444  3
   3455   3454   3466   3472     1  0.0000000  0.6508444  3
   3455   3454   3466   3467     1  0.0000000  0.6508444  3
   3455   3454   3466   3468     1  0.0000000  0.6508444  3
   3456   3454   3450   3457     1  0.0000000  0.6508444  3
   3456   3454   3450   3479     1  0.0000000  0.6508444  3
   3456   3454   3466   3472     1  0.0000000  0.6508444  3
   3456   3454   3466   3467     1  0.0000000  0.6508444  3
   3456   3454   3466   3468     1  0.0000000  0.6508444  3
   3457   3460   3469   3470     1  0.0000000  0.6508444  3
   3457   3460   3469   3471     1  0.0000000  0.6508444  3
   3458   3457   3450   3479     1  0.0000000  0.6508444  3
   3458   3457   3460   3469     1  0.0000000  0.6508444  3
   3458   3457   3460   3461     1  0.0000000  0.6508444  3
   3458   3457   3460   3462     1  0.0000000  0.6508444  3
   3459   3457   3450   3479     1  0.0000000  0.6508444  3
   3459   3457   3460   3469     1  0.0000000  0.6508444  3
   3459   3457   3460   3461     1  0.0000000  0.6508444  3
   3459   3457   3460   3462     1  0.0000000  0.6508444  3
   3460   3457   3450   3479     1  0.0000000  0.6508444  3
   3461   3460   3469   3478     1  0.0000000  1.0460000  1
   3461   3460   3469   3478     1  0.0000000  0.0000000  3
   3461   3460   3469   3470     1  0.0000000  0.6508444  3
   3461   3460   3469   3471     1  0.0000000  0.6508444  3
   3462   3460   3469   3478     1  0.0000000  1.0460000  1
   3462   3460   3469   3478     1  0.0000000  0.0000000  3
   3462   3460   3469   3470     1  0.0000000  0.6508444  3
   3462   3460   3469   3471     1  0.0000000  0.6508444  3
   3463   3451   3450   3479     1  0.0000000  0.6508444  3
   3464   3463   3475   7018     1  0.0000000  1.0460000  1
   3464   3463   3475   7018     1  0.0000000  0.0000000  3
   3464   3463   3475   3476     1  0.0000000  0.6508444  3
   3464   3463   3475   3477     1  0.0000000  0.6508444  3
   3465   3463   3475   7018     1  0.0000000  1.0460000  1
   3465   3463   3475   7018     1  0.0000000  0.0000000  3
   3465   3463   3475   3476     1  0.0000000  0.6508444  3
   3465   3463   3475   3477     1  0.0000000  0.6508444  3
   3466   3454   3450   3479     1  0.0000000  0.6508444  3
   3467   3466   3472   6988     1  0.0000000  1.0460000  1
   3467   3466   3472   6988     1  0.0000000  0.0000000  3
   3467   3466   3472   3473     1  0.0000000  0.6508444  3
   3467   3466   3472   3474     1  0.0000000  0.6508444  3
   3468   3466   3472   6988     1  0.0000000  1.0460000  1
   3468   3466   3472   6988     1  0.0000000  0.0000000  3
   3468   3466   3472   3473     1  0.0000000  0.6508444  3
   3468   3466   3472   3474     1  0.0000000  0.6508444  3
   3472   6988   6979   6980     1  0.0000000  1.6038667  3
   3472   6988   6979   6981     1  0.0000000  1.6038667  3
   3473   3472   6988   6979     1  0.0000000  1.6038667  3
   3474   3472   6988   6979     1  0.0000000  1.6038667  3
   3475   7018   7009   7010     1  0.0000000  1.6038667  3
   3475   7018   7009   7011     1  0.0000000  1.6038667  3
   3476   3475   7018   7009     1  0.0000000  1.6038667  3
   3477   3475   7018   7009     1  0.0000000  1.6038667  3
   3480   3481   3493   3494     1  0.0000000  0.6508444  3
   3480   3481   3493   3495     1  0.0000000  0.6508444  3
   3480   3484   3496   3497     1  0.0000000  0.6508444  3
   3480   3484   3496   3498     1  0.0000000  0.6508444  3
   3480   3487   3490   3491     1  0.0000000  0.6508444  3
   3480   3487   3490   3492     1  0.0000000  0.6508444  3
   3481   3480   3484   3485     1  0.0000000  0.6508444  3
   3481   3480   3484   3486     1  0.0000000  0.6508444  3
   3481   3480   3487   3488     1  0.0000000  0.6508444  3
   3481   3480   3487   3489     1  0.0000000  0.6508444  3
   3481   3493   3505   3506     1  0.0000000  0.6508444  3
   3481   3493   3505   3507     1  0.0000000  0.6508444  3
   3482   3481   3480   3484     1  0.0000000  0.6508444  3
   3482   3481   3480   3487     1  0.0000000  0.6508444  3
   3482   3481   3480   3509     1  0.0000000  0.6508444  3
   3482   3481   3493   3505     1  0.0000000  0.6508444  3
   3482   3481   3493   3494     1  0.0000000  0.6508444  3
   3482   3481   3493   3495     1  0.0000000  0.6508444  3
   3483   3481   3480   3484     1  0.0000000  0.6508444  3
   3483   3481   3480   3487     1  0.0000000  0.6508444  3
   3483   3481   3480   3509     1  0.0000000  0.6508444  3
   3483   3481   3493   3505     1  0.0000000  0.6508444  3
   3483   3481   3493   3494     1  0.0000000  0.6508444  3
   3483   3481   3493   3495     1  0.0000000  0.6508444  3
   3484   3480   3487   3488     1  0.0000000  0.6508444  3
   3484   3480   3487   3489     1  0.0000000  0.6508444  3
   3484   3496   3502   3503     1  0.0000000  0.6508444  3
   3484   3496   3502   3504     1  0.0000000  0.6508444  3
   3485   3484   3480   3487     1  0.0000000  0.6508444  3
   3485   3484   3480   3509     1  0.0000000  0.6508444  3
   3485   3484   3496   3502     1  0.0000000  0.6508444  3
   3485   3484   3496   3497     1  0.0000000  0.6508444  3
   3485   3484   3496   3498     1  0.0000000  0.6508444  3
   3486   3484   3480   3487     1  0.0000000  0.6508444  3
   3486   3484   3480   3509     1  0.0000000  0.6508444  3
   3486   3484   3496   3502     1  0.0000000  0.6508444  3
   3486   3484   3496   3497     1  0.0000000  0.6508444  3
   3486   3484   3496   3498     1  0.0000000  0.6508444  3
   3487   3490   3499   3500     1  0.0000000  0.6508444  3
   3487   3490   3499   3501     1  0.0000000  0.6508444  3
   3488   3487   3480   3509     1  0.0000000  0.6508444  3
   3488   3487   3490   3499     1  0.0000000  0.6508444  3
   3488   3487   3490   3491     1  0.0000000  0.6508444  3
   3488   3487   3490   3492     1  0.0000000  0.6508444  3
   3489   3487   3480   3509     1  0.0000000  0.6508444  3
   3489   3487   3490   3499     1  0.0000000  0.6508444  3
   3489   3487   3490   3491     1  0.0000000  0.6508444  3
   3489   3487   3490   3492     1  0.0000000  0.6508444  3
   3490   3487   3480   3509     1  0.0000000  0.6508444  3
   3491   3490   3499   3508     1  0.0000000  1.0460000  1
   3491   3490   3499   3508     1  0.0000000  0.0000000  3
   3491   3490   3499   3500     1  0.0000000  0.6508444  3
   3491   3490   3499   3501     1  0.0000000  0.6508444  3
   3492   3490   3499   3508     1  0.0000000  1.0460000  1
   3492   3490   3499   3508     1  0.0000000  0.0000000  3
   3492   3490   3499   3500     1  0.0000000  0.6508444  3
   3492   3490   3499   3501     1  0.0000000  0.6508444  3
   3493   3481   3480   3509     1  0.0000000  0.6508444  3
   3494   3493   3505   7078     1  0.0000000  1.0460000  1
   3494   3493   3505   7078     1  0.0000000  0.0000000  3
   3494   3493   3505   3506     1  0.0000000  0.6508444  3
   3494   3493   3505   3507     1  0.0000000  0.6508444  3
   3495   3493   3505   7078     1  0.0000000  1.0460000  1
   3495   3493   3505   7078     1  0.0000000  0.0000000  3
   3495   3493   3505   3506     1  0.0000000  0.6508444  3
   3495   3493   3505   3507     1  0.0000000  0.6508444  3
   3496   3484   3480   3509     1  0.0000000  0.6508444  3
   3497   3496   3502   7048     1  0.0000000  1.0460000  1
   3497   3496   3502   7048     1  0.0000000  0.0000000  3
   3497   3496   3502   3503     1  0.0000000  0.6508444  3
   3497   3496   3502   3504     1  0.0000000  0.6508444  3
   3498   3496   3502   7048     1  0.0000000  1.0460000  1
   3498   3496   3502   7048     1  0.0000000  0.0000000  3
   3498   3496   3502   3503     1  0.0000000  0.6508444  3
   3498   3496   3502   3504     1  0.0000000  0.6508444  3
   3502   7048   7039   7040     1  0.0000000  1.6038667  3
   3502   7048   7039   7041     1  0.0000000  1.6038667  3
   3503   3502   7048   7039     1  0.0000000  1.6038667  3
   3504   3502   7048   7039     1  0.0000000  1.6038667  3
   3505   7078   7069   7070     1  0.0000000  1.6038667  3
   3505   7078   7069   7071     1  0.0000000  1.6038667  3
   3506   3505   7078   7069     1  0.0000000  1.6038667  3
   3507   3505   7078   7069     1  0.0000000  1.6038667  3
   3510   3511   3523   3524     1  0.0000000  0.6508444  3
   3510   3511   3523   3525     1  0.0000000  0.6508444  3
   3510   3514   3526   3527     1  0.0000000  0.6508444  3
   3510   3514   3526   3528     1  0.0000000  0.6508444  3
   3510   3517   3520   3521     1  0.0000000  0.6508444  3
   3510   3517   3520   3522     1  0.0000000  0.6508444  3
   3511   3510   3514   3515     1  0.0000000  0.6508444  3
   3511   3510   3514   3516     1  0.0000000  0.6508444  3
   3511   3510   3517   3518     1  0.0000000  0.6508444  3
   3511   3510   3517   3519     1  0.0000000  0.6508444  3
   3511   3523   3535   3536     1  0.0000000  0.6508444  3
   3511   3523   3535   3537     1  0.0000000  0.6508444  3
   3512   3511   3510   3514     1  0.0000000  0.6508444  3
   3512   3511   3510   3517     1  0.0000000  0.6508444  3
   3512   3511   3510   3539     1  0.0000000  0.6508444  3
   3512   3511   3523   3535     1  0.0000000  0.6508444  3
   3512   3511   3523   3524     1  0.0000000  0.6508444  3
   3512   3511   3523   3525     1  0.0000000  0.6508444  3
   3513   3511   3510   3514     1  0.0000000  0.6508444  3
   3513   3511   3510   3517     1  0.0000000  0.6508444  3
   3513   3511   3510   3539     1  0.0000000  0.6508444  3
   3513   3511   3523   3535     1  0.0000000  0.6508444  3
   3513   3511   3523   3524     1  0.0000000  0.6508444  3
   3513   3511   3523   3525     1  0.0000000  0.6508444  3
   3514   3510   3517   3518     1  0.0000000  0.6508444  3
   3514   3510   3517   3519     1  0.0000000  0.6508444  3
   3514   3526   3532   3533     1  0.0000000  0.6508444  3
   3514   3526   3532   3534     1  0.0000000  0.6508444  3
   3515   3514   3510   3517     1  0.0000000  0.6508444  3
   3515   3514   3510   3539     1  0.0000000  0.6508444  3
   3515   3514   3526   3532     1  0.0000000  0.6508444  3
   3515   3514   3526   3527     1  0.0000000  0.6508444  3
   3515   3514   3526   3528     1  0.0000000  0.6508444  3
   3516   3514   3510   3517     1  0.0000000  0.6508444  3
   3516   3514   3510   3539     1  0.0000000  0.6508444  3
   3516   3514   3526   3532     1  0.0000000  0.6508444  3
   3516   3514   3526   3527     1  0.0000000  0.6508444  3
   3516   3514   3526   3528     1  0.0000000  0.6508444  3
   3517   3520   3529   3530     1  0.0000000  0.6508444  3
   3517   3520   3529   3531     1  0.0000000  0.6508444  3
   3518   3517   3510   3539     1  0.0000000  0.6508444  3
   3518   3517   3520   3529     1  0.0000000  0.6508444  3
   3518   3517   3520   3521     1  0.0000000  0.6508444  3
   3518   3517   3520   3522     1  0.0000000  0.6508444  3
   3519   3517   3510   3539     1  0.0000000  0.6508444  3
   3519   3517   3520   3529     1  0.0000000  0.6508444  3
   3519   3517   3520   3521     1  0.0000000  0.6508444  3
   3519   3517   3520   3522     1  0.0000000  0.6508444  3
   3520   3517   3510   3539     1  0.0000000  0.6508444  3
   3521   3520   3529   3538     1  0.0000000  1.0460000  1
   3521   3520   3529   3538     1  0.0000000  0.0000000  3
   3521   3520   3529   3530     1  0.0000000  0.6508444  3
   3521   3520   3529   3531     1  0.0000000  0.6508444  3
   3522   3520   3529   3538     1  0.0000000  1.0460000  1
   3522   3520   3529   3538     1  0.0000000  0.0000000  3
   3522   3520   3529   3530     1  0.0000000  0.6508444  3
   3522   3520   3529   3531     1  0.0000000  0.6508444  3
   3523   3511   3510   3539     1  0.0000000  0.6508444  3
   3524   3523   3535   7138     1  0.0000000  1.0460000  1
   3524   3523   3535   7138     1  0.0000000  0.0000000  3
   3524   3523   3535   3536     1  0.0000000  0.6508444  3
   3524   3523   3535   3537     1  0.0000000  0.6508444  3
   3525   3523   3535   7138     1  0.0000000  1.0460000  1
   3525   3523   3535   7138     1  0.0000000  0.0000000  3
   3525   3523   3535   3536     1  0.0000000  0.6508444  3
   3525   3523   3535   3537     1  0.0000000  0.6508444  3
   3526   3514   3510   3539     1  0.0000000  0.6508444  3
   3527   3526   3532   7108     1  0.0000000  1.0460000  1
   3527   3526   3532   7108     1  0.0000000  0.0000000  3
   3527   3526   3532   3533     1  0.0000000  0.6508444  3
   3527   3526   3532   3534     1  0.0000000  0.6508444  3
   3528   3526   3532   7108     1  0.0000000  1.0460000  1
   3528   3526   3532   7108     1  0.0000000  0.0000000  3
   3528   3526   3532   3533     1  0.0000000  0.6508444  3
   3528   3526   3532   3534     1  0.0000000  0.6508444  3
   3532   7108   7099   7100     1  0.0000000  1.6038667  3
   3532   7108   7099   7101     1  0.0000000  1.6038667  3
   3533   3532   7108   7099     1  0.0000000  1.6038667  3
   3534   3532   7108   7099     1  0.0000000  1.6038667  3
   3535   7138   7129   7130     1  0.0000000  1.6038667  3
   3535   7138   7129   7131     1  0.0000000  1.6038667  3
   3536   3535   7138   7129     1  0.0000000  1.6038667  3
   3537   3535   7138   7129     1  0.0000000  1.6038667  3
   3540   3541   3553   3554     1  0.0000000  0.6508444  3
   3540   3541   3553   3555     1  0.0000000  0.6508444  3
   3540   3544   3556   3557     1  0.0000000  0.6508444  3
   3540   3544   3556   3558     1  0.0000000  0.6508444  3
   3540   3547   3550   3551     1  0.0000000  0.6508444  3
   3540   3547   3550   3552     1  0.0000000  0.6508444  3
   3541   3540   3544   3545     1  0.0000000  0.6508444  3
   3541   3540   3544   3546     1  0.0000000  0.6508444  3
   3541   3540   3547   3548     1  0.0000000  0.6508444  3
   3541   3540   3547   3549     1  0.0000000  0.6508444  3
   3541   3553   3565   3566     1  0.0000000  0.6508444  3
   3541   3553   3565   3567     1  0.0000000  0.6508444  3
   3542   3541   3540   3544     1  0.0000000  0.6508444  3
   3542   3541   3540   3547     1  0.0000000  0.6508444  3
   3542   3541   3540   3569     1  0.0000000  0.6508444  3
   3542   3541   3553   3565     1  0.0000000  0.6508444  3
   3542   3541   3553   3554     1  0.0000000  0.6508444  3
   3542   3541   3553   3555     1  0.0000000  0.6508444  3
   3543   3541   3540   3544     1  0.0000000  0.6508444  3
   3543   3541   3540   3547     1  0.0000000  0.6508444  3
   3543   3541   3540   3569     1  0.0000000  0.6508444  3
   3543   3541   3553   3565     1  0.0000000  0.6508444  3
   3543   3541   3553   3554     1  0.0000000  0.6508444  3
   3543   3541   3553   3555     1  0.0000000  0.6508444  3
   3544   3540   3547   3548     1  0.0000000  0.6508444  3
   3544   3540   3547   3549     1  0.0000000  0.6508444  3
   3544   3556   3562   3563     1  0.0000000  0.6508444  3
   3544   3556   3562   3564     1  0.0000000  0.6508444  3
   3545   3544   3540   3547     1  0.0000000  0.6508444  3
   3545   3544   3540   3569     1  0.0000000  0.6508444  3
   3545   3544   3556   3562     1  0.0000000  0.6508444  3
   3545   3544   3556   3557     1  0.0000000  0.6508444  3
   3545   3544   3556   3558     1  0.0000000  0.6508444  3
   3546   3544   3540   3547     1  0.0000000  0.6508444  3
   3546   3544   3540   3569     1  0.0000000  0.6508444  3
   3546   3544   3556   3562     1  0.0000000  0.6508444  3
   3546   3544   3556   3557     1  0.0000000  0.6508444  3
   3546   3544   3556   3558     1  0.0000000  0.6508444  3
   3547   3550   3559   3560     1  0.0000000  0.6508444  3
   3547   3550   3559   3561     1  0.0000000  0.6508444  3
   3548   3547   3540   3569     1  0.0000000  0.6508444  3
   3548   3547   3550   3559     1  0.0000000  0.6508444  3
   3548   3547   3550   3551     1  0.0000000  0.6508444  3
   3548   3547   3550   3552     1  0.0000000  0.6508444  3
   3549   3547   3540   3569     1  0.0000000  0.6508444  3
   3549   3547   3550   3559     1  0.0000000  0.6508444  3
   3549   3547   3550   3551     1  0.0000000  0.6508444  3
   3549   3547   3550   3552     1  0.0000000  0.6508444  3
   3550   3547   3540   3569     1  0.0000000  0.6508444  3
   3551   3550   3559   3568     1  0.0000000  1.0460000  1
   3551   3550   3559   3568     1  0.0000000  0.0000000  3
   3551   3550   3559   3560     1  0.0000000  0.6508444  3
   3551   3550   3559   3561     1  0.0000000  0.6508444  3
   3552   3550   3559   3568     1  0.0000000  1.0460000  1
   3552   3550   3559   3568     1  0.0000000  0.0000000  3
   3552   3550   3559   3560     1  0.0000000  0.6508444  3
   3552   3550   3559   3561     1  0.0000000  0.6508444  3
   3553   3541   3540   3569     1  0.0000000  0.6508444  3
   3554   3553   3565   7198     1  0.0000000  1.0460000  1
   3554   3553   3565   7198     1  0.0000000  0.0000000  3
   3554   3553   3565   3566     1  0.0000000  0.6508444  3
   3554   3553   3565   3567     1  0.0000000  0.6508444  3
   3555   3553   3565   7198     1  0.0000000  1.0460000  1
   3555   3553   3565   7198     1  0.0000000  0.0000000  3
   3555   3553   3565   3566     1  0.0000000  0.6508444  3
   3555   3553   3565   3567     1  0.0000000  0.6508444  3
   3556   3544   3540   3569     1  0.0000000  0.6508444  3
   3557   3556   3562   7168     1  0.0000000  1.0460000  1
   3557   3556   3562   7168     1  0.0000000  0.0000000  3
   3557   3556   3562   3563     1  0.0000000  0.6508444  3
   3557   3556   3562   3564     1  0.0000000  0.6508444  3
   3558   3556   3562   7168     1  0.0000000  1.0460000  1
   3558   3556   3562   7168     1  0.0000000  0.0000000  3
   3558   3556   3562   3563     1  0.0000000  0.6508444  3
   3558   3556   3562   3564     1  0.0000000  0.6508444  3
   3562   7168   7159   7160     1  0.0000000  1.6038667  3
   3562   7168   7159   7161     1  0.0000000  1.6038667  3
   3563   3562   7168   7159     1  0.0000000  1.6038667  3
   3564   3562   7168   7159     1  0.0000000  1.6038667  3
   3565   7198   7189   7190     1  0.0000000  1.6038667  3
   3565   7198   7189   7191     1  0.0000000  1.6038667  3
   3566   3565   7198   7189     1  0.0000000  1.6038667  3
   3567   3565   7198   7189     1  0.0000000  1.6038667  3
   3570   3571   3583   3584     1  0.0000000  0.6508444  3
   3570   3571   3583   3585     1  0.0000000  0.6508444  3
   3570   3574   3586   3587     1  0.0000000  0.6508444  3
   3570   3574   3586   3588     1  0.0000000  0.6508444  3
   3570   3577   3580   3581     1  0.0000000  0.6508444  3
   3570   3577   3580   3582     1  0.0000000  0.6508444  3
   3571   3570   3574   3575     1  0.0000000  0.6508444  3
   3571   3570   3574   3576     1  0.0000000  0.6508444  3
   3571   3570   3577   3578     1  0.0000000  0.6508444  3
   3571   3570   3577   3579     1  0.0000000  0.6508444  3
   3571   3583   3595   3596     1  0.0000000  0.6508444  3
   3571   3583   3595   3597     1  0.0000000  0.6508444  3
   3572   3571   3570   3574     1  0.0000000  0.6508444  3
   3572   3571   3570   3577     1  0.0000000  0.6508444  3
   3572   3571   3570   3599     1  0.0000000  0.6508444  3
   3572   3571   3583   3595     1  0.0000000  0.6508444  3
   3572   3571   3583   3584     1  0.0000000  0.6508444  3
   3572   3571   3583   3585     1  0.0000000  0.6508444  3
   3573   3571   3570   3574     1  0.0000000  0.6508444  3
   3573   3571   3570   3577     1  0.0000000  0.6508444  3
   3573   3571   3570   3599     1  0.0000000  0.6508444  3
   3573   3571   3583   3595     1  0.0000000  0.6508444  3
   3573   3571   3583   3584     1  0.0000000  0.6508444  3
   3573   3571   3583   3585     1  0.0000000  0.6508444  3
   3574   3570   3577   3578     1  0.0000000  0.6508444  3
   3574   3570   3577   3579     1  0.0000000  0.6508444  3
   3574   3586   3592   3593     1  0.0000000  0.6508444  3
   3574   3586   3592   3594     1  0.0000000  0.6508444  3
   3575   3574   3570   3577     1  0.0000000  0.6508444  3
   3575   3574   3570   3599     1  0.0000000  0.6508444  3
   3575   3574   3586   3592     1  0.0000000  0.6508444  3
   3575   3574   3586   3587     1  0.0000000  0.6508444  3
   3575   3574   3586   3588     1  0.0000000  0.6508444  3
   3576   3574   3570   3577     1  0.0000000  0.6508444  3
   3576   3574   3570   3599     1  0.0000000  0.6508444  3
   3576   3574   3586   3592     1  0.0000000  0.6508444  3
   3576   3574   3586   3587     1  0.0000000  0.6508444  3
   3576   3574   3586   3588     1  0.0000000  0.6508444  3
   3577   3580   3589   3590     1  0.0000000  0.6508444  3
   3577   3580   3589   3591     1  0.0000000  0.6508444  3
   3578   3577   3570   3599     1  0.0000000  0.6508444  3
   3578   3577   3580   3589     1  0.0000000  0.6508444  3
   3578   3577   3580   3581     1  0.0000000  0.6508444  3
   3578   3577   3580   3582     1  0.0000000  0.6508444  3
   3579   3577   3570   3599     1  0.0000000  0.6508444  3
   3579   3577   3580   3589     1  0.0000000  0.6508444  3
   3579   3577   3580   3581     1  0.0000000  0.6508444  3
   3579   3577   3580   3582     1  0.0000000  0.6508444  3
   3580   3577   3570   3599     1  0.0000000  0.6508444  3
   3581   3580   3589   3598     1  0.0000000  1.0460000  1
   3581   3580   3589   3598     1  0.0000000  0.0000000  3
   3581   3580   3589   3590     1  0.0000000  0.6508444  3
   3581   3580   3589   3591     1  0.0000000  0.6508444  3
   3582   3580   3589   3598     1  0.0000000  1.0460000  1
   3582   3580   3589   3598     1  0.0000000  0.0000000  3
   3582   3580   3589   3590     1  0.0000000  0.6508444  3
   3582   3580   3589   3591     1  0.0000000  0.6508444  3
   3583   3571   3570   3599     1  0.0000000  0.6508444  3
   3584   3583   3595   7258     1  0.0000000  1.0460000  1
   3584   3583   3595   7258     1  0.0000000  0.0000000  3
   3584   3583   3595   3596     1  0.0000000  0.6508444  3
   3584   3583   3595   3597     1  0.0000000  0.6508444  3
   3585   3583   3595   7258     1  0.0000000  1.0460000  1
   3585   3583   3595   7258     1  0.0000000  0.0000000  3
   3585   3583   3595   3596     1  0.0000000  0.6508444  3
   3585   3583   3595   3597     1  0.0000000  0.6508444  3
   3586   3574   3570   3599     1  0.0000000  0.6508444  3
   3587   3586   3592   7228     1  0.0000000  1.0460000  1
   3587   3586   3592   7228     1  0.0000000  0.0000000  3
   3587   3586   3592   3593     1  0.0000000  0.6508444  3
   3587   3586   3592   3594     1  0.0000000  0.6508444  3
   3588   3586   3592   7228     1  0.0000000  1.0460000  1
   3588   3586   3592   7228     1  0.0000000  0.0000000  3
   3588   3586   3592   3593     1  0.0000000  0.6508444  3
   3588   3586   3592   3594     1  0.0000000  0.6508444  3
   3592   7228   7219   7220     1  0.0000000  1.6038667  3
   3592   7228   7219   7221     1  0.0000000  1.6038667  3
   3593   3592   7228   7219     1  0.0000000  1.6038667  3
   3594   3592   7228   7219     1  0.0000000  1.6038667  3
   3595   7258   7249   7250     1  0.0000000  1.6038667  3
   3595   7258   7249   7251     1  0.0000000  1.6038667  3
   3596   3595   7258   7249     1  0.0000000  1.6038667  3
   3597   3595   7258   7249     1  0.0000000  1.6038667  3
   3600   3601   3613   3614     1  0.0000000  0.6508444  3
   3600   3601   3613   3615     1  0.0000000  0.6508444  3
   3600   3604   3616   3617     1  0.0000000  0.6508444  3
   3600   3604   3616   3618     1  0.0000000  0.6508444  3
   3600   3607   3610   3611     1  0.0000000  0.6508444  3
   3600   3607   3610   3612     1  0.0000000  0.6508444  3
   3601   3600   3604   3605     1  0.0000000  0.6508444  3
   3601   3600   3604   3606     1  0.0000000  0.6508444  3
   3601   3600   3607   3608     1  0.0000000  0.6508444  3
   3601   3600   3607   3609     1  0.0000000  0.6508444  3
   3601   3613   3625   3626     1  0.0000000  0.6508444  3
   3601   3613   3625   3627     1  0.0000000  0.6508444  3
   3602   3601   3600   3604     1  0.0000000  0.6508444  3
   3602   3601   3600   3607     1  0.0000000  0.6508444  3
   3602   3601   3600   3629     1  0.0000000  0.6508444  3
   3602   3601   3613   3625     1  0.0000000  0.6508444  3
   3602   3601   3613   3614     1  0.0000000  0.6508444  3
   3602   3601   3613   3615     1  0.0000000  0.6508444  3
   3603   3601   3600   3604     1  0.0000000  0.6508444  3
   3603   3601   3600   3607     1  0.0000000  0.6508444  3
   3603   3601   3600   3629     1  0.0000000  0.6508444  3
   3603   3601   3613   3625     1  0.0000000  0.6508444  3
   3603   3601   3613   3614     1  0.0000000  0.6508444  3
   3603   3601   3613   3615     1  0.0000000  0.6508444  3
   3604   3600   3607   3608     1  0.0000000  0.6508444  3
   3604   3600   3607   3609     1  0.0000000  0.6508444  3
   3604   3616   3622   3623     1  0.0000000  0.6508444  3
   3604   3616   3622   3624     1  0.0000000  0.6508444  3
   3605   3604   3600   3607     1  0.0000000  0.6508444  3
   3605   3604   3600   3629     1  0.0000000  0.6508444  3
   3605   3604   3616   3622     1  0.0000000  0.6508444  3
   3605   3604   3616   3617     1  0.0000000  0.6508444  3
   3605   3604   3616   3618     1  0.0000000  0.6508444  3
   3606   3604   3600   3607     1  0.0000000  0.6508444  3
   3606   3604   3600   3629     1  0.0000000  0.6508444  3
   3606   3604   3616   3622     1  0.0000000  0.6508444  3
   3606   3604   3616   3617     1  0.0000000  0.6508444  3
   3606   3604   3616   3618     1  0.0000000  0.6508444  3
   3607   3610   3619   3620     1  0.0000000  0.6508444  3
   3607   3610   3619   3621     1  0.0000000  0.6508444  3
   3608   3607   3600   3629     1  0.0000000  0.6508444  3
   3608   3607   3610   3619     1  0.0000000  0.6508444  3
   3608   3607   3610   3611     1  0.0000000  0.6508444  3
   3608   3607   3610   3612     1  0.0000000  0.6508444  3
   3609   3607   3600   3629     1  0.0000000  0.6508444  3
   3609   3607   3610   3619     1  0.0000000  0.6508444  3
   3609   3607   3610   3611     1  0.0000000  0.6508444  3
   3609   3607   3610   3612     1  0.0000000  0.6508444  3
   3610   3607   3600   3629     1  0.0000000  0.6508444  3
   3611   3610   3619   3628     1  0.0000000  1.0460000  1
   3611   3610   3619   3628     1  0.0000000  0.0000000  3
   3611   3610   3619   3620     1  0.0000000  0.6508444  3
   3611   3610   3619   3621     1  0.0000000  0.6508444  3
   3612   3610   3619   3628     1  0.0000000  1.0460000  1
   3612   3610   3619   3628     1  0.0000000  0.0000000  3
   3612   3610   3619   3620     1  0.0000000  0.6508444  3
   3612   3610   3619   3621     1  0.0000000  0.6508444  3
   3613   3601   3600   3629     1  0.0000000  0.6508444  3
   3614   3613   3625   7318     1  0.0000000  1.0460000  1
   3614   3613   3625   7318     1  0.0000000  0.0000000  3
   3614   3613   3625   3626     1  0.0000000  0.6508444  3
   3614   3613   3625   3627     1  0.0000000  0.6508444  3
   3615   3613   3625   7318     1  0.0000000  1.0460000  1
   3615   3613   3625   7318     1  0.0000000  0.0000000  3
   3615   3613   3625   3626     1  0.0000000  0.6508444  3
   3615   3613   3625   3627     1  0.0000000  0.6508444  3
   3616   3604   3600   3629     1  0.0000000  0.6508444  3
   3617   3616   3622   7288     1  0.0000000  1.0460000  1
   3617   3616   3622   7288     1  0.0000000  0.0000000  3
   3617   3616   3622   3623     1  0.0000000  0.6508444  3
   3617   3616   3622   3624     1  0.0000000  0.6508444  3
   3618   3616   3622   7288     1  0.0000000  1.0460000  1
   3618   3616   3622   7288     1  0.0000000  0.0000000  3
   3618   3616   3622   3623     1  0.0000000  0.6508444  3
   3618   3616   3622   3624     1  0.0000000  0.6508444  3
   3622   7288   7279   7280     1  0.0000000  1.6038667  3
   3622   7288   7279   7281     1  0.0000000  1.6038667  3
   3623   3622   7288   7279     1  0.0000000  1.6038667  3
   3624   3622   7288   7279     1  0.0000000  1.6038667  3
   3625   7318   7309   7310     1  0.0000000  1.6038667  3
   3625   7318   7309   7311     1  0.0000000  1.6038667  3
   3626   3625   7318   7309     1  0.0000000  1.6038667  3
   3627   3625   7318   7309     1  0.0000000  1.6038667  3
   3630   3631   3643   3644     1  0.0000000  0.6508444  3
   3630   3631   3643   3645     1  0.0000000  0.6508444  3
   3630   3634   3646   3647     1  0.0000000  0.6508444  3
   3630   3634   3646   3648     1  0.0000000  0.6508444  3
   3630   3637   3640   3641     1  0.0000000  0.6508444  3
   3630   3637   3640   3642     1  0.0000000  0.6508444  3
   3631   3630   3634   3635     1  0.0000000  0.6508444  3
   3631   3630   3634   3636     1  0.0000000  0.6508444  3
   3631   3630   3637   3638     1  0.0000000  0.6508444  3
   3631   3630   3637   3639     1  0.0000000  0.6508444  3
   3631   3643   3655   3656     1  0.0000000  0.6508444  3
   3631   3643   3655   3657     1  0.0000000  0.6508444  3
   3632   3631   3630   3634     1  0.0000000  0.6508444  3
   3632   3631   3630   3637     1  0.0000000  0.6508444  3
   3632   3631   3630   3659     1  0.0000000  0.6508444  3
   3632   3631   3643   3655     1  0.0000000  0.6508444  3
   3632   3631   3643   3644     1  0.0000000  0.6508444  3
   3632   3631   3643   3645     1  0.0000000  0.6508444  3
   3633   3631   3630   3634     1  0.0000000  0.6508444  3
   3633   3631   3630   3637     1  0.0000000  0.6508444  3
   3633   3631   3630   3659     1  0.0000000  0.6508444  3
   3633   3631   3643   3655     1  0.0000000  0.6508444  3
   3633   3631   3643   3644     1  0.0000000  0.6508444  3
   3633   3631   3643   3645     1  0.0000000  0.6508444  3
   3634   3630   3637   3638     1  0.0000000  0.6508444  3
   3634   3630   3637   3639     1  0.0000000  0.6508444  3
   3634   3646   3652   3653     1  0.0000000  0.6508444  3
   3634   3646   3652   3654     1  0.0000000  0.6508444  3
   3635   3634   3630   3637     1  0.0000000  0.6508444  3
   3635   3634   3630   3659     1  0.0000000  0.6508444  3
   3635   3634   3646   3652     1  0.0000000  0.6508444  3
   3635   3634   3646   3647     1  0.0000000  0.6508444  3
   3635   3634   3646   3648     1  0.0000000  0.6508444  3
   3636   3634   3630   3637     1  0.0000000  0.6508444  3
   3636   3634   3630   3659     1  0.0000000  0.6508444  3
   3636   3634   3646   3652     1  0.0000000  0.6508444  3
   3636   3634   3646   3647     1  0.0000000  0.6508444  3
   3636   3634   3646   3648     1  0.0000000  0.6508444  3
   3637   3640   3649   3650     1  0.0000000  0.6508444  3
   3637   3640   3649   3651     1  0.0000000  0.6508444  3
   3638   3637   3630   3659     1  0.0000000  0.6508444  3
   3638   3637   3640   3649     1  0.0000000  0.6508444  3
   3638   3637   3640   3641     1  0.0000000  0.6508444  3
   3638   3637   3640   3642     1  0.0000000  0.6508444  3
   3639   3637   3630   3659     1  0.0000000  0.6508444  3
   3639   3637   3640   3649     1  0.0000000  0.6508444  3
   3639   3637   3640   3641     1  0.0000000  0.6508444  3
   3639   3637   3640   3642     1  0.0000000  0.6508444  3
   3640   3637   3630   3659     1  0.0000000  0.6508444  3
   3641   3640   3649   3658     1  0.0000000  1.0460000  1
   3641   3640   3649   3658     1  0.0000000  0.0000000  3
   3641   3640   3649   3650     1  0.0000000  0.6508444  3
   3641   3640   3649   3651     1  0.0000000  0.6508444  3
   3642   3640   3649   3658     1  0.0000000  1.0460000  1
   3642   3640   3649   3658     1  0.0000000  0.0000000  3
   3642   3640   3649   3650     1  0.0000000  0.6508444  3
   3642   3640   3649   3651     1  0.0000000  0.6508444  3
   3643   3631   3630   3659     1  0.0000000  0.6508444  3
   3644   3643   3655   7378     1  0.0000000  1.0460000  1
   3644   3643   3655   7378     1  0.0000000  0.0000000  3
   3644   3643   3655   3656     1  0.0000000  0.6508444  3
   3644   3643   3655   3657     1  0.0000000  0.6508444  3
   3645   3643   3655   7378     1  0.0000000  1.0460000  1
   3645   3643   3655   7378     1  0.0000000  0.0000000  3
   3645   3643   3655   3656     1  0.0000000  0.6508444  3
   3645   3643   3655   3657     1  0.0000000  0.6508444  3
   3646   3634   3630   3659     1  0.0000000  0.6508444  3
   3647   3646   3652   7348     1  0.0000000  1.0460000  1
   3647   3646   3652   7348     1  0.0000000  0.0000000  3
   3647   3646   3652   3653     1  0.0000000  0.6508444  3
   3647   3646   3652   3654     1  0.0000000  0.6508444  3
   3648   3646   3652   7348     1  0.0000000  1.0460000  1
   3648   3646   3652   7348     1  0.0000000  0.0000000  3
   3648   3646   3652   3653     1  0.0000000  0.6508444  3
   3648   3646   3652   3654     1  0.0000000  0.6508444  3
   3652   7348   7339   7340     1  0.0000000  1.6038667  3
   3652   7348   7339   7341     1  0.0000000  1.6038667  3
   3653   3652   7348   7339     1  0.0000000  1.6038667  3
   3654   3652   7348   7339     1  0.0000000  1.6038667  3
   3655   7378   7369   7370     1  0.0000000  1.6038667  3
   3655   7378   7369   7371     1  0.0000000  1.6038667  3
   3656   3655   7378   7369     1  0.0000000  1.6038667  3
   3657   3655   7378   7369     1  0.0000000  1.6038667  3
   3660   3661   3673   3674     1  0.0000000  0.6508444  3
   3660   3661   3673   3675     1  0.0000000  0.6508444  3
   3660   3664   3676   3677     1  0.0000000  0.6508444  3
   3660   3664   3676   3678     1  0.0000000  0.6508444  3
   3660   3667   3670   3671     1  0.0000000  0.6508444  3
   3660   3667   3670   3672     1  0.0000000  0.6508444  3
   3661   3660   3664   3665     1  0.0000000  0.6508444  3
   3661   3660   3664   3666     1  0.0000000  0.6508444  3
   3661   3660   3667   3668     1  0.0000000  0.6508444  3
   3661   3660   3667   3669     1  0.0000000  0.6508444  3
   3661   3673   3685   3686     1  0.0000000  0.6508444  3
   3661   3673   3685   3687     1  0.0000000  0.6508444  3
   3662   3661   3660   3664     1  0.0000000  0.6508444  3
   3662   3661   3660   3667     1  0.0000000  0.6508444  3
   3662   3661   3660   3689     1  0.0000000  0.6508444  3
   3662   3661   3673   3685     1  0.0000000  0.6508444  3
   3662   3661   3673   3674     1  0.0000000  0.6508444  3
   3662   3661   3673   3675     1  0.0000000  0.6508444  3
   3663   3661   3660   3664     1  0.0000000  0.6508444  3
   3663   3661   3660   3667     1  0.0000000  0.6508444  3
   3663   3661   3660   3689     1  0.0000000  0.6508444  3
   3663   3661   3673   3685     1  0.0000000  0.6508444  3
   3663   3661   3673   3674     1  0.0000000  0.6508444  3
   3663   3661   3673   3675     1  0.0000000  0.6508444  3
   3664   3660   3667   3668     1  0.0000000  0.6508444  3
   3664   3660   3667   3669     1  0.0000000  0.6508444  3
   3664   3676   3682   3683     1  0.0000000  0.6508444  3
   3664   3676   3682   3684     1  0.0000000  0.6508444  3
   3665   3664   3660   3667     1  0.0000000  0.6508444  3
   3665   3664   3660   3689     1  0.0000000  0.6508444  3
   3665   3664   3676   3682     1  0.0000000  0.6508444  3
   3665   3664   3676   3677     1  0.0000000  0.6508444  3
   3665   3664   3676   3678     1  0.0000000  0.6508444  3
   3666   3664   3660   3667     1  0.0000000  0.6508444  3
   3666   3664   3660   3689     1  0.0000000  0.6508444  3
   3666   3664   3676   3682     1  0.0000000  0.6508444  3
   3666   3664   3676   3677     1  0.0000000  0.6508444  3
   3666   3664   3676   3678     1  0.0000000  0.6508444  3
   3667   3670   3679   3680     1  0.0000000  0.6508444  3
   3667   3670   3679   3681     1  0.0000000  0.6508444  3
   3668   3667   3660   3689     1  0.0000000  0.6508444  3
   3668   3667   3670   3679     1  0.0000000  0.6508444  3
   3668   3667   3670   3671     1  0.0000000  0.6508444  3
   3668   3667   3670   3672     1  0.0000000  0.6508444  3
   3669   3667   3660   3689     1  0.0000000  0.6508444  3
   3669   3667   3670   3679     1  0.0000000  0.6508444  3
   3669   3667   3670   3671     1  0.0000000  0.6508444  3
   3669   3667   3670   3672     1  0.0000000  0.6508444  3
   3670   3667   3660   3689     1  0.0000000  0.6508444  3
   3671   3670   3679   3688     1  0.0000000  1.0460000  1
   3671   3670   3679   3688     1  0.0000000  0.0000000  3
   3671   3670   3679   3680     1  0.0000000  0.6508444  3
   3671   3670   3679   3681     1  0.0000000  0.6508444  3
   3672   3670   3679   3688     1  0.0000000  1.0460000  1
   3672   3670   3679   3688     1  0.0000000  0.0000000  3
   3672   3670   3679   3680     1  0.0000000  0.6508444  3
   3672   3670   3679   3681     1  0.0000000  0.6508444  3
   3673   3661   3660   3689     1  0.0000000  0.6508444  3
   3674   3673   3685   7438     1  0.0000000  1.0460000  1
   3674   3673   3685   7438     1  0.0000000  0.0000000  3
   3674   3673   3685   3686     1  0.0000000  0.6508444  3
   3674   3673   3685   3687     1  0.0000000  0.6508444  3
   3675   3673   3685   7438     1  0.0000000  1.0460000  1
   3675   3673   3685   7438     1  0.0000000  0.0000000  3
   3675   3673   3685   3686     1  0.0000000  0.6508444  3
   3675   3673   3685   3687     1  0.0000000  0.6508444  3
   3676   3664   3660   3689     1  0.0000000  0.6508444  3
   3677   3676   3682   7408     1  0.0000000  1.0460000  1
   3677   3676   3682   7408     1  0.0000000  0.0000000  3
   3677   3676   3682   3683     1  0.0000000  0.6508444  3
   3677   3676   3682   3684     1  0.0000000  0.6508444  3
   3678   3676   3682   7408     1  0.0000000  1.0460000  1
   3678   3676   3682   7408     1  0.0000000  0.0000000  3
   3678   3676   3682   3683     1  0.0000000  0.6508444  3
   3678   3676   3682   3684     1  0.0000000  0.6508444  3
   3682   7408   7399   7400     1  0.0000000  1.6038667  3
   3682   7408   7399   7401     1  0.0000000  1.6038667  3
   3683   3682   7408   7399     1  0.0000000  1.6038667  3
   3684   3682   7408   7399     1  0.0000000  1.6038667  3
   3685   7438   7429   7430     1  0.0000000  1.6038667  3
   3685   7438   7429   7431     1  0.0000000  1.6038667  3
   3686   3685   7438   7429     1  0.0000000  1.6038667  3
   3687   3685   7438   7429     1  0.0000000  1.6038667  3
   3690   3691   3703   3704     1  0.0000000  0.6508444  3
   3690   3691   3703   3705     1  0.0000000  0.6508444  3
   3690   3694   3706   3707     1  0.0000000  0.6508444  3
   3690   3694   3706   3708     1  0.0000000  0.6508444  3
   3690   3697   3700   3701     1  0.0000000  0.6508444  3
   3690   3697   3700   3702     1  0.0000000  0.6508444  3
   3691   3690   3694   3695     1  0.0000000  0.6508444  3
   3691   3690   3694   3696     1  0.0000000  0.6508444  3
   3691   3690   3697   3698     1  0.0000000  0.6508444  3
   3691   3690   3697   3699     1  0.0000000  0.6508444  3
   3691   3703   3715   3716     1  0.0000000  0.6508444  3
   3691   3703   3715   3717     1  0.0000000  0.6508444  3
   3692   3691   3690   3694     1  0.0000000  0.6508444  3
   3692   3691   3690   3697     1  0.0000000  0.6508444  3
   3692   3691   3690   3719     1  0.0000000  0.6508444  3
   3692   3691   3703   3715     1  0.0000000  0.6508444  3
   3692   3691   3703   3704     1  0.0000000  0.6508444  3
   3692   3691   3703   3705     1  0.0000000  0.6508444  3
   3693   3691   3690   3694     1  0.0000000  0.6508444  3
   3693   3691   3690   3697     1  0.0000000  0.6508444  3
   3693   3691   3690   3719     1  0.0000000  0.6508444  3
   3693   3691   3703   3715     1  0.0000000  0.6508444  3
   3693   3691   3703   3704     1  0.0000000  0.6508444  3
   3693   3691   3703   3705     1  0.0000000  0.6508444  3
   3694   3690   3697   3698     1  0.0000000  0.6508444  3
   3694   3690   3697   3699     1  0.0000000  0.6508444  3
   3694   3706   3712   3713     1  0.0000000  0.6508444  3
   3694   3706   3712   3714     1  0.0000000  0.6508444  3
   3695   3694   3690   3697     1  0.0000000  0.6508444  3
   3695   3694   3690   3719     1  0.0000000  0.6508444  3
   3695   3694   3706   3712     1  0.0000000  0.6508444  3
   3695   3694   3706   3707     1  0.0000000  0.6508444  3
   3695   3694   3706   3708     1  0.0000000  0.6508444  3
   3696   3694   3690   3697     1  0.0000000  0.6508444  3
   3696   3694   3690   3719     1  0.0000000  0.6508444  3
   3696   3694   3706   3712     1  0.0000000  0.6508444  3
   3696   3694   3706   3707     1  0.0000000  0.6508444  3
   3696   3694   3706   3708     1  0.0000000  0.6508444  3
   3697   3700   3709   3710     1  0.0000000  0.6508444  3
   3697   3700   3709   3711     1  0.0000000  0.6508444  3
   3698   3697   3690   3719     1  0.0000000  0.6508444  3
   3698   3697   3700   3709     1  0.0000000  0.6508444  3
   3698   3697   3700   3701     1  0.0000000  0.6508444  3
   3698   3697   3700   3702     1  0.0000000  0.6508444  3
   3699   3697   3690   3719     1  0.0000000  0.6508444  3
   3699   3697   3700   3709     1  0.0000000  0.6508444  3
   3699   3697   3700   3701     1  0.0000000  0.6508444  3
   3699   3697   3700   3702     1  0.0000000  0.6508444  3
   3700   3697   3690   3719     1  0.0000000  0.6508444  3
   3701   3700   3709   3718     1  0.0000000  1.0460000  1
   3701   3700   3709   3718     1  0.0000000  0.0000000  3
   3701   3700   3709   3710     1  0.0000000  0.6508444  3
   3701   3700   3709   3711     1  0.0000000  0.6508444  3
   3702   3700   3709   3718     1  0.0000000  1.0460000  1
   3702   3700   3709   3718     1  0.0000000  0.0000000  3
   3702   3700   3709   3710     1  0.0000000  0.6508444  3
   3702   3700   3709   3711     1  0.0000000  0.6508444  3
   3703   3691   3690   3719     1  0.0000000  0.6508444  3
   3704   3703   3715   7498     1  0.0000000  1.0460000  1
   3704   3703   3715   7498     1  0.0000000  0.0000000  3
   3704   3703   3715   3716     1  0.0000000  0.6508444  3
   3704   3703   3715   3717     1  0.0000000  0.6508444  3
   3705   3703   3715   7498     1  0.0000000  1.0460000  1
   3705   3703   3715   7498     1  0.0000000  0.0000000  3
   3705   3703   3715   3716     1  0.0000000  0.6508444  3
   3705   3703   3715   3717     1  0.0000000  0.6508444  3
   3706   3694   3690   3719     1  0.0000000  0.6508444  3
   3707   3706   3712   7468     1  0.0000000  1.0460000  1
   3707   3706   3712   7468     1  0.0000000  0.0000000  3
   3707   3706   3712   3713     1  0.0000000  0.6508444  3
   3707   3706   3712   3714     1  0.0000000  0.6508444  3
   3708   3706   3712   7468     1  0.0000000  1.0460000  1
   3708   3706   3712   7468     1  0.0000000  0.0000000  3
   3708   3706   3712   3713     1  0.0000000  0.6508444  3
   3708   3706   3712   3714     1  0.0000000  0.6508444  3
   3712   7468   7459   7460     1  0.0000000  1.6038667  3
   3712   7468   7459   7461     1  0.0000000  1.6038667  3
   3713   3712   7468   7459     1  0.0000000  1.6038667  3
   3714   3712   7468   7459     1  0.0000000  1.6038667  3
   3715   7498   7489   7490     1  0.0000000  1.6038667  3
   3715   7498   7489   7491     1  0.0000000  1.6038667  3
   3716   3715   7498   7489     1  0.0000000  1.6038667  3
   3717   3715   7498   7489     1  0.0000000  1.6038667  3
   3720   3721   3733   3734     1  0.0000000  0.6508444  3
   3720   3721   3733   3735     1  0.0000000  0.6508444  3
   3720   3724   3736   3737     1  0.0000000  0.6508444  3
   3720   3724   3736   3738     1  0.0000000  0.6508444  3
   3720   3727   3730   3731     1  0.0000000  0.6508444  3
   3720   3727   3730   3732     1  0.0000000  0.6508444  3
   3721   3720   3724   3725     1  0.0000000  0.6508444  3
   3721   3720   3724   3726     1  0.0000000  0.6508444  3
   3721   3720   3727   3728     1  0.0000000  0.6508444  3
   3721   3720   3727   3729     1  0.0000000  0.6508444  3
   3721   3733   3745   3746     1  0.0000000  0.6508444  3
   3721   3733   3745   3747     1  0.0000000  0.6508444  3
   3722   3721   3720   3724     1  0.0000000  0.6508444  3
   3722   3721   3720   3727     1  0.0000000  0.6508444  3
   3722   3721   3720   3749     1  0.0000000  0.6508444  3
   3722   3721   3733   3745     1  0.0000000  0.6508444  3
   3722   3721   3733   3734     1  0.0000000  0.6508444  3
   3722   3721   3733   3735     1  0.0000000  0.6508444  3
   3723   3721   3720   3724     1  0.0000000  0.6508444  3
   3723   3721   3720   3727     1  0.0000000  0.6508444  3
   3723   3721   3720   3749     1  0.0000000  0.6508444  3
   3723   3721   3733   3745     1  0.0000000  0.6508444  3
   3723   3721   3733   3734     1  0.0000000  0.6508444  3
   3723   3721   3733   3735     1  0.0000000  0.6508444  3
   3724   3720   3727   3728     1  0.0000000  0.6508444  3
   3724   3720   3727   3729     1  0.0000000  0.6508444  3
   3724   3736   3742   3743     1  0.0000000  0.6508444  3
   3724   3736   3742   3744     1  0.0000000  0.6508444  3
   3725   3724   3720   3727     1  0.0000000  0.6508444  3
   3725   3724   3720   3749     1  0.0000000  0.6508444  3
   3725   3724   3736   3742     1  0.0000000  0.6508444  3
   3725   3724   3736   3737     1  0.0000000  0.6508444  3
   3725   3724   3736   3738     1  0.0000000  0.6508444  3
   3726   3724   3720   3727     1  0.0000000  0.6508444  3
   3726   3724   3720   3749     1  0.0000000  0.6508444  3
   3726   3724   3736   3742     1  0.0000000  0.6508444  3
   3726   3724   3736   3737     1  0.0000000  0.6508444  3
   3726   3724   3736   3738     1  0.0000000  0.6508444  3
   3727   3730   3739   3740     1  0.0000000  0.6508444  3
   3727   3730   3739   3741     1  0.0000000  0.6508444  3
   3728   3727   3720   3749     1  0.0000000  0.6508444  3
   3728   3727   3730   3739     1  0.0000000  0.6508444  3
   3728   3727   3730   3731     1  0.0000000  0.6508444  3
   3728   3727   3730   3732     1  0.0000000  0.6508444  3
   3729   3727   3720   3749     1  0.0000000  0.6508444  3
   3729   3727   3730   3739     1  0.0000000  0.6508444  3
   3729   3727   3730   3731     1  0.0000000  0.6508444  3
   3729   3727   3730   3732     1  0.0000000  0.6508444  3
   3730   3727   3720   3749     1  0.0000000  0.6508444  3
   3731   3730   3739   3748     1  0.0000000  1.0460000  1
   3731   3730   3739   3748     1  0.0000000  0.0000000  3
   3731   3730   3739   3740     1  0.0000000  0.6508444  3
   3731   3730   3739   3741     1  0.0000000  0.6508444  3
   3732   3730   3739   3748     1  0.0000000  1.0460000  1
   3732   3730   3739   3748     1  0.0000000  0.0000000  3
   3732   3730   3739   3740     1  0.0000000  0.6508444  3
   3732   3730   3739   3741     1  0.0000000  0.6508444  3
   3733   3721   3720   3749     1  0.0000000  0.6508444  3
   3734   3733   3745   7558     1  0.0000000  1.0460000  1
   3734   3733   3745   7558     1  0.0000000  0.0000000  3
   3734   3733   3745   3746     1  0.0000000  0.6508444  3
   3734   3733   3745   3747     1  0.0000000  0.6508444  3
   3735   3733   3745   7558     1  0.0000000  1.0460000  1
   3735   3733   3745   7558     1  0.0000000  0.0000000  3
   3735   3733   3745   3746     1  0.0000000  0.6508444  3
   3735   3733   3745   3747     1  0.0000000  0.6508444  3
   3736   3724   3720   3749     1  0.0000000  0.6508444  3
   3737   3736   3742   7528     1  0.0000000  1.0460000  1
   3737   3736   3742   7528     1  0.0000000  0.0000000  3
   3737   3736   3742   3743     1  0.0000000  0.6508444  3
   3737   3736   3742   3744     1  0.0000000  0.6508444  3
   3738   3736   3742   7528     1  0.0000000  1.0460000  1
   3738   3736   3742   7528     1  0.0000000  0.0000000  3
   3738   3736   3742   3743     1  0.0000000  0.6508444  3
   3738   3736   3742   3744     1  0.0000000  0.6508444  3
   3742   7528   7519   7520     1  0.0000000  1.6038667  3
   3742   7528   7519   7521     1  0.0000000  1.6038667  3
   3743   3742   7528   7519     1  0.0000000  1.6038667  3
   3744   3742   7528   7519     1  0.0000000  1.6038667  3
   3745   7558   7549   7550     1  0.0000000  1.6038667  3
   3745   7558   7549   7551     1  0.0000000  1.6038667  3
   3746   3745   7558   7549     1  0.0000000  1.6038667  3
   3747   3745   7558   7549     1  0.0000000  1.6038667  3
   3750   3751   3763   3764     1  0.0000000  0.6508444  3
   3750   3751   3763   3765     1  0.0000000  0.6508444  3
   3750   3754   3766   3767     1  0.0000000  0.6508444  3
   3750   3754   3766   3768     1  0.0000000  0.6508444  3
   3750   3757   3760   3761     1  0.0000000  0.6508444  3
   3750   3757   3760   3762     1  0.0000000  0.6508444  3
   3751   3750   3754   3755     1  0.0000000  0.6508444  3
   3751   3750   3754   3756     1  0.0000000  0.6508444  3
   3751   3750   3757   3758     1  0.0000000  0.6508444  3
   3751   3750   3757   3759     1  0.0000000  0.6508444  3
   3751   3763   3775   3776     1  0.0000000  0.6508444  3
   3751   3763   3775   3777     1  0.0000000  0.6508444  3
   3752   3751   3750   3754     1  0.0000000  0.6508444  3
   3752   3751   3750   3757     1  0.0000000  0.6508444  3
   3752   3751   3750   3779     1  0.0000000  0.6508444  3
   3752   3751   3763   3775     1  0.0000000  0.6508444  3
   3752   3751   3763   3764     1  0.0000000  0.6508444  3
   3752   3751   3763   3765     1  0.0000000  0.6508444  3
   3753   3751   3750   3754     1  0.0000000  0.6508444  3
   3753   3751   3750   3757     1  0.0000000  0.6508444  3
   3753   3751   3750   3779     1  0.0000000  0.6508444  3
   3753   3751   3763   3775     1  0.0000000  0.6508444  3
   3753   3751   3763   3764     1  0.0000000  0.6508444  3
   3753   3751   3763   3765     1  0.0000000  0.6508444  3
   3754   3750   3757   3758     1  0.0000000  0.6508444  3
   3754   3750   3757   3759     1  0.0000000  0.6508444  3
   3754   3766   3772   3773     1  0.0000000  0.6508444  3
   3754   3766   3772   3774     1  0.0000000  0.6508444  3
   3755   3754   3750   3757     1  0.0000000  0.6508444  3
   3755   3754   3750   3779     1  0.0000000  0.6508444  3
   3755   3754   3766   3772     1  0.0000000  0.6508444  3
   3755   3754   3766   3767     1  0.0000000  0.6508444  3
   3755   3754   3766   3768     1  0.0000000  0.6508444  3
   3756   3754   3750   3757     1  0.0000000  0.6508444  3
   3756   3754   3750   3779     1  0.0000000  0.6508444  3
   3756   3754   3766   3772     1  0.0000000  0.6508444  3
   3756   3754   3766   3767     1  0.0000000  0.6508444  3
   3756   3754   3766   3768     1  0.0000000  0.6508444  3
   3757   3760   3769   3770     1  0.0000000  0.6508444  3
   3757   3760   3769   3771     1  0.0000000  0.6508444  3
   3758   3757   3750   3779     1  0.0000000  0.6508444  3
   3758   3757   3760   3769     1  0.0000000  0.6508444  3
   3758   3757   3760   3761     1  0.0000000  0.6508444  3
   3758   3757   3760   3762     1  0.0000000  0.6508444  3
   3759   3757   3750   3779     1  0.0000000  0.6508444  3
   3759   3757   3760   3769     1  0.0000000  0.6508444  3
   3759   3757   3760   3761     1  0.0000000  0.6508444  3
   3759   3757   3760   3762     1  0.0000000  0.6508444  3
   3760   3757   3750   3779     1  0.0000000  0.6508444  3
   3761   3760   3769   3778     1  0.0000000  1.0460000  1
   3761   3760   3769   3778     1  0.0000000  0.0000000  3
   3761   3760   3769   3770     1  0.0000000  0.6508444  3
   3761   3760   3769   3771     1  0.0000000  0.6508444  3
   3762   3760   3769   3778     1  0.0000000  1.0460000  1
   3762   3760   3769   3778     1  0.0000000  0.0000000  3
   3762   3760   3769   3770     1  0.0000000  0.6508444  3
   3762   3760   3769   3771     1  0.0000000  0.6508444  3
   3763   3751   3750   3779     1  0.0000000  0.6508444  3
   3764   3763   3775   7618     1  0.0000000  1.0460000  1
   3764   3763   3775   7618     1  0.0000000  0.0000000  3
   3764   3763   3775   3776     1  0.0000000  0.6508444  3
   3764   3763   3775   3777     1  0.0000000  0.6508444  3
   3765   3763   3775   7618     1  0.0000000  1.0460000  1
   3765   3763   3775   7618     1  0.0000000  0.0000000  3
   3765   3763   3775   3776     1  0.0000000  0.6508444  3
   3765   3763   3775   3777     1  0.0000000  0.6508444  3
   3766   3754   3750   3779     1  0.0000000  0.6508444  3
   3767   3766   3772   7588     1  0.0000000  1.0460000  1
   3767   3766   3772   7588     1  0.0000000  0.0000000  3
   3767   3766   3772   3773     1  0.0000000  0.6508444  3
   3767   3766   3772   3774     1  0.0000000  0.6508444  3
   3768   3766   3772   7588     1  0.0000000  1.0460000  1
   3768   3766   3772   7588     1  0.0000000  0.0000000  3
   3768   3766   3772   3773     1  0.0000000  0.6508444  3
   3768   3766   3772   3774     1  0.0000000  0.6508444  3
   3772   7588   7579   7580     1  0.0000000  1.6038667  3
   3772   7588   7579   7581     1  0.0000000  1.6038667  3
   3773   3772   7588   7579     1  0.0000000  1.6038667  3
   3774   3772   7588   7579     1  0.0000000  1.6038667  3
   3775   7618   7609   7610     1  0.0000000  1.6038667  3
   3775   7618   7609   7611     1  0.0000000  1.6038667  3
   3776   3775   7618   7609     1  0.0000000  1.6038667  3
   3777   3775   7618   7609     1  0.0000000  1.6038667  3
   3780   3781   3793   3794     1  0.0000000  0.6508444  3
   3780   3781   3793   3795     1  0.0000000  0.6508444  3
   3780   3784   3796   3797     1  0.0000000  0.6508444  3
   3780   3784   3796   3798     1  0.0000000  0.6508444  3
   3780   3787   3790   3791     1  0.0000000  0.6508444  3
   3780   3787   3790   3792     1  0.0000000  0.6508444  3
   3781   3780   3784   3785     1  0.0000000  0.6508444  3
   3781   3780   3784   3786     1  0.0000000  0.6508444  3
   3781   3780   3787   3788     1  0.0000000  0.6508444  3
   3781   3780   3787   3789     1  0.0000000  0.6508444  3
   3781   3793   3805   3806     1  0.0000000  0.6508444  3
   3781   3793   3805   3807     1  0.0000000  0.6508444  3
   3782   3781   3780   3784     1  0.0000000  0.6508444  3
   3782   3781   3780   3787     1  0.0000000  0.6508444  3
   3782   3781   3780   3809     1  0.0000000  0.6508444  3
   3782   3781   3793   3805     1  0.0000000  0.6508444  3
   3782   3781   3793   3794     1  0.0000000  0.6508444  3
   3782   3781   3793   3795     1  0.0000000  0.6508444  3
   3783   3781   3780   3784     1  0.0000000  0.6508444  3
   3783   3781   3780   3787     1  0.0000000  0.6508444  3
   3783   3781   3780   3809     1  0.0000000  0.6508444  3
   3783   3781   3793   3805     1  0.0000000  0.6508444  3
   3783   3781   3793   3794     1  0.0000000  0.6508444  3
   3783   3781   3793   3795     1  0.0000000  0.6508444  3
   3784   3780   3787   3788     1  0.0000000  0.6508444  3
   3784   3780   3787   3789     1  0.0000000  0.6508444  3
   3784   3796   3802   3803     1  0.0000000  0.6508444  3
   3784   3796   3802   3804     1  0.0000000  0.6508444  3
   3785   3784   3780   3787     1  0.0000000  0.6508444  3
   3785   3784   3780   3809     1  0.0000000  0.6508444  3
   3785   3784   3796   3802     1  0.0000000  0.6508444  3
   3785   3784   3796   3797     1  0.0000000  0.6508444  3
   3785   3784   3796   3798     1  0.0000000  0.6508444  3
   3786   3784   3780   3787     1  0.0000000  0.6508444  3
   3786   3784   3780   3809     1  0.0000000  0.6508444  3
   3786   3784   3796   3802     1  0.0000000  0.6508444  3
   3786   3784   3796   3797     1  0.0000000  0.6508444  3
   3786   3784   3796   3798     1  0.0000000  0.6508444  3
   3787   3790   3799   3800     1  0.0000000  0.6508444  3
   3787   3790   3799   3801     1  0.0000000  0.6508444  3
   3788   3787   3780   3809     1  0.0000000  0.6508444  3
   3788   3787   3790   3799     1  0.0000000  0.6508444  3
   3788   3787   3790   3791     1  0.0000000  0.6508444  3
   3788   3787   3790   3792     1  0.0000000  0.6508444  3
   3789   3787   3780   3809     1  0.0000000  0.6508444  3
   3789   3787   3790   3799     1  0.0000000  0.6508444  3
   3789   3787   3790   3791     1  0.0000000  0.6508444  3
   3789   3787   3790   3792     1  0.0000000  0.6508444  3
   3790   3787   3780   3809     1  0.0000000  0.6508444  3
   3791   3790   3799   3808     1  0.0000000  1.0460000  1
   3791   3790   3799   3808     1  0.0000000  0.0000000  3
   3791   3790   3799   3800     1  0.0000000  0.6508444  3
   3791   3790   3799   3801     1  0.0000000  0.6508444  3
   3792   3790   3799   3808     1  0.0000000  1.0460000  1
   3792   3790   3799   3808     1  0.0000000  0.0000000  3
   3792   3790   3799   3800     1  0.0000000  0.6508444  3
   3792   3790   3799   3801     1  0.0000000  0.6508444  3
   3793   3781   3780   3809     1  0.0000000  0.6508444  3
   3794   3793   3805   7678     1  0.0000000  1.0460000  1
   3794   3793   3805   7678     1  0.0000000  0.0000000  3
   3794   3793   3805   3806     1  0.0000000  0.6508444  3
   3794   3793   3805   3807     1  0.0000000  0.6508444  3
   3795   3793   3805   7678     1  0.0000000  1.0460000  1
   3795   3793   3805   7678     1  0.0000000  0.0000000  3
   3795   3793   3805   3806     1  0.0000000  0.6508444  3
   3795   3793   3805   3807     1  0.0000000  0.6508444  3
   3796   3784   3780   3809     1  0.0000000  0.6508444  3
   3797   3796   3802   7648     1  0.0000000  1.0460000  1
   3797   3796   3802   7648     1  0.0000000  0.0000000  3
   3797   3796   3802   3803     1  0.0000000  0.6508444  3
   3797   3796   3802   3804     1  0.0000000  0.6508444  3
   3798   3796   3802   7648     1  0.0000000  1.0460000  1
   3798   3796   3802   7648     1  0.0000000  0.0000000  3
   3798   3796   3802   3803     1  0.0000000  0.6508444  3
   3798   3796   3802   3804     1  0.0000000  0.6508444  3
   3802   7648   7639   7640     1  0.0000000  1.6038667  3
   3802   7648   7639   7641     1  0.0000000  1.6038667  3
   3803   3802   7648   7639     1  0.0000000  1.6038667  3
   3804   3802   7648   7639     1  0.0000000  1.6038667  3
   3805   7678   7669   7670     1  0.0000000  1.6038667  3
   3805   7678   7669   7671     1  0.0000000  1.6038667  3
   3806   3805   7678   7669     1  0.0000000  1.6038667  3
   3807   3805   7678   7669     1  0.0000000  1.6038667  3
   3810   3811   3823   3824     1  0.0000000  0.6508444  3
   3810   3811   3823   3825     1  0.0000000  0.6508444  3
   3810   3814   3826   3827     1  0.0000000  0.6508444  3
   3810   3814   3826   3828     1  0.0000000  0.6508444  3
   3810   3817   3820   3821     1  0.0000000  0.6508444  3
   3810   3817   3820   3822     1  0.0000000  0.6508444  3
   3811   3810   3814   3815     1  0.0000000  0.6508444  3
   3811   3810   3814   3816     1  0.0000000  0.6508444  3
   3811   3810   3817   3818     1  0.0000000  0.6508444  3
   3811   3810   3817   3819     1  0.0000000  0.6508444  3
   3811   3823   3835   3836     1  0.0000000  0.6508444  3
   3811   3823   3835   3837     1  0.0000000  0.6508444  3
   3812   3811   3810   3814     1  0.0000000  0.6508444  3
   3812   3811   3810   3817     1  0.0000000  0.6508444  3
   3812   3811   3810   3839     1  0.0000000  0.6508444  3
   3812   3811   3823   3835     1  0.0000000  0.6508444  3
   3812   3811   3823   3824     1  0.0000000  0.6508444  3
   3812   3811   3823   3825     1  0.0000000  0.6508444  3
   3813   3811   3810   3814     1  0.0000000  0.6508444  3
   3813   3811   3810   3817     1  0.0000000  0.6508444  3
   3813   3811   3810   3839     1  0.0000000  0.6508444  3
   3813   3811   3823   3835     1  0.0000000  0.6508444  3
   3813   3811   3823   3824     1  0.0000000  0.6508444  3
   3813   3811   3823   3825     1  0.0000000  0.6508444  3
   3814   3810   3817   3818     1  0.0000000  0.6508444  3
   3814   3810   3817   3819     1  0.0000000  0.6508444  3
   3814   3826   3832   3833     1  0.0000000  0.6508444  3
   3814   3826   3832   3834     1  0.0000000  0.6508444  3
   3815   3814   3810   3817     1  0.0000000  0.6508444  3
   3815   3814   3810   3839     1  0.0000000  0.6508444  3
   3815   3814   3826   3832     1  0.0000000  0.6508444  3
   3815   3814   3826   3827     1  0.0000000  0.6508444  3
   3815   3814   3826   3828     1  0.0000000  0.6508444  3
   3816   3814   3810   3817     1  0.0000000  0.6508444  3
   3816   3814   3810   3839     1  0.0000000  0.6508444  3
   3816   3814   3826   3832     1  0.0000000  0.6508444  3
   3816   3814   3826   3827     1  0.0000000  0.6508444  3
   3816   3814   3826   3828     1  0.0000000  0.6508444  3
   3817   3820   3829   3830     1  0.0000000  0.6508444  3
   3817   3820   3829   3831     1  0.0000000  0.6508444  3
   3818   3817   3810   3839     1  0.0000000  0.6508444  3
   3818   3817   3820   3829     1  0.0000000  0.6508444  3
   3818   3817   3820   3821     1  0.0000000  0.6508444  3
   3818   3817   3820   3822     1  0.0000000  0.6508444  3
   3819   3817   3810   3839     1  0.0000000  0.6508444  3
   3819   3817   3820   3829     1  0.0000000  0.6508444  3
   3819   3817   3820   3821     1  0.0000000  0.6508444  3
   3819   3817   3820   3822     1  0.0000000  0.6508444  3
   3820   3817   3810   3839     1  0.0000000  0.6508444  3
   3821   3820   3829   3838     1  0.0000000  1.0460000  1
   3821   3820   3829   3838     1  0.0000000  0.0000000  3
   3821   3820   3829   3830     1  0.0000000  0.6508444  3
   3821   3820   3829   3831     1  0.0000000  0.6508444  3
   3822   3820   3829   3838     1  0.0000000  1.0460000  1
   3822   3820   3829   3838     1  0.0000000  0.0000000  3
   3822   3820   3829   3830     1  0.0000000  0.6508444  3
   3822   3820   3829   3831     1  0.0000000  0.6508444  3
   3823   3811   3810   3839     1  0.0000000  0.6508444  3
   3824   3823   3835   7738     1  0.0000000  1.0460000  1
   3824   3823   3835   7738     1  0.0000000  0.0000000  3
   3824   3823   3835   3836     1  0.0000000  0.6508444  3
   3824   3823   3835   3837     1  0.0000000  0.6508444  3
   3825   3823   3835   7738     1  0.0000000  1.0460000  1
   3825   3823   3835   7738     1  0.0000000  0.0000000  3
   3825   3823   3835   3836     1  0.0000000  0.6508444  3
   3825   3823   3835   3837     1  0.0000000  0.6508444  3
   3826   3814   3810   3839     1  0.0000000  0.6508444  3
   3827   3826   3832   7708     1  0.0000000  1.0460000  1
   3827   3826   3832   7708     1  0.0000000  0.0000000  3
   3827   3826   3832   3833     1  0.0000000  0.6508444  3
   3827   3826   3832   3834     1  0.0000000  0.6508444  3
   3828   3826   3832   7708     1  0.0000000  1.0460000  1
   3828   3826   3832   7708     1  0.0000000  0.0000000  3
   3828   3826   3832   3833     1  0.0000000  0.6508444  3
   3828   3826   3832   3834     1  0.0000000  0.6508444  3
   3832   7708   7699   7700     1  0.0000000  1.6038667  3
   3832   7708   7699   7701     1  0.0000000  1.6038667  3
   3833   3832   7708   7699     1  0.0000000  1.6038667  3
   3834   3832   7708   7699     1  0.0000000  1.6038667  3
   3835   7738   7729   7730     1  0.0000000  1.6038667  3
   3835   7738   7729   7731     1  0.0000000  1.6038667  3
   3836   3835   7738   7729     1  0.0000000  1.6038667  3
   3837   3835   7738   7729     1  0.0000000  1.6038667  3
   3840   3841   3853   3854     1  0.0000000  0.6508444  3
   3840   3841   3853   3855     1  0.0000000  0.6508444  3
   3840   3844   3856   3857     1  0.0000000  0.6508444  3
   3840   3844   3856   3858     1  0.0000000  0.6508444  3
   3840   3847   3850   3851     1  0.0000000  0.6508444  3
   3840   3847   3850   3852     1  0.0000000  0.6508444  3
   3841   3840   3844   3845     1  0.0000000  0.6508444  3
   3841   3840   3844   3846     1  0.0000000  0.6508444  3
   3841   3840   3847   3848     1  0.0000000  0.6508444  3
   3841   3840   3847   3849     1  0.0000000  0.6508444  3
   3841   3853   3865   3866     1  0.0000000  0.6508444  3
   3841   3853   3865   3867     1  0.0000000  0.6508444  3
   3842   3841   3840   3844     1  0.0000000  0.6508444  3
   3842   3841   3840   3847     1  0.0000000  0.6508444  3
   3842   3841   3840   3869     1  0.0000000  0.6508444  3
   3842   3841   3853   3865     1  0.0000000  0.6508444  3
   3842   3841   3853   3854     1  0.0000000  0.6508444  3
   3842   3841   3853   3855     1  0.0000000  0.6508444  3
   3843   3841   3840   3844     1  0.0000000  0.6508444  3
   3843   3841   3840   3847     1  0.0000000  0.6508444  3
   3843   3841   3840   3869     1  0.0000000  0.6508444  3
   3843   3841   3853   3865     1  0.0000000  0.6508444  3
   3843   3841   3853   3854     1  0.0000000  0.6508444  3
   3843   3841   3853   3855     1  0.0000000  0.6508444  3
   3844   3840   3847   3848     1  0.0000000  0.6508444  3
   3844   3840   3847   3849     1  0.0000000  0.6508444  3
   3844   3856   3862   3863     1  0.0000000  0.6508444  3
   3844   3856   3862   3864     1  0.0000000  0.6508444  3
   3845   3844   3840   3847     1  0.0000000  0.6508444  3
   3845   3844   3840   3869     1  0.0000000  0.6508444  3
   3845   3844   3856   3862     1  0.0000000  0.6508444  3
   3845   3844   3856   3857     1  0.0000000  0.6508444  3
   3845   3844   3856   3858     1  0.0000000  0.6508444  3
   3846   3844   3840   3847     1  0.0000000  0.6508444  3
   3846   3844   3840   3869     1  0.0000000  0.6508444  3
   3846   3844   3856   3862     1  0.0000000  0.6508444  3
   3846   3844   3856   3857     1  0.0000000  0.6508444  3
   3846   3844   3856   3858     1  0.0000000  0.6508444  3
   3847   3850   3859   3860     1  0.0000000  0.6508444  3
   3847   3850   3859   3861     1  0.0000000  0.6508444  3
   3848   3847   3840   3869     1  0.0000000  0.6508444  3
   3848   3847   3850   3859     1  0.0000000  0.6508444  3
   3848   3847   3850   3851     1  0.0000000  0.6508444  3
   3848   3847   3850   3852     1  0.0000000  0.6508444  3
   3849   3847   3840   3869     1  0.0000000  0.6508444  3
   3849   3847   3850   3859     1  0.0000000  0.6508444  3
   3849   3847   3850   3851     1  0.0000000  0.6508444  3
   3849   3847   3850   3852     1  0.0000000  0.6508444  3
   3850   3847   3840   3869     1  0.0000000  0.6508444  3
   3851   3850   3859   3868     1  0.0000000  1.0460000  1
   3851   3850   3859   3868     1  0.0000000  0.0000000  3
   3851   3850   3859   3860     1  0.0000000  0.6508444  3
   3851   3850   3859   3861     1  0.0000000  0.6508444  3
   3852   3850   3859   3868     1  0.0000000  1.0460000  1
   3852   3850   3859   3868     1  0.0000000  0.0000000  3
   3852   3850   3859   3860     1  0.0000000  0.6508444  3
   3852   3850   3859   3861     1  0.0000000  0.6508444  3
   3853   3841   3840   3869     1  0.0000000  0.6508444  3
   3854   3853   3865   7798     1  0.0000000  1.0460000  1
   3854   3853   3865   7798     1  0.0000000  0.0000000  3
   3854   3853   3865   3866     1  0.0000000  0.6508444  3
   3854   3853   3865   3867     1  0.0000000  0.6508444  3
   3855   3853   3865   7798     1  0.0000000  1.0460000  1
   3855   3853   3865   7798     1  0.0000000  0.0000000  3
   3855   3853   3865   3866     1  0.0000000  0.6508444  3
   3855   3853   3865   3867     1  0.0000000  0.6508444  3
   3856   3844   3840   3869     1  0.0000000  0.6508444  3
   3857   3856   3862   7768     1  0.0000000  1.0460000  1
   3857   3856   3862   7768     1  0.0000000  0.0000000  3
   3857   3856   3862   3863     1  0.0000000  0.6508444  3
   3857   3856   3862   3864     1  0.0000000  0.6508444  3
   3858   3856   3862   7768     1  0.0000000  1.0460000  1
   3858   3856   3862   7768     1  0.0000000  0.0000000  3
   3858   3856   3862   3863     1  0.0000000  0.6508444  3
   3858   3856   3862   3864     1  0.0000000  0.6508444  3
   3862   7768   7759   7760     1  0.0000000  1.6038667  3
   3862   7768   7759   7761     1  0.0000000  1.6038667  3
   3863   3862   7768   7759     1  0.0000000  1.6038667  3
   3864   3862   7768   7759     1  0.0000000  1.6038667  3
   3865   7798   7789   7790     1  0.0000000  1.6038667  3
   3865   7798   7789   7791     1  0.0000000  1.6038667  3
   3866   3865   7798   7789     1  0.0000000  1.6038667  3
   3867   3865   7798   7789     1  0.0000000  1.6038667  3
   3870   3871   3883   3884     1  0.0000000  0.6508444  3
   3870   3871   3883   3885     1  0.0000000  0.6508444  3
   3870   3874   3886   3887     1  0.0000000  0.6508444  3
   3870   3874   3886   3888     1  0.0000000  0.6508444  3
   3870   3877   3880   3881     1  0.0000000  0.6508444  3
   3870   3877   3880   3882     1  0.0000000  0.6508444  3
   3871   3870   3874   3875     1  0.0000000  0.6508444  3
   3871   3870   3874   3876     1  0.0000000  0.6508444  3
   3871   3870   3877   3878     1  0.0000000  0.6508444  3
   3871   3870   3877   3879     1  0.0000000  0.6508444  3
   3871   3883   3895   3896     1  0.0000000  0.6508444  3
   3871   3883   3895   3897     1  0.0000000  0.6508444  3
   3872   3871   3870   3874     1  0.0000000  0.6508444  3
   3872   3871   3870   3877     1  0.0000000  0.6508444  3
   3872   3871   3870   3899     1  0.0000000  0.6508444  3
   3872   3871   3883   3895     1  0.0000000  0.6508444  3
   3872   3871   3883   3884     1  0.0000000  0.6508444  3
   3872   3871   3883   3885     1  0.0000000  0.6508444  3
   3873   3871   3870   3874     1  0.0000000  0.6508444  3
   3873   3871   3870   3877     1  0.0000000  0.6508444  3
   3873   3871   3870   3899     1  0.0000000  0.6508444  3
   3873   3871   3883   3895     1  0.0000000  0.6508444  3
   3873   3871   3883   3884     1  0.0000000  0.6508444  3
   3873   3871   3883   3885     1  0.0000000  0.6508444  3
   3874   3870   3877   3878     1  0.0000000  0.6508444  3
   3874   3870   3877   3879     1  0.0000000  0.6508444  3
   3874   3886   3892   3893     1  0.0000000  0.6508444  3
   3874   3886   3892   3894     1  0.0000000  0.6508444  3
   3875   3874   3870   3877     1  0.0000000  0.6508444  3
   3875   3874   3870   3899     1  0.0000000  0.6508444  3
   3875   3874   3886   3892     1  0.0000000  0.6508444  3
   3875   3874   3886   3887     1  0.0000000  0.6508444  3
   3875   3874   3886   3888     1  0.0000000  0.6508444  3
   3876   3874   3870   3877     1  0.0000000  0.6508444  3
   3876   3874   3870   3899     1  0.0000000  0.6508444  3
   3876   3874   3886   3892     1  0.0000000  0.6508444  3
   3876   3874   3886   3887     1  0.0000000  0.6508444  3
   3876   3874   3886   3888     1  0.0000000  0.6508444  3
   3877   3880   3889   3890     1  0.0000000  0.6508444  3
   3877   3880   3889   3891     1  0.0000000  0.6508444  3
   3878   3877   3870   3899     1  0.0000000  0.6508444  3
   3878   3877   3880   3889     1  0.0000000  0.6508444  3
   3878   3877   3880   3881     1  0.0000000  0.6508444  3
   3878   3877   3880   3882     1  0.0000000  0.6508444  3
   3879   3877   3870   3899     1  0.0000000  0.6508444  3
   3879   3877   3880   3889     1  0.0000000  0.6508444  3
   3879   3877   3880   3881     1  0.0000000  0.6508444  3
   3879   3877   3880   3882     1  0.0000000  0.6508444  3
   3880   3877   3870   3899     1  0.0000000  0.6508444  3
   3881   3880   3889   3898     1  0.0000000  1.0460000  1
   3881   3880   3889   3898     1  0.0000000  0.0000000  3
   3881   3880   3889   3890     1  0.0000000  0.6508444  3
   3881   3880   3889   3891     1  0.0000000  0.6508444  3
   3882   3880   3889   3898     1  0.0000000  1.0460000  1
   3882   3880   3889   3898     1  0.0000000  0.0000000  3
   3882   3880   3889   3890     1  0.0000000  0.6508444  3
   3882   3880   3889   3891     1  0.0000000  0.6508444  3
   3883   3871   3870   3899     1  0.0000000  0.6508444  3
   3884   3883   3895   7858     1  0.0000000  1.0460000  1
   3884   3883   3895   7858     1  0.0000000  0.0000000  3
   3884   3883   3895   3896     1  0.0000000  0.6508444  3
   3884   3883   3895   3897     1  0.0000000  0.6508444  3
   3885   3883   3895   7858     1  0.0000000  1.0460000  1
   3885   3883   3895   7858     1  0.0000000  0.0000000  3
   3885   3883   3895   3896     1  0.0000000  0.6508444  3
   3885   3883   3895   3897     1  0.0000000  0.6508444  3
   3886   3874   3870   3899     1  0.0000000  0.6508444  3
   3887   3886   3892   7828     1  0.0000000  1.0460000  1
   3887   3886   3892   7828     1  0.0000000  0.0000000  3
   3887   3886   3892   3893     1  0.0000000  0.6508444  3
   3887   3886   3892   3894     1  0.0000000  0.6508444  3
   3888   3886   3892   7828     1  0.0000000  1.0460000  1
   3888   3886   3892   7828     1  0.0000000  0.0000000  3
   3888   3886   3892   3893     1  0.0000000  0.6508444  3
   3888   3886   3892   3894     1  0.0000000  0.6508444  3
   3892   7828   7819   7820     1  0.0000000  1.6038667  3
   3892   7828   7819   7821     1  0.0000000  1.6038667  3
   3893   3892   7828   7819     1  0.0000000  1.6038667  3
   3894   3892   7828   7819     1  0.0000000  1.6038667  3
   3895   7858   7849   7850     1  0.0000000  1.6038667  3
   3895   7858   7849   7851     1  0.0000000  1.6038667  3
   3896   3895   7858   7849     1  0.0000000  1.6038667  3
   3897   3895   7858   7849     1  0.0000000  1.6038667  3
   3900   3901   3913   3914     1  0.0000000  0.6508444  3
   3900   3901   3913   3915     1  0.0000000  0.6508444  3
   3900   3904   3916   3917     1  0.0000000  0.6508444  3
   3900   3904   3916   3918     1  0.0000000  0.6508444  3
   3900   3907   3910   3911     1  0.0000000  0.6508444  3
   3900   3907   3910   3912     1  0.0000000  0.6508444  3
   3901   3900   3904   3905     1  0.0000000  0.6508444  3
   3901   3900   3904   3906     1  0.0000000  0.6508444  3
   3901   3900   3907   3908     1  0.0000000  0.6508444  3
   3901   3900   3907   3909     1  0.0000000  0.6508444  3
   3901   3913   3925   3926     1  0.0000000  0.6508444  3
   3901   3913   3925   3927     1  0.0000000  0.6508444  3
   3902   3901   3900   3904     1  0.0000000  0.6508444  3
   3902   3901   3900   3907     1  0.0000000  0.6508444  3
   3902   3901   3900   3929     1  0.0000000  0.6508444  3
   3902   3901   3913   3925     1  0.0000000  0.6508444  3
   3902   3901   3913   3914     1  0.0000000  0.6508444  3
   3902   3901   3913   3915     1  0.0000000  0.6508444  3
   3903   3901   3900   3904     1  0.0000000  0.6508444  3
   3903   3901   3900   3907     1  0.0000000  0.6508444  3
   3903   3901   3900   3929     1  0.0000000  0.6508444  3
   3903   3901   3913   3925     1  0.0000000  0.6508444  3
   3903   3901   3913   3914     1  0.0000000  0.6508444  3
   3903   3901   3913   3915     1  0.0000000  0.6508444  3
   3904   3900   3907   3908     1  0.0000000  0.6508444  3
   3904   3900   3907   3909     1  0.0000000  0.6508444  3
   3904   3916   3922   3923     1  0.0000000  0.6508444  3
   3904   3916   3922   3924     1  0.0000000  0.6508444  3
   3905   3904   3900   3907     1  0.0000000  0.6508444  3
   3905   3904   3900   3929     1  0.0000000  0.6508444  3
   3905   3904   3916   3922     1  0.0000000  0.6508444  3
   3905   3904   3916   3917     1  0.0000000  0.6508444  3
   3905   3904   3916   3918     1  0.0000000  0.6508444  3
   3906   3904   3900   3907     1  0.0000000  0.6508444  3
   3906   3904   3900   3929     1  0.0000000  0.6508444  3
   3906   3904   3916   3922     1  0.0000000  0.6508444  3
   3906   3904   3916   3917     1  0.0000000  0.6508444  3
   3906   3904   3916   3918     1  0.0000000  0.6508444  3
   3907   3910   3919   3920     1  0.0000000  0.6508444  3
   3907   3910   3919   3921     1  0.0000000  0.6508444  3
   3908   3907   3900   3929     1  0.0000000  0.6508444  3
   3908   3907   3910   3919     1  0.0000000  0.6508444  3
   3908   3907   3910   3911     1  0.0000000  0.6508444  3
   3908   3907   3910   3912     1  0.0000000  0.6508444  3
   3909   3907   3900   3929     1  0.0000000  0.6508444  3
   3909   3907   3910   3919     1  0.0000000  0.6508444  3
   3909   3907   3910   3911     1  0.0000000  0.6508444  3
   3909   3907   3910   3912     1  0.0000000  0.6508444  3
   3910   3907   3900   3929     1  0.0000000  0.6508444  3
   3911   3910   3919   3928     1  0.0000000  1.0460000  1
   3911   3910   3919   3928     1  0.0000000  0.0000000  3
   3911   3910   3919   3920     1  0.0000000  0.6508444  3
   3911   3910   3919   3921     1  0.0000000  0.6508444  3
   3912   3910   3919   3928     1  0.0000000  1.0460000  1
   3912   3910   3919   3928     1  0.0000000  0.0000000  3
   3912   3910   3919   3920     1  0.0000000  0.6508444  3
   3912   3910   3919   3921     1  0.0000000  0.6508444  3
   3913   3901   3900   3929     1  0.0000000  0.6508444  3
   3914   3913   3925   7918     1  0.0000000  1.0460000  1
   3914   3913   3925   7918     1  0.0000000  0.0000000  3
   3914   3913   3925   3926     1  0.0000000  0.6508444  3
   3914   3913   3925   3927     1  0.0000000  0.6508444  3
   3915   3913   3925   7918     1  0.0000000  1.0460000  1
   3915   3913   3925   7918     1  0.0000000  0.0000000  3
   3915   3913   3925   3926     1  0.0000000  0.6508444  3
   3915   3913   3925   3927     1  0.0000000  0.6508444  3
   3916   3904   3900   3929     1  0.0000000  0.6508444  3
   3917   3916   3922   7888     1  0.0000000  1.0460000  1
   3917   3916   3922   7888     1  0.0000000  0.0000000  3
   3917   3916   3922   3923     1  0.0000000  0.6508444  3
   3917   3916   3922   3924     1  0.0000000  0.6508444  3
   3918   3916   3922   7888     1  0.0000000  1.0460000  1
   3918   3916   3922   7888     1  0.0000000  0.0000000  3
   3918   3916   3922   3923     1  0.0000000  0.6508444  3
   3918   3916   3922   3924     1  0.0000000  0.6508444  3
   3922   7888   7879   7880     1  0.0000000  1.6038667  3
   3922   7888   7879   7881     1  0.0000000  1.6038667  3
   3923   3922   7888   7879     1  0.0000000  1.6038667  3
   3924   3922   7888   7879     1  0.0000000  1.6038667  3
   3925   7918   7909   7910     1  0.0000000  1.6038667  3
   3925   7918   7909   7911     1  0.0000000  1.6038667  3
   3926   3925   7918   7909     1  0.0000000  1.6038667  3
   3927   3925   7918   7909     1  0.0000000  1.6038667  3
   3930   3931   3943   3944     1  0.0000000  0.6508444  3
   3930   3931   3943   3945     1  0.0000000  0.6508444  3
   3930   3934   3946   3947     1  0.0000000  0.6508444  3
   3930   3934   3946   3948     1  0.0000000  0.6508444  3
   3930   3937   3940   3941     1  0.0000000  0.6508444  3
   3930   3937   3940   3942     1  0.0000000  0.6508444  3
   3931   3930   3934   3935     1  0.0000000  0.6508444  3
   3931   3930   3934   3936     1  0.0000000  0.6508444  3
   3931   3930   3937   3938     1  0.0000000  0.6508444  3
   3931   3930   3937   3939     1  0.0000000  0.6508444  3
   3931   3943   3955   3956     1  0.0000000  0.6508444  3
   3931   3943   3955   3957     1  0.0000000  0.6508444  3
   3932   3931   3930   3934     1  0.0000000  0.6508444  3
   3932   3931   3930   3937     1  0.0000000  0.6508444  3
   3932   3931   3930   3959     1  0.0000000  0.6508444  3
   3932   3931   3943   3955     1  0.0000000  0.6508444  3
   3932   3931   3943   3944     1  0.0000000  0.6508444  3
   3932   3931   3943   3945     1  0.0000000  0.6508444  3
   3933   3931   3930   3934     1  0.0000000  0.6508444  3
   3933   3931   3930   3937     1  0.0000000  0.6508444  3
   3933   3931   3930   3959     1  0.0000000  0.6508444  3
   3933   3931   3943   3955     1  0.0000000  0.6508444  3
   3933   3931   3943   3944     1  0.0000000  0.6508444  3
   3933   3931   3943   3945     1  0.0000000  0.6508444  3
   3934   3930   3937   3938     1  0.0000000  0.6508444  3
   3934   3930   3937   3939     1  0.0000000  0.6508444  3
   3934   3946   3952   3953     1  0.0000000  0.6508444  3
   3934   3946   3952   3954     1  0.0000000  0.6508444  3
   3935   3934   3930   3937     1  0.0000000  0.6508444  3
   3935   3934   3930   3959     1  0.0000000  0.6508444  3
   3935   3934   3946   3952     1  0.0000000  0.6508444  3
   3935   3934   3946   3947     1  0.0000000  0.6508444  3
   3935   3934   3946   3948     1  0.0000000  0.6508444  3
   3936   3934   3930   3937     1  0.0000000  0.6508444  3
   3936   3934   3930   3959     1  0.0000000  0.6508444  3
   3936   3934   3946   3952     1  0.0000000  0.6508444  3
   3936   3934   3946   3947     1  0.0000000  0.6508444  3
   3936   3934   3946   3948     1  0.0000000  0.6508444  3
   3937   3940   3949   3950     1  0.0000000  0.6508444  3
   3937   3940   3949   3951     1  0.0000000  0.6508444  3
   3938   3937   3930   3959     1  0.0000000  0.6508444  3
   3938   3937   3940   3949     1  0.0000000  0.6508444  3
   3938   3937   3940   3941     1  0.0000000  0.6508444  3
   3938   3937   3940   3942     1  0.0000000  0.6508444  3
   3939   3937   3930   3959     1  0.0000000  0.6508444  3
   3939   3937   3940   3949     1  0.0000000  0.6508444  3
   3939   3937   3940   3941     1  0.0000000  0.6508444  3
   3939   3937   3940   3942     1  0.0000000  0.6508444  3
   3940   3937   3930   3959     1  0.0000000  0.6508444  3
   3941   3940   3949   3958     1  0.0000000  1.0460000  1
   3941   3940   3949   3958     1  0.0000000  0.0000000  3
   3941   3940   3949   3950     1  0.0000000  0.6508444  3
   3941   3940   3949   3951     1  0.0000000  0.6508444  3
   3942   3940   3949   3958     1  0.0000000  1.0460000  1
   3942   3940   3949   3958     1  0.0000000  0.0000000  3
   3942   3940   3949   3950     1  0.0000000  0.6508444  3
   3942   3940   3949   3951     1  0.0000000  0.6508444  3
   3943   3931   3930   3959     1  0.0000000  0.6508444  3
   3944   3943   3955   7978     1  0.0000000  1.0460000  1
   3944   3943   3955   7978     1  0.0000000  0.0000000  3
   3944   3943   3955   3956     1  0.0000000  0.6508444  3
   3944   3943   3955   3957     1  0.0000000  0.6508444  3
   3945   3943   3955   7978     1  0.0000000  1.0460000  1
   3945   3943   3955   7978     1  0.0000000  0.0000000  3
   3945   3943   3955   3956     1  0.0000000  0.6508444  3
   3945   3943   3955   3957     1  0.0000000  0.6508444  3
   3946   3934   3930   3959     1  0.0000000  0.6508444  3
   3947   3946   3952   7948     1  0.0000000  1.0460000  1
   3947   3946   3952   7948     1  0.0000000  0.0000000  3
   3947   3946   3952   3953     1  0.0000000  0.6508444  3
   3947   3946   3952   3954     1  0.0000000  0.6508444  3
   3948   3946   3952   7948     1  0.0000000  1.0460000  1
   3948   3946   3952   7948     1  0.0000000  0.0000000  3
   3948   3946   3952   3953     1  0.0000000  0.6508444  3
   3948   3946   3952   3954     1  0.0000000  0.6508444  3
   3952   7948   7939   7940     1  0.0000000  1.6038667  3
   3952   7948   7939   7941     1  0.0000000  1.6038667  3
   3953   3952   7948   7939     1  0.0000000  1.6038667  3
   3954   3952   7948   7939     1  0.0000000  1.6038667  3
   3955   7978   7969   7970     1  0.0000000  1.6038667  3
   3955   7978   7969   7971     1  0.0000000  1.6038667  3
   3956   3955   7978   7969     1  0.0000000  1.6038667  3
   3957   3955   7978   7969     1  0.0000000  1.6038667  3
   3960   3961   3973   3974     1  0.0000000  0.6508444  3
   3960   3961   3973   3975     1  0.0000000  0.6508444  3
   3960   3964   3976   3977     1  0.0000000  0.6508444  3
   3960   3964   3976   3978     1  0.0000000  0.6508444  3
   3960   3967   3970   3971     1  0.0000000  0.6508444  3
   3960   3967   3970   3972     1  0.0000000  0.6508444  3
   3961   3960   3964   3965     1  0.0000000  0.6508444  3
   3961   3960   3964   3966     1  0.0000000  0.6508444  3
   3961   3960   3967   3968     1  0.0000000  0.6508444  3
   3961   3960   3967   3969     1  0.0000000  0.6508444  3
   3961   3973   3985   3986     1  0.0000000  0.6508444  3
   3961   3973   3985   3987     1  0.0000000  0.6508444  3
   3962   3961   3960   3964     1  0.0000000  0.6508444  3
   3962   3961   3960   3967     1  0.0000000  0.6508444  3
   3962   3961   3960   3989     1  0.0000000  0.6508444  3
   3962   3961   3973   3985     1  0.0000000  0.6508444  3
   3962   3961   3973   3974     1  0.0000000  0.6508444  3
   3962   3961   3973   3975     1  0.0000000  0.6508444  3
   3963   3961   3960   3964     1  0.0000000  0.6508444  3
   3963   3961   3960   3967     1  0.0000000  0.6508444  3
   3963   3961   3960   3989     1  0.0000000  0.6508444  3
   3963   3961   3973   3985     1  0.0000000  0.6508444  3
   3963   3961   3973   3974     1  0.0000000  0.6508444  3
   3963   3961   3973   3975     1  0.0000000  0.6508444  3
   3964   3960   3967   3968     1  0.0000000  0.6508444  3
   3964   3960   3967   3969     1  0.0000000  0.6508444  3
   3964   3976   3982   3983     1  0.0000000  0.6508444  3
   3964   3976   3982   3984     1  0.0000000  0.6508444  3
   3965   3964   3960   3967     1  0.0000000  0.6508444  3
   3965   3964   3960   3989     1  0.0000000  0.6508444  3
   3965   3964   3976   3982     1  0.0000000  0.6508444  3
   3965   3964   3976   3977     1  0.0000000  0.6508444  3
   3965   3964   3976   3978     1  0.0000000  0.6508444  3
   3966   3964   3960   3967     1  0.0000000  0.6508444  3
   3966   3964   3960   3989     1  0.0000000  0.6508444  3
   3966   3964   3976   3982     1  0.0000000  0.6508444  3
   3966   3964   3976   3977     1  0.0000000  0.6508444  3
   3966   3964   3976   3978     1  0.0000000  0.6508444  3
   3967   3970   3979   3980     1  0.0000000  0.6508444  3
   3967   3970   3979   3981     1  0.0000000  0.6508444  3
   3968   3967   3960   3989     1  0.0000000  0.6508444  3
   3968   3967   3970   3979     1  0.0000000  0.6508444  3
   3968   3967   3970   3971     1  0.0000000  0.6508444  3
   3968   3967   3970   3972     1  0.0000000  0.6508444  3
   3969   3967   3960   3989     1  0.0000000  0.6508444  3
   3969   3967   3970   3979     1  0.0000000  0.6508444  3
   3969   3967   3970   3971     1  0.0000000  0.6508444  3
   3969   3967   3970   3972     1  0.0000000  0.6508444  3
   3970   3967   3960   3989     1  0.0000000  0.6508444  3
   3971   3970   3979   3988     1  0.0000000  1.0460000  1
   3971   3970   3979   3988     1  0.0000000  0.0000000  3
   3971   3970   3979   3980     1  0.0000000  0.6508444  3
   3971   3970   3979   3981     1  0.0000000  0.6508444  3
   3972   3970   3979   3988     1  0.0000000  1.0460000  1
   3972   3970   3979   3988     1  0.0000000  0.0000000  3
   3972   3970   3979   3980     1  0.0000000  0.6508444  3
   3972   3970   3979   3981     1  0.0000000  0.6508444  3
   3973   3961   3960   3989     1  0.0000000  0.6508444  3
   3974   3973   3985   8038     1  0.0000000  1.0460000  1
   3974   3973   3985   8038     1  0.0000000  0.0000000  3
   3974   3973   3985   3986     1  0.0000000  0.6508444  3
   3974   3973   3985   3987     1  0.0000000  0.6508444  3
   3975   3973   3985   8038     1  0.0000000  1.0460000  1
   3975   3973   3985   8038     1  0.0000000  0.0000000  3
   3975   3973   3985   3986     1  0.0000000  0.6508444  3
   3975   3973   3985   3987     1  0.0000000  0.6508444  3
   3976   3964   3960   3989     1  0.0000000  0.6508444  3
   3977   3976   3982   8008     1  0.0000000  1.0460000  1
   3977   3976   3982   8008     1  0.0000000  0.0000000  3
   3977   3976   3982   3983     1  0.0000000  0.6508444  3
   3977   3976   3982   3984     1  0.0000000  0.6508444  3
   3978   3976   3982   8008     1  0.0000000  1.0460000  1
   3978   3976   3982   8008     1  0.0000000  0.0000000  3
   3978   3976   3982   3983     1  0.0000000  0.6508444  3
   3978   3976   3982   3984     1  0.0000000  0.6508444  3
   3982   8008   7999   8000     1  0.0000000  1.6038667  3
   3982   8008   7999   8001     1  0.0000000  1.6038667  3
   3983   3982   8008   7999     1  0.0000000  1.6038667  3
   3984   3982   8008   7999     1  0.0000000  1.6038667  3
   3985   8038   8029   8030     1  0.0000000  1.6038667  3
   3985   8038   8029   8031     1  0.0000000  1.6038667  3
   3986   3985   8038   8029     1  0.0000000  1.6038667  3
   3987   3985   8038   8029     1  0.0000000  1.6038667  3
   3990   3991   4003   4004     1  0.0000000  0.6508444  3
   3990   3991   4003   4005     1  0.0000000  0.6508444  3
   3990   3994   4006   4007     1  0.0000000  0.6508444  3
   3990   3994   4006   4008     1  0.0000000  0.6508444  3
   3990   3997   4000   4001     1  0.0000000  0.6508444  3
   3990   3997   4000   4002     1  0.0000000  0.6508444  3
   3991   3990   3994   3995     1  0.0000000  0.6508444  3
   3991   3990   3994   3996     1  0.0000000  0.6508444  3
   3991   3990   3997   3998     1  0.0000000  0.6508444  3
   3991   3990   3997   3999     1  0.0000000  0.6508444  3
   3991   4003   4015   4016     1  0.0000000  0.6508444  3
   3991   4003   4015   4017     1  0.0000000  0.6508444  3
   3992   3991   3990   3994     1  0.0000000  0.6508444  3
   3992   3991   3990   3997     1  0.0000000  0.6508444  3
   3992   3991   3990   4019     1  0.0000000  0.6508444  3
   3992   3991   4003   4015     1  0.0000000  0.6508444  3
   3992   3991   4003   4004     1  0.0000000  0.6508444  3
   3992   3991   4003   4005     1  0.0000000  0.6508444  3
   3993   3991   3990   3994     1  0.0000000  0.6508444  3
   3993   3991   3990   3997     1  0.0000000  0.6508444  3
   3993   3991   3990   4019     1  0.0000000  0.6508444  3
   3993   3991   4003   4015     1  0.0000000  0.6508444  3
   3993   3991   4003   4004     1  0.0000000  0.6508444  3
   3993   3991   4003   4005     1  0.0000000  0.6508444  3
   3994   3990   3997   3998     1  0.0000000  0.6508444  3
   3994   3990   3997   3999     1  0.0000000  0.6508444  3
   3994   4006   4012   4013     1  0.0000000  0.6508444  3
   3994   4006   4012   4014     1  0.0000000  0.6508444  3
   3995   3994   3990   3997     1  0.0000000  0.6508444  3
   3995   3994   3990   4019     1  0.0000000  0.6508444  3
   3995   3994   4006   4012     1  0.0000000  0.6508444  3
   3995   3994   4006   4007     1  0.0000000  0.6508444  3
   3995   3994   4006   4008     1  0.0000000  0.6508444  3
   3996   3994   3990   3997     1  0.0000000  0.6508444  3
   3996   3994   3990   4019     1  0.0000000  0.6508444  3
   3996   3994   4006   4012     1  0.0000000  0.6508444  3
   3996   3994   4006   4007     1  0.0000000  0.6508444  3
   3996   3994   4006   4008     1  0.0000000  0.6508444  3
   3997   4000   4009   4010     1  0.0000000  0.6508444  3
   3997   4000   4009   4011     1  0.0000000  0.6508444  3
   3998   3997   3990   4019     1  0.0000000  0.6508444  3
   3998   3997   4000   4009     1  0.0000000  0.6508444  3
   3998   3997   4000   4001     1  0.0000000  0.6508444  3
   3998   3997   4000   4002     1  0.0000000  0.6508444  3
   3999   3997   3990   4019     1  0.0000000  0.6508444  3
   3999   3997   4000   4009     1  0.0000000  0.6508444  3
   3999   3997   4000   4001     1  0.0000000  0.6508444  3
   3999   3997   4000   4002     1  0.0000000  0.6508444  3
   4000   3997   3990   4019     1  0.0000000  0.6508444  3
   4001   4000   4009   4018     1  0.0000000  1.0460000  1
   4001   4000   4009   4018     1  0.0000000  0.0000000  3
   4001   4000   4009   4010     1  0.0000000  0.6508444  3
   4001   4000   4009   4011     1  0.0000000  0.6508444  3
   4002   4000   4009   4018     1  0.0000000  1.0460000  1
   4002   4000   4009   4018     1  0.0000000  0.0000000  3
   4002   4000   4009   4010     1  0.0000000  0.6508444  3
   4002   4000   4009   4011     1  0.0000000  0.6508444  3
   4003   3991   3990   4019     1  0.0000000  0.6508444  3
   4004   4003   4015   8098     1  0.0000000  1.0460000  1
   4004   4003   4015   8098     1  0.0000000  0.0000000  3
   4004   4003   4015   4016     1  0.0000000  0.6508444  3
   4004   4003   4015   4017     1  0.0000000  0.6508444  3
   4005   4003   4015   8098     1  0.0000000  1.0460000  1
   4005   4003   4015   8098     1  0.0000000  0.0000000  3
   4005   4003   4015   4016     1  0.0000000  0.6508444  3
   4005   4003   4015   4017     1  0.0000000  0.6508444  3
   4006   3994   3990   4019     1  0.0000000  0.6508444  3
   4007   4006   4012   8068     1  0.0000000  1.0460000  1
   4007   4006   4012   8068     1  0.0000000  0.0000000  3
   4007   4006   4012   4013     1  0.0000000  0.6508444  3
   4007   4006   4012   4014     1  0.0000000  0.6508444  3
   4008   4006   4012   8068     1  0.0000000  1.0460000  1
   4008   4006   4012   8068     1  0.0000000  0.0000000  3
   4008   4006   4012   4013     1  0.0000000  0.6508444  3
   4008   4006   4012   4014     1  0.0000000  0.6508444  3
   4012   8068   8059   8060     1  0.0000000  1.6038667  3
   4012   8068   8059   8061     1  0.0000000  1.6038667  3
   4013   4012   8068   8059     1  0.0000000  1.6038667  3
   4014   4012   8068   8059     1  0.0000000  1.6038667  3
   4015   8098   8089   8090     1  0.0000000  1.6038667  3
   4015   8098   8089   8091     1  0.0000000  1.6038667  3
   4016   4015   8098   8089     1  0.0000000  1.6038667  3
   4017   4015   8098   8089     1  0.0000000  1.6038667  3
   4020   4021   4033   4034     1  0.0000000  0.6508444  3
   4020   4021   4033   4035     1  0.0000000  0.6508444  3
   4020   4024   4036   4037     1  0.0000000  0.6508444  3
   4020   4024   4036   4038     1  0.0000000  0.6508444  3
   4020   4027   4030   4031     1  0.0000000  0.6508444  3
   4020   4027   4030   4032     1  0.0000000  0.6508444  3
   4021   4020   4024   4025     1  0.0000000  0.6508444  3
   4021   4020   4024   4026     1  0.0000000  0.6508444  3
   4021   4020   4027   4028     1  0.0000000  0.6508444  3
   4021   4020   4027   4029     1  0.0000000  0.6508444  3
   4021   4033   4045   4046     1  0.0000000  0.6508444  3
   4021   4033   4045   4047     1  0.0000000  0.6508444  3
   4022   4021   4020   4024     1  0.0000000  0.6508444  3
   4022   4021   4020   4027     1  0.0000000  0.6508444  3
   4022   4021   4020   4049     1  0.0000000  0.6508444  3
   4022   4021   4033   4045     1  0.0000000  0.6508444  3
   4022   4021   4033   4034     1  0.0000000  0.6508444  3
   4022   4021   4033   4035     1  0.0000000  0.6508444  3
   4023   4021   4020   4024     1  0.0000000  0.6508444  3
   4023   4021   4020   4027     1  0.0000000  0.6508444  3
   4023   4021   4020   4049     1  0.0000000  0.6508444  3
   4023   4021   4033   4045     1  0.0000000  0.6508444  3
   4023   4021   4033   4034     1  0.0000000  0.6508444  3
   4023   4021   4033   4035     1  0.0000000  0.6508444  3
   4024   4020   4027   4028     1  0.0000000  0.6508444  3
   4024   4020   4027   4029     1  0.0000000  0.6508444  3
   4024   4036   4042   4043     1  0.0000000  0.6508444  3
   4024   4036   4042   4044     1  0.0000000  0.6508444  3
   4025   4024   4020   4027     1  0.0000000  0.6508444  3
   4025   4024   4020   4049     1  0.0000000  0.6508444  3
   4025   4024   4036   4042     1  0.0000000  0.6508444  3
   4025   4024   4036   4037     1  0.0000000  0.6508444  3
   4025   4024   4036   4038     1  0.0000000  0.6508444  3
   4026   4024   4020   4027     1  0.0000000  0.6508444  3
   4026   4024   4020   4049     1  0.0000000  0.6508444  3
   4026   4024   4036   4042     1  0.0000000  0.6508444  3
   4026   4024   4036   4037     1  0.0000000  0.6508444  3
   4026   4024   4036   4038     1  0.0000000  0.6508444  3
   4027   4030   4039   4040     1  0.0000000  0.6508444  3
   4027   4030   4039   4041     1  0.0000000  0.6508444  3
   4028   4027   4020   4049     1  0.0000000  0.6508444  3
   4028   4027   4030   4039     1  0.0000000  0.6508444  3
   4028   4027   4030   4031     1  0.0000000  0.6508444  3
   4028   4027   4030   4032     1  0.0000000  0.6508444  3
   4029   4027   4020   4049     1  0.0000000  0.6508444  3
   4029   4027   4030   4039     1  0.0000000  0.6508444  3
   4029   4027   4030   4031     1  0.0000000  0.6508444  3
   4029   4027   4030   4032     1  0.0000000  0.6508444  3
   4030   4027   4020   4049     1  0.0000000  0.6508444  3
   4031   4030   4039   4048     1  0.0000000  1.0460000  1
   4031   4030   4039   4048     1  0.0000000  0.0000000  3
   4031   4030   4039   4040     1  0.0000000  0.6508444  3
   4031   4030   4039   4041     1  0.0000000  0.6508444  3
   4032   4030   4039   4048     1  0.0000000  1.0460000  1
   4032   4030   4039   4048     1  0.0000000  0.0000000  3
   4032   4030   4039   4040     1  0.0000000  0.6508444  3
   4032   4030   4039   4041     1  0.0000000  0.6508444  3
   4033   4021   4020   4049     1  0.0000000  0.6508444  3
   4034   4033   4045   8158     1  0.0000000  1.0460000  1
   4034   4033   4045   8158     1  0.0000000  0.0000000  3
   4034   4033   4045   4046     1  0.0000000  0.6508444  3
   4034   4033   4045   4047     1  0.0000000  0.6508444  3
   4035   4033   4045   8158     1  0.0000000  1.0460000  1
   4035   4033   4045   8158     1  0.0000000  0.0000000  3
   4035   4033   4045   4046     1  0.0000000  0.6508444  3
   4035   4033   4045   4047     1  0.0000000  0.6508444  3
   4036   4024   4020   4049     1  0.0000000  0.6508444  3
   4037   4036   4042   8128     1  0.0000000  1.0460000  1
   4037   4036   4042   8128     1  0.0000000  0.0000000  3
   4037   4036   4042   4043     1  0.0000000  0.6508444  3
   4037   4036   4042   4044     1  0.0000000  0.6508444  3
   4038   4036   4042   8128     1  0.0000000  1.0460000  1
   4038   4036   4042   8128     1  0.0000000  0.0000000  3
   4038   4036   4042   4043     1  0.0000000  0.6508444  3
   4038   4036   4042   4044     1  0.0000000  0.6508444  3
   4042   8128   8119   8120     1  0.0000000  1.6038667  3
   4042   8128   8119   8121     1  0.0000000  1.6038667  3
   4043   4042   8128   8119     1  0.0000000  1.6038667  3
   4044   4042   8128   8119     1  0.0000000  1.6038667  3
   4045   8158   8149   8150     1  0.0000000  1.6038667  3
   4045   8158   8149   8151     1  0.0000000  1.6038667  3
   4046   4045   8158   8149     1  0.0000000  1.6038667  3
   4047   4045   8158   8149     1  0.0000000  1.6038667  3
   4050   4051   4063   4064     1  0.0000000  0.6508444  3
   4050   4051   4063   4065     1  0.0000000  0.6508444  3
   4050   4054   4066   4067     1  0.0000000  0.6508444  3
   4050   4054   4066   4068     1  0.0000000  0.6508444  3
   4050   4057   4060   4061     1  0.0000000  0.6508444  3
   4050   4057   4060   4062     1  0.0000000  0.6508444  3
   4051   4050   4054   4055     1  0.0000000  0.6508444  3
   4051   4050   4054   4056     1  0.0000000  0.6508444  3
   4051   4050   4057   4058     1  0.0000000  0.6508444  3
   4051   4050   4057   4059     1  0.0000000  0.6508444  3
   4051   4063   4075   4076     1  0.0000000  0.6508444  3
   4051   4063   4075   4077     1  0.0000000  0.6508444  3
   4052   4051   4050   4054     1  0.0000000  0.6508444  3
   4052   4051   4050   4057     1  0.0000000  0.6508444  3
   4052   4051   4050   4079     1  0.0000000  0.6508444  3
   4052   4051   4063   4075     1  0.0000000  0.6508444  3
   4052   4051   4063   4064     1  0.0000000  0.6508444  3
   4052   4051   4063   4065     1  0.0000000  0.6508444  3
   4053   4051   4050   4054     1  0.0000000  0.6508444  3
   4053   4051   4050   4057     1  0.0000000  0.6508444  3
   4053   4051   4050   4079     1  0.0000000  0.6508444  3
   4053   4051   4063   4075     1  0.0000000  0.6508444  3
   4053   4051   4063   4064     1  0.0000000  0.6508444  3
   4053   4051   4063   4065     1  0.0000000  0.6508444  3
   4054   4050   4057   4058     1  0.0000000  0.6508444  3
   4054   4050   4057   4059     1  0.0000000  0.6508444  3
   4054   4066   4072   4073     1  0.0000000  0.6508444  3
   4054   4066   4072   4074     1  0.0000000  0.6508444  3
   4055   4054   4050   4057     1  0.0000000  0.6508444  3
   4055   4054   4050   4079     1  0.0000000  0.6508444  3
   4055   4054   4066   4072     1  0.0000000  0.6508444  3
   4055   4054   4066   4067     1  0.0000000  0.6508444  3
   4055   4054   4066   4068     1  0.0000000  0.6508444  3
   4056   4054   4050   4057     1  0.0000000  0.6508444  3
   4056   4054   4050   4079     1  0.0000000  0.6508444  3
   4056   4054   4066   4072     1  0.0000000  0.6508444  3
   4056   4054   4066   4067     1  0.0000000  0.6508444  3
   4056   4054   4066   4068     1  0.0000000  0.6508444  3
   4057   4060   4069   4070     1  0.0000000  0.6508444  3
   4057   4060   4069   4071     1  0.0000000  0.6508444  3
   4058   4057   4050   4079     1  0.0000000  0.6508444  3
   4058   4057   4060   4069     1  0.0000000  0.6508444  3
   4058   4057   4060   4061     1  0.0000000  0.6508444  3
   4058   4057   4060   4062     1  0.0000000  0.6508444  3
   4059   4057   4050   4079     1  0.0000000  0.6508444  3
   4059   4057   4060   4069     1  0.0000000  0.6508444  3
   4059   4057   4060   4061     1  0.0000000  0.6508444  3
   4059   4057   4060   4062     1  0.0000000  0.6508444  3
   4060   4057   4050   4079     1  0.0000000  0.6508444  3
   4061   4060   4069   4078     1  0.0000000  1.0460000  1
   4061   4060   4069   4078     1  0.0000000  0.0000000  3
   4061   4060   4069   4070     1  0.0000000  0.6508444  3
   4061   4060   4069   4071     1  0.0000000  0.6508444  3
   4062   4060   4069   4078     1  0.0000000  1.0460000  1
   4062   4060   4069   4078     1  0.0000000  0.0000000  3
   4062   4060   4069   4070     1  0.0000000  0.6508444  3
   4062   4060   4069   4071     1  0.0000000  0.6508444  3
   4063   4051   4050   4079     1  0.0000000  0.6508444  3
   4064   4063   4075   8218     1  0.0000000  1.0460000  1
   4064   4063   4075   8218     1  0.0000000  0.0000000  3
   4064   4063   4075   4076     1  0.0000000  0.6508444  3
   4064   4063   4075   4077     1  0.0000000  0.6508444  3
   4065   4063   4075   8218     1  0.0000000  1.0460000  1
   4065   4063   4075   8218     1  0.0000000  0.0000000  3
   4065   4063   4075   4076     1  0.0000000  0.6508444  3
   4065   4063   4075   4077     1  0.0000000  0.6508444  3
   4066   4054   4050   4079     1  0.0000000  0.6508444  3
   4067   4066   4072   8188     1  0.0000000  1.0460000  1
   4067   4066   4072   8188     1  0.0000000  0.0000000  3
   4067   4066   4072   4073     1  0.0000000  0.6508444  3
   4067   4066   4072   4074     1  0.0000000  0.6508444  3
   4068   4066   4072   8188     1  0.0000000  1.0460000  1
   4068   4066   4072   8188     1  0.0000000  0.0000000  3
   4068   4066   4072   4073     1  0.0000000  0.6508444  3
   4068   4066   4072   4074     1  0.0000000  0.6508444  3
   4072   8188   8179   8180     1  0.0000000  1.6038667  3
   4072   8188   8179   8181     1  0.0000000  1.6038667  3
   4073   4072   8188   8179     1  0.0000000  1.6038667  3
   4074   4072   8188   8179     1  0.0000000  1.6038667  3
   4075   8218   8209   8210     1  0.0000000  1.6038667  3
   4075   8218   8209   8211     1  0.0000000  1.6038667  3
   4076   4075   8218   8209     1  0.0000000  1.6038667  3
   4077   4075   8218   8209     1  0.0000000  1.6038667  3
   4080   4081   4093   4094     1  0.0000000  0.6508444  3
   4080   4081   4093   4095     1  0.0000000  0.6508444  3
   4080   4084   4096   4097     1  0.0000000  0.6508444  3
   4080   4084   4096   4098     1  0.0000000  0.6508444  3
   4080   4087   4090   4091     1  0.0000000  0.6508444  3
   4080   4087   4090   4092     1  0.0000000  0.6508444  3
   4081   4080   4084   4085     1  0.0000000  0.6508444  3
   4081   4080   4084   4086     1  0.0000000  0.6508444  3
   4081   4080   4087   4088     1  0.0000000  0.6508444  3
   4081   4080   4087   4089     1  0.0000000  0.6508444  3
   4081   4093   4105   4106     1  0.0000000  0.6508444  3
   4081   4093   4105   4107     1  0.0000000  0.6508444  3
   4082   4081   4080   4084     1  0.0000000  0.6508444  3
   4082   4081   4080   4087     1  0.0000000  0.6508444  3
   4082   4081   4080   4109     1  0.0000000  0.6508444  3
   4082   4081   4093   4105     1  0.0000000  0.6508444  3
   4082   4081   4093   4094     1  0.0000000  0.6508444  3
   4082   4081   4093   4095     1  0.0000000  0.6508444  3
   4083   4081   4080   4084     1  0.0000000  0.6508444  3
   4083   4081   4080   4087     1  0.0000000  0.6508444  3
   4083   4081   4080   4109     1  0.0000000  0.6508444  3
   4083   4081   4093   4105     1  0.0000000  0.6508444  3
   4083   4081   4093   4094     1  0.0000000  0.6508444  3
   4083   4081   4093   4095     1  0.0000000  0.6508444  3
   4084   4080   4087   4088     1  0.0000000  0.6508444  3
   4084   4080   4087   4089     1  0.0000000  0.6508444  3
   4084   4096   4102   4103     1  0.0000000  0.6508444  3
   4084   4096   4102   4104     1  0.0000000  0.6508444  3
   4085   4084   4080   4087     1  0.0000000  0.6508444  3
   4085   4084   4080   4109     1  0.0000000  0.6508444  3
   4085   4084   4096   4102     1  0.0000000  0.6508444  3
   4085   4084   4096   4097     1  0.0000000  0.6508444  3
   4085   4084   4096   4098     1  0.0000000  0.6508444  3
   4086   4084   4080   4087     1  0.0000000  0.6508444  3
   4086   4084   4080   4109     1  0.0000000  0.6508444  3
   4086   4084   4096   4102     1  0.0000000  0.6508444  3
   4086   4084   4096   4097     1  0.0000000  0.6508444  3
   4086   4084   4096   4098     1  0.0000000  0.6508444  3
   4087   4090   4099   4100     1  0.0000000  0.6508444  3
   4087   4090   4099   4101     1  0.0000000  0.6508444  3
   4088   4087   4080   4109     1  0.0000000  0.6508444  3
   4088   4087   4090   4099     1  0.0000000  0.6508444  3
   4088   4087   4090   4091     1  0.0000000  0.6508444  3
   4088   4087   4090   4092     1  0.0000000  0.6508444  3
   4089   4087   4080   4109     1  0.0000000  0.6508444  3
   4089   4087   4090   4099     1  0.0000000  0.6508444  3
   4089   4087   4090   4091     1  0.0000000  0.6508444  3
   4089   4087   4090   4092     1  0.0000000  0.6508444  3
   4090   4087   4080   4109     1  0.0000000  0.6508444  3
   4091   4090   4099   4108     1  0.0000000  1.0460000  1
   4091   4090   4099   4108     1  0.0000000  0.0000000  3
   4091   4090   4099   4100     1  0.0000000  0.6508444  3
   4091   4090   4099   4101     1  0.0000000  0.6508444  3
   4092   4090   4099   4108     1  0.0000000  1.0460000  1
   4092   4090   4099   4108     1  0.0000000  0.0000000  3
   4092   4090   4099   4100     1  0.0000000  0.6508444  3
   4092   4090   4099   4101     1  0.0000000  0.6508444  3
   4093   4081   4080   4109     1  0.0000000  0.6508444  3
   4094   4093   4105   8278     1  0.0000000  1.0460000  1
   4094   4093   4105   8278     1  0.0000000  0.0000000  3
   4094   4093   4105   4106     1  0.0000000  0.6508444  3
   4094   4093   4105   4107     1  0.0000000  0.6508444  3
   4095   4093   4105   8278     1  0.0000000  1.0460000  1
   4095   4093   4105   8278     1  0.0000000  0.0000000  3
   4095   4093   4105   4106     1  0.0000000  0.6508444  3
   4095   4093   4105   4107     1  0.0000000  0.6508444  3
   4096   4084   4080   4109     1  0.0000000  0.6508444  3
   4097   4096   4102   8248     1  0.0000000  1.0460000  1
   4097   4096   4102   8248     1  0.0000000  0.0000000  3
   4097   4096   4102   4103     1  0.0000000  0.6508444  3
   4097   4096   4102   4104     1  0.0000000  0.6508444  3
   4098   4096   4102   8248     1  0.0000000  1.0460000  1
   4098   4096   4102   8248     1  0.0000000  0.0000000  3
   4098   4096   4102   4103     1  0.0000000  0.6508444  3
   4098   4096   4102   4104     1  0.0000000  0.6508444  3
   4102   8248   8239   8240     1  0.0000000  1.6038667  3
   4102   8248   8239   8241     1  0.0000000  1.6038667  3
   4103   4102   8248   8239     1  0.0000000  1.6038667  3
   4104   4102   8248   8239     1  0.0000000  1.6038667  3
   4105   8278   8269   8270     1  0.0000000  1.6038667  3
   4105   8278   8269   8271     1  0.0000000  1.6038667  3
   4106   4105   8278   8269     1  0.0000000  1.6038667  3
   4107   4105   8278   8269     1  0.0000000  1.6038667  3
   4110   4111   4123   4124     1  0.0000000  0.6508444  3
   4110   4111   4123   4125     1  0.0000000  0.6508444  3
   4110   4114   4126   4127     1  0.0000000  0.6508444  3
   4110   4114   4126   4128     1  0.0000000  0.6508444  3
   4110   4117   4120   4121     1  0.0000000  0.6508444  3
   4110   4117   4120   4122     1  0.0000000  0.6508444  3
   4111   4110   4114   4115     1  0.0000000  0.6508444  3
   4111   4110   4114   4116     1  0.0000000  0.6508444  3
   4111   4110   4117   4118     1  0.0000000  0.6508444  3
   4111   4110   4117   4119     1  0.0000000  0.6508444  3
   4111   4123   4135   4136     1  0.0000000  0.6508444  3
   4111   4123   4135   4137     1  0.0000000  0.6508444  3
   4112   4111   4110   4114     1  0.0000000  0.6508444  3
   4112   4111   4110   4117     1  0.0000000  0.6508444  3
   4112   4111   4110   4139     1  0.0000000  0.6508444  3
   4112   4111   4123   4135     1  0.0000000  0.6508444  3
   4112   4111   4123   4124     1  0.0000000  0.6508444  3
   4112   4111   4123   4125     1  0.0000000  0.6508444  3
   4113   4111   4110   4114     1  0.0000000  0.6508444  3
   4113   4111   4110   4117     1  0.0000000  0.6508444  3
   4113   4111   4110   4139     1  0.0000000  0.6508444  3
   4113   4111   4123   4135     1  0.0000000  0.6508444  3
   4113   4111   4123   4124     1  0.0000000  0.6508444  3
   4113   4111   4123   4125     1  0.0000000  0.6508444  3
   4114   4110   4117   4118     1  0.0000000  0.6508444  3
   4114   4110   4117   4119     1  0.0000000  0.6508444  3
   4114   4126   4132   4133     1  0.0000000  0.6508444  3
   4114   4126   4132   4134     1  0.0000000  0.6508444  3
   4115   4114   4110   4117     1  0.0000000  0.6508444  3
   4115   4114   4110   4139     1  0.0000000  0.6508444  3
   4115   4114   4126   4132     1  0.0000000  0.6508444  3
   4115   4114   4126   4127     1  0.0000000  0.6508444  3
   4115   4114   4126   4128     1  0.0000000  0.6508444  3
   4116   4114   4110   4117     1  0.0000000  0.6508444  3
   4116   4114   4110   4139     1  0.0000000  0.6508444  3
   4116   4114   4126   4132     1  0.0000000  0.6508444  3
   4116   4114   4126   4127     1  0.0000000  0.6508444  3
   4116   4114   4126   4128     1  0.0000000  0.6508444  3
   4117   4120   4129   4130     1  0.0000000  0.6508444  3
   4117   4120   4129   4131     1  0.0000000  0.6508444  3
   4118   4117   4110   4139     1  0.0000000  0.6508444  3
   4118   4117   4120   4129     1  0.0000000  0.6508444  3
   4118   4117   4120   4121     1  0.0000000  0.6508444  3
   4118   4117   4120   4122     1  0.0000000  0.6508444  3
   4119   4117   4110   4139     1  0.0000000  0.6508444  3
   4119   4117   4120   4129     1  0.0000000  0.6508444  3
   4119   4117   4120   4121     1  0.0000000  0.6508444  3
   4119   4117   4120   4122     1  0.0000000  0.6508444  3
   4120   4117   4110   4139     1  0.0000000  0.6508444  3
   4121   4120   4129   4138     1  0.0000000  1.0460000  1
   4121   4120   4129   4138     1  0.0000000  0.0000000  3
   4121   4120   4129   4130     1  0.0000000  0.6508444  3
   4121   4120   4129   4131     1  0.0000000  0.6508444  3
   4122   4120   4129   4138     1  0.0000000  1.0460000  1
   4122   4120   4129   4138     1  0.0000000  0.0000000  3
   4122   4120   4129   4130     1  0.0000000  0.6508444  3
   4122   4120   4129   4131     1  0.0000000  0.6508444  3
   4123   4111   4110   4139     1  0.0000000  0.6508444  3
   4124   4123   4135   8338     1  0.0000000  1.0460000  1
   4124   4123   4135   8338     1  0.0000000  0.0000000  3
   4124   4123   4135   4136     1  0.0000000  0.6508444  3
   4124   4123   4135   4137     1  0.0000000  0.6508444  3
   4125   4123   4135   8338     1  0.0000000  1.0460000  1
   4125   4123   4135   8338     1  0.0000000  0.0000000  3
   4125   4123   4135   4136     1  0.0000000  0.6508444  3
   4125   4123   4135   4137     1  0.0000000  0.6508444  3
   4126   4114   4110   4139     1  0.0000000  0.6508444  3
   4127   4126   4132   8308     1  0.0000000  1.0460000  1
   4127   4126   4132   8308     1  0.0000000  0.0000000  3
   4127   4126   4132   4133     1  0.0000000  0.6508444  3
   4127   4126   4132   4134     1  0.0000000  0.6508444  3
   4128   4126   4132   8308     1  0.0000000  1.0460000  1
   4128   4126   4132   8308     1  0.0000000  0.0000000  3
   4128   4126   4132   4133     1  0.0000000  0.6508444  3
   4128   4126   4132   4134     1  0.0000000  0.6508444  3
   4132   8308   8299   8300     1  0.0000000  1.6038667  3
   4132   8308   8299   8301     1  0.0000000  1.6038667  3
   4133   4132   8308   8299     1  0.0000000  1.6038667  3
   4134   4132   8308   8299     1  0.0000000  1.6038667  3
   4135   8338   8329   8330     1  0.0000000  1.6038667  3
   4135   8338   8329   8331     1  0.0000000  1.6038667  3
   4136   4135   8338   8329     1  0.0000000  1.6038667  3
   4137   4135   8338   8329     1  0.0000000  1.6038667  3
   4140   4141   4153   4154     1  0.0000000  0.6508444  3
   4140   4141   4153   4155     1  0.0000000  0.6508444  3
   4140   4144   4156   4157     1  0.0000000  0.6508444  3
   4140   4144   4156   4158     1  0.0000000  0.6508444  3
   4140   4147   4150   4151     1  0.0000000  0.6508444  3
   4140   4147   4150   4152     1  0.0000000  0.6508444  3
   4141   4140   4144   4145     1  0.0000000  0.6508444  3
   4141   4140   4144   4146     1  0.0000000  0.6508444  3
   4141   4140   4147   4148     1  0.0000000  0.6508444  3
   4141   4140   4147   4149     1  0.0000000  0.6508444  3
   4141   4153   4165   4166     1  0.0000000  0.6508444  3
   4141   4153   4165   4167     1  0.0000000  0.6508444  3
   4142   4141   4140   4144     1  0.0000000  0.6508444  3
   4142   4141   4140   4147     1  0.0000000  0.6508444  3
   4142   4141   4140   4169     1  0.0000000  0.6508444  3
   4142   4141   4153   4165     1  0.0000000  0.6508444  3
   4142   4141   4153   4154     1  0.0000000  0.6508444  3
   4142   4141   4153   4155     1  0.0000000  0.6508444  3
   4143   4141   4140   4144     1  0.0000000  0.6508444  3
   4143   4141   4140   4147     1  0.0000000  0.6508444  3
   4143   4141   4140   4169     1  0.0000000  0.6508444  3
   4143   4141   4153   4165     1  0.0000000  0.6508444  3
   4143   4141   4153   4154     1  0.0000000  0.6508444  3
   4143   4141   4153   4155     1  0.0000000  0.6508444  3
   4144   4140   4147   4148     1  0.0000000  0.6508444  3
   4144   4140   4147   4149     1  0.0000000  0.6508444  3
   4144   4156   4162   4163     1  0.0000000  0.6508444  3
   4144   4156   4162   4164     1  0.0000000  0.6508444  3
   4145   4144   4140   4147     1  0.0000000  0.6508444  3
   4145   4144   4140   4169     1  0.0000000  0.6508444  3
   4145   4144   4156   4162     1  0.0000000  0.6508444  3
   4145   4144   4156   4157     1  0.0000000  0.6508444  3
   4145   4144   4156   4158     1  0.0000000  0.6508444  3
   4146   4144   4140   4147     1  0.0000000  0.6508444  3
   4146   4144   4140   4169     1  0.0000000  0.6508444  3
   4146   4144   4156   4162     1  0.0000000  0.6508444  3
   4146   4144   4156   4157     1  0.0000000  0.6508444  3
   4146   4144   4156   4158     1  0.0000000  0.6508444  3
   4147   4150   4159   4160     1  0.0000000  0.6508444  3
   4147   4150   4159   4161     1  0.0000000  0.6508444  3
   4148   4147   4140   4169     1  0.0000000  0.6508444  3
   4148   4147   4150   4159     1  0.0000000  0.6508444  3
   4148   4147   4150   4151     1  0.0000000  0.6508444  3
   4148   4147   4150   4152     1  0.0000000  0.6508444  3
   4149   4147   4140   4169     1  0.0000000  0.6508444  3
   4149   4147   4150   4159     1  0.0000000  0.6508444  3
   4149   4147   4150   4151     1  0.0000000  0.6508444  3
   4149   4147   4150   4152     1  0.0000000  0.6508444  3
   4150   4147   4140   4169     1  0.0000000  0.6508444  3
   4151   4150   4159   4168     1  0.0000000  1.0460000  1
   4151   4150   4159   4168     1  0.0000000  0.0000000  3
   4151   4150   4159   4160     1  0.0000000  0.6508444  3
   4151   4150   4159   4161     1  0.0000000  0.6508444  3
   4152   4150   4159   4168     1  0.0000000  1.0460000  1
   4152   4150   4159   4168     1  0.0000000  0.0000000  3
   4152   4150   4159   4160     1  0.0000000  0.6508444  3
   4152   4150   4159   4161     1  0.0000000  0.6508444  3
   4153   4141   4140   4169     1  0.0000000  0.6508444  3
   4154   4153   4165   8398     1  0.0000000  1.0460000  1
   4154   4153   4165   8398     1  0.0000000  0.0000000  3
   4154   4153   4165   4166     1  0.0000000  0.6508444  3
   4154   4153   4165   4167     1  0.0000000  0.6508444  3
   4155   4153   4165   8398     1  0.0000000  1.0460000  1
   4155   4153   4165   8398     1  0.0000000  0.0000000  3
   4155   4153   4165   4166     1  0.0000000  0.6508444  3
   4155   4153   4165   4167     1  0.0000000  0.6508444  3
   4156   4144   4140   4169     1  0.0000000  0.6508444  3
   4157   4156   4162   8368     1  0.0000000  1.0460000  1
   4157   4156   4162   8368     1  0.0000000  0.0000000  3
   4157   4156   4162   4163     1  0.0000000  0.6508444  3
   4157   4156   4162   4164     1  0.0000000  0.6508444  3
   4158   4156   4162   8368     1  0.0000000  1.0460000  1
   4158   4156   4162   8368     1  0.0000000  0.0000000  3
   4158   4156   4162   4163     1  0.0000000  0.6508444  3
   4158   4156   4162   4164     1  0.0000000  0.6508444  3
   4162   8368   8359   8360     1  0.0000000  1.6038667  3
   4162   8368   8359   8361     1  0.0000000  1.6038667  3
   4163   4162   8368   8359     1  0.0000000  1.6038667  3
   4164   4162   8368   8359     1  0.0000000  1.6038667  3
   4165   8398   8389   8390     1  0.0000000  1.6038667  3
   4165   8398   8389   8391     1  0.0000000  1.6038667  3
   4166   4165   8398   8389     1  0.0000000  1.6038667  3
   4167   4165   8398   8389     1  0.0000000  1.6038667  3
   4170   4171   4183   4184     1  0.0000000  0.6508444  3
   4170   4171   4183   4185     1  0.0000000  0.6508444  3
   4170   4174   4186   4187     1  0.0000000  0.6508444  3
   4170   4174   4186   4188     1  0.0000000  0.6508444  3
   4170   4177   4180   4181     1  0.0000000  0.6508444  3
   4170   4177   4180   4182     1  0.0000000  0.6508444  3
   4171   4170   4174   4175     1  0.0000000  0.6508444  3
   4171   4170   4174   4176     1  0.0000000  0.6508444  3
   4171   4170   4177   4178     1  0.0000000  0.6508444  3
   4171   4170   4177   4179     1  0.0000000  0.6508444  3
   4171   4183   4195   4196     1  0.0000000  0.6508444  3
   4171   4183   4195   4197     1  0.0000000  0.6508444  3
   4172   4171   4170   4174     1  0.0000000  0.6508444  3
   4172   4171   4170   4177     1  0.0000000  0.6508444  3
   4172   4171   4170   4199     1  0.0000000  0.6508444  3
   4172   4171   4183   4195     1  0.0000000  0.6508444  3
   4172   4171   4183   4184     1  0.0000000  0.6508444  3
   4172   4171   4183   4185     1  0.0000000  0.6508444  3
   4173   4171   4170   4174     1  0.0000000  0.6508444  3
   4173   4171   4170   4177     1  0.0000000  0.6508444  3
   4173   4171   4170   4199     1  0.0000000  0.6508444  3
   4173   4171   4183   4195     1  0.0000000  0.6508444  3
   4173   4171   4183   4184     1  0.0000000  0.6508444  3
   4173   4171   4183   4185     1  0.0000000  0.6508444  3
   4174   4170   4177   4178     1  0.0000000  0.6508444  3
   4174   4170   4177   4179     1  0.0000000  0.6508444  3
   4174   4186   4192   4193     1  0.0000000  0.6508444  3
   4174   4186   4192   4194     1  0.0000000  0.6508444  3
   4175   4174   4170   4177     1  0.0000000  0.6508444  3
   4175   4174   4170   4199     1  0.0000000  0.6508444  3
   4175   4174   4186   4192     1  0.0000000  0.6508444  3
   4175   4174   4186   4187     1  0.0000000  0.6508444  3
   4175   4174   4186   4188     1  0.0000000  0.6508444  3
   4176   4174   4170   4177     1  0.0000000  0.6508444  3
   4176   4174   4170   4199     1  0.0000000  0.6508444  3
   4176   4174   4186   4192     1  0.0000000  0.6508444  3
   4176   4174   4186   4187     1  0.0000000  0.6508444  3
   4176   4174   4186   4188     1  0.0000000  0.6508444  3
   4177   4180   4189   4190     1  0.0000000  0.6508444  3
   4177   4180   4189   4191     1  0.0000000  0.6508444  3
   4178   4177   4170   4199     1  0.0000000  0.6508444  3
   4178   4177   4180   4189     1  0.0000000  0.6508444  3
   4178   4177   4180   4181     1  0.0000000  0.6508444  3
   4178   4177   4180   4182     1  0.0000000  0.6508444  3
   4179   4177   4170   4199     1  0.0000000  0.6508444  3
   4179   4177   4180   4189     1  0.0000000  0.6508444  3
   4179   4177   4180   4181     1  0.0000000  0.6508444  3
   4179   4177   4180   4182     1  0.0000000  0.6508444  3
   4180   4177   4170   4199     1  0.0000000  0.6508444  3
   4181   4180   4189   4198     1  0.0000000  1.0460000  1
   4181   4180   4189   4198     1  0.0000000  0.0000000  3
   4181   4180   4189   4190     1  0.0000000  0.6508444  3
   4181   4180   4189   4191     1  0.0000000  0.6508444  3
   4182   4180   4189   4198     1  0.0000000  1.0460000  1
   4182   4180   4189   4198     1  0.0000000  0.0000000  3
   4182   4180   4189   4190     1  0.0000000  0.6508444  3
   4182   4180   4189   4191     1  0.0000000  0.6508444  3
   4183   4171   4170   4199     1  0.0000000  0.6508444  3
   4184   4183   4195   8458     1  0.0000000  1.0460000  1
   4184   4183   4195   8458     1  0.0000000  0.0000000  3
   4184   4183   4195   4196     1  0.0000000  0.6508444  3
   4184   4183   4195   4197     1  0.0000000  0.6508444  3
   4185   4183   4195   8458     1  0.0000000  1.0460000  1
   4185   4183   4195   8458     1  0.0000000  0.0000000  3
   4185   4183   4195   4196     1  0.0000000  0.6508444  3
   4185   4183   4195   4197     1  0.0000000  0.6508444  3
   4186   4174   4170   4199     1  0.0000000  0.6508444  3
   4187   4186   4192   8428     1  0.0000000  1.0460000  1
   4187   4186   4192   8428     1  0.0000000  0.0000000  3
   4187   4186   4192   4193     1  0.0000000  0.6508444  3
   4187   4186   4192   4194     1  0.0000000  0.6508444  3
   4188   4186   4192   8428     1  0.0000000  1.0460000  1
   4188   4186   4192   8428     1  0.0000000  0.0000000  3
   4188   4186   4192   4193     1  0.0000000  0.6508444  3
   4188   4186   4192   4194     1  0.0000000  0.6508444  3
   4192   8428   8419   8420     1  0.0000000  1.6038667  3
   4192   8428   8419   8421     1  0.0000000  1.6038667  3
   4193   4192   8428   8419     1  0.0000000  1.6038667  3
   4194   4192   8428   8419     1  0.0000000  1.6038667  3
   4195   8458   8449   8450     1  0.0000000  1.6038667  3
   4195   8458   8449   8451     1  0.0000000  1.6038667  3
   4196   4195   8458   8449     1  0.0000000  1.6038667  3
   4197   4195   8458   8449     1  0.0000000  1.6038667  3
   4200   4201   4213   4214     1  0.0000000  0.6508444  3
   4200   4201   4213   4215     1  0.0000000  0.6508444  3
   4200   4204   4216   4217     1  0.0000000  0.6508444  3
   4200   4204   4216   4218     1  0.0000000  0.6508444  3
   4200   4207   4210   4211     1  0.0000000  0.6508444  3
   4200   4207   4210   4212     1  0.0000000  0.6508444  3
   4201   4200   4204   4205     1  0.0000000  0.6508444  3
   4201   4200   4204   4206     1  0.0000000  0.6508444  3
   4201   4200   4207   4208     1  0.0000000  0.6508444  3
   4201   4200   4207   4209     1  0.0000000  0.6508444  3
   4201   4213   4225   4226     1  0.0000000  0.6508444  3
   4201   4213   4225   4227     1  0.0000000  0.6508444  3
   4202   4201   4200   4204     1  0.0000000  0.6508444  3
   4202   4201   4200   4207     1  0.0000000  0.6508444  3
   4202   4201   4200   4229     1  0.0000000  0.6508444  3
   4202   4201   4213   4225     1  0.0000000  0.6508444  3
   4202   4201   4213   4214     1  0.0000000  0.6508444  3
   4202   4201   4213   4215     1  0.0000000  0.6508444  3
   4203   4201   4200   4204     1  0.0000000  0.6508444  3
   4203   4201   4200   4207     1  0.0000000  0.6508444  3
   4203   4201   4200   4229     1  0.0000000  0.6508444  3
   4203   4201   4213   4225     1  0.0000000  0.6508444  3
   4203   4201   4213   4214     1  0.0000000  0.6508444  3
   4203   4201   4213   4215     1  0.0000000  0.6508444  3
   4204   4200   4207   4208     1  0.0000000  0.6508444  3
   4204   4200   4207   4209     1  0.0000000  0.6508444  3
   4204   4216   4222   4223     1  0.0000000  0.6508444  3
   4204   4216   4222   4224     1  0.0000000  0.6508444  3
   4205   4204   4200   4207     1  0.0000000  0.6508444  3
   4205   4204   4200   4229     1  0.0000000  0.6508444  3
   4205   4204   4216   4222     1  0.0000000  0.6508444  3
   4205   4204   4216   4217     1  0.0000000  0.6508444  3
   4205   4204   4216   4218     1  0.0000000  0.6508444  3
   4206   4204   4200   4207     1  0.0000000  0.6508444  3
   4206   4204   4200   4229     1  0.0000000  0.6508444  3
   4206   4204   4216   4222     1  0.0000000  0.6508444  3
   4206   4204   4216   4217     1  0.0000000  0.6508444  3
   4206   4204   4216   4218     1  0.0000000  0.6508444  3
   4207   4210   4219   4220     1  0.0000000  0.6508444  3
   4207   4210   4219   4221     1  0.0000000  0.6508444  3
   4208   4207   4200   4229     1  0.0000000  0.6508444  3
   4208   4207   4210   4219     1  0.0000000  0.6508444  3
   4208   4207   4210   4211     1  0.0000000  0.6508444  3
   4208   4207   4210   4212     1  0.0000000  0.6508444  3
   4209   4207   4200   4229     1  0.0000000  0.6508444  3
   4209   4207   4210   4219     1  0.0000000  0.6508444  3
   4209   4207   4210   4211     1  0.0000000  0.6508444  3
   4209   4207   4210   4212     1  0.0000000  0.6508444  3
   4210   4207   4200   4229     1  0.0000000  0.6508444  3
   4211   4210   4219   4228     1  0.0000000  1.0460000  1
   4211   4210   4219   4228     1  0.0000000  0.0000000  3
   4211   4210   4219   4220     1  0.0000000  0.6508444  3
   4211   4210   4219   4221     1  0.0000000  0.6508444  3
   4212   4210   4219   4228     1  0.0000000  1.0460000  1
   4212   4210   4219   4228     1  0.0000000  0.0000000  3
   4212   4210   4219   4220     1  0.0000000  0.6508444  3
   4212   4210   4219   4221     1  0.0000000  0.6508444  3
   4213   4201   4200   4229     1  0.0000000  0.6508444  3
   4214   4213   4225   8518     1  0.0000000  1.0460000  1
   4214   4213   4225   8518     1  0.0000000  0.0000000  3
   4214   4213   4225   4226     1  0.0000000  0.6508444  3
   4214   4213   4225   4227     1  0.0000000  0.6508444  3
   4215   4213   4225   8518     1  0.0000000  1.0460000  1
   4215   4213   4225   8518     1  0.0000000  0.0000000  3
   4215   4213   4225   4226     1  0.0000000  0.6508444  3
   4215   4213   4225   4227     1  0.0000000  0.6508444  3
   4216   4204   4200   4229     1  0.0000000  0.6508444  3
   4217   4216   4222   8488     1  0.0000000  1.0460000  1
   4217   4216   4222   8488     1  0.0000000  0.0000000  3
   4217   4216   4222   4223     1  0.0000000  0.6508444  3
   4217   4216   4222   4224     1  0.0000000  0.6508444  3
   4218   4216   4222   8488     1  0.0000000  1.0460000  1
   4218   4216   4222   8488     1  0.0000000  0.0000000  3
   4218   4216   4222   4223     1  0.0000000  0.6508444  3
   4218   4216   4222   4224     1  0.0000000  0.6508444  3
   4222   8488   8479   8480     1  0.0000000  1.6038667  3
   4222   8488   8479   8481     1  0.0000000  1.6038667  3
   4223   4222   8488   8479     1  0.0000000  1.6038667  3
   4224   4222   8488   8479     1  0.0000000  1.6038667  3
   4225   8518   8509   8510     1  0.0000000  1.6038667  3
   4225   8518   8509   8511     1  0.0000000  1.6038667  3
   4226   4225   8518   8509     1  0.0000000  1.6038667  3
   4227   4225   8518   8509     1  0.0000000  1.6038667  3
   4230   4231   4243   4244     1  0.0000000  0.6508444  3
   4230   4231   4243   4245     1  0.0000000  0.6508444  3
   4230   4234   4246   4247     1  0.0000000  0.6508444  3
   4230   4234   4246   4248     1  0.0000000  0.6508444  3
   4230   4237   4240   4241     1  0.0000000  0.6508444  3
   4230   4237   4240   4242     1  0.0000000  0.6508444  3
   4231   4230   4234   4235     1  0.0000000  0.6508444  3
   4231   4230   4234   4236     1  0.0000000  0.6508444  3
   4231   4230   4237   4238     1  0.0000000  0.6508444  3
   4231   4230   4237   4239     1  0.0000000  0.6508444  3
   4231   4243   4255   4256     1  0.0000000  0.6508444  3
   4231   4243   4255   4257     1  0.0000000  0.6508444  3
   4232   4231   4230   4234     1  0.0000000  0.6508444  3
   4232   4231   4230   4237     1  0.0000000  0.6508444  3
   4232   4231   4230   4259     1  0.0000000  0.6508444  3
   4232   4231   4243   4255     1  0.0000000  0.6508444  3
   4232   4231   4243   4244     1  0.0000000  0.6508444  3
   4232   4231   4243   4245     1  0.0000000  0.6508444  3
   4233   4231   4230   4234     1  0.0000000  0.6508444  3
   4233   4231   4230   4237     1  0.0000000  0.6508444  3
   4233   4231   4230   4259     1  0.0000000  0.6508444  3
   4233   4231   4243   4255     1  0.0000000  0.6508444  3
   4233   4231   4243   4244     1  0.0000000  0.6508444  3
   4233   4231   4243   4245     1  0.0000000  0.6508444  3
   4234   4230   4237   4238     1  0.0000000  0.6508444  3
   4234   4230   4237   4239     1  0.0000000  0.6508444  3
   4234   4246   4252   4253     1  0.0000000  0.6508444  3
   4234   4246   4252   4254     1  0.0000000  0.6508444  3
   4235   4234   4230   4237     1  0.0000000  0.6508444  3
   4235   4234   4230   4259     1  0.0000000  0.6508444  3
   4235   4234   4246   4252     1  0.0000000  0.6508444  3
   4235   4234   4246   4247     1  0.0000000  0.6508444  3
   4235   4234   4246   4248     1  0.0000000  0.6508444  3
   4236   4234   4230   4237     1  0.0000000  0.6508444  3
   4236   4234   4230   4259     1  0.0000000  0.6508444  3
   4236   4234   4246   4252     1  0.0000000  0.6508444  3
   4236   4234   4246   4247     1  0.0000000  0.6508444  3
   4236   4234   4246   4248     1  0.0000000  0.6508444  3
   4237   4240   4249   4250     1  0.0000000  0.6508444  3
   4237   4240   4249   4251     1  0.0000000  0.6508444  3
   4238   4237   4230   4259     1  0.0000000  0.6508444  3
   4238   4237   4240   4249     1  0.0000000  0.6508444  3
   4238   4237   4240   4241     1  0.0000000  0.6508444  3
   4238   4237   4240   4242     1  0.0000000  0.6508444  3
   4239   4237   4230   4259     1  0.0000000  0.6508444  3
   4239   4237   4240   4249     1  0.0000000  0.6508444  3
   4239   4237   4240   4241     1  0.0000000  0.6508444  3
   4239   4237   4240   4242     1  0.0000000  0.6508444  3
   4240   4237   4230   4259     1  0.0000000  0.6508444  3
   4241   4240   4249   4258     1  0.0000000  1.0460000  1
   4241   4240   4249   4258     1  0.0000000  0.0000000  3
   4241   4240   4249   4250     1  0.0000000  0.6508444  3
   4241   4240   4249   4251     1  0.0000000  0.6508444  3
   4242   4240   4249   4258     1  0.0000000  1.0460000  1
   4242   4240   4249   4258     1  0.0000000  0.0000000  3
   4242   4240   4249   4250     1  0.0000000  0.6508444  3
   4242   4240   4249   4251     1  0.0000000  0.6508444  3
   4243   4231   4230   4259     1  0.0000000  0.6508444  3
   4244   4243   4255   8578     1  0.0000000  1.0460000  1
   4244   4243   4255   8578     1  0.0000000  0.0000000  3
   4244   4243   4255   4256     1  0.0000000  0.6508444  3
   4244   4243   4255   4257     1  0.0000000  0.6508444  3
   4245   4243   4255   8578     1  0.0000000  1.0460000  1
   4245   4243   4255   8578     1  0.0000000  0.0000000  3
   4245   4243   4255   4256     1  0.0000000  0.6508444  3
   4245   4243   4255   4257     1  0.0000000  0.6508444  3
   4246   4234   4230   4259     1  0.0000000  0.6508444  3
   4247   4246   4252   8548     1  0.0000000  1.0460000  1
   4247   4246   4252   8548     1  0.0000000  0.0000000  3
   4247   4246   4252   4253     1  0.0000000  0.6508444  3
   4247   4246   4252   4254     1  0.0000000  0.6508444  3
   4248   4246   4252   8548     1  0.0000000  1.0460000  1
   4248   4246   4252   8548     1  0.0000000  0.0000000  3
   4248   4246   4252   4253     1  0.0000000  0.6508444  3
   4248   4246   4252   4254     1  0.0000000  0.6508444  3
   4252   8548   8539   8540     1  0.0000000  1.6038667  3
   4252   8548   8539   8541     1  0.0000000  1.6038667  3
   4253   4252   8548   8539     1  0.0000000  1.6038667  3
   4254   4252   8548   8539     1  0.0000000  1.6038667  3
   4255   8578   8569   8570     1  0.0000000  1.6038667  3
   4255   8578   8569   8571     1  0.0000000  1.6038667  3
   4256   4255   8578   8569     1  0.0000000  1.6038667  3
   4257   4255   8578   8569     1  0.0000000  1.6038667  3
   4260   4261   4273   4274     1  0.0000000  0.6508444  3
   4260   4261   4273   4275     1  0.0000000  0.6508444  3
   4260   4264   4276   4277     1  0.0000000  0.6508444  3
   4260   4264   4276   4278     1  0.0000000  0.6508444  3
   4260   4267   4270   4271     1  0.0000000  0.6508444  3
   4260   4267   4270   4272     1  0.0000000  0.6508444  3
   4261   4260   4264   4265     1  0.0000000  0.6508444  3
   4261   4260   4264   4266     1  0.0000000  0.6508444  3
   4261   4260   4267   4268     1  0.0000000  0.6508444  3
   4261   4260   4267   4269     1  0.0000000  0.6508444  3
   4261   4273   4285   4286     1  0.0000000  0.6508444  3
   4261   4273   4285   4287     1  0.0000000  0.6508444  3
   4262   4261   4260   4264     1  0.0000000  0.6508444  3
   4262   4261   4260   4267     1  0.0000000  0.6508444  3
   4262   4261   4260   4289     1  0.0000000  0.6508444  3
   4262   4261   4273   4285     1  0.0000000  0.6508444  3
   4262   4261   4273   4274     1  0.0000000  0.6508444  3
   4262   4261   4273   4275     1  0.0000000  0.6508444  3
   4263   4261   4260   4264     1  0.0000000  0.6508444  3
   4263   4261   4260   4267     1  0.0000000  0.6508444  3
   4263   4261   4260   4289     1  0.0000000  0.6508444  3
   4263   4261   4273   4285     1  0.0000000  0.6508444  3
   4263   4261   4273   4274     1  0.0000000  0.6508444  3
   4263   4261   4273   4275     1  0.0000000  0.6508444  3
   4264   4260   4267   4268     1  0.0000000  0.6508444  3
   4264   4260   4267   4269     1  0.0000000  0.6508444  3
   4264   4276   4282   4283     1  0.0000000  0.6508444  3
   4264   4276   4282   4284     1  0.0000000  0.6508444  3
   4265   4264   4260   4267     1  0.0000000  0.6508444  3
   4265   4264   4260   4289     1  0.0000000  0.6508444  3
   4265   4264   4276   4282     1  0.0000000  0.6508444  3
   4265   4264   4276   4277     1  0.0000000  0.6508444  3
   4265   4264   4276   4278     1  0.0000000  0.6508444  3
   4266   4264   4260   4267     1  0.0000000  0.6508444  3
   4266   4264   4260   4289     1  0.0000000  0.6508444  3
   4266   4264   4276   4282     1  0.0000000  0.6508444  3
   4266   4264   4276   4277     1  0.0000000  0.6508444  3
   4266   4264   4276   4278     1  0.0000000  0.6508444  3
   4267   4270   4279   4280     1  0.0000000  0.6508444  3
   4267   4270   4279   4281     1  0.0000000  0.6508444  3
   4268   4267   4260   4289     1  0.0000000  0.6508444  3
   4268   4267   4270   4279     1  0.0000000  0.6508444  3
   4268   4267   4270   4271     1  0.0000000  0.6508444  3
   4268   4267   4270   4272     1  0.0000000  0.6508444  3
   4269   4267   4260   4289     1  0.0000000  0.6508444  3
   4269   4267   4270   4279     1  0.0000000  0.6508444  3
   4269   4267   4270   4271     1  0.0000000  0.6508444  3
   4269   4267   4270   4272     1  0.0000000  0.6508444  3
   4270   4267   4260   4289     1  0.0000000  0.6508444  3
   4271   4270   4279   4288     1  0.0000000  1.0460000  1
   4271   4270   4279   4288     1  0.0000000  0.0000000  3
   4271   4270   4279   4280     1  0.0000000  0.6508444  3
   4271   4270   4279   4281     1  0.0000000  0.6508444  3
   4272   4270   4279   4288     1  0.0000000  1.0460000  1
   4272   4270   4279   4288     1  0.0000000  0.0000000  3
   4272   4270   4279   4280     1  0.0000000  0.6508444  3
   4272   4270   4279   4281     1  0.0000000  0.6508444  3
   4273   4261   4260   4289     1  0.0000000  0.6508444  3
   4274   4273   4285   8638     1  0.0000000  1.0460000  1
   4274   4273   4285   8638     1  0.0000000  0.0000000  3
   4274   4273   4285   4286     1  0.0000000  0.6508444  3
   4274   4273   4285   4287     1  0.0000000  0.6508444  3
   4275   4273   4285   8638     1  0.0000000  1.0460000  1
   4275   4273   4285   8638     1  0.0000000  0.0000000  3
   4275   4273   4285   4286     1  0.0000000  0.6508444  3
   4275   4273   4285   4287     1  0.0000000  0.6508444  3
   4276   4264   4260   4289     1  0.0000000  0.6508444  3
   4277   4276   4282   8608     1  0.0000000  1.0460000  1
   4277   4276   4282   8608     1  0.0000000  0.0000000  3
   4277   4276   4282   4283     1  0.0000000  0.6508444  3
   4277   4276   4282   4284     1  0.0000000  0.6508444  3
   4278   4276   4282   8608     1  0.0000000  1.0460000  1
   4278   4276   4282   8608     1  0.0000000  0.0000000  3
   4278   4276   4282   4283     1  0.0000000  0.6508444  3
   4278   4276   4282   4284     1  0.0000000  0.6508444  3
   4282   8608   8599   8600     1  0.0000000  1.6038667  3
   4282   8608   8599   8601     1  0.0000000  1.6038667  3
   4283   4282   8608   8599     1  0.0000000  1.6038667  3
   4284   4282   8608   8599     1  0.0000000  1.6038667  3
   4285   8638   8629   8630     1  0.0000000  1.6038667  3
   4285   8638   8629   8631     1  0.0000000  1.6038667  3
   4286   4285   8638   8629     1  0.0000000  1.6038667  3
   4287   4285   8638   8629     1  0.0000000  1.6038667  3
   4290   4291   4303   4304     1  0.0000000  0.6508444  3
   4290   4291   4303   4305     1  0.0000000  0.6508444  3
   4290   4294   4306   4307     1  0.0000000  0.6508444  3
   4290   4294   4306   4308     1  0.0000000  0.6508444  3
   4290   4297   4300   4301     1  0.0000000  0.6508444  3
   4290   4297   4300   4302     1  0.0000000  0.6508444  3
   4291   4290   4294   4295     1  0.0000000  0.6508444  3
   4291   4290   4294   4296     1  0.0000000  0.6508444  3
   4291   4290   4297   4298     1  0.0000000  0.6508444  3
   4291   4290   4297   4299     1  0.0000000  0.6508444  3
   4291   4303   4315   4316     1  0.0000000  0.6508444  3
   4291   4303   4315   4317     1  0.0000000  0.6508444  3
   4292   4291   4290   4294     1  0.0000000  0.6508444  3
   4292   4291   4290   4297     1  0.0000000  0.6508444  3
   4292   4291   4290   4319     1  0.0000000  0.6508444  3
   4292   4291   4303   4315     1  0.0000000  0.6508444  3
   4292   4291   4303   4304     1  0.0000000  0.6508444  3
   4292   4291   4303   4305     1  0.0000000  0.6508444  3
   4293   4291   4290   4294     1  0.0000000  0.6508444  3
   4293   4291   4290   4297     1  0.0000000  0.6508444  3
   4293   4291   4290   4319     1  0.0000000  0.6508444  3
   4293   4291   4303   4315     1  0.0000000  0.6508444  3
   4293   4291   4303   4304     1  0.0000000  0.6508444  3
   4293   4291   4303   4305     1  0.0000000  0.6508444  3
   4294   4290   4297   4298     1  0.0000000  0.6508444  3
   4294   4290   4297   4299     1  0.0000000  0.6508444  3
   4294   4306   4312   4313     1  0.0000000  0.6508444  3
   4294   4306   4312   4314     1  0.0000000  0.6508444  3
   4295   4294   4290   4297     1  0.0000000  0.6508444  3
   4295   4294   4290   4319     1  0.0000000  0.6508444  3
   4295   4294   4306   4312     1  0.0000000  0.6508444  3
   4295   4294   4306   4307     1  0.0000000  0.6508444  3
   4295   4294   4306   4308     1  0.0000000  0.6508444  3
   4296   4294   4290   4297     1  0.0000000  0.6508444  3
   4296   4294   4290   4319     1  0.0000000  0.6508444  3
   4296   4294   4306   4312     1  0.0000000  0.6508444  3
   4296   4294   4306   4307     1  0.0000000  0.6508444  3
   4296   4294   4306   4308     1  0.0000000  0.6508444  3
   4297   4300   4309   4310     1  0.0000000  0.6508444  3
   4297   4300   4309   4311     1  0.0000000  0.6508444  3
   4298   4297   4290   4319     1  0.0000000  0.6508444  3
   4298   4297   4300   4309     1  0.0000000  0.6508444  3
   4298   4297   4300   4301     1  0.0000000  0.6508444  3
   4298   4297   4300   4302     1  0.0000000  0.6508444  3
   4299   4297   4290   4319     1  0.0000000  0.6508444  3
   4299   4297   4300   4309     1  0.0000000  0.6508444  3
   4299   4297   4300   4301     1  0.0000000  0.6508444  3
   4299   4297   4300   4302     1  0.0000000  0.6508444  3
   4300   4297   4290   4319     1  0.0000000  0.6508444  3
   4301   4300   4309   4318     1  0.0000000  1.0460000  1
   4301   4300   4309   4318     1  0.0000000  0.0000000  3
   4301   4300   4309   4310     1  0.0000000  0.6508444  3
   4301   4300   4309   4311     1  0.0000000  0.6508444  3
   4302   4300   4309   4318     1  0.0000000  1.0460000  1
   4302   4300   4309   4318     1  0.0000000  0.0000000  3
   4302   4300   4309   4310     1  0.0000000  0.6508444  3
   4302   4300   4309   4311     1  0.0000000  0.6508444  3
   4303   4291   4290   4319     1  0.0000000  0.6508444  3
   4304   4303   4315   8698     1  0.0000000  1.0460000  1
   4304   4303   4315   8698     1  0.0000000  0.0000000  3
   4304   4303   4315   4316     1  0.0000000  0.6508444  3
   4304   4303   4315   4317     1  0.0000000  0.6508444  3
   4305   4303   4315   8698     1  0.0000000  1.0460000  1
   4305   4303   4315   8698     1  0.0000000  0.0000000  3
   4305   4303   4315   4316     1  0.0000000  0.6508444  3
   4305   4303   4315   4317     1  0.0000000  0.6508444  3
   4306   4294   4290   4319     1  0.0000000  0.6508444  3
   4307   4306   4312   8668     1  0.0000000  1.0460000  1
   4307   4306   4312   8668     1  0.0000000  0.0000000  3
   4307   4306   4312   4313     1  0.0000000  0.6508444  3
   4307   4306   4312   4314     1  0.0000000  0.6508444  3
   4308   4306   4312   8668     1  0.0000000  1.0460000  1
   4308   4306   4312   8668     1  0.0000000  0.0000000  3
   4308   4306   4312   4313     1  0.0000000  0.6508444  3
   4308   4306   4312   4314     1  0.0000000  0.6508444  3
   4312   8668   8659   8660     1  0.0000000  1.6038667  3
   4312   8668   8659   8661     1  0.0000000  1.6038667  3
   4313   4312   8668   8659     1  0.0000000  1.6038667  3
   4314   4312   8668   8659     1  0.0000000  1.6038667  3
   4315   8698   8689   8690     1  0.0000000  1.6038667  3
   4315   8698   8689   8691     1  0.0000000  1.6038667  3
   4316   4315   8698   8689     1  0.0000000  1.6038667  3
   4317   4315   8698   8689     1  0.0000000  1.6038667  3
   4320   4321   4333   4334     1  0.0000000  0.6508444  3
   4320   4321   4333   4335     1  0.0000000  0.6508444  3
   4320   4324   4336   4337     1  0.0000000  0.6508444  3
   4320   4324   4336   4338     1  0.0000000  0.6508444  3
   4320   4327   4330   4331     1  0.0000000  0.6508444  3
   4320   4327   4330   4332     1  0.0000000  0.6508444  3
   4321   4320   4324   4325     1  0.0000000  0.6508444  3
   4321   4320   4324   4326     1  0.0000000  0.6508444  3
   4321   4320   4327   4328     1  0.0000000  0.6508444  3
   4321   4320   4327   4329     1  0.0000000  0.6508444  3
   4321   4333   4345   4346     1  0.0000000  0.6508444  3
   4321   4333   4345   4347     1  0.0000000  0.6508444  3
   4322   4321   4320   4324     1  0.0000000  0.6508444  3
   4322   4321   4320   4327     1  0.0000000  0.6508444  3
   4322   4321   4320   4349     1  0.0000000  0.6508444  3
   4322   4321   4333   4345     1  0.0000000  0.6508444  3
   4322   4321   4333   4334     1  0.0000000  0.6508444  3
   4322   4321   4333   4335     1  0.0000000  0.6508444  3
   4323   4321   4320   4324     1  0.0000000  0.6508444  3
   4323   4321   4320   4327     1  0.0000000  0.6508444  3
   4323   4321   4320   4349     1  0.0000000  0.6508444  3
   4323   4321   4333   4345     1  0.0000000  0.6508444  3
   4323   4321   4333   4334     1  0.0000000  0.6508444  3
   4323   4321   4333   4335     1  0.0000000  0.6508444  3
   4324   4320   4327   4328     1  0.0000000  0.6508444  3
   4324   4320   4327   4329     1  0.0000000  0.6508444  3
   4324   4336   4342   4343     1  0.0000000  0.6508444  3
   4324   4336   4342   4344     1  0.0000000  0.6508444  3
   4325   4324   4320   4327     1  0.0000000  0.6508444  3
   4325   4324   4320   4349     1  0.0000000  0.6508444  3
   4325   4324   4336   4342     1  0.0000000  0.6508444  3
   4325   4324   4336   4337     1  0.0000000  0.6508444  3
   4325   4324   4336   4338     1  0.0000000  0.6508444  3
   4326   4324   4320   4327     1  0.0000000  0.6508444  3
   4326   4324   4320   4349     1  0.0000000  0.6508444  3
   4326   4324   4336   4342     1  0.0000000  0.6508444  3
   4326   4324   4336   4337     1  0.0000000  0.6508444  3
   4326   4324   4336   4338     1  0.0000000  0.6508444  3
   4327   4330   4339   4340     1  0.0000000  0.6508444  3
   4327   4330   4339   4341     1  0.0000000  0.6508444  3
   4328   4327   4320   4349     1  0.0000000  0.6508444  3
   4328   4327   4330   4339     1  0.0000000  0.6508444  3
   4328   4327   4330   4331     1  0.0000000  0.6508444  3
   4328   4327   4330   4332     1  0.0000000  0.6508444  3
   4329   4327   4320   4349     1  0.0000000  0.6508444  3
   4329   4327   4330   4339     1  0.0000000  0.6508444  3
   4329   4327   4330   4331     1  0.0000000  0.6508444  3
   4329   4327   4330   4332     1  0.0000000  0.6508444  3
   4330   4327   4320   4349     1  0.0000000  0.6508444  3
   4331   4330   4339   4348     1  0.0000000  1.0460000  1
   4331   4330   4339   4348     1  0.0000000  0.0000000  3
   4331   4330   4339   4340     1  0.0000000  0.6508444  3
   4331   4330   4339   4341     1  0.0000000  0.6508444  3
   4332   4330   4339   4348     1  0.0000000  1.0460000  1
   4332   4330   4339   4348     1  0.0000000  0.0000000  3
   4332   4330   4339   4340     1  0.0000000  0.6508444  3
   4332   4330   4339   4341     1  0.0000000  0.6508444  3
   4333   4321   4320   4349     1  0.0000000  0.6508444  3
   4334   4333   4345   8758     1  0.0000000  1.0460000  1
   4334   4333   4345   8758     1  0.0000000  0.0000000  3
   4334   4333   4345   4346     1  0.0000000  0.6508444  3
   4334   4333   4345   4347     1  0.0000000  0.6508444  3
   4335   4333   4345   8758     1  0.0000000  1.0460000  1
   4335   4333   4345   8758     1  0.0000000  0.0000000  3
   4335   4333   4345   4346     1  0.0000000  0.6508444  3
   4335   4333   4345   4347     1  0.0000000  0.6508444  3
   4336   4324   4320   4349     1  0.0000000  0.6508444  3
   4337   4336   4342   8728     1  0.0000000  1.0460000  1
   4337   4336   4342   8728     1  0.0000000  0.0000000  3
   4337   4336   4342   4343     1  0.0000000  0.6508444  3
   4337   4336   4342   4344     1  0.0000000  0.6508444  3
   4338   4336   4342   8728     1  0.0000000  1.0460000  1
   4338   4336   4342   8728     1  0.0000000  0.0000000  3
   4338   4336   4342   4343     1  0.0000000  0.6508444  3
   4338   4336   4342   4344     1  0.0000000  0.6508444  3
   4342   8728   8719   8720     1  0.0000000  1.6038667  3
   4342   8728   8719   8721     1  0.0000000  1.6038667  3
   4343   4342   8728   8719     1  0.0000000  1.6038667  3
   4344   4342   8728   8719     1  0.0000000  1.6038667  3
   4345   8758   8749   8750     1  0.0000000  1.6038667  3
   4345   8758   8749   8751     1  0.0000000  1.6038667  3
   4346   4345   8758   8749     1  0.0000000  1.6038667  3
   4347   4345   8758   8749     1  0.0000000  1.6038667  3
   4350   4351   4363   4364     1  0.0000000  0.6508444  3
   4350   4351   4363   4365     1  0.0000000  0.6508444  3
   4350   4354   4366   4367     1  0.0000000  0.6508444  3
   4350   4354   4366   4368     1  0.0000000  0.6508444  3
   4350   4357   4360   4361     1  0.0000000  0.6508444  3
   4350   4357   4360   4362     1  0.0000000  0.6508444  3
   4351   4350   4354   4355     1  0.0000000  0.6508444  3
   4351   4350   4354   4356     1  0.0000000  0.6508444  3
   4351   4350   4357   4358     1  0.0000000  0.6508444  3
   4351   4350   4357   4359     1  0.0000000  0.6508444  3
   4351   4363   4375   4376     1  0.0000000  0.6508444  3
   4351   4363   4375   4377     1  0.0000000  0.6508444  3
   4352   4351   4350   4354     1  0.0000000  0.6508444  3
   4352   4351   4350   4357     1  0.0000000  0.6508444  3
   4352   4351   4350   4379     1  0.0000000  0.6508444  3
   4352   4351   4363   4375     1  0.0000000  0.6508444  3
   4352   4351   4363   4364     1  0.0000000  0.6508444  3
   4352   4351   4363   4365     1  0.0000000  0.6508444  3
   4353   4351   4350   4354     1  0.0000000  0.6508444  3
   4353   4351   4350   4357     1  0.0000000  0.6508444  3
   4353   4351   4350   4379     1  0.0000000  0.6508444  3
   4353   4351   4363   4375     1  0.0000000  0.6508444  3
   4353   4351   4363   4364     1  0.0000000  0.6508444  3
   4353   4351   4363   4365     1  0.0000000  0.6508444  3
   4354   4350   4357   4358     1  0.0000000  0.6508444  3
   4354   4350   4357   4359     1  0.0000000  0.6508444  3
   4354   4366   4372   4373     1  0.0000000  0.6508444  3
   4354   4366   4372   4374     1  0.0000000  0.6508444  3
   4355   4354   4350   4357     1  0.0000000  0.6508444  3
   4355   4354   4350   4379     1  0.0000000  0.6508444  3
   4355   4354   4366   4372     1  0.0000000  0.6508444  3
   4355   4354   4366   4367     1  0.0000000  0.6508444  3
   4355   4354   4366   4368     1  0.0000000  0.6508444  3
   4356   4354   4350   4357     1  0.0000000  0.6508444  3
   4356   4354   4350   4379     1  0.0000000  0.6508444  3
   4356   4354   4366   4372     1  0.0000000  0.6508444  3
   4356   4354   4366   4367     1  0.0000000  0.6508444  3
   4356   4354   4366   4368     1  0.0000000  0.6508444  3
   4357   4360   4369   4370     1  0.0000000  0.6508444  3
   4357   4360   4369   4371     1  0.0000000  0.6508444  3
   4358   4357   4350   4379     1  0.0000000  0.6508444  3
   4358   4357   4360   4369     1  0.0000000  0.6508444  3
   4358   4357   4360   4361     1  0.0000000  0.6508444  3
   4358   4357   4360   4362     1  0.0000000  0.6508444  3
   4359   4357   4350   4379     1  0.0000000  0.6508444  3
   4359   4357   4360   4369     1  0.0000000  0.6508444  3
   4359   4357   4360   4361     1  0.0000000  0.6508444  3
   4359   4357   4360   4362     1  0.0000000  0.6508444  3
   4360   4357   4350   4379     1  0.0000000  0.6508444  3
   4361   4360   4369   4378     1  0.0000000  1.0460000  1
   4361   4360   4369   4378     1  0.0000000  0.0000000  3
   4361   4360   4369   4370     1  0.0000000  0.6508444  3
   4361   4360   4369   4371     1  0.0000000  0.6508444  3
   4362   4360   4369   4378     1  0.0000000  1.0460000  1
   4362   4360   4369   4378     1  0.0000000  0.0000000  3
   4362   4360   4369   4370     1  0.0000000  0.6508444  3
   4362   4360   4369   4371     1  0.0000000  0.6508444  3
   4363   4351   4350   4379     1  0.0000000  0.6508444  3
   4364   4363   4375   8818     1  0.0000000  1.0460000  1
   4364   4363   4375   8818     1  0.0000000  0.0000000  3
   4364   4363   4375   4376     1  0.0000000  0.6508444  3
   4364   4363   4375   4377     1  0.0000000  0.6508444  3
   4365   4363   4375   8818     1  0.0000000  1.0460000  1
   4365   4363   4375   8818     1  0.0000000  0.0000000  3
   4365   4363   4375   4376     1  0.0000000  0.6508444  3
   4365   4363   4375   4377     1  0.0000000  0.6508444  3
   4366   4354   4350   4379     1  0.0000000  0.6508444  3
   4367   4366   4372   8788     1  0.0000000  1.0460000  1
   4367   4366   4372   8788     1  0.0000000  0.0000000  3
   4367   4366   4372   4373     1  0.0000000  0.6508444  3
   4367   4366   4372   4374     1  0.0000000  0.6508444  3
   4368   4366   4372   8788     1  0.0000000  1.0460000  1
   4368   4366   4372   8788     1  0.0000000  0.0000000  3
   4368   4366   4372   4373     1  0.0000000  0.6508444  3
   4368   4366   4372   4374     1  0.0000000  0.6508444  3
   4372   8788   8779   8780     1  0.0000000  1.6038667  3
   4372   8788   8779   8781     1  0.0000000  1.6038667  3
   4373   4372   8788   8779     1  0.0000000  1.6038667  3
   4374   4372   8788   8779     1  0.0000000  1.6038667  3
   4375   8818   8809   8810     1  0.0000000  1.6038667  3
   4375   8818   8809   8811     1  0.0000000  1.6038667  3
   4376   4375   8818   8809     1  0.0000000  1.6038667  3
   4377   4375   8818   8809     1  0.0000000  1.6038667  3
   4380   4381   4393   4394     1  0.0000000  0.6508444  3
   4380   4381   4393   4395     1  0.0000000  0.6508444  3
   4380   4384   4396   4397     1  0.0000000  0.6508444  3
   4380   4384   4396   4398     1  0.0000000  0.6508444  3
   4380   4387   4390   4391     1  0.0000000  0.6508444  3
   4380   4387   4390   4392     1  0.0000000  0.6508444  3
   4381   4380   4384   4385     1  0.0000000  0.6508444  3
   4381   4380   4384   4386     1  0.0000000  0.6508444  3
   4381   4380   4387   4388     1  0.0000000  0.6508444  3
   4381   4380   4387   4389     1  0.0000000  0.6508444  3
   4381   4393   4405   4406     1  0.0000000  0.6508444  3
   4381   4393   4405   4407     1  0.0000000  0.6508444  3
   4382   4381   4380   4384     1  0.0000000  0.6508444  3
   4382   4381   4380   4387     1  0.0000000  0.6508444  3
   4382   4381   4380   4409     1  0.0000000  0.6508444  3
   4382   4381   4393   4405     1  0.0000000  0.6508444  3
   4382   4381   4393   4394     1  0.0000000  0.6508444  3
   4382   4381   4393   4395     1  0.0000000  0.6508444  3
   4383   4381   4380   4384     1  0.0000000  0.6508444  3
   4383   4381   4380   4387     1  0.0000000  0.6508444  3
   4383   4381   4380   4409     1  0.0000000  0.6508444  3
   4383   4381   4393   4405     1  0.0000000  0.6508444  3
   4383   4381   4393   4394     1  0.0000000  0.6508444  3
   4383   4381   4393   4395     1  0.0000000  0.6508444  3
   4384   4380   4387   4388     1  0.0000000  0.6508444  3
   4384   4380   4387   4389     1  0.0000000  0.6508444  3
   4384   4396   4402   4403     1  0.0000000  0.6508444  3
   4384   4396   4402   4404     1  0.0000000  0.6508444  3
   4385   4384   4380   4387     1  0.0000000  0.6508444  3
   4385   4384   4380   4409     1  0.0000000  0.6508444  3
   4385   4384   4396   4402     1  0.0000000  0.6508444  3
   4385   4384   4396   4397     1  0.0000000  0.6508444  3
   4385   4384   4396   4398     1  0.0000000  0.6508444  3
   4386   4384   4380   4387     1  0.0000000  0.6508444  3
   4386   4384   4380   4409     1  0.0000000  0.6508444  3
   4386   4384   4396   4402     1  0.0000000  0.6508444  3
   4386   4384   4396   4397     1  0.0000000  0.6508444  3
   4386   4384   4396   4398     1  0.0000000  0.6508444  3
   4387   4390   4399   4400     1  0.0000000  0.6508444  3
   4387   4390   4399   4401     1  0.0000000  0.6508444  3
   4388   4387   4380   4409     1  0.0000000  0.6508444  3
   4388   4387   4390   4399     1  0.0000000  0.6508444  3
   4388   4387   4390   4391     1  0.0000000  0.6508444  3
   4388   4387   4390   4392     1  0.0000000  0.6508444  3
   4389   4387   4380   4409     1  0.0000000  0.6508444  3
   4389   4387   4390   4399     1  0.0000000  0.6508444  3
   4389   4387   4390   4391     1  0.0000000  0.6508444  3
   4389   4387   4390   4392     1  0.0000000  0.6508444  3
   4390   4387   4380   4409     1  0.0000000  0.6508444  3
   4391   4390   4399   4408     1  0.0000000  1.0460000  1
   4391   4390   4399   4408     1  0.0000000  0.0000000  3
   4391   4390   4399   4400     1  0.0000000  0.6508444  3
   4391   4390   4399   4401     1  0.0000000  0.6508444  3
   4392   4390   4399   4408     1  0.0000000  1.0460000  1
   4392   4390   4399   4408     1  0.0000000  0.0000000  3
   4392   4390   4399   4400     1  0.0000000  0.6508444  3
   4392   4390   4399   4401     1  0.0000000  0.6508444  3
   4393   4381   4380   4409     1  0.0000000  0.6508444  3
   4394   4393   4405   8878     1  0.0000000  1.0460000  1
   4394   4393   4405   8878     1  0.0000000  0.0000000  3
   4394   4393   4405   4406     1  0.0000000  0.6508444  3
   4394   4393   4405   4407     1  0.0000000  0.6508444  3
   4395   4393   4405   8878     1  0.0000000  1.0460000  1
   4395   4393   4405   8878     1  0.0000000  0.0000000  3
   4395   4393   4405   4406     1  0.0000000  0.6508444  3
   4395   4393   4405   4407     1  0.0000000  0.6508444  3
   4396   4384   4380   4409     1  0.0000000  0.6508444  3
   4397   4396   4402   8848     1  0.0000000  1.0460000  1
   4397   4396   4402   8848     1  0.0000000  0.0000000  3
   4397   4396   4402   4403     1  0.0000000  0.6508444  3
   4397   4396   4402   4404     1  0.0000000  0.6508444  3
   4398   4396   4402   8848     1  0.0000000  1.0460000  1
   4398   4396   4402   8848     1  0.0000000  0.0000000  3
   4398   4396   4402   4403     1  0.0000000  0.6508444  3
   4398   4396   4402   4404     1  0.0000000  0.6508444  3
   4402   8848   8839   8840     1  0.0000000  1.6038667  3
   4402   8848   8839   8841     1  0.0000000  1.6038667  3
   4403   4402   8848   8839     1  0.0000000  1.6038667  3
   4404   4402   8848   8839     1  0.0000000  1.6038667  3
   4405   8878   8869   8870     1  0.0000000  1.6038667  3
   4405   8878   8869   8871     1  0.0000000  1.6038667  3
   4406   4405   8878   8869     1  0.0000000  1.6038667  3
   4407   4405   8878   8869     1  0.0000000  1.6038667  3
   4410   4411   4423   4424     1  0.0000000  0.6508444  3
   4410   4411   4423   4425     1  0.0000000  0.6508444  3
   4410   4414   4426   4427     1  0.0000000  0.6508444  3
   4410   4414   4426   4428     1  0.0000000  0.6508444  3
   4410   4417   4420   4421     1  0.0000000  0.6508444  3
   4410   4417   4420   4422     1  0.0000000  0.6508444  3
   4411   4410   4414   4415     1  0.0000000  0.6508444  3
   4411   4410   4414   4416     1  0.0000000  0.6508444  3
   4411   4410   4417   4418     1  0.0000000  0.6508444  3
   4411   4410   4417   4419     1  0.0000000  0.6508444  3
   4411   4423   4435   4436     1  0.0000000  0.6508444  3
   4411   4423   4435   4437     1  0.0000000  0.6508444  3
   4412   4411   4410   4414     1  0.0000000  0.6508444  3
   4412   4411   4410   4417     1  0.0000000  0.6508444  3
   4412   4411   4410   4439     1  0.0000000  0.6508444  3
   4412   4411   4423   4435     1  0.0000000  0.6508444  3
   4412   4411   4423   4424     1  0.0000000  0.6508444  3
   4412   4411   4423   4425     1  0.0000000  0.6508444  3
   4413   4411   4410   4414     1  0.0000000  0.6508444  3
   4413   4411   4410   4417     1  0.0000000  0.6508444  3
   4413   4411   4410   4439     1  0.0000000  0.6508444  3
   4413   4411   4423   4435     1  0.0000000  0.6508444  3
   4413   4411   4423   4424     1  0.0000000  0.6508444  3
   4413   4411   4423   4425     1  0.0000000  0.6508444  3
   4414   4410   4417   4418     1  0.0000000  0.6508444  3
   4414   4410   4417   4419     1  0.0000000  0.6508444  3
   4414   4426   4432   4433     1  0.0000000  0.6508444  3
   4414   4426   4432   4434     1  0.0000000  0.6508444  3
   4415   4414   4410   4417     1  0.0000000  0.6508444  3
   4415   4414   4410   4439     1  0.0000000  0.6508444  3
   4415   4414   4426   4432     1  0.0000000  0.6508444  3
   4415   4414   4426   4427     1  0.0000000  0.6508444  3
   4415   4414   4426   4428     1  0.0000000  0.6508444  3
   4416   4414   4410   4417     1  0.0000000  0.6508444  3
   4416   4414   4410   4439     1  0.0000000  0.6508444  3
   4416   4414   4426   4432     1  0.0000000  0.6508444  3
   4416   4414   4426   4427     1  0.0000000  0.6508444  3
   4416   4414   4426   4428     1  0.0000000  0.6508444  3
   4417   4420   4429   4430     1  0.0000000  0.6508444  3
   4417   4420   4429   4431     1  0.0000000  0.6508444  3
   4418   4417   4410   4439     1  0.0000000  0.6508444  3
   4418   4417   4420   4429     1  0.0000000  0.6508444  3
   4418   4417   4420   4421     1  0.0000000  0.6508444  3
   4418   4417   4420   4422     1  0.0000000  0.6508444  3
   4419   4417   4410   4439     1  0.0000000  0.6508444  3
   4419   4417   4420   4429     1  0.0000000  0.6508444  3
   4419   4417   4420   4421     1  0.0000000  0.6508444  3
   4419   4417   4420   4422     1  0.0000000  0.6508444  3
   4420   4417   4410   4439     1  0.0000000  0.6508444  3
   4421   4420   4429   4438     1  0.0000000  1.0460000  1
   4421   4420   4429   4438     1  0.0000000  0.0000000  3
   4421   4420   4429   4430     1  0.0000000  0.6508444  3
   4421   4420   4429   4431     1  0.0000000  0.6508444  3
   4422   4420   4429   4438     1  0.0000000  1.0460000  1
   4422   4420   4429   4438     1  0.0000000  0.0000000  3
   4422   4420   4429   4430     1  0.0000000  0.6508444  3
   4422   4420   4429   4431     1  0.0000000  0.6508444  3
   4423   4411   4410   4439     1  0.0000000  0.6508444  3
   4424   4423   4435   8938     1  0.0000000  1.0460000  1
   4424   4423   4435   8938     1  0.0000000  0.0000000  3
   4424   4423   4435   4436     1  0.0000000  0.6508444  3
   4424   4423   4435   4437     1  0.0000000  0.6508444  3
   4425   4423   4435   8938     1  0.0000000  1.0460000  1
   4425   4423   4435   8938     1  0.0000000  0.0000000  3
   4425   4423   4435   4436     1  0.0000000  0.6508444  3
   4425   4423   4435   4437     1  0.0000000  0.6508444  3
   4426   4414   4410   4439     1  0.0000000  0.6508444  3
   4427   4426   4432   8908     1  0.0000000  1.0460000  1
   4427   4426   4432   8908     1  0.0000000  0.0000000  3
   4427   4426   4432   4433     1  0.0000000  0.6508444  3
   4427   4426   4432   4434     1  0.0000000  0.6508444  3
   4428   4426   4432   8908     1  0.0000000  1.0460000  1
   4428   4426   4432   8908     1  0.0000000  0.0000000  3
   4428   4426   4432   4433     1  0.0000000  0.6508444  3
   4428   4426   4432   4434     1  0.0000000  0.6508444  3
   4432   8908   8899   8900     1  0.0000000  1.6038667  3
   4432   8908   8899   8901     1  0.0000000  1.6038667  3
   4433   4432   8908   8899     1  0.0000000  1.6038667  3
   4434   4432   8908   8899     1  0.0000000  1.6038667  3
   4435   8938   8929   8930     1  0.0000000  1.6038667  3
   4435   8938   8929   8931     1  0.0000000  1.6038667  3
   4436   4435   8938   8929     1  0.0000000  1.6038667  3
   4437   4435   8938   8929     1  0.0000000  1.6038667  3
   4440   4441   4453   4454     1  0.0000000  0.6508444  3
   4440   4441   4453   4455     1  0.0000000  0.6508444  3
   4440   4444   4456   4457     1  0.0000000  0.6508444  3
   4440   4444   4456   4458     1  0.0000000  0.6508444  3
   4440   4447   4450   4451     1  0.0000000  0.6508444  3
   4440   4447   4450   4452     1  0.0000000  0.6508444  3
   4441   4440   4444   4445     1  0.0000000  0.6508444  3
   4441   4440   4444   4446     1  0.0000000  0.6508444  3
   4441   4440   4447   4448     1  0.0000000  0.6508444  3
   4441   4440   4447   4449     1  0.0000000  0.6508444  3
   4441   4453   4465   4466     1  0.0000000  0.6508444  3
   4441   4453   4465   4467     1  0.0000000  0.6508444  3
   4442   4441   4440   4444     1  0.0000000  0.6508444  3
   4442   4441   4440   4447     1  0.0000000  0.6508444  3
   4442   4441   4440   4469     1  0.0000000  0.6508444  3
   4442   4441   4453   4465     1  0.0000000  0.6508444  3
   4442   4441   4453   4454     1  0.0000000  0.6508444  3
   4442   4441   4453   4455     1  0.0000000  0.6508444  3
   4443   4441   4440   4444     1  0.0000000  0.6508444  3
   4443   4441   4440   4447     1  0.0000000  0.6508444  3
   4443   4441   4440   4469     1  0.0000000  0.6508444  3
   4443   4441   4453   4465     1  0.0000000  0.6508444  3
   4443   4441   4453   4454     1  0.0000000  0.6508444  3
   4443   4441   4453   4455     1  0.0000000  0.6508444  3
   4444   4440   4447   4448     1  0.0000000  0.6508444  3
   4444   4440   4447   4449     1  0.0000000  0.6508444  3
   4444   4456   4462   4463     1  0.0000000  0.6508444  3
   4444   4456   4462   4464     1  0.0000000  0.6508444  3
   4445   4444   4440   4447     1  0.0000000  0.6508444  3
   4445   4444   4440   4469     1  0.0000000  0.6508444  3
   4445   4444   4456   4462     1  0.0000000  0.6508444  3
   4445   4444   4456   4457     1  0.0000000  0.6508444  3
   4445   4444   4456   4458     1  0.0000000  0.6508444  3
   4446   4444   4440   4447     1  0.0000000  0.6508444  3
   4446   4444   4440   4469     1  0.0000000  0.6508444  3
   4446   4444   4456   4462     1  0.0000000  0.6508444  3
   4446   4444   4456   4457     1  0.0000000  0.6508444  3
   4446   4444   4456   4458     1  0.0000000  0.6508444  3
   4447   4450   4459   4460     1  0.0000000  0.6508444  3
   4447   4450   4459   4461     1  0.0000000  0.6508444  3
   4448   4447   4440   4469     1  0.0000000  0.6508444  3
   4448   4447   4450   4459     1  0.0000000  0.6508444  3
   4448   4447   4450   4451     1  0.0000000  0.6508444  3
   4448   4447   4450   4452     1  0.0000000  0.6508444  3
   4449   4447   4440   4469     1  0.0000000  0.6508444  3
   4449   4447   4450   4459     1  0.0000000  0.6508444  3
   4449   4447   4450   4451     1  0.0000000  0.6508444  3
   4449   4447   4450   4452     1  0.0000000  0.6508444  3
   4450   4447   4440   4469     1  0.0000000  0.6508444  3
   4451   4450   4459   4468     1  0.0000000  1.0460000  1
   4451   4450   4459   4468     1  0.0000000  0.0000000  3
   4451   4450   4459   4460     1  0.0000000  0.6508444  3
   4451   4450   4459   4461     1  0.0000000  0.6508444  3
   4452   4450   4459   4468     1  0.0000000  1.0460000  1
   4452   4450   4459   4468     1  0.0000000  0.0000000  3
   4452   4450   4459   4460     1  0.0000000  0.6508444  3
   4452   4450   4459   4461     1  0.0000000  0.6508444  3
   4453   4441   4440   4469     1  0.0000000  0.6508444  3
   4454   4453   4465   8998     1  0.0000000  1.0460000  1
   4454   4453   4465   8998     1  0.0000000  0.0000000  3
   4454   4453   4465   4466     1  0.0000000  0.6508444  3
   4454   4453   4465   4467     1  0.0000000  0.6508444  3
   4455   4453   4465   8998     1  0.0000000  1.0460000  1
   4455   4453   4465   8998     1  0.0000000  0.0000000  3
   4455   4453   4465   4466     1  0.0000000  0.6508444  3
   4455   4453   4465   4467     1  0.0000000  0.6508444  3
   4456   4444   4440   4469     1  0.0000000  0.6508444  3
   4457   4456   4462   8968     1  0.0000000  1.0460000  1
   4457   4456   4462   8968     1  0.0000000  0.0000000  3
   4457   4456   4462   4463     1  0.0000000  0.6508444  3
   4457   4456   4462   4464     1  0.0000000  0.6508444  3
   4458   4456   4462   8968     1  0.0000000  1.0460000  1
   4458   4456   4462   8968     1  0.0000000  0.0000000  3
   4458   4456   4462   4463     1  0.0000000  0.6508444  3
   4458   4456   4462   4464     1  0.0000000  0.6508444  3
   4462   8968   8959   8960     1  0.0000000  1.6038667  3
   4462   8968   8959   8961     1  0.0000000  1.6038667  3
   4463   4462   8968   8959     1  0.0000000  1.6038667  3
   4464   4462   8968   8959     1  0.0000000  1.6038667  3
   4465   8998   8989   8990     1  0.0000000  1.6038667  3
   4465   8998   8989   8991     1  0.0000000  1.6038667  3
   4466   4465   8998   8989     1  0.0000000  1.6038667  3
   4467   4465   8998   8989     1  0.0000000  1.6038667  3
   4470   4471   4483   4484     1  0.0000000  0.6508444  3
   4470   4471   4483   4485     1  0.0000000  0.6508444  3
   4470   4474   4486   4487     1  0.0000000  0.6508444  3
   4470   4474   4486   4488     1  0.0000000  0.6508444  3
   4470   4477   4480   4481     1  0.0000000  0.6508444  3
   4470   4477   4480   4482     1  0.0000000  0.6508444  3
   4471   4470   4474   4475     1  0.0000000  0.6508444  3
   4471   4470   4474   4476     1  0.0000000  0.6508444  3
   4471   4470   4477   4478     1  0.0000000  0.6508444  3
   4471   4470   4477   4479     1  0.0000000  0.6508444  3
   4471   4483   4495   4496     1  0.0000000  0.6508444  3
   4471   4483   4495   4497     1  0.0000000  0.6508444  3
   4472   4471   4470   4474     1  0.0000000  0.6508444  3
   4472   4471   4470   4477     1  0.0000000  0.6508444  3
   4472   4471   4470   4499     1  0.0000000  0.6508444  3
   4472   4471   4483   4495     1  0.0000000  0.6508444  3
   4472   4471   4483   4484     1  0.0000000  0.6508444  3
   4472   4471   4483   4485     1  0.0000000  0.6508444  3
   4473   4471   4470   4474     1  0.0000000  0.6508444  3
   4473   4471   4470   4477     1  0.0000000  0.6508444  3
   4473   4471   4470   4499     1  0.0000000  0.6508444  3
   4473   4471   4483   4495     1  0.0000000  0.6508444  3
   4473   4471   4483   4484     1  0.0000000  0.6508444  3
   4473   4471   4483   4485     1  0.0000000  0.6508444  3
   4474   4470   4477   4478     1  0.0000000  0.6508444  3
   4474   4470   4477   4479     1  0.0000000  0.6508444  3
   4474   4486   4492   4493     1  0.0000000  0.6508444  3
   4474   4486   4492   4494     1  0.0000000  0.6508444  3
   4475   4474   4470   4477     1  0.0000000  0.6508444  3
   4475   4474   4470   4499     1  0.0000000  0.6508444  3
   4475   4474   4486   4492     1  0.0000000  0.6508444  3
   4475   4474   4486   4487     1  0.0000000  0.6508444  3
   4475   4474   4486   4488     1  0.0000000  0.6508444  3
   4476   4474   4470   4477     1  0.0000000  0.6508444  3
   4476   4474   4470   4499     1  0.0000000  0.6508444  3
   4476   4474   4486   4492     1  0.0000000  0.6508444  3
   4476   4474   4486   4487     1  0.0000000  0.6508444  3
   4476   4474   4486   4488     1  0.0000000  0.6508444  3
   4477   4480   4489   4490     1  0.0000000  0.6508444  3
   4477   4480   4489   4491     1  0.0000000  0.6508444  3
   4478   4477   4470   4499     1  0.0000000  0.6508444  3
   4478   4477   4480   4489     1  0.0000000  0.6508444  3
   4478   4477   4480   4481     1  0.0000000  0.6508444  3
   4478   4477   4480   4482     1  0.0000000  0.6508444  3
   4479   4477   4470   4499     1  0.0000000  0.6508444  3
   4479   4477   4480   4489     1  0.0000000  0.6508444  3
   4479   4477   4480   4481     1  0.0000000  0.6508444  3
   4479   4477   4480   4482     1  0.0000000  0.6508444  3
   4480   4477   4470   4499     1  0.0000000  0.6508444  3
   4481   4480   4489   4498     1  0.0000000  1.0460000  1
   4481   4480   4489   4498     1  0.0000000  0.0000000  3
   4481   4480   4489   4490     1  0.0000000  0.6508444  3
   4481   4480   4489   4491     1  0.0000000  0.6508444  3
   4482   4480   4489   4498     1  0.0000000  1.0460000  1
   4482   4480   4489   4498     1  0.0000000  0.0000000  3
   4482   4480   4489   4490     1  0.0000000  0.6508444  3
   4482   4480   4489   4491     1  0.0000000  0.6508444  3
   4483   4471   4470   4499     1  0.0000000  0.6508444  3
   4484   4483   4495   9058     1  0.0000000  1.0460000  1
   4484   4483   4495   9058     1  0.0000000  0.0000000  3
   4484   4483   4495   4496     1  0.0000000  0.6508444  3
   4484   4483   4495   4497     1  0.0000000  0.6508444  3
   4485   4483   4495   9058     1  0.0000000  1.0460000  1
   4485   4483   4495   9058     1  0.0000000  0.0000000  3
   4485   4483   4495   4496     1  0.0000000  0.6508444  3
   4485   4483   4495   4497     1  0.0000000  0.6508444  3
   4486   4474   4470   4499     1  0.0000000  0.6508444  3
   4487   4486   4492   9028     1  0.0000000  1.0460000  1
   4487   4486   4492   9028     1  0.0000000  0.0000000  3
   4487   4486   4492   4493     1  0.0000000  0.6508444  3
   4487   4486   4492   4494     1  0.0000000  0.6508444  3
   4488   4486   4492   9028     1  0.0000000  1.0460000  1
   4488   4486   4492   9028     1  0.0000000  0.0000000  3
   4488   4486   4492   4493     1  0.0000000  0.6508444  3
   4488   4486   4492   4494     1  0.0000000  0.6508444  3
   4492   9028   9019   9020     1  0.0000000  1.6038667  3
   4492   9028   9019   9021     1  0.0000000  1.6038667  3
   4493   4492   9028   9019     1  0.0000000  1.6038667  3
   4494   4492   9028   9019     1  0.0000000  1.6038667  3
   4495   9058   9049   9050     1  0.0000000  1.6038667  3
   4495   9058   9049   9051     1  0.0000000  1.6038667  3
   4496   4495   9058   9049     1  0.0000000  1.6038667  3
   4497   4495   9058   9049     1  0.0000000  1.6038667  3
   4500   4501   4513   4514     1  0.0000000  0.6508444  3
   4500   4501   4513   4515     1  0.0000000  0.6508444  3
   4500   4504   4516   4517     1  0.0000000  0.6508444  3
   4500   4504   4516   4518     1  0.0000000  0.6508444  3
   4500   4507   4510   4511     1  0.0000000  0.6508444  3
   4500   4507   4510   4512     1  0.0000000  0.6508444  3
   4501   4500   4504   4505     1  0.0000000  0.6508444  3
   4501   4500   4504   4506     1  0.0000000  0.6508444  3
   4501   4500   4507   4508     1  0.0000000  0.6508444  3
   4501   4500   4507   4509     1  0.0000000  0.6508444  3
   4501   4513   4525   4526     1  0.0000000  0.6508444  3
   4501   4513   4525   4527     1  0.0000000  0.6508444  3
   4502   4501   4500   4504     1  0.0000000  0.6508444  3
   4502   4501   4500   4507     1  0.0000000  0.6508444  3
   4502   4501   4500   4529     1  0.0000000  0.6508444  3
   4502   4501   4513   4525     1  0.0000000  0.6508444  3
   4502   4501   4513   4514     1  0.0000000  0.6508444  3
   4502   4501   4513   4515     1  0.0000000  0.6508444  3
   4503   4501   4500   4504     1  0.0000000  0.6508444  3
   4503   4501   4500   4507     1  0.0000000  0.6508444  3
   4503   4501   4500   4529     1  0.0000000  0.6508444  3
   4503   4501   4513   4525     1  0.0000000  0.6508444  3
   4503   4501   4513   4514     1  0.0000000  0.6508444  3
   4503   4501   4513   4515     1  0.0000000  0.6508444  3
   4504   4500   4507   4508     1  0.0000000  0.6508444  3
   4504   4500   4507   4509     1  0.0000000  0.6508444  3
   4504   4516   4522   4523     1  0.0000000  0.6508444  3
   4504   4516   4522   4524     1  0.0000000  0.6508444  3
   4505   4504   4500   4507     1  0.0000000  0.6508444  3
   4505   4504   4500   4529     1  0.0000000  0.6508444  3
   4505   4504   4516   4522     1  0.0000000  0.6508444  3
   4505   4504   4516   4517     1  0.0000000  0.6508444  3
   4505   4504   4516   4518     1  0.0000000  0.6508444  3
   4506   4504   4500   4507     1  0.0000000  0.6508444  3
   4506   4504   4500   4529     1  0.0000000  0.6508444  3
   4506   4504   4516   4522     1  0.0000000  0.6508444  3
   4506   4504   4516   4517     1  0.0000000  0.6508444  3
   4506   4504   4516   4518     1  0.0000000  0.6508444  3
   4507   4510   4519   4520     1  0.0000000  0.6508444  3
   4507   4510   4519   4521     1  0.0000000  0.6508444  3
   4508   4507   4500   4529     1  0.0000000  0.6508444  3
   4508   4507   4510   4519     1  0.0000000  0.6508444  3
   4508   4507   4510   4511     1  0.0000000  0.6508444  3
   4508   4507   4510   4512     1  0.0000000  0.6508444  3
   4509   4507   4500   4529     1  0.0000000  0.6508444  3
   4509   4507   4510   4519     1  0.0000000  0.6508444  3
   4509   4507   4510   4511     1  0.0000000  0.6508444  3
   4509   4507   4510   4512     1  0.0000000  0.6508444  3
   4510   4507   4500   4529     1  0.0000000  0.6508444  3
   4511   4510   4519   4528     1  0.0000000  1.0460000  1
   4511   4510   4519   4528     1  0.0000000  0.0000000  3
   4511   4510   4519   4520     1  0.0000000  0.6508444  3
   4511   4510   4519   4521     1  0.0000000  0.6508444  3
   4512   4510   4519   4528     1  0.0000000  1.0460000  1
   4512   4510   4519   4528     1  0.0000000  0.0000000  3
   4512   4510   4519   4520     1  0.0000000  0.6508444  3
   4512   4510   4519   4521     1  0.0000000  0.6508444  3
   4513   4501   4500   4529     1  0.0000000  0.6508444  3
   4514   4513   4525   9118     1  0.0000000  1.0460000  1
   4514   4513   4525   9118     1  0.0000000  0.0000000  3
   4514   4513   4525   4526     1  0.0000000  0.6508444  3
   4514   4513   4525   4527     1  0.0000000  0.6508444  3
   4515   4513   4525   9118     1  0.0000000  1.0460000  1
   4515   4513   4525   9118     1  0.0000000  0.0000000  3
   4515   4513   4525   4526     1  0.0000000  0.6508444  3
   4515   4513   4525   4527     1  0.0000000  0.6508444  3
   4516   4504   4500   4529     1  0.0000000  0.6508444  3
   4517   4516   4522   9088     1  0.0000000  1.0460000  1
   4517   4516   4522   9088     1  0.0000000  0.0000000  3
   4517   4516   4522   4523     1  0.0000000  0.6508444  3
   4517   4516   4522   4524     1  0.0000000  0.6508444  3
   4518   4516   4522   9088     1  0.0000000  1.0460000  1
   4518   4516   4522   9088     1  0.0000000  0.0000000  3
   4518   4516   4522   4523     1  0.0000000  0.6508444  3
   4518   4516   4522   4524     1  0.0000000  0.6508444  3
   4522   9088   9079   9080     1  0.0000000  1.6038667  3
   4522   9088   9079   9081     1  0.0000000  1.6038667  3
   4523   4522   9088   9079     1  0.0000000  1.6038667  3
   4524   4522   9088   9079     1  0.0000000  1.6038667  3
   4525   9118   9109   9110     1  0.0000000  1.6038667  3
   4525   9118   9109   9111     1  0.0000000  1.6038667  3
   4526   4525   9118   9109     1  0.0000000  1.6038667  3
   4527   4525   9118   9109     1  0.0000000  1.6038667  3
   4530   4531   4543   4544     1  0.0000000  0.6508444  3
   4530   4531   4543   4545     1  0.0000000  0.6508444  3
   4530   4534   4546   4547     1  0.0000000  0.6508444  3
   4530   4534   4546   4548     1  0.0000000  0.6508444  3
   4530   4537   4540   4541     1  0.0000000  0.6508444  3
   4530   4537   4540   4542     1  0.0000000  0.6508444  3
   4531   4530   4534   4535     1  0.0000000  0.6508444  3
   4531   4530   4534   4536     1  0.0000000  0.6508444  3
   4531   4530   4537   4538     1  0.0000000  0.6508444  3
   4531   4530   4537   4539     1  0.0000000  0.6508444  3
   4531   4543   4555   4556     1  0.0000000  0.6508444  3
   4531   4543   4555   4557     1  0.0000000  0.6508444  3
   4532   4531   4530   4534     1  0.0000000  0.6508444  3
   4532   4531   4530   4537     1  0.0000000  0.6508444  3
   4532   4531   4530   4559     1  0.0000000  0.6508444  3
   4532   4531   4543   4555     1  0.0000000  0.6508444  3
   4532   4531   4543   4544     1  0.0000000  0.6508444  3
   4532   4531   4543   4545     1  0.0000000  0.6508444  3
   4533   4531   4530   4534     1  0.0000000  0.6508444  3
   4533   4531   4530   4537     1  0.0000000  0.6508444  3
   4533   4531   4530   4559     1  0.0000000  0.6508444  3
   4533   4531   4543   4555     1  0.0000000  0.6508444  3
   4533   4531   4543   4544     1  0.0000000  0.6508444  3
   4533   4531   4543   4545     1  0.0000000  0.6508444  3
   4534   4530   4537   4538     1  0.0000000  0.6508444  3
   4534   4530   4537   4539     1  0.0000000  0.6508444  3
   4534   4546   4552   4553     1  0.0000000  0.6508444  3
   4534   4546   4552   4554     1  0.0000000  0.6508444  3
   4535   4534   4530   4537     1  0.0000000  0.6508444  3
   4535   4534   4530   4559     1  0.0000000  0.6508444  3
   4535   4534   4546   4552     1  0.0000000  0.6508444  3
   4535   4534   4546   4547     1  0.0000000  0.6508444  3
   4535   4534   4546   4548     1  0.0000000  0.6508444  3
   4536   4534   4530   4537     1  0.0000000  0.6508444  3
   4536   4534   4530   4559     1  0.0000000  0.6508444  3
   4536   4534   4546   4552     1  0.0000000  0.6508444  3
   4536   4534   4546   4547     1  0.0000000  0.6508444  3
   4536   4534   4546   4548     1  0.0000000  0.6508444  3
   4537   4540   4549   4550     1  0.0000000  0.6508444  3
   4537   4540   4549   4551     1  0.0000000  0.6508444  3
   4538   4537   4530   4559     1  0.0000000  0.6508444  3
   4538   4537   4540   4549     1  0.0000000  0.6508444  3
   4538   4537   4540   4541     1  0.0000000  0.6508444  3
   4538   4537   4540   4542     1  0.0000000  0.6508444  3
   4539   4537   4530   4559     1  0.0000000  0.6508444  3
   4539   4537   4540   4549     1  0.0000000  0.6508444  3
   4539   4537   4540   4541     1  0.0000000  0.6508444  3
   4539   4537   4540   4542     1  0.0000000  0.6508444  3
   4540   4537   4530   4559     1  0.0000000  0.6508444  3
   4541   4540   4549   4558     1  0.0000000  1.0460000  1
   4541   4540   4549   4558     1  0.0000000  0.0000000  3
   4541   4540   4549   4550     1  0.0000000  0.6508444  3
   4541   4540   4549   4551     1  0.0000000  0.6508444  3
   4542   4540   4549   4558     1  0.0000000  1.0460000  1
   4542   4540   4549   4558     1  0.0000000  0.0000000  3
   4542   4540   4549   4550     1  0.0000000  0.6508444  3
   4542   4540   4549   4551     1  0.0000000  0.6508444  3
   4543   4531   4530   4559     1  0.0000000  0.6508444  3
   4544   4543   4555   9178     1  0.0000000  1.0460000  1
   4544   4543   4555   9178     1  0.0000000  0.0000000  3
   4544   4543   4555   4556     1  0.0000000  0.6508444  3
   4544   4543   4555   4557     1  0.0000000  0.6508444  3
   4545   4543   4555   9178     1  0.0000000  1.0460000  1
   4545   4543   4555   9178     1  0.0000000  0.0000000  3
   4545   4543   4555   4556     1  0.0000000  0.6508444  3
   4545   4543   4555   4557     1  0.0000000  0.6508444  3
   4546   4534   4530   4559     1  0.0000000  0.6508444  3
   4547   4546   4552   9148     1  0.0000000  1.0460000  1
   4547   4546   4552   9148     1  0.0000000  0.0000000  3
   4547   4546   4552   4553     1  0.0000000  0.6508444  3
   4547   4546   4552   4554     1  0.0000000  0.6508444  3
   4548   4546   4552   9148     1  0.0000000  1.0460000  1
   4548   4546   4552   9148     1  0.0000000  0.0000000  3
   4548   4546   4552   4553     1  0.0000000  0.6508444  3
   4548   4546   4552   4554     1  0.0000000  0.6508444  3
   4552   9148   9139   9140     1  0.0000000  1.6038667  3
   4552   9148   9139   9141     1  0.0000000  1.6038667  3
   4553   4552   9148   9139     1  0.0000000  1.6038667  3
   4554   4552   9148   9139     1  0.0000000  1.6038667  3
   4555   9178   9169   9170     1  0.0000000  1.6038667  3
   4555   9178   9169   9171     1  0.0000000  1.6038667  3
   4556   4555   9178   9169     1  0.0000000  1.6038667  3
   4557   4555   9178   9169     1  0.0000000  1.6038667  3
   4560   4561   4573   4574     1  0.0000000  0.6508444  3
   4560   4561   4573   4575     1  0.0000000  0.6508444  3
   4560   4564   4576   4577     1  0.0000000  0.6508444  3
   4560   4564   4576   4578     1  0.0000000  0.6508444  3
   4560   4567   4570   4571     1  0.0000000  0.6508444  3
   4560   4567   4570   4572     1  0.0000000  0.6508444  3
   4561   4560   4564   4565     1  0.0000000  0.6508444  3
   4561   4560   4564   4566     1  0.0000000  0.6508444  3
   4561   4560   4567   4568     1  0.0000000  0.6508444  3
   4561   4560   4567   4569     1  0.0000000  0.6508444  3
   4561   4573   4585   4586     1  0.0000000  0.6508444  3
   4561   4573   4585   4587     1  0.0000000  0.6508444  3
   4562   4561   4560   4564     1  0.0000000  0.6508444  3
   4562   4561   4560   4567     1  0.0000000  0.6508444  3
   4562   4561   4560   4589     1  0.0000000  0.6508444  3
   4562   4561   4573   4585     1  0.0000000  0.6508444  3
   4562   4561   4573   4574     1  0.0000000  0.6508444  3
   4562   4561   4573   4575     1  0.0000000  0.6508444  3
   4563   4561   4560   4564     1  0.0000000  0.6508444  3
   4563   4561   4560   4567     1  0.0000000  0.6508444  3
   4563   4561   4560   4589     1  0.0000000  0.6508444  3
   4563   4561   4573   4585     1  0.0000000  0.6508444  3
   4563   4561   4573   4574     1  0.0000000  0.6508444  3
   4563   4561   4573   4575     1  0.0000000  0.6508444  3
   4564   4560   4567   4568     1  0.0000000  0.6508444  3
   4564   4560   4567   4569     1  0.0000000  0.6508444  3
   4564   4576   4582   4583     1  0.0000000  0.6508444  3
   4564   4576   4582   4584     1  0.0000000  0.6508444  3
   4565   4564   4560   4567     1  0.0000000  0.6508444  3
   4565   4564   4560   4589     1  0.0000000  0.6508444  3
   4565   4564   4576   4582     1  0.0000000  0.6508444  3
   4565   4564   4576   4577     1  0.0000000  0.6508444  3
   4565   4564   4576   4578     1  0.0000000  0.6508444  3
   4566   4564   4560   4567     1  0.0000000  0.6508444  3
   4566   4564   4560   4589     1  0.0000000  0.6508444  3
   4566   4564   4576   4582     1  0.0000000  0.6508444  3
   4566   4564   4576   4577     1  0.0000000  0.6508444  3
   4566   4564   4576   4578     1  0.0000000  0.6508444  3
   4567   4570   4579   4580     1  0.0000000  0.6508444  3
   4567   4570   4579   4581     1  0.0000000  0.6508444  3
   4568   4567   4560   4589     1  0.0000000  0.6508444  3
   4568   4567   4570   4579     1  0.0000000  0.6508444  3
   4568   4567   4570   4571     1  0.0000000  0.6508444  3
   4568   4567   4570   4572     1  0.0000000  0.6508444  3
   4569   4567   4560   4589     1  0.0000000  0.6508444  3
   4569   4567   4570   4579     1  0.0000000  0.6508444  3
   4569   4567   4570   4571     1  0.0000000  0.6508444  3
   4569   4567   4570   4572     1  0.0000000  0.6508444  3
   4570   4567   4560   4589     1  0.0000000  0.6508444  3
   4571   4570   4579   4588     1  0.0000000  1.0460000  1
   4571   4570   4579   4588     1  0.0000000  0.0000000  3
   4571   4570   4579   4580     1  0.0000000  0.6508444  3
   4571   4570   4579   4581     1  0.0000000  0.6508444  3
   4572   4570   4579   4588     1  0.0000000  1.0460000  1
   4572   4570   4579   4588     1  0.0000000  0.0000000  3
   4572   4570   4579   4580     1  0.0000000  0.6508444  3
   4572   4570   4579   4581     1  0.0000000  0.6508444  3
   4573   4561   4560   4589     1  0.0000000  0.6508444  3
   4574   4573   4585   9238     1  0.0000000  1.0460000  1
   4574   4573   4585   9238     1  0.0000000  0.0000000  3
   4574   4573   4585   4586     1  0.0000000  0.6508444  3
   4574   4573   4585   4587     1  0.0000000  0.6508444  3
   4575   4573   4585   9238     1  0.0000000  1.0460000  1
   4575   4573   4585   9238     1  0.0000000  0.0000000  3
   4575   4573   4585   4586     1  0.0000000  0.6508444  3
   4575   4573   4585   4587     1  0.0000000  0.6508444  3
   4576   4564   4560   4589     1  0.0000000  0.6508444  3
   4577   4576   4582   9208     1  0.0000000  1.0460000  1
   4577   4576   4582   9208     1  0.0000000  0.0000000  3
   4577   4576   4582   4583     1  0.0000000  0.6508444  3
   4577   4576   4582   4584     1  0.0000000  0.6508444  3
   4578   4576   4582   9208     1  0.0000000  1.0460000  1
   4578   4576   4582   9208     1  0.0000000  0.0000000  3
   4578   4576   4582   4583     1  0.0000000  0.6508444  3
   4578   4576   4582   4584     1  0.0000000  0.6508444  3
   4582   9208   9199   9200     1  0.0000000  1.6038667  3
   4582   9208   9199   9201     1  0.0000000  1.6038667  3
   4583   4582   9208   9199     1  0.0000000  1.6038667  3
   4584   4582   9208   9199     1  0.0000000  1.6038667  3
   4585   9238   9229   9230     1  0.0000000  1.6038667  3
   4585   9238   9229   9231     1  0.0000000  1.6038667  3
   4586   4585   9238   9229     1  0.0000000  1.6038667  3
   4587   4585   9238   9229     1  0.0000000  1.6038667  3
   4590   4591   4603   4604     1  0.0000000  0.6508444  3
   4590   4591   4603   4605     1  0.0000000  0.6508444  3
   4590   4594   4606   4607     1  0.0000000  0.6508444  3
   4590   4594   4606   4608     1  0.0000000  0.6508444  3
   4590   4597   4600   4601     1  0.0000000  0.6508444  3
   4590   4597   4600   4602     1  0.0000000  0.6508444  3
   4591   4590   4594   4595     1  0.0000000  0.6508444  3
   4591   4590   4594   4596     1  0.0000000  0.6508444  3
   4591   4590   4597   4598     1  0.0000000  0.6508444  3
   4591   4590   4597   4599     1  0.0000000  0.6508444  3
   4591   4603   4615   4616     1  0.0000000  0.6508444  3
   4591   4603   4615   4617     1  0.0000000  0.6508444  3
   4592   4591   4590   4594     1  0.0000000  0.6508444  3
   4592   4591   4590   4597     1  0.0000000  0.6508444  3
   4592   4591   4590   4619     1  0.0000000  0.6508444  3
   4592   4591   4603   4615     1  0.0000000  0.6508444  3
   4592   4591   4603   4604     1  0.0000000  0.6508444  3
   4592   4591   4603   4605     1  0.0000000  0.6508444  3
   4593   4591   4590   4594     1  0.0000000  0.6508444  3
   4593   4591   4590   4597     1  0.0000000  0.6508444  3
   4593   4591   4590   4619     1  0.0000000  0.6508444  3
   4593   4591   4603   4615     1  0.0000000  0.6508444  3
   4593   4591   4603   4604     1  0.0000000  0.6508444  3
   4593   4591   4603   4605     1  0.0000000  0.6508444  3
   4594   4590   4597   4598     1  0.0000000  0.6508444  3
   4594   4590   4597   4599     1  0.0000000  0.6508444  3
   4594   4606   4612   4613     1  0.0000000  0.6508444  3
   4594   4606   4612   4614     1  0.0000000  0.6508444  3
   4595   4594   4590   4597     1  0.0000000  0.6508444  3
   4595   4594   4590   4619     1  0.0000000  0.6508444  3
   4595   4594   4606   4612     1  0.0000000  0.6508444  3
   4595   4594   4606   4607     1  0.0000000  0.6508444  3
   4595   4594   4606   4608     1  0.0000000  0.6508444  3
   4596   4594   4590   4597     1  0.0000000  0.6508444  3
   4596   4594   4590   4619     1  0.0000000  0.6508444  3
   4596   4594   4606   4612     1  0.0000000  0.6508444  3
   4596   4594   4606   4607     1  0.0000000  0.6508444  3
   4596   4594   4606   4608     1  0.0000000  0.6508444  3
   4597   4600   4609   4610     1  0.0000000  0.6508444  3
   4597   4600   4609   4611     1  0.0000000  0.6508444  3
   4598   4597   4590   4619     1  0.0000000  0.6508444  3
   4598   4597   4600   4609     1  0.0000000  0.6508444  3
   4598   4597   4600   4601     1  0.0000000  0.6508444  3
   4598   4597   4600   4602     1  0.0000000  0.6508444  3
   4599   4597   4590   4619     1  0.0000000  0.6508444  3
   4599   4597   4600   4609     1  0.0000000  0.6508444  3
   4599   4597   4600   4601     1  0.0000000  0.6508444  3
   4599   4597   4600   4602     1  0.0000000  0.6508444  3
   4600   4597   4590   4619     1  0.0000000  0.6508444  3
   4601   4600   4609   4618     1  0.0000000  1.0460000  1
   4601   4600   4609   4618     1  0.0000000  0.0000000  3
   4601   4600   4609   4610     1  0.0000000  0.6508444  3
   4601   4600   4609   4611     1  0.0000000  0.6508444  3
   4602   4600   4609   4618     1  0.0000000  1.0460000  1
   4602   4600   4609   4618     1  0.0000000  0.0000000  3
   4602   4600   4609   4610     1  0.0000000  0.6508444  3
   4602   4600   4609   4611     1  0.0000000  0.6508444  3
   4603   4591   4590   4619     1  0.0000000  0.6508444  3
   4604   4603   4615   9298     1  0.0000000  1.0460000  1
   4604   4603   4615   9298     1  0.0000000  0.0000000  3
   4604   4603   4615   4616     1  0.0000000  0.6508444  3
   4604   4603   4615   4617     1  0.0000000  0.6508444  3
   4605   4603   4615   9298     1  0.0000000  1.0460000  1
   4605   4603   4615   9298     1  0.0000000  0.0000000  3
   4605   4603   4615   4616     1  0.0000000  0.6508444  3
   4605   4603   4615   4617     1  0.0000000  0.6508444  3
   4606   4594   4590   4619     1  0.0000000  0.6508444  3
   4607   4606   4612   9268     1  0.0000000  1.0460000  1
   4607   4606   4612   9268     1  0.0000000  0.0000000  3
   4607   4606   4612   4613     1  0.0000000  0.6508444  3
   4607   4606   4612   4614     1  0.0000000  0.6508444  3
   4608   4606   4612   9268     1  0.0000000  1.0460000  1
   4608   4606   4612   9268     1  0.0000000  0.0000000  3
   4608   4606   4612   4613     1  0.0000000  0.6508444  3
   4608   4606   4612   4614     1  0.0000000  0.6508444  3
   4612   9268   9259   9260     1  0.0000000  1.6038667  3
   4612   9268   9259   9261     1  0.0000000  1.6038667  3
   4613   4612   9268   9259     1  0.0000000  1.6038667  3
   4614   4612   9268   9259     1  0.0000000  1.6038667  3
   4615   9298   9289   9290     1  0.0000000  1.6038667  3
   4615   9298   9289   9291     1  0.0000000  1.6038667  3
   4616   4615   9298   9289     1  0.0000000  1.6038667  3
   4617   4615   9298   9289     1  0.0000000  1.6038667  3
   4620   4621   4633   4634     1  0.0000000  0.6508444  3
   4620   4621   4633   4635     1  0.0000000  0.6508444  3
   4620   4624   4636   4637     1  0.0000000  0.6508444  3
   4620   4624   4636   4638     1  0.0000000  0.6508444  3
   4620   4627   4630   4631     1  0.0000000  0.6508444  3
   4620   4627   4630   4632     1  0.0000000  0.6508444  3
   4621   4620   4624   4625     1  0.0000000  0.6508444  3
   4621   4620   4624   4626     1  0.0000000  0.6508444  3
   4621   4620   4627   4628     1  0.0000000  0.6508444  3
   4621   4620   4627   4629     1  0.0000000  0.6508444  3
   4621   4633   4645   4646     1  0.0000000  0.6508444  3
   4621   4633   4645   4647     1  0.0000000  0.6508444  3
   4622   4621   4620   4624     1  0.0000000  0.6508444  3
   4622   4621   4620   4627     1  0.0000000  0.6508444  3
   4622   4621   4620   4649     1  0.0000000  0.6508444  3
   4622   4621   4633   4645     1  0.0000000  0.6508444  3
   4622   4621   4633   4634     1  0.0000000  0.6508444  3
   4622   4621   4633   4635     1  0.0000000  0.6508444  3
   4623   4621   4620   4624     1  0.0000000  0.6508444  3
   4623   4621   4620   4627     1  0.0000000  0.6508444  3
   4623   4621   4620   4649     1  0.0000000  0.6508444  3
   4623   4621   4633   4645     1  0.0000000  0.6508444  3
   4623   4621   4633   4634     1  0.0000000  0.6508444  3
   4623   4621   4633   4635     1  0.0000000  0.6508444  3
   4624   4620   4627   4628     1  0.0000000  0.6508444  3
   4624   4620   4627   4629     1  0.0000000  0.6508444  3
   4624   4636   4642   4643     1  0.0000000  0.6508444  3
   4624   4636   4642   4644     1  0.0000000  0.6508444  3
   4625   4624   4620   4627     1  0.0000000  0.6508444  3
   4625   4624   4620   4649     1  0.0000000  0.6508444  3
   4625   4624   4636   4642     1  0.0000000  0.6508444  3
   4625   4624   4636   4637     1  0.0000000  0.6508444  3
   4625   4624   4636   4638     1  0.0000000  0.6508444  3
   4626   4624   4620   4627     1  0.0000000  0.6508444  3
   4626   4624   4620   4649     1  0.0000000  0.6508444  3
   4626   4624   4636   4642     1  0.0000000  0.6508444  3
   4626   4624   4636   4637     1  0.0000000  0.6508444  3
   4626   4624   4636   4638     1  0.0000000  0.6508444  3
   4627   4630   4639   4640     1  0.0000000  0.6508444  3
   4627   4630   4639   4641     1  0.0000000  0.6508444  3
   4628   4627   4620   4649     1  0.0000000  0.6508444  3
   4628   4627   4630   4639     1  0.0000000  0.6508444  3
   4628   4627   4630   4631     1  0.0000000  0.6508444  3
   4628   4627   4630   4632     1  0.0000000  0.6508444  3
   4629   4627   4620   4649     1  0.0000000  0.6508444  3
   4629   4627   4630   4639     1  0.0000000  0.6508444  3
   4629   4627   4630   4631     1  0.0000000  0.6508444  3
   4629   4627   4630   4632     1  0.0000000  0.6508444  3
   4630   4627   4620   4649     1  0.0000000  0.6508444  3
   4631   4630   4639   4648     1  0.0000000  1.0460000  1
   4631   4630   4639   4648     1  0.0000000  0.0000000  3
   4631   4630   4639   4640     1  0.0000000  0.6508444  3
   4631   4630   4639   4641     1  0.0000000  0.6508444  3
   4632   4630   4639   4648     1  0.0000000  1.0460000  1
   4632   4630   4639   4648     1  0.0000000  0.0000000  3
   4632   4630   4639   4640     1  0.0000000  0.6508444  3
   4632   4630   4639   4641     1  0.0000000  0.6508444  3
   4633   4621   4620   4649     1  0.0000000  0.6508444  3
   4634   4633   4645   9358     1  0.0000000  1.0460000  1
   4634   4633   4645   9358     1  0.0000000  0.0000000  3
   4634   4633   4645   4646     1  0.0000000  0.6508444  3
   4634   4633   4645   4647     1  0.0000000  0.6508444  3
   4635   4633   4645   9358     1  0.0000000  1.0460000  1
   4635   4633   4645   9358     1  0.0000000  0.0000000  3
   4635   4633   4645   4646     1  0.0000000  0.6508444  3
   4635   4633   4645   4647     1  0.0000000  0.6508444  3
   4636   4624   4620   4649     1  0.0000000  0.6508444  3
   4637   4636   4642   9328     1  0.0000000  1.0460000  1
   4637   4636   4642   9328     1  0.0000000  0.0000000  3
   4637   4636   4642   4643     1  0.0000000  0.6508444  3
   4637   4636   4642   4644     1  0.0000000  0.6508444  3
   4638   4636   4642   9328     1  0.0000000  1.0460000  1
   4638   4636   4642   9328     1  0.0000000  0.0000000  3
   4638   4636   4642   4643     1  0.0000000  0.6508444  3
   4638   4636   4642   4644     1  0.0000000  0.6508444  3
   4642   9328   9319   9320     1  0.0000000  1.6038667  3
   4642   9328   9319   9321     1  0.0000000  1.6038667  3
   4643   4642   9328   9319     1  0.0000000  1.6038667  3
   4644   4642   9328   9319     1  0.0000000  1.6038667  3
   4645   9358   9349   9350     1  0.0000000  1.6038667  3
   4645   9358   9349   9351     1  0.0000000  1.6038667  3
   4646   4645   9358   9349     1  0.0000000  1.6038667  3
   4647   4645   9358   9349     1  0.0000000  1.6038667  3
   4650   4651   4663   4664     1  0.0000000  0.6508444  3
   4650   4651   4663   4665     1  0.0000000  0.6508444  3
   4650   4654   4666   4667     1  0.0000000  0.6508444  3
   4650   4654   4666   4668     1  0.0000000  0.6508444  3
   4650   4657   4660   4661     1  0.0000000  0.6508444  3
   4650   4657   4660   4662     1  0.0000000  0.6508444  3
   4651   4650   4654   4655     1  0.0000000  0.6508444  3
   4651   4650   4654   4656     1  0.0000000  0.6508444  3
   4651   4650   4657   4658     1  0.0000000  0.6508444  3
   4651   4650   4657   4659     1  0.0000000  0.6508444  3
   4651   4663   4675   4676     1  0.0000000  0.6508444  3
   4651   4663   4675   4677     1  0.0000000  0.6508444  3
   4652   4651   4650   4654     1  0.0000000  0.6508444  3
   4652   4651   4650   4657     1  0.0000000  0.6508444  3
   4652   4651   4650   4679     1  0.0000000  0.6508444  3
   4652   4651   4663   4675     1  0.0000000  0.6508444  3
   4652   4651   4663   4664     1  0.0000000  0.6508444  3
   4652   4651   4663   4665     1  0.0000000  0.6508444  3
   4653   4651   4650   4654     1  0.0000000  0.6508444  3
   4653   4651   4650   4657     1  0.0000000  0.6508444  3
   4653   4651   4650   4679     1  0.0000000  0.6508444  3
   4653   4651   4663   4675     1  0.0000000  0.6508444  3
   4653   4651   4663   4664     1  0.0000000  0.6508444  3
   4653   4651   4663   4665     1  0.0000000  0.6508444  3
   4654   4650   4657   4658     1  0.0000000  0.6508444  3
   4654   4650   4657   4659     1  0.0000000  0.6508444  3
   4654   4666   4672   4673     1  0.0000000  0.6508444  3
   4654   4666   4672   4674     1  0.0000000  0.6508444  3
   4655   4654   4650   4657     1  0.0000000  0.6508444  3
   4655   4654   4650   4679     1  0.0000000  0.6508444  3
   4655   4654   4666   4672     1  0.0000000  0.6508444  3
   4655   4654   4666   4667     1  0.0000000  0.6508444  3
   4655   4654   4666   4668     1  0.0000000  0.6508444  3
   4656   4654   4650   4657     1  0.0000000  0.6508444  3
   4656   4654   4650   4679     1  0.0000000  0.6508444  3
   4656   4654   4666   4672     1  0.0000000  0.6508444  3
   4656   4654   4666   4667     1  0.0000000  0.6508444  3
   4656   4654   4666   4668     1  0.0000000  0.6508444  3
   4657   4660   4669   4670     1  0.0000000  0.6508444  3
   4657   4660   4669   4671     1  0.0000000  0.6508444  3
   4658   4657   4650   4679     1  0.0000000  0.6508444  3
   4658   4657   4660   4669     1  0.0000000  0.6508444  3
   4658   4657   4660   4661     1  0.0000000  0.6508444  3
   4658   4657   4660   4662     1  0.0000000  0.6508444  3
   4659   4657   4650   4679     1  0.0000000  0.6508444  3
   4659   4657   4660   4669     1  0.0000000  0.6508444  3
   4659   4657   4660   4661     1  0.0000000  0.6508444  3
   4659   4657   4660   4662     1  0.0000000  0.6508444  3
   4660   4657   4650   4679     1  0.0000000  0.6508444  3
   4661   4660   4669   4678     1  0.0000000  1.0460000  1
   4661   4660   4669   4678     1  0.0000000  0.0000000  3
   4661   4660   4669   4670     1  0.0000000  0.6508444  3
   4661   4660   4669   4671     1  0.0000000  0.6508444  3
   4662   4660   4669   4678     1  0.0000000  1.0460000  1
   4662   4660   4669   4678     1  0.0000000  0.0000000  3
   4662   4660   4669   4670     1  0.0000000  0.6508444  3
   4662   4660   4669   4671     1  0.0000000  0.6508444  3
   4663   4651   4650   4679     1  0.0000000  0.6508444  3
   4664   4663   4675   9418     1  0.0000000  1.0460000  1
   4664   4663   4675   9418     1  0.0000000  0.0000000  3
   4664   4663   4675   4676     1  0.0000000  0.6508444  3
   4664   4663   4675   4677     1  0.0000000  0.6508444  3
   4665   4663   4675   9418     1  0.0000000  1.0460000  1
   4665   4663   4675   9418     1  0.0000000  0.0000000  3
   4665   4663   4675   4676     1  0.0000000  0.6508444  3
   4665   4663   4675   4677     1  0.0000000  0.6508444  3
   4666   4654   4650   4679     1  0.0000000  0.6508444  3
   4667   4666   4672   9388     1  0.0000000  1.0460000  1
   4667   4666   4672   9388     1  0.0000000  0.0000000  3
   4667   4666   4672   4673     1  0.0000000  0.6508444  3
   4667   4666   4672   4674     1  0.0000000  0.6508444  3
   4668   4666   4672   9388     1  0.0000000  1.0460000  1
   4668   4666   4672   9388     1  0.0000000  0.0000000  3
   4668   4666   4672   4673     1  0.0000000  0.6508444  3
   4668   4666   4672   4674     1  0.0000000  0.6508444  3
   4672   9388   9379   9380     1  0.0000000  1.6038667  3
   4672   9388   9379   9381     1  0.0000000  1.6038667  3
   4673   4672   9388   9379     1  0.0000000  1.6038667  3
   4674   4672   9388   9379     1  0.0000000  1.6038667  3
   4675   9418   9409   9410     1  0.0000000  1.6038667  3
   4675   9418   9409   9411     1  0.0000000  1.6038667  3
   4676   4675   9418   9409     1  0.0000000  1.6038667  3
   4677   4675   9418   9409     1  0.0000000  1.6038667  3
   4680   4681   4693   4694     1  0.0000000  0.6508444  3
   4680   4681   4693   4695     1  0.0000000  0.6508444  3
   4680   4684   4696   4697     1  0.0000000  0.6508444  3
   4680   4684   4696   4698     1  0.0000000  0.6508444  3
   4680   4687   4690   4691     1  0.0000000  0.6508444  3
   4680   4687   4690   4692     1  0.0000000  0.6508444  3
   4681   4680   4684   4685     1  0.0000000  0.6508444  3
   4681   4680   4684   4686     1  0.0000000  0.6508444  3
   4681   4680   4687   4688     1  0.0000000  0.6508444  3
   4681   4680   4687   4689     1  0.0000000  0.6508444  3
   4681   4693   4705   4706     1  0.0000000  0.6508444  3
   4681   4693   4705   4707     1  0.0000000  0.6508444  3
   4682   4681   4680   4684     1  0.0000000  0.6508444  3
   4682   4681   4680   4687     1  0.0000000  0.6508444  3
   4682   4681   4680   4709     1  0.0000000  0.6508444  3
   4682   4681   4693   4705     1  0.0000000  0.6508444  3
   4682   4681   4693   4694     1  0.0000000  0.6508444  3
   4682   4681   4693   4695     1  0.0000000  0.6508444  3
   4683   4681   4680   4684     1  0.0000000  0.6508444  3
   4683   4681   4680   4687     1  0.0000000  0.6508444  3
   4683   4681   4680   4709     1  0.0000000  0.6508444  3
   4683   4681   4693   4705     1  0.0000000  0.6508444  3
   4683   4681   4693   4694     1  0.0000000  0.6508444  3
   4683   4681   4693   4695     1  0.0000000  0.6508444  3
   4684   4680   4687   4688     1  0.0000000  0.6508444  3
   4684   4680   4687   4689     1  0.0000000  0.6508444  3
   4684   4696   4702   4703     1  0.0000000  0.6508444  3
   4684   4696   4702   4704     1  0.0000000  0.6508444  3
   4685   4684   4680   4687     1  0.0000000  0.6508444  3
   4685   4684   4680   4709     1  0.0000000  0.6508444  3
   4685   4684   4696   4702     1  0.0000000  0.6508444  3
   4685   4684   4696   4697     1  0.0000000  0.6508444  3
   4685   4684   4696   4698     1  0.0000000  0.6508444  3
   4686   4684   4680   4687     1  0.0000000  0.6508444  3
   4686   4684   4680   4709     1  0.0000000  0.6508444  3
   4686   4684   4696   4702     1  0.0000000  0.6508444  3
   4686   4684   4696   4697     1  0.0000000  0.6508444  3
   4686   4684   4696   4698     1  0.0000000  0.6508444  3
   4687   4690   4699   4700     1  0.0000000  0.6508444  3
   4687   4690   4699   4701     1  0.0000000  0.6508444  3
   4688   4687   4680   4709     1  0.0000000  0.6508444  3
   4688   4687   4690   4699     1  0.0000000  0.6508444  3
   4688   4687   4690   4691     1  0.0000000  0.6508444  3
   4688   4687   4690   4692     1  0.0000000  0.6508444  3
   4689   4687   4680   4709     1  0.0000000  0.6508444  3
   4689   4687   4690   4699     1  0.0000000  0.6508444  3
   4689   4687   4690   4691     1  0.0000000  0.6508444  3
   4689   4687   4690   4692     1  0.0000000  0.6508444  3
   4690   4687   4680   4709     1  0.0000000  0.6508444  3
   4691   4690   4699   4708     1  0.0000000  1.0460000  1
   4691   4690   4699   4708     1  0.0000000  0.0000000  3
   4691   4690   4699   4700     1  0.0000000  0.6508444  3
   4691   4690   4699   4701     1  0.0000000  0.6508444  3
   4692   4690   4699   4708     1  0.0000000  1.0460000  1
   4692   4690   4699   4708     1  0.0000000  0.0000000  3
   4692   4690   4699   4700     1  0.0000000  0.6508444  3
   4692   4690   4699   4701     1  0.0000000  0.6508444  3
   4693   4681   4680   4709     1  0.0000000  0.6508444  3
   4694   4693   4705   9478     1  0.0000000  1.0460000  1
   4694   4693   4705   9478     1  0.0000000  0.0000000  3
   4694   4693   4705   4706     1  0.0000000  0.6508444  3
   4694   4693   4705   4707     1  0.0000000  0.6508444  3
   4695   4693   4705   9478     1  0.0000000  1.0460000  1
   4695   4693   4705   9478     1  0.0000000  0.0000000  3
   4695   4693   4705   4706     1  0.0000000  0.6508444  3
   4695   4693   4705   4707     1  0.0000000  0.6508444  3
   4696   4684   4680   4709     1  0.0000000  0.6508444  3
   4697   4696   4702   9448     1  0.0000000  1.0460000  1
   4697   4696   4702   9448     1  0.0000000  0.0000000  3
   4697   4696   4702   4703     1  0.0000000  0.6508444  3
   4697   4696   4702   4704     1  0.0000000  0.6508444  3
   4698   4696   4702   9448     1  0.0000000  1.0460000  1
   4698   4696   4702   9448     1  0.0000000  0.0000000  3
   4698   4696   4702   4703     1  0.0000000  0.6508444  3
   4698   4696   4702   4704     1  0.0000000  0.6508444  3
   4702   9448   9439   9440     1  0.0000000  1.6038667  3
   4702   9448   9439   9441     1  0.0000000  1.6038667  3
   4703   4702   9448   9439     1  0.0000000  1.6038667  3
   4704   4702   9448   9439     1  0.0000000  1.6038667  3
   4705   9478   9469   9470     1  0.0000000  1.6038667  3
   4705   9478   9469   9471     1  0.0000000  1.6038667  3
   4706   4705   9478   9469     1  0.0000000  1.6038667  3
   4707   4705   9478   9469     1  0.0000000  1.6038667  3
   4710   4711   4723   4724     1  0.0000000  0.6508444  3
   4710   4711   4723   4725     1  0.0000000  0.6508444  3
   4710   4714   4726   4727     1  0.0000000  0.6508444  3
   4710   4714   4726   4728     1  0.0000000  0.6508444  3
   4710   4717   4720   4721     1  0.0000000  0.6508444  3
   4710   4717   4720   4722     1  0.0000000  0.6508444  3
   4711   4710   4714   4715     1  0.0000000  0.6508444  3
   4711   4710   4714   4716     1  0.0000000  0.6508444  3
   4711   4710   4717   4718     1  0.0000000  0.6508444  3
   4711   4710   4717   4719     1  0.0000000  0.6508444  3
   4711   4723   4735   4736     1  0.0000000  0.6508444  3
   4711   4723   4735   4737     1  0.0000000  0.6508444  3
   4712   4711   4710   4714     1  0.0000000  0.6508444  3
   4712   4711   4710   4717     1  0.0000000  0.6508444  3
   4712   4711   4710   4739     1  0.0000000  0.6508444  3
   4712   4711   4723   4735     1  0.0000000  0.6508444  3
   4712   4711   4723   4724     1  0.0000000  0.6508444  3
   4712   4711   4723   4725     1  0.0000000  0.6508444  3
   4713   4711   4710   4714     1  0.0000000  0.6508444  3
   4713   4711   4710   4717     1  0.0000000  0.6508444  3
   4713   4711   4710   4739     1  0.0000000  0.6508444  3
   4713   4711   4723   4735     1  0.0000000  0.6508444  3
   4713   4711   4723   4724     1  0.0000000  0.6508444  3
   4713   4711   4723   4725     1  0.0000000  0.6508444  3
   4714   4710   4717   4718     1  0.0000000  0.6508444  3
   4714   4710   4717   4719     1  0.0000000  0.6508444  3
   4714   4726   4732   4733     1  0.0000000  0.6508444  3
   4714   4726   4732   4734     1  0.0000000  0.6508444  3
   4715   4714   4710   4717     1  0.0000000  0.6508444  3
   4715   4714   4710   4739     1  0.0000000  0.6508444  3
   4715   4714   4726   4732     1  0.0000000  0.6508444  3
   4715   4714   4726   4727     1  0.0000000  0.6508444  3
   4715   4714   4726   4728     1  0.0000000  0.6508444  3
   4716   4714   4710   4717     1  0.0000000  0.6508444  3
   4716   4714   4710   4739     1  0.0000000  0.6508444  3
   4716   4714   4726   4732     1  0.0000000  0.6508444  3
   4716   4714   4726   4727     1  0.0000000  0.6508444  3
   4716   4714   4726   4728     1  0.0000000  0.6508444  3
   4717   4720   4729   4730     1  0.0000000  0.6508444  3
   4717   4720   4729   4731     1  0.0000000  0.6508444  3
   4718   4717   4710   4739     1  0.0000000  0.6508444  3
   4718   4717   4720   4729     1  0.0000000  0.6508444  3
   4718   4717   4720   4721     1  0.0000000  0.6508444  3
   4718   4717   4720   4722     1  0.0000000  0.6508444  3
   4719   4717   4710   4739     1  0.0000000  0.6508444  3
   4719   4717   4720   4729     1  0.0000000  0.6508444  3
   4719   4717   4720   4721     1  0.0000000  0.6508444  3
   4719   4717   4720   4722     1  0.0000000  0.6508444  3
   4720   4717   4710   4739     1  0.0000000  0.6508444  3
   4721   4720   4729   4738     1  0.0000000  1.0460000  1
   4721   4720   4729   4738     1  0.0000000  0.0000000  3
   4721   4720   4729   4730     1  0.0000000  0.6508444  3
   4721   4720   4729   4731     1  0.0000000  0.6508444  3
   4722   4720   4729   4738     1  0.0000000  1.0460000  1
   4722   4720   4729   4738     1  0.0000000  0.0000000  3
   4722   4720   4729   4730     1  0.0000000  0.6508444  3
   4722   4720   4729   4731     1  0.0000000  0.6508444  3
   4723   4711   4710   4739     1  0.0000000  0.6508444  3
   4724   4723   4735   9538     1  0.0000000  1.0460000  1
   4724   4723   4735   9538     1  0.0000000  0.0000000  3
   4724   4723   4735   4736     1  0.0000000  0.6508444  3
   4724   4723   4735   4737     1  0.0000000  0.6508444  3
   4725   4723   4735   9538     1  0.0000000  1.0460000  1
   4725   4723   4735   9538     1  0.0000000  0.0000000  3
   4725   4723   4735   4736     1  0.0000000  0.6508444  3
   4725   4723   4735   4737     1  0.0000000  0.6508444  3
   4726   4714   4710   4739     1  0.0000000  0.6508444  3
   4727   4726   4732   9508     1  0.0000000  1.0460000  1
   4727   4726   4732   9508     1  0.0000000  0.0000000  3
   4727   4726   4732   4733     1  0.0000000  0.6508444  3
   4727   4726   4732   4734     1  0.0000000  0.6508444  3
   4728   4726   4732   9508     1  0.0000000  1.0460000  1
   4728   4726   4732   9508     1  0.0000000  0.0000000  3
   4728   4726   4732   4733     1  0.0000000  0.6508444  3
   4728   4726   4732   4734     1  0.0000000  0.6508444  3
   4732   9508   9499   9500     1  0.0000000  1.6038667  3
   4732   9508   9499   9501     1  0.0000000  1.6038667  3
   4733   4732   9508   9499     1  0.0000000  1.6038667  3
   4734   4732   9508   9499     1  0.0000000  1.6038667  3
   4735   9538   9529   9530     1  0.0000000  1.6038667  3
   4735   9538   9529   9531     1  0.0000000  1.6038667  3
   4736   4735   9538   9529     1  0.0000000  1.6038667  3
   4737   4735   9538   9529     1  0.0000000  1.6038667  3
   4740   4741   4753   4754     1  0.0000000  0.6508444  3
   4740   4741   4753   4755     1  0.0000000  0.6508444  3
   4740   4744   4756   4757     1  0.0000000  0.6508444  3
   4740   4744   4756   4758     1  0.0000000  0.6508444  3
   4740   4747   4750   4751     1  0.0000000  0.6508444  3
   4740   4747   4750   4752     1  0.0000000  0.6508444  3
   4741   4740   4744   4745     1  0.0000000  0.6508444  3
   4741   4740   4744   4746     1  0.0000000  0.6508444  3
   4741   4740   4747   4748     1  0.0000000  0.6508444  3
   4741   4740   4747   4749     1  0.0000000  0.6508444  3
   4741   4753   4765   4766     1  0.0000000  0.6508444  3
   4741   4753   4765   4767     1  0.0000000  0.6508444  3
   4742   4741   4740   4744     1  0.0000000  0.6508444  3
   4742   4741   4740   4747     1  0.0000000  0.6508444  3
   4742   4741   4740   4769     1  0.0000000  0.6508444  3
   4742   4741   4753   4765     1  0.0000000  0.6508444  3
   4742   4741   4753   4754     1  0.0000000  0.6508444  3
   4742   4741   4753   4755     1  0.0000000  0.6508444  3
   4743   4741   4740   4744     1  0.0000000  0.6508444  3
   4743   4741   4740   4747     1  0.0000000  0.6508444  3
   4743   4741   4740   4769     1  0.0000000  0.6508444  3
   4743   4741   4753   4765     1  0.0000000  0.6508444  3
   4743   4741   4753   4754     1  0.0000000  0.6508444  3
   4743   4741   4753   4755     1  0.0000000  0.6508444  3
   4744   4740   4747   4748     1  0.0000000  0.6508444  3
   4744   4740   4747   4749     1  0.0000000  0.6508444  3
   4744   4756   4762   4763     1  0.0000000  0.6508444  3
   4744   4756   4762   4764     1  0.0000000  0.6508444  3
   4745   4744   4740   4747     1  0.0000000  0.6508444  3
   4745   4744   4740   4769     1  0.0000000  0.6508444  3
   4745   4744   4756   4762     1  0.0000000  0.6508444  3
   4745   4744   4756   4757     1  0.0000000  0.6508444  3
   4745   4744   4756   4758     1  0.0000000  0.6508444  3
   4746   4744   4740   4747     1  0.0000000  0.6508444  3
   4746   4744   4740   4769     1  0.0000000  0.6508444  3
   4746   4744   4756   4762     1  0.0000000  0.6508444  3
   4746   4744   4756   4757     1  0.0000000  0.6508444  3
   4746   4744   4756   4758     1  0.0000000  0.6508444  3
   4747   4750   4759   4760     1  0.0000000  0.6508444  3
   4747   4750   4759   4761     1  0.0000000  0.6508444  3
   4748   4747   4740   4769     1  0.0000000  0.6508444  3
   4748   4747   4750   4759     1  0.0000000  0.6508444  3
   4748   4747   4750   4751     1  0.0000000  0.6508444  3
   4748   4747   4750   4752     1  0.0000000  0.6508444  3
   4749   4747   4740   4769     1  0.0000000  0.6508444  3
   4749   4747   4750   4759     1  0.0000000  0.6508444  3
   4749   4747   4750   4751     1  0.0000000  0.6508444  3
   4749   4747   4750   4752     1  0.0000000  0.6508444  3
   4750   4747   4740   4769     1  0.0000000  0.6508444  3
   4751   4750   4759   4768     1  0.0000000  1.0460000  1
   4751   4750   4759   4768     1  0.0000000  0.0000000  3
   4751   4750   4759   4760     1  0.0000000  0.6508444  3
   4751   4750   4759   4761     1  0.0000000  0.6508444  3
   4752   4750   4759   4768     1  0.0000000  1.0460000  1
   4752   4750   4759   4768     1  0.0000000  0.0000000  3
   4752   4750   4759   4760     1  0.0000000  0.6508444  3
   4752   4750   4759   4761     1  0.0000000  0.6508444  3
   4753   4741   4740   4769     1  0.0000000  0.6508444  3
   4754   4753   4765   9598     1  0.0000000  1.0460000  1
   4754   4753   4765   9598     1  0.0000000  0.0000000  3
   4754   4753   4765   4766     1  0.0000000  0.6508444  3
   4754   4753   4765   4767     1  0.0000000  0.6508444  3
   4755   4753   4765   9598     1  0.0000000  1.0460000  1
   4755   4753   4765   9598     1  0.0000000  0.0000000  3
   4755   4753   4765   4766     1  0.0000000  0.6508444  3
   4755   4753   4765   4767     1  0.0000000  0.6508444  3
   4756   4744   4740   4769     1  0.0000000  0.6508444  3
   4757   4756   4762   9568     1  0.0000000  1.0460000  1
   4757   4756   4762   9568     1  0.0000000  0.0000000  3
   4757   4756   4762   4763     1  0.0000000  0.6508444  3
   4757   4756   4762   4764     1  0.0000000  0.6508444  3
   4758   4756   4762   9568     1  0.0000000  1.0460000  1
   4758   4756   4762   9568     1  0.0000000  0.0000000  3
   4758   4756   4762   4763     1  0.0000000  0.6508444  3
   4758   4756   4762   4764     1  0.0000000  0.6508444  3
   4762   9568   9559   9560     1  0.0000000  1.6038667  3
   4762   9568   9559   9561     1  0.0000000  1.6038667  3
   4763   4762   9568   9559     1  0.0000000  1.6038667  3
   4764   4762   9568   9559     1  0.0000000  1.6038667  3
   4765   9598   9589   9590     1  0.0000000  1.6038667  3
   4765   9598   9589   9591     1  0.0000000  1.6038667  3
   4766   4765   9598   9589     1  0.0000000  1.6038667  3
   4767   4765   9598   9589     1  0.0000000  1.6038667  3
   4770   4771   4783   4784     1  0.0000000  0.6508444  3
   4770   4771   4783   4785     1  0.0000000  0.6508444  3
   4770   4774   4786   4787     1  0.0000000  0.6508444  3
   4770   4774   4786   4788     1  0.0000000  0.6508444  3
   4770   4777   4780   4781     1  0.0000000  0.6508444  3
   4770   4777   4780   4782     1  0.0000000  0.6508444  3
   4771   4770   4774   4775     1  0.0000000  0.6508444  3
   4771   4770   4774   4776     1  0.0000000  0.6508444  3
   4771   4770   4777   4778     1  0.0000000  0.6508444  3
   4771   4770   4777   4779     1  0.0000000  0.6508444  3
   4771   4783   4795   4796     1  0.0000000  0.6508444  3
   4771   4783   4795   4797     1  0.0000000  0.6508444  3
   4772   4771   4770   4774     1  0.0000000  0.6508444  3
   4772   4771   4770   4777     1  0.0000000  0.6508444  3
   4772   4771   4770   4799     1  0.0000000  0.6508444  3
   4772   4771   4783   4795     1  0.0000000  0.6508444  3
   4772   4771   4783   4784     1  0.0000000  0.6508444  3
   4772   4771   4783   4785     1  0.0000000  0.6508444  3
   4773   4771   4770   4774     1  0.0000000  0.6508444  3
   4773   4771   4770   4777     1  0.0000000  0.6508444  3
   4773   4771   4770   4799     1  0.0000000  0.6508444  3
   4773   4771   4783   4795     1  0.0000000  0.6508444  3
   4773   4771   4783   4784     1  0.0000000  0.6508444  3
   4773   4771   4783   4785     1  0.0000000  0.6508444  3
   4774   4770   4777   4778     1  0.0000000  0.6508444  3
   4774   4770   4777   4779     1  0.0000000  0.6508444  3
   4774   4786   4792   4793     1  0.0000000  0.6508444  3
   4774   4786   4792   4794     1  0.0000000  0.6508444  3
   4775   4774   4770   4777     1  0.0000000  0.6508444  3
   4775   4774   4770   4799     1  0.0000000  0.6508444  3
   4775   4774   4786   4792     1  0.0000000  0.6508444  3
   4775   4774   4786   4787     1  0.0000000  0.6508444  3
   4775   4774   4786   4788     1  0.0000000  0.6508444  3
   4776   4774   4770   4777     1  0.0000000  0.6508444  3
   4776   4774   4770   4799     1  0.0000000  0.6508444  3
   4776   4774   4786   4792     1  0.0000000  0.6508444  3
   4776   4774   4786   4787     1  0.0000000  0.6508444  3
   4776   4774   4786   4788     1  0.0000000  0.6508444  3
   4777   4780   4789   4790     1  0.0000000  0.6508444  3
   4777   4780   4789   4791     1  0.0000000  0.6508444  3
   4778   4777   4770   4799     1  0.0000000  0.6508444  3
   4778   4777   4780   4789     1  0.0000000  0.6508444  3
   4778   4777   4780   4781     1  0.0000000  0.6508444  3
   4778   4777   4780   4782     1  0.0000000  0.6508444  3
   4779   4777   4770   4799     1  0.0000000  0.6508444  3
   4779   4777   4780   4789     1  0.0000000  0.6508444  3
   4779   4777   4780   4781     1  0.0000000  0.6508444  3
   4779   4777   4780   4782     1  0.0000000  0.6508444  3
   4780   4777   4770   4799     1  0.0000000  0.6508444  3
   4781   4780   4789   4798     1  0.0000000  1.0460000  1
   4781   4780   4789   4798     1  0.0000000  0.0000000  3
   4781   4780   4789   4790     1  0.0000000  0.6508444  3
   4781   4780   4789   4791     1  0.0000000  0.6508444  3
   4782   4780   4789   4798     1  0.0000000  1.0460000  1
   4782   4780   4789   4798     1  0.0000000  0.0000000  3
   4782   4780   4789   4790     1  0.0000000  0.6508444  3
   4782   4780   4789   4791     1  0.0000000  0.6508444  3
   4783   4771   4770   4799     1  0.0000000  0.6508444  3
   4784   4783   4795   9658     1  0.0000000  1.0460000  1
   4784   4783   4795   9658     1  0.0000000  0.0000000  3
   4784   4783   4795   4796     1  0.0000000  0.6508444  3
   4784   4783   4795   4797     1  0.0000000  0.6508444  3
   4785   4783   4795   9658     1  0.0000000  1.0460000  1
   4785   4783   4795   9658     1  0.0000000  0.0000000  3
   4785   4783   4795   4796     1  0.0000000  0.6508444  3
   4785   4783   4795   4797     1  0.0000000  0.6508444  3
   4786   4774   4770   4799     1  0.0000000  0.6508444  3
   4787   4786   4792   9628     1  0.0000000  1.0460000  1
   4787   4786   4792   9628     1  0.0000000  0.0000000  3
   4787   4786   4792   4793     1  0.0000000  0.6508444  3
   4787   4786   4792   4794     1  0.0000000  0.6508444  3
   4788   4786   4792   9628     1  0.0000000  1.0460000  1
   4788   4786   4792   9628     1  0.0000000  0.0000000  3
   4788   4786   4792   4793     1  0.0000000  0.6508444  3
   4788   4786   4792   4794     1  0.0000000  0.6508444  3
   4792   9628   9619   9620     1  0.0000000  1.6038667  3
   4792   9628   9619   9621     1  0.0000000  1.6038667  3
   4793   4792   9628   9619     1  0.0000000  1.6038667  3
   4794   4792   9628   9619     1  0.0000000  1.6038667  3
   4795   9658   9649   9650     1  0.0000000  1.6038667  3
   4795   9658   9649   9651     1  0.0000000  1.6038667  3
   4796   4795   9658   9649     1  0.0000000  1.6038667  3
   4797   4795   9658   9649     1  0.0000000  1.6038667  3
   4800   4801   4813   4814     1  0.0000000  0.6508444  3
   4800   4801   4813   4815     1  0.0000000  0.6508444  3
   4800   4804   4816   4817     1  0.0000000  0.6508444  3
   4800   4804   4816   4818     1  0.0000000  0.6508444  3
   4800   4807   4810   4811     1  0.0000000  0.6508444  3
   4800   4807   4810   4812     1  0.0000000  0.6508444  3
   4801   4800   4804   4805     1  0.0000000  0.6508444  3
   4801   4800   4804   4806     1  0.0000000  0.6508444  3
   4801   4800   4807   4808     1  0.0000000  0.6508444  3
   4801   4800   4807   4809     1  0.0000000  0.6508444  3
   4801   4813   4825   4826     1  0.0000000  0.6508444  3
   4801   4813   4825   4827     1  0.0000000  0.6508444  3
   4802   4801   4800   4804     1  0.0000000  0.6508444  3
   4802   4801   4800   4807     1  0.0000000  0.6508444  3
   4802   4801   4800   4829     1  0.0000000  0.6508444  3
   4802   4801   4813   4825     1  0.0000000  0.6508444  3
   4802   4801   4813   4814     1  0.0000000  0.6508444  3
   4802   4801   4813   4815     1  0.0000000  0.6508444  3
   4803   4801   4800   4804     1  0.0000000  0.6508444  3
   4803   4801   4800   4807     1  0.0000000  0.6508444  3
   4803   4801   4800   4829     1  0.0000000  0.6508444  3
   4803   4801   4813   4825     1  0.0000000  0.6508444  3
   4803   4801   4813   4814     1  0.0000000  0.6508444  3
   4803   4801   4813   4815     1  0.0000000  0.6508444  3
   4804   4800   4807   4808     1  0.0000000  0.6508444  3
   4804   4800   4807   4809     1  0.0000000  0.6508444  3
   4804   4816   4822   4823     1  0.0000000  0.6508444  3
   4804   4816   4822   4824     1  0.0000000  0.6508444  3
   4805   4804   4800   4807     1  0.0000000  0.6508444  3
   4805   4804   4800   4829     1  0.0000000  0.6508444  3
   4805   4804   4816   4822     1  0.0000000  0.6508444  3
   4805   4804   4816   4817     1  0.0000000  0.6508444  3
   4805   4804   4816   4818     1  0.0000000  0.6508444  3
   4806   4804   4800   4807     1  0.0000000  0.6508444  3
   4806   4804   4800   4829     1  0.0000000  0.6508444  3
   4806   4804   4816   4822     1  0.0000000  0.6508444  3
   4806   4804   4816   4817     1  0.0000000  0.6508444  3
   4806   4804   4816   4818     1  0.0000000  0.6508444  3
   4807   4810   4819   4820     1  0.0000000  0.6508444  3
   4807   4810   4819   4821     1  0.0000000  0.6508444  3
   4808   4807   4800   4829     1  0.0000000  0.6508444  3
   4808   4807   4810   4819     1  0.0000000  0.6508444  3
   4808   4807   4810   4811     1  0.0000000  0.6508444  3
   4808   4807   4810   4812     1  0.0000000  0.6508444  3
   4809   4807   4800   4829     1  0.0000000  0.6508444  3
   4809   4807   4810   4819     1  0.0000000  0.6508444  3
   4809   4807   4810   4811     1  0.0000000  0.6508444  3
   4809   4807   4810   4812     1  0.0000000  0.6508444  3
   4810   4807   4800   4829     1  0.0000000  0.6508444  3
   4811   4810   4819   4828     1  0.0000000  1.0460000  1
   4811   4810   4819   4828     1  0.0000000  0.0000000  3
   4811   4810   4819   4820     1  0.0000000  0.6508444  3
   4811   4810   4819   4821     1  0.0000000  0.6508444  3
   4812   4810   4819   4828     1  0.0000000  1.0460000  1
   4812   4810   4819   4828     1  0.0000000  0.0000000  3
   4812   4810   4819   4820     1  0.0000000  0.6508444  3
   4812   4810   4819   4821     1  0.0000000  0.6508444  3
   4813   4801   4800   4829     1  0.0000000  0.6508444  3
   4814   4813   4825   9718     1  0.0000000  1.0460000  1
   4814   4813   4825   9718     1  0.0000000  0.0000000  3
   4814   4813   4825   4826     1  0.0000000  0.6508444  3
   4814   4813   4825   4827     1  0.0000000  0.6508444  3
   4815   4813   4825   9718     1  0.0000000  1.0460000  1
   4815   4813   4825   9718     1  0.0000000  0.0000000  3
   4815   4813   4825   4826     1  0.0000000  0.6508444  3
   4815   4813   4825   4827     1  0.0000000  0.6508444  3
   4816   4804   4800   4829     1  0.0000000  0.6508444  3
   4817   4816   4822   9688     1  0.0000000  1.0460000  1
   4817   4816   4822   9688     1  0.0000000  0.0000000  3
   4817   4816   4822   4823     1  0.0000000  0.6508444  3
   4817   4816   4822   4824     1  0.0000000  0.6508444  3
   4818   4816   4822   9688     1  0.0000000  1.0460000  1
   4818   4816   4822   9688     1  0.0000000  0.0000000  3
   4818   4816   4822   4823     1  0.0000000  0.6508444  3
   4818   4816   4822   4824     1  0.0000000  0.6508444  3
   4822   9688   9679   9680     1  0.0000000  1.6038667  3
   4822   9688   9679   9681     1  0.0000000  1.6038667  3
   4823   4822   9688   9679     1  0.0000000  1.6038667  3
   4824   4822   9688   9679     1  0.0000000  1.6038667  3
   4825   9718   9709   9710     1  0.0000000  1.6038667  3
   4825   9718   9709   9711     1  0.0000000  1.6038667  3
   4826   4825   9718   9709     1  0.0000000  1.6038667  3
   4827   4825   9718   9709     1  0.0000000  1.6038667  3
   4830   4831   4843   4844     1  0.0000000  0.6508444  3
   4830   4831   4843   4845     1  0.0000000  0.6508444  3
   4830   4834   4846   4847     1  0.0000000  0.6508444  3
   4830   4834   4846   4848     1  0.0000000  0.6508444  3
   4830   4837   4840   4841     1  0.0000000  0.6508444  3
   4830   4837   4840   4842     1  0.0000000  0.6508444  3
   4831   4830   4834   4835     1  0.0000000  0.6508444  3
   4831   4830   4834   4836     1  0.0000000  0.6508444  3
   4831   4830   4837   4838     1  0.0000000  0.6508444  3
   4831   4830   4837   4839     1  0.0000000  0.6508444  3
   4831   4843   4855   4856     1  0.0000000  0.6508444  3
   4831   4843   4855   4857     1  0.0000000  0.6508444  3
   4832   4831   4830   4834     1  0.0000000  0.6508444  3
   4832   4831   4830   4837     1  0.0000000  0.6508444  3
   4832   4831   4830   4859     1  0.0000000  0.6508444  3
   4832   4831   4843   4855     1  0.0000000  0.6508444  3
   4832   4831   4843   4844     1  0.0000000  0.6508444  3
   4832   4831   4843   4845     1  0.0000000  0.6508444  3
   4833   4831   4830   4834     1  0.0000000  0.6508444  3
   4833   4831   4830   4837     1  0.0000000  0.6508444  3
   4833   4831   4830   4859     1  0.0000000  0.6508444  3
   4833   4831   4843   4855     1  0.0000000  0.6508444  3
   4833   4831   4843   4844     1  0.0000000  0.6508444  3
   4833   4831   4843   4845     1  0.0000000  0.6508444  3
   4834   4830   4837   4838     1  0.0000000  0.6508444  3
   4834   4830   4837   4839     1  0.0000000  0.6508444  3
   4834   4846   4852   4853     1  0.0000000  0.6508444  3
   4834   4846   4852   4854     1  0.0000000  0.6508444  3
   4835   4834   4830   4837     1  0.0000000  0.6508444  3
   4835   4834   4830   4859     1  0.0000000  0.6508444  3
   4835   4834   4846   4852     1  0.0000000  0.6508444  3
   4835   4834   4846   4847     1  0.0000000  0.6508444  3
   4835   4834   4846   4848     1  0.0000000  0.6508444  3
   4836   4834   4830   4837     1  0.0000000  0.6508444  3
   4836   4834   4830   4859     1  0.0000000  0.6508444  3
   4836   4834   4846   4852     1  0.0000000  0.6508444  3
   4836   4834   4846   4847     1  0.0000000  0.6508444  3
   4836   4834   4846   4848     1  0.0000000  0.6508444  3
   4837   4840   4849   4850     1  0.0000000  0.6508444  3
   4837   4840   4849   4851     1  0.0000000  0.6508444  3
   4838   4837   4830   4859     1  0.0000000  0.6508444  3
   4838   4837   4840   4849     1  0.0000000  0.6508444  3
   4838   4837   4840   4841     1  0.0000000  0.6508444  3
   4838   4837   4840   4842     1  0.0000000  0.6508444  3
   4839   4837   4830   4859     1  0.0000000  0.6508444  3
   4839   4837   4840   4849     1  0.0000000  0.6508444  3
   4839   4837   4840   4841     1  0.0000000  0.6508444  3
   4839   4837   4840   4842     1  0.0000000  0.6508444  3
   4840   4837   4830   4859     1  0.0000000  0.6508444  3
   4841   4840   4849   4858     1  0.0000000  1.0460000  1
   4841   4840   4849   4858     1  0.0000000  0.0000000  3
   4841   4840   4849   4850     1  0.0000000  0.6508444  3
   4841   4840   4849   4851     1  0.0000000  0.6508444  3
   4842   4840   4849   4858     1  0.0000000  1.0460000  1
   4842   4840   4849   4858     1  0.0000000  0.0000000  3
   4842   4840   4849   4850     1  0.0000000  0.6508444  3
   4842   4840   4849   4851     1  0.0000000  0.6508444  3
   4843   4831   4830   4859     1  0.0000000  0.6508444  3
   4844   4843   4855   9778     1  0.0000000  1.0460000  1
   4844   4843   4855   9778     1  0.0000000  0.0000000  3
   4844   4843   4855   4856     1  0.0000000  0.6508444  3
   4844   4843   4855   4857     1  0.0000000  0.6508444  3
   4845   4843   4855   9778     1  0.0000000  1.0460000  1
   4845   4843   4855   9778     1  0.0000000  0.0000000  3
   4845   4843   4855   4856     1  0.0000000  0.6508444  3
   4845   4843   4855   4857     1  0.0000000  0.6508444  3
   4846   4834   4830   4859     1  0.0000000  0.6508444  3
   4847   4846   4852   9748     1  0.0000000  1.0460000  1
   4847   4846   4852   9748     1  0.0000000  0.0000000  3
   4847   4846   4852   4853     1  0.0000000  0.6508444  3
   4847   4846   4852   4854     1  0.0000000  0.6508444  3
   4848   4846   4852   9748     1  0.0000000  1.0460000  1
   4848   4846   4852   9748     1  0.0000000  0.0000000  3
   4848   4846   4852   4853     1  0.0000000  0.6508444  3
   4848   4846   4852   4854     1  0.0000000  0.6508444  3
   4852   9748   9739   9740     1  0.0000000  1.6038667  3
   4852   9748   9739   9741     1  0.0000000  1.6038667  3
   4853   4852   9748   9739     1  0.0000000  1.6038667  3
   4854   4852   9748   9739     1  0.0000000  1.6038667  3
   4855   9778   9769   9770     1  0.0000000  1.6038667  3
   4855   9778   9769   9771     1  0.0000000  1.6038667  3
   4856   4855   9778   9769     1  0.0000000  1.6038667  3
   4857   4855   9778   9769     1  0.0000000  1.6038667  3
   4860   4861   4873   4874     1  0.0000000  0.6508444  3
   4860   4861   4873   4875     1  0.0000000  0.6508444  3
   4860   4864   4876   4877     1  0.0000000  0.6508444  3
   4860   4864   4876   4878     1  0.0000000  0.6508444  3
   4860   4867   4870   4871     1  0.0000000  0.6508444  3
   4860   4867   4870   4872     1  0.0000000  0.6508444  3
   4861   4860   4864   4865     1  0.0000000  0.6508444  3
   4861   4860   4864   4866     1  0.0000000  0.6508444  3
   4861   4860   4867   4868     1  0.0000000  0.6508444  3
   4861   4860   4867   4869     1  0.0000000  0.6508444  3
   4861   4873   4885   4886     1  0.0000000  0.6508444  3
   4861   4873   4885   4887     1  0.0000000  0.6508444  3
   4862   4861   4860   4864     1  0.0000000  0.6508444  3
   4862   4861   4860   4867     1  0.0000000  0.6508444  3
   4862   4861   4860   4889     1  0.0000000  0.6508444  3
   4862   4861   4873   4885     1  0.0000000  0.6508444  3
   4862   4861   4873   4874     1  0.0000000  0.6508444  3
   4862   4861   4873   4875     1  0.0000000  0.6508444  3
   4863   4861   4860   4864     1  0.0000000  0.6508444  3
   4863   4861   4860   4867     1  0.0000000  0.6508444  3
   4863   4861   4860   4889     1  0.0000000  0.6508444  3
   4863   4861   4873   4885     1  0.0000000  0.6508444  3
   4863   4861   4873   4874     1  0.0000000  0.6508444  3
   4863   4861   4873   4875     1  0.0000000  0.6508444  3
   4864   4860   4867   4868     1  0.0000000  0.6508444  3
   4864   4860   4867   4869     1  0.0000000  0.6508444  3
   4864   4876   4882   4883     1  0.0000000  0.6508444  3
   4864   4876   4882   4884     1  0.0000000  0.6508444  3
   4865   4864   4860   4867     1  0.0000000  0.6508444  3
   4865   4864   4860   4889     1  0.0000000  0.6508444  3
   4865   4864   4876   4882     1  0.0000000  0.6508444  3
   4865   4864   4876   4877     1  0.0000000  0.6508444  3
   4865   4864   4876   4878     1  0.0000000  0.6508444  3
   4866   4864   4860   4867     1  0.0000000  0.6508444  3
   4866   4864   4860   4889     1  0.0000000  0.6508444  3
   4866   4864   4876   4882     1  0.0000000  0.6508444  3
   4866   4864   4876   4877     1  0.0000000  0.6508444  3
   4866   4864   4876   4878     1  0.0000000  0.6508444  3
   4867   4870   4879   4880     1  0.0000000  0.6508444  3
   4867   4870   4879   4881     1  0.0000000  0.6508444  3
   4868   4867   4860   4889     1  0.0000000  0.6508444  3
   4868   4867   4870   4879     1  0.0000000  0.6508444  3
   4868   4867   4870   4871     1  0.0000000  0.6508444  3
   4868   4867   4870   4872     1  0.0000000  0.6508444  3
   4869   4867   4860   4889     1  0.0000000  0.6508444  3
   4869   4867   4870   4879     1  0.0000000  0.6508444  3
   4869   4867   4870   4871     1  0.0000000  0.6508444  3
   4869   4867   4870   4872     1  0.0000000  0.6508444  3
   4870   4867   4860   4889     1  0.0000000  0.6508444  3
   4871   4870   4879   4888     1  0.0000000  1.0460000  1
   4871   4870   4879   4888     1  0.0000000  0.0000000  3
   4871   4870   4879   4880     1  0.0000000  0.6508444  3
   4871   4870   4879   4881     1  0.0000000  0.6508444  3
   4872   4870   4879   4888     1  0.0000000  1.0460000  1
   4872   4870   4879   4888     1  0.0000000  0.0000000  3
   4872   4870   4879   4880     1  0.0000000  0.6508444  3
   4872   4870   4879   4881     1  0.0000000  0.6508444  3
   4873   4861   4860   4889     1  0.0000000  0.6508444  3
   4874   4873   4885   9838     1  0.0000000  1.0460000  1
   4874   4873   4885   9838     1  0.0000000  0.0000000  3
   4874   4873   4885   4886     1  0.0000000  0.6508444  3
   4874   4873   4885   4887     1  0.0000000  0.6508444  3
   4875   4873   4885   9838     1  0.0000000  1.0460000  1
   4875   4873   4885   9838     1  0.0000000  0.0000000  3
   4875   4873   4885   4886     1  0.0000000  0.6508444  3
   4875   4873   4885   4887     1  0.0000000  0.6508444  3
   4876   4864   4860   4889     1  0.0000000  0.6508444  3
   4877   4876   4882   9808     1  0.0000000  1.0460000  1
   4877   4876   4882   9808     1  0.0000000  0.0000000  3
   4877   4876   4882   4883     1  0.0000000  0.6508444  3
   4877   4876   4882   4884     1  0.0000000  0.6508444  3
   4878   4876   4882   9808     1  0.0000000  1.0460000  1
   4878   4876   4882   9808     1  0.0000000  0.0000000  3
   4878   4876   4882   4883     1  0.0000000  0.6508444  3
   4878   4876   4882   4884     1  0.0000000  0.6508444  3
   4882   9808   9799   9800     1  0.0000000  1.6038667  3
   4882   9808   9799   9801     1  0.0000000  1.6038667  3
   4883   4882   9808   9799     1  0.0000000  1.6038667  3
   4884   4882   9808   9799     1  0.0000000  1.6038667  3
   4885   9838   9829   9830     1  0.0000000  1.6038667  3
   4885   9838   9829   9831     1  0.0000000  1.6038667  3
   4886   4885   9838   9829     1  0.0000000  1.6038667  3
   4887   4885   9838   9829     1  0.0000000  1.6038667  3
   4890   4891   4903   4904     1  0.0000000  0.6508444  3
   4890   4891   4903   4905     1  0.0000000  0.6508444  3
   4890   4894   4906   4907     1  0.0000000  0.6508444  3
   4890   4894   4906   4908     1  0.0000000  0.6508444  3
   4890   4897   4900   4901     1  0.0000000  0.6508444  3
   4890   4897   4900   4902     1  0.0000000  0.6508444  3
   4891   4890   4894   4895     1  0.0000000  0.6508444  3
   4891   4890   4894   4896     1  0.0000000  0.6508444  3
   4891   4890   4897   4898     1  0.0000000  0.6508444  3
   4891   4890   4897   4899     1  0.0000000  0.6508444  3
   4891   4903   4915   4916     1  0.0000000  0.6508444  3
   4891   4903   4915   4917     1  0.0000000  0.6508444  3
   4892   4891   4890   4894     1  0.0000000  0.6508444  3
   4892   4891   4890   4897     1  0.0000000  0.6508444  3
   4892   4891   4890   4919     1  0.0000000  0.6508444  3
   4892   4891   4903   4915     1  0.0000000  0.6508444  3
   4892   4891   4903   4904     1  0.0000000  0.6508444  3
   4892   4891   4903   4905     1  0.0000000  0.6508444  3
   4893   4891   4890   4894     1  0.0000000  0.6508444  3
   4893   4891   4890   4897     1  0.0000000  0.6508444  3
   4893   4891   4890   4919     1  0.0000000  0.6508444  3
   4893   4891   4903   4915     1  0.0000000  0.6508444  3
   4893   4891   4903   4904     1  0.0000000  0.6508444  3
   4893   4891   4903   4905     1  0.0000000  0.6508444  3
   4894   4890   4897   4898     1  0.0000000  0.6508444  3
   4894   4890   4897   4899     1  0.0000000  0.6508444  3
   4894   4906   4912   4913     1  0.0000000  0.6508444  3
   4894   4906   4912   4914     1  0.0000000  0.6508444  3
   4895   4894   4890   4897     1  0.0000000  0.6508444  3
   4895   4894   4890   4919     1  0.0000000  0.6508444  3
   4895   4894   4906   4912     1  0.0000000  0.6508444  3
   4895   4894   4906   4907     1  0.0000000  0.6508444  3
   4895   4894   4906   4908     1  0.0000000  0.6508444  3
   4896   4894   4890   4897     1  0.0000000  0.6508444  3
   4896   4894   4890   4919     1  0.0000000  0.6508444  3
   4896   4894   4906   4912     1  0.0000000  0.6508444  3
   4896   4894   4906   4907     1  0.0000000  0.6508444  3
   4896   4894   4906   4908     1  0.0000000  0.6508444  3
   4897   4900   4909   4910     1  0.0000000  0.6508444  3
   4897   4900   4909   4911     1  0.0000000  0.6508444  3
   4898   4897   4890   4919     1  0.0000000  0.6508444  3
   4898   4897   4900   4909     1  0.0000000  0.6508444  3
   4898   4897   4900   4901     1  0.0000000  0.6508444  3
   4898   4897   4900   4902     1  0.0000000  0.6508444  3
   4899   4897   4890   4919     1  0.0000000  0.6508444  3
   4899   4897   4900   4909     1  0.0000000  0.6508444  3
   4899   4897   4900   4901     1  0.0000000  0.6508444  3
   4899   4897   4900   4902     1  0.0000000  0.6508444  3
   4900   4897   4890   4919     1  0.0000000  0.6508444  3
   4901   4900   4909   4918     1  0.0000000  1.0460000  1
   4901   4900   4909   4918     1  0.0000000  0.0000000  3
   4901   4900   4909   4910     1  0.0000000  0.6508444  3
   4901   4900   4909   4911     1  0.0000000  0.6508444  3
   4902   4900   4909   4918     1  0.0000000  1.0460000  1
   4902   4900   4909   4918     1  0.0000000  0.0000000  3
   4902   4900   4909   4910     1  0.0000000  0.6508444  3
   4902   4900   4909   4911     1  0.0000000  0.6508444  3
   4903   4891   4890   4919     1  0.0000000  0.6508444  3
   4904   4903   4915   9898     1  0.0000000  1.0460000  1
   4904   4903   4915   9898     1  0.0000000  0.0000000  3
   4904   4903   4915   4916     1  0.0000000  0.6508444  3
   4904   4903   4915   4917     1  0.0000000  0.6508444  3
   4905   4903   4915   9898     1  0.0000000  1.0460000  1
   4905   4903   4915   9898     1  0.0000000  0.0000000  3
   4905   4903   4915   4916     1  0.0000000  0.6508444  3
   4905   4903   4915   4917     1  0.0000000  0.6508444  3
   4906   4894   4890   4919     1  0.0000000  0.6508444  3
   4907   4906   4912   9868     1  0.0000000  1.0460000  1
   4907   4906   4912   9868     1  0.0000000  0.0000000  3
   4907   4906   4912   4913     1  0.0000000  0.6508444  3
   4907   4906   4912   4914     1  0.0000000  0.6508444  3
   4908   4906   4912   9868     1  0.0000000  1.0460000  1
   4908   4906   4912   9868     1  0.0000000  0.0000000  3
   4908   4906   4912   4913     1  0.0000000  0.6508444  3
   4908   4906   4912   4914     1  0.0000000  0.6508444  3
   4912   9868   9859   9860     1  0.0000000  1.6038667  3
   4912   9868   9859   9861     1  0.0000000  1.6038667  3
   4913   4912   9868   9859     1  0.0000000  1.6038667  3
   4914   4912   9868   9859     1  0.0000000  1.6038667  3
   4915   9898   9889   9890     1  0.0000000  1.6038667  3
   4915   9898   9889   9891     1  0.0000000  1.6038667  3
   4916   4915   9898   9889     1  0.0000000  1.6038667  3
   4917   4915   9898   9889     1  0.0000000  1.6038667  3
   4920   4921   4933   4934     1  0.0000000  0.6508444  3
   4920   4921   4933   4935     1  0.0000000  0.6508444  3
   4920   4924   4936   4937     1  0.0000000  0.6508444  3
   4920   4924   4936   4938     1  0.0000000  0.6508444  3
   4920   4927   4930   4931     1  0.0000000  0.6508444  3
   4920   4927   4930   4932     1  0.0000000  0.6508444  3
   4921   4920   4924   4925     1  0.0000000  0.6508444  3
   4921   4920   4924   4926     1  0.0000000  0.6508444  3
   4921   4920   4927   4928     1  0.0000000  0.6508444  3
   4921   4920   4927   4929     1  0.0000000  0.6508444  3
   4921   4933   4945   4946     1  0.0000000  0.6508444  3
   4921   4933   4945   4947     1  0.0000000  0.6508444  3
   4922   4921   4920   4924     1  0.0000000  0.6508444  3
   4922   4921   4920   4927     1  0.0000000  0.6508444  3
   4922   4921   4920   4949     1  0.0000000  0.6508444  3
   4922   4921   4933   4945     1  0.0000000  0.6508444  3
   4922   4921   4933   4934     1  0.0000000  0.6508444  3
   4922   4921   4933   4935     1  0.0000000  0.6508444  3
   4923   4921   4920   4924     1  0.0000000  0.6508444  3
   4923   4921   4920   4927     1  0.0000000  0.6508444  3
   4923   4921   4920   4949     1  0.0000000  0.6508444  3
   4923   4921   4933   4945     1  0.0000000  0.6508444  3
   4923   4921   4933   4934     1  0.0000000  0.6508444  3
   4923   4921   4933   4935     1  0.0000000  0.6508444  3
   4924   4920   4927   4928     1  0.0000000  0.6508444  3
   4924   4920   4927   4929     1  0.0000000  0.6508444  3
   4924   4936   4942   4943     1  0.0000000  0.6508444  3
   4924   4936   4942   4944     1  0.0000000  0.6508444  3
   4925   4924   4920   4927     1  0.0000000  0.6508444  3
   4925   4924   4920   4949     1  0.0000000  0.6508444  3
   4925   4924   4936   4942     1  0.0000000  0.6508444  3
   4925   4924   4936   4937     1  0.0000000  0.6508444  3
   4925   4924   4936   4938     1  0.0000000  0.6508444  3
   4926   4924   4920   4927     1  0.0000000  0.6508444  3
   4926   4924   4920   4949     1  0.0000000  0.6508444  3
   4926   4924   4936   4942     1  0.0000000  0.6508444  3
   4926   4924   4936   4937     1  0.0000000  0.6508444  3
   4926   4924   4936   4938     1  0.0000000  0.6508444  3
   4927   4930   4939   4940     1  0.0000000  0.6508444  3
   4927   4930   4939   4941     1  0.0000000  0.6508444  3
   4928   4927   4920   4949     1  0.0000000  0.6508444  3
   4928   4927   4930   4939     1  0.0000000  0.6508444  3
   4928   4927   4930   4931     1  0.0000000  0.6508444  3
   4928   4927   4930   4932     1  0.0000000  0.6508444  3
   4929   4927   4920   4949     1  0.0000000  0.6508444  3
   4929   4927   4930   4939     1  0.0000000  0.6508444  3
   4929   4927   4930   4931     1  0.0000000  0.6508444  3
   4929   4927   4930   4932     1  0.0000000  0.6508444  3
   4930   4927   4920   4949     1  0.0000000  0.6508444  3
   4931   4930   4939   4948     1  0.0000000  1.0460000  1
   4931   4930   4939   4948     1  0.0000000  0.0000000  3
   4931   4930   4939   4940     1  0.0000000  0.6508444  3
   4931   4930   4939   4941     1  0.0000000  0.6508444  3
   4932   4930   4939   4948     1  0.0000000  1.0460000  1
   4932   4930   4939   4948     1  0.0000000  0.0000000  3
   4932   4930   4939   4940     1  0.0000000  0.6508444  3
   4932   4930   4939   4941     1  0.0000000  0.6508444  3
   4933   4921   4920   4949     1  0.0000000  0.6508444  3
   4934   4933   4945   9958     1  0.0000000  1.0460000  1
   4934   4933   4945   9958     1  0.0000000  0.0000000  3
   4934   4933   4945   4946     1  0.0000000  0.6508444  3
   4934   4933   4945   4947     1  0.0000000  0.6508444  3
   4935   4933   4945   9958     1  0.0000000  1.0460000  1
   4935   4933   4945   9958     1  0.0000000  0.0000000  3
   4935   4933   4945   4946     1  0.0000000  0.6508444  3
   4935   4933   4945   4947     1  0.0000000  0.6508444  3
   4936   4924   4920   4949     1  0.0000000  0.6508444  3
   4937   4936   4942   9928     1  0.0000000  1.0460000  1
   4937   4936   4942   9928     1  0.0000000  0.0000000  3
   4937   4936   4942   4943     1  0.0000000  0.6508444  3
   4937   4936   4942   4944     1  0.0000000  0.6508444  3
   4938   4936   4942   9928     1  0.0000000  1.0460000  1
   4938   4936   4942   9928     1  0.0000000  0.0000000  3
   4938   4936   4942   4943     1  0.0000000  0.6508444  3
   4938   4936   4942   4944     1  0.0000000  0.6508444  3
   4942   9928   9919   9920     1  0.0000000  1.6038667  3
   4942   9928   9919   9921     1  0.0000000  1.6038667  3
   4943   4942   9928   9919     1  0.0000000  1.6038667  3
   4944   4942   9928   9919     1  0.0000000  1.6038667  3
   4945   9958   9949   9950     1  0.0000000  1.6038667  3
   4945   9958   9949   9951     1  0.0000000  1.6038667  3
   4946   4945   9958   9949     1  0.0000000  1.6038667  3
   4947   4945   9958   9949     1  0.0000000  1.6038667  3
   4950   4951   4963   4964     1  0.0000000  0.6508444  3
   4950   4951   4963   4965     1  0.0000000  0.6508444  3
   4950   4954   4966   4967     1  0.0000000  0.6508444  3
   4950   4954   4966   4968     1  0.0000000  0.6508444  3
   4950   4957   4960   4961     1  0.0000000  0.6508444  3
   4950   4957   4960   4962     1  0.0000000  0.6508444  3
   4951   4950   4954   4955     1  0.0000000  0.6508444  3
   4951   4950   4954   4956     1  0.0000000  0.6508444  3
   4951   4950   4957   4958     1  0.0000000  0.6508444  3
   4951   4950   4957   4959     1  0.0000000  0.6508444  3
   4951   4963   4975   4976     1  0.0000000  0.6508444  3
   4951   4963   4975   4977     1  0.0000000  0.6508444  3
   4952   4951   4950   4954     1  0.0000000  0.6508444  3
   4952   4951   4950   4957     1  0.0000000  0.6508444  3
   4952   4951   4950   4979     1  0.0000000  0.6508444  3
   4952   4951   4963   4975     1  0.0000000  0.6508444  3
   4952   4951   4963   4964     1  0.0000000  0.6508444  3
   4952   4951   4963   4965     1  0.0000000  0.6508444  3
   4953   4951   4950   4954     1  0.0000000  0.6508444  3
   4953   4951   4950   4957     1  0.0000000  0.6508444  3
   4953   4951   4950   4979     1  0.0000000  0.6508444  3
   4953   4951   4963   4975     1  0.0000000  0.6508444  3
   4953   4951   4963   4964     1  0.0000000  0.6508444  3
   4953   4951   4963   4965     1  0.0000000  0.6508444  3
   4954   4950   4957   4958     1  0.0000000  0.6508444  3
   4954   4950   4957   4959     1  0.0000000  0.6508444  3
   4954   4966   4972   4973     1  0.0000000  0.6508444  3
   4954   4966   4972   4974     1  0.0000000  0.6508444  3
   4955   4954   4950   4957     1  0.0000000  0.6508444  3
   4955   4954   4950   4979     1  0.0000000  0.6508444  3
   4955   4954   4966   4972     1  0.0000000  0.6508444  3
   4955   4954   4966   4967     1  0.0000000  0.6508444  3
   4955   4954   4966   4968     1  0.0000000  0.6508444  3
   4956   4954   4950   4957     1  0.0000000  0.6508444  3
   4956   4954   4950   4979     1  0.0000000  0.6508444  3
   4956   4954   4966   4972     1  0.0000000  0.6508444  3
   4956   4954   4966   4967     1  0.0000000  0.6508444  3
   4956   4954   4966   4968     1  0.0000000  0.6508444  3
   4957   4960   4969   4970     1  0.0000000  0.6508444  3
   4957   4960   4969   4971     1  0.0000000  0.6508444  3
   4958   4957   4950   4979     1  0.0000000  0.6508444  3
   4958   4957   4960   4969     1  0.0000000  0.6508444  3
   4958   4957   4960   4961     1  0.0000000  0.6508444  3
   4958   4957   4960   4962     1  0.0000000  0.6508444  3
   4959   4957   4950   4979     1  0.0000000  0.6508444  3
   4959   4957   4960   4969     1  0.0000000  0.6508444  3
   4959   4957   4960   4961     1  0.0000000  0.6508444  3
   4959   4957   4960   4962     1  0.0000000  0.6508444  3
   4960   4957   4950   4979     1  0.0000000  0.6508444  3
   4961   4960   4969   4978     1  0.0000000  1.0460000  1
   4961   4960   4969   4978     1  0.0000000  0.0000000  3
   4961   4960   4969   4970     1  0.0000000  0.6508444  3
   4961   4960   4969   4971     1  0.0000000  0.6508444  3
   4962   4960   4969   4978     1  0.0000000  1.0460000  1
   4962   4960   4969   4978     1  0.0000000  0.0000000  3
   4962   4960   4969   4970     1  0.0000000  0.6508444  3
   4962   4960   4969   4971     1  0.0000000  0.6508444  3
   4963   4951   4950   4979     1  0.0000000  0.6508444  3
   4964   4963   4975  10018     1  0.0000000  1.0460000  1
   4964   4963   4975  10018     1  0.0000000  0.0000000  3
   4964   4963   4975   4976     1  0.0000000  0.6508444  3
   4964   4963   4975   4977     1  0.0000000  0.6508444  3
   4965   4963   4975  10018     1  0.0000000  1.0460000  1
   4965   4963   4975  10018     1  0.0000000  0.0000000  3
   4965   4963   4975   4976     1  0.0000000  0.6508444  3
   4965   4963   4975   4977     1  0.0000000  0.6508444  3
   4966   4954   4950   4979     1  0.0000000  0.6508444  3
   4967   4966   4972   9988     1  0.0000000  1.0460000  1
   4967   4966   4972   9988     1  0.0000000  0.0000000  3
   4967   4966   4972   4973     1  0.0000000  0.6508444  3
   4967   4966   4972   4974     1  0.0000000  0.6508444  3
   4968   4966   4972   9988     1  0.0000000  1.0460000  1
   4968   4966   4972   9988     1  0.0000000  0.0000000  3
   4968   4966   4972   4973     1  0.0000000  0.6508444  3
   4968   4966   4972   4974     1  0.0000000  0.6508444  3
   4972   9988   9979   9980     1  0.0000000  1.6038667  3
   4972   9988   9979   9981     1  0.0000000  1.6038667  3
   4973   4972   9988   9979     1  0.0000000  1.6038667  3
   4974   4972   9988   9979     1  0.0000000  1.6038667  3
   4975  10018  10009  10010     1  0.0000000  1.6038667  3
   4975  10018  10009  10011     1  0.0000000  1.6038667  3
   4976   4975  10018  10009     1  0.0000000  1.6038667  3
   4977   4975  10018  10009     1  0.0000000  1.6038667  3
   4980   4981   4993   4994     1  0.0000000  0.6508444  3
   4980   4981   4993   4995     1  0.0000000  0.6508444  3
   4980   4984   4996   4997     1  0.0000000  0.6508444  3
   4980   4984   4996   4998     1  0.0000000  0.6508444  3
   4980   4987   4990   4991     1  0.0000000  0.6508444  3
   4980   4987   4990   4992     1  0.0000000  0.6508444  3
   4981   4980   4984   4985     1  0.0000000  0.6508444  3
   4981   4980   4984   4986     1  0.0000000  0.6508444  3
   4981   4980   4987   4988     1  0.0000000  0.6508444  3
   4981   4980   4987   4989     1  0.0000000  0.6508444  3
   4981   4993   5005   5006     1  0.0000000  0.6508444  3
   4981   4993   5005   5007     1  0.0000000  0.6508444  3
   4982   4981   4980   4984     1  0.0000000  0.6508444  3
   4982   4981   4980   4987     1  0.0000000  0.6508444  3
   4982   4981   4980   5009     1  0.0000000  0.6508444  3
   4982   4981   4993   5005     1  0.0000000  0.6508444  3
   4982   4981   4993   4994     1  0.0000000  0.6508444  3
   4982   4981   4993   4995     1  0.0000000  0.6508444  3
   4983   4981   4980   4984     1  0.0000000  0.6508444  3
   4983   4981   4980   4987     1  0.0000000  0.6508444  3
   4983   4981   4980   5009     1  0.0000000  0.6508444  3
   4983   4981   4993   5005     1  0.0000000  0.6508444  3
   4983   4981   4993   4994     1  0.0000000  0.6508444  3
   4983   4981   4993   4995     1  0.0000000  0.6508444  3
   4984   4980   4987   4988     1  0.0000000  0.6508444  3
   4984   4980   4987   4989     1  0.0000000  0.6508444  3
   4984   4996   5002   5003     1  0.0000000  0.6508444  3
   4984   4996   5002   5004     1  0.0000000  0.6508444  3
   4985   4984   4980   4987     1  0.0000000  0.6508444  3
   4985   4984   4980   5009     1  0.0000000  0.6508444  3
   4985   4984   4996   5002     1  0.0000000  0.6508444  3
   4985   4984   4996   4997     1  0.0000000  0.6508444  3
   4985   4984   4996   4998     1  0.0000000  0.6508444  3
   4986   4984   4980   4987     1  0.0000000  0.6508444  3
   4986   4984   4980   5009     1  0.0000000  0.6508444  3
   4986   4984   4996   5002     1  0.0000000  0.6508444  3
   4986   4984   4996   4997     1  0.0000000  0.6508444  3
   4986   4984   4996   4998     1  0.0000000  0.6508444  3
   4987   4990   4999   5000     1  0.0000000  0.6508444  3
   4987   4990   4999   5001     1  0.0000000  0.6508444  3
   4988   4987   4980   5009     1  0.0000000  0.6508444  3
   4988   4987   4990   4999     1  0.0000000  0.6508444  3
   4988   4987   4990   4991     1  0.0000000  0.6508444  3
   4988   4987   4990   4992     1  0.0000000  0.6508444  3
   4989   4987   4980   5009     1  0.0000000  0.6508444  3
   4989   4987   4990   4999     1  0.0000000  0.6508444  3
   4989   4987   4990   4991     1  0.0000000  0.6508444  3
   4989   4987   4990   4992     1  0.0000000  0.6508444  3
   4990   4987   4980   5009     1  0.0000000  0.6508444  3
   4991   4990   4999   5008     1  0.0000000  1.0460000  1
   4991   4990   4999   5008     1  0.0000000  0.0000000  3
   4991   4990   4999   5000     1  0.0000000  0.6508444  3
   4991   4990   4999   5001     1  0.0000000  0.6508444  3
   4992   4990   4999   5008     1  0.0000000  1.0460000  1
   4992   4990   4999   5008     1  0.0000000  0.0000000  3
   4992   4990   4999   5000     1  0.0000000  0.6508444  3
   4992   4990   4999   5001     1  0.0000000  0.6508444  3
   4993   4981   4980   5009     1  0.0000000  0.6508444  3
   4994   4993   5005  10078     1  0.0000000  1.0460000  1
   4994   4993   5005  10078     1  0.0000000  0.0000000  3
   4994   4993   5005   5006     1  0.0000000  0.6508444  3
   4994   4993   5005   5007     1  0.0000000  0.6508444  3
   4995   4993   5005  10078     1  0.0000000  1.0460000  1
   4995   4993   5005  10078     1  0.0000000  0.0000000  3
   4995   4993   5005   5006     1  0.0000000  0.6508444  3
   4995   4993   5005   5007     1  0.0000000  0.6508444  3
   4996   4984   4980   5009     1  0.0000000  0.6508444  3
   4997   4996   5002  10048     1  0.0000000  1.0460000  1
   4997   4996   5002  10048     1  0.0000000  0.0000000  3
   4997   4996   5002   5003     1  0.0000000  0.6508444  3
   4997   4996   5002   5004     1  0.0000000  0.6508444  3
   4998   4996   5002  10048     1  0.0000000  1.0460000  1
   4998   4996   5002  10048     1  0.0000000  0.0000000  3
   4998   4996   5002   5003     1  0.0000000  0.6508444  3
   4998   4996   5002   5004     1  0.0000000  0.6508444  3
   5002  10048  10039  10040     1  0.0000000  1.6038667  3
   5002  10048  10039  10041     1  0.0000000  1.6038667  3
   5003   5002  10048  10039     1  0.0000000  1.6038667  3
   5004   5002  10048  10039     1  0.0000000  1.6038667  3
   5005  10078  10069  10070     1  0.0000000  1.6038667  3
   5005  10078  10069  10071     1  0.0000000  1.6038667  3
   5006   5005  10078  10069     1  0.0000000  1.6038667  3
   5007   5005  10078  10069     1  0.0000000  1.6038667  3
   5010   5011   5023   5024     1  0.0000000  0.6508444  3
   5010   5011   5023   5025     1  0.0000000  0.6508444  3
   5010   5014   5026   5027     1  0.0000000  0.6508444  3
   5010   5014   5026   5028     1  0.0000000  0.6508444  3
   5010   5017   5020   5021     1  0.0000000  0.6508444  3
   5010   5017   5020   5022     1  0.0000000  0.6508444  3
   5011   5010   5014   5015     1  0.0000000  0.6508444  3
   5011   5010   5014   5016     1  0.0000000  0.6508444  3
   5011   5010   5017   5018     1  0.0000000  0.6508444  3
   5011   5010   5017   5019     1  0.0000000  0.6508444  3
   5011   5023   5035   5036     1  0.0000000  0.6508444  3
   5011   5023   5035   5037     1  0.0000000  0.6508444  3
   5012   5011   5010   5014     1  0.0000000  0.6508444  3
   5012   5011   5010   5017     1  0.0000000  0.6508444  3
   5012   5011   5010   5039     1  0.0000000  0.6508444  3
   5012   5011   5023   5035     1  0.0000000  0.6508444  3
   5012   5011   5023   5024     1  0.0000000  0.6508444  3
   5012   5011   5023   5025     1  0.0000000  0.6508444  3
   5013   5011   5010   5014     1  0.0000000  0.6508444  3
   5013   5011   5010   5017     1  0.0000000  0.6508444  3
   5013   5011   5010   5039     1  0.0000000  0.6508444  3
   5013   5011   5023   5035     1  0.0000000  0.6508444  3
   5013   5011   5023   5024     1  0.0000000  0.6508444  3
   5013   5011   5023   5025     1  0.0000000  0.6508444  3
   5014   5010   5017   5018     1  0.0000000  0.6508444  3
   5014   5010   5017   5019     1  0.0000000  0.6508444  3
   5014   5026   5032   5033     1  0.0000000  0.6508444  3
   5014   5026   5032   5034     1  0.0000000  0.6508444  3
   5015   5014   5010   5017     1  0.0000000  0.6508444  3
   5015   5014   5010   5039     1  0.0000000  0.6508444  3
   5015   5014   5026   5032     1  0.0000000  0.6508444  3
   5015   5014   5026   5027     1  0.0000000  0.6508444  3
   5015   5014   5026   5028     1  0.0000000  0.6508444  3
   5016   5014   5010   5017     1  0.0000000  0.6508444  3
   5016   5014   5010   5039     1  0.0000000  0.6508444  3
   5016   5014   5026   5032     1  0.0000000  0.6508444  3
   5016   5014   5026   5027     1  0.0000000  0.6508444  3
   5016   5014   5026   5028     1  0.0000000  0.6508444  3
   5017   5020   5029   5030     1  0.0000000  0.6508444  3
   5017   5020   5029   5031     1  0.0000000  0.6508444  3
   5018   5017   5010   5039     1  0.0000000  0.6508444  3
   5018   5017   5020   5029     1  0.0000000  0.6508444  3
   5018   5017   5020   5021     1  0.0000000  0.6508444  3
   5018   5017   5020   5022     1  0.0000000  0.6508444  3
   5019   5017   5010   5039     1  0.0000000  0.6508444  3
   5019   5017   5020   5029     1  0.0000000  0.6508444  3
   5019   5017   5020   5021     1  0.0000000  0.6508444  3
   5019   5017   5020   5022     1  0.0000000  0.6508444  3
   5020   5017   5010   5039     1  0.0000000  0.6508444  3
   5021   5020   5029   5038     1  0.0000000  1.0460000  1
   5021   5020   5029   5038     1  0.0000000  0.0000000  3
   5021   5020   5029   5030     1  0.0000000  0.6508444  3
   5021   5020   5029   5031     1  0.0000000  0.6508444  3
   5022   5020   5029   5038     1  0.0000000  1.0460000  1
   5022   5020   5029   5038     1  0.0000000  0.0000000  3
   5022   5020   5029   5030     1  0.0000000  0.6508444  3
   5022   5020   5029   5031     1  0.0000000  0.6508444  3
   5023   5011   5010   5039     1  0.0000000  0.6508444  3
   5024   5023   5035  10138     1  0.0000000  1.0460000  1
   5024   5023   5035  10138     1  0.0000000  0.0000000  3
   5024   5023   5035   5036     1  0.0000000  0.6508444  3
   5024   5023   5035   5037     1  0.0000000  0.6508444  3
   5025   5023   5035  10138     1  0.0000000  1.0460000  1
   5025   5023   5035  10138     1  0.0000000  0.0000000  3
   5025   5023   5035   5036     1  0.0000000  0.6508444  3
   5025   5023   5035   5037     1  0.0000000  0.6508444  3
   5026   5014   5010   5039     1  0.0000000  0.6508444  3
   5027   5026   5032  10108     1  0.0000000  1.0460000  1
   5027   5026   5032  10108     1  0.0000000  0.0000000  3
   5027   5026   5032   5033     1  0.0000000  0.6508444  3
   5027   5026   5032   5034     1  0.0000000  0.6508444  3
   5028   5026   5032  10108     1  0.0000000  1.0460000  1
   5028   5026   5032  10108     1  0.0000000  0.0000000  3
   5028   5026   5032   5033     1  0.0000000  0.6508444  3
   5028   5026   5032   5034     1  0.0000000  0.6508444  3
   5032  10108  10099  10100     1  0.0000000  1.6038667  3
   5032  10108  10099  10101     1  0.0000000  1.6038667  3
   5033   5032  10108  10099     1  0.0000000  1.6038667  3
   5034   5032  10108  10099     1  0.0000000  1.6038667  3
   5035  10138  10129  10130     1  0.0000000  1.6038667  3
   5035  10138  10129  10131     1  0.0000000  1.6038667  3
   5036   5035  10138  10129     1  0.0000000  1.6038667  3
   5037   5035  10138  10129     1  0.0000000  1.6038667  3
   5040   5041   5053   5054     1  0.0000000  0.6508444  3
   5040   5041   5053   5055     1  0.0000000  0.6508444  3
   5040   5044   5056   5057     1  0.0000000  0.6508444  3
   5040   5044   5056   5058     1  0.0000000  0.6508444  3
   5040   5047   5050   5051     1  0.0000000  0.6508444  3
   5040   5047   5050   5052     1  0.0000000  0.6508444  3
   5041   5040   5044   5045     1  0.0000000  0.6508444  3
   5041   5040   5044   5046     1  0.0000000  0.6508444  3
   5041   5040   5047   5048     1  0.0000000  0.6508444  3
   5041   5040   5047   5049     1  0.0000000  0.6508444  3
   5041   5053   5065   5066     1  0.0000000  0.6508444  3
   5041   5053   5065   5067     1  0.0000000  0.6508444  3
   5042   5041   5040   5044     1  0.0000000  0.6508444  3
   5042   5041   5040   5047     1  0.0000000  0.6508444  3
   5042   5041   5040   5069     1  0.0000000  0.6508444  3
   5042   5041   5053   5065     1  0.0000000  0.6508444  3
   5042   5041   5053   5054     1  0.0000000  0.6508444  3
   5042   5041   5053   5055     1  0.0000000  0.6508444  3
   5043   5041   5040   5044     1  0.0000000  0.6508444  3
   5043   5041   5040   5047     1  0.0000000  0.6508444  3
   5043   5041   5040   5069     1  0.0000000  0.6508444  3
   5043   5041   5053   5065     1  0.0000000  0.6508444  3
   5043   5041   5053   5054     1  0.0000000  0.6508444  3
   5043   5041   5053   5055     1  0.0000000  0.6508444  3
   5044   5040   5047   5048     1  0.0000000  0.6508444  3
   5044   5040   5047   5049     1  0.0000000  0.6508444  3
   5044   5056   5062   5063     1  0.0000000  0.6508444  3
   5044   5056   5062   5064     1  0.0000000  0.6508444  3
   5045   5044   5040   5047     1  0.0000000  0.6508444  3
   5045   5044   5040   5069     1  0.0000000  0.6508444  3
   5045   5044   5056   5062     1  0.0000000  0.6508444  3
   5045   5044   5056   5057     1  0.0000000  0.6508444  3
   5045   5044   5056   5058     1  0.0000000  0.6508444  3
   5046   5044   5040   5047     1  0.0000000  0.6508444  3
   5046   5044   5040   5069     1  0.0000000  0.6508444  3
   5046   5044   5056   5062     1  0.0000000  0.6508444  3
   5046   5044   5056   5057     1  0.0000000  0.6508444  3
   5046   5044   5056   5058     1  0.0000000  0.6508444  3
   5047   5050   5059   5060     1  0.0000000  0.6508444  3
   5047   5050   5059   5061     1  0.0000000  0.6508444  3
   5048   5047   5040   5069     1  0.0000000  0.6508444  3
   5048   5047   5050   5059     1  0.0000000  0.6508444  3
   5048   5047   5050   5051     1  0.0000000  0.6508444  3
   5048   5047   5050   5052     1  0.0000000  0.6508444  3
   5049   5047   5040   5069     1  0.0000000  0.6508444  3
   5049   5047   5050   5059     1  0.0000000  0.6508444  3
   5049   5047   5050   5051     1  0.0000000  0.6508444  3
   5049   5047   5050   5052     1  0.0000000  0.6508444  3
   5050   5047   5040   5069     1  0.0000000  0.6508444  3
   5051   5050   5059   5068     1  0.0000000  1.0460000  1
   5051   5050   5059   5068     1  0.0000000  0.0000000  3
   5051   5050   5059   5060     1  0.0000000  0.6508444  3
   5051   5050   5059   5061     1  0.0000000  0.6508444  3
   5052   5050   5059   5068     1  0.0000000  1.0460000  1
   5052   5050   5059   5068     1  0.0000000  0.0000000  3
   5052   5050   5059   5060     1  0.0000000  0.6508444  3
   5052   5050   5059   5061     1  0.0000000  0.6508444  3
   5053   5041   5040   5069     1  0.0000000  0.6508444  3
   5054   5053   5065  10198     1  0.0000000  1.0460000  1
   5054   5053   5065  10198     1  0.0000000  0.0000000  3
   5054   5053   5065   5066     1  0.0000000  0.6508444  3
   5054   5053   5065   5067     1  0.0000000  0.6508444  3
   5055   5053   5065  10198     1  0.0000000  1.0460000  1
   5055   5053   5065  10198     1  0.0000000  0.0000000  3
   5055   5053   5065   5066     1  0.0000000  0.6508444  3
   5055   5053   5065   5067     1  0.0000000  0.6508444  3
   5056   5044   5040   5069     1  0.0000000  0.6508444  3
   5057   5056   5062  10168     1  0.0000000  1.0460000  1
   5057   5056   5062  10168     1  0.0000000  0.0000000  3
   5057   5056   5062   5063     1  0.0000000  0.6508444  3
   5057   5056   5062   5064     1  0.0000000  0.6508444  3
   5058   5056   5062  10168     1  0.0000000  1.0460000  1
   5058   5056   5062  10168     1  0.0000000  0.0000000  3
   5058   5056   5062   5063     1  0.0000000  0.6508444  3
   5058   5056   5062   5064     1  0.0000000  0.6508444  3
   5062  10168  10159  10160     1  0.0000000  1.6038667  3
   5062  10168  10159  10161     1  0.0000000  1.6038667  3
   5063   5062  10168  10159     1  0.0000000  1.6038667  3
   5064   5062  10168  10159     1  0.0000000  1.6038667  3
   5065  10198  10189  10190     1  0.0000000  1.6038667  3
   5065  10198  10189  10191     1  0.0000000  1.6038667  3
   5066   5065  10198  10189     1  0.0000000  1.6038667  3
   5067   5065  10198  10189     1  0.0000000  1.6038667  3
   5070   5071   5083   5084     1  0.0000000  0.6508444  3
   5070   5071   5083   5085     1  0.0000000  0.6508444  3
   5070   5074   5086   5087     1  0.0000000  0.6508444  3
   5070   5074   5086   5088     1  0.0000000  0.6508444  3
   5070   5077   5080   5081     1  0.0000000  0.6508444  3
   5070   5077   5080   5082     1  0.0000000  0.6508444  3
   5071   5070   5074   5075     1  0.0000000  0.6508444  3
   5071   5070   5074   5076     1  0.0000000  0.6508444  3
   5071   5070   5077   5078     1  0.0000000  0.6508444  3
   5071   5070   5077   5079     1  0.0000000  0.6508444  3
   5071   5083   5095   5096     1  0.0000000  0.6508444  3
   5071   5083   5095   5097     1  0.0000000  0.6508444  3
   5072   5071   5070   5074     1  0.0000000  0.6508444  3
   5072   5071   5070   5077     1  0.0000000  0.6508444  3
   5072   5071   5070   5099     1  0.0000000  0.6508444  3
   5072   5071   5083   5095     1  0.0000000  0.6508444  3
   5072   5071   5083   5084     1  0.0000000  0.6508444  3
   5072   5071   5083   5085     1  0.0000000  0.6508444  3
   5073   5071   5070   5074     1  0.0000000  0.6508444  3
   5073   5071   5070   5077     1  0.0000000  0.6508444  3
   5073   5071   5070   5099     1  0.0000000  0.6508444  3
   5073   5071   5083   5095     1  0.0000000  0.6508444  3
   5073   5071   5083   5084     1  0.0000000  0.6508444  3
   5073   5071   5083   5085     1  0.0000000  0.6508444  3
   5074   5070   5077   5078     1  0.0000000  0.6508444  3
   5074   5070   5077   5079     1  0.0000000  0.6508444  3
   5074   5086   5092   5093     1  0.0000000  0.6508444  3
   5074   5086   5092   5094     1  0.0000000  0.6508444  3
   5075   5074   5070   5077     1  0.0000000  0.6508444  3
   5075   5074   5070   5099     1  0.0000000  0.6508444  3
   5075   5074   5086   5092     1  0.0000000  0.6508444  3
   5075   5074   5086   5087     1  0.0000000  0.6508444  3
   5075   5074   5086   5088     1  0.0000000  0.6508444  3
   5076   5074   5070   5077     1  0.0000000  0.6508444  3
   5076   5074   5070   5099     1  0.0000000  0.6508444  3
   5076   5074   5086   5092     1  0.0000000  0.6508444  3
   5076   5074   5086   5087     1  0.0000000  0.6508444  3
   5076   5074   5086   5088     1  0.0000000  0.6508444  3
   5077   5080   5089   5090     1  0.0000000  0.6508444  3
   5077   5080   5089   5091     1  0.0000000  0.6508444  3
   5078   5077   5070   5099     1  0.0000000  0.6508444  3
   5078   5077   5080   5089     1  0.0000000  0.6508444  3
   5078   5077   5080   5081     1  0.0000000  0.6508444  3
   5078   5077   5080   5082     1  0.0000000  0.6508444  3
   5079   5077   5070   5099     1  0.0000000  0.6508444  3
   5079   5077   5080   5089     1  0.0000000  0.6508444  3
   5079   5077   5080   5081     1  0.0000000  0.6508444  3
   5079   5077   5080   5082     1  0.0000000  0.6508444  3
   5080   5077   5070   5099     1  0.0000000  0.6508444  3
   5081   5080   5089   5098     1  0.0000000  1.0460000  1
   5081   5080   5089   5098     1  0.0000000  0.0000000  3
   5081   5080   5089   5090     1  0.0000000  0.6508444  3
   5081   5080   5089   5091     1  0.0000000  0.6508444  3
   5082   5080   5089   5098     1  0.0000000  1.0460000  1
   5082   5080   5089   5098     1  0.0000000  0.0000000  3
   5082   5080   5089   5090     1  0.0000000  0.6508444  3
   5082   5080   5089   5091     1  0.0000000  0.6508444  3
   5083   5071   5070   5099     1  0.0000000  0.6508444  3
   5084   5083   5095  10258     1  0.0000000  1.0460000  1
   5084   5083   5095  10258     1  0.0000000  0.0000000  3
   5084   5083   5095   5096     1  0.0000000  0.6508444  3
   5084   5083   5095   5097     1  0.0000000  0.6508444  3
   5085   5083   5095  10258     1  0.0000000  1.0460000  1
   5085   5083   5095  10258     1  0.0000000  0.0000000  3
   5085   5083   5095   5096     1  0.0000000  0.6508444  3
   5085   5083   5095   5097     1  0.0000000  0.6508444  3
   5086   5074   5070   5099     1  0.0000000  0.6508444  3
   5087   5086   5092  10228     1  0.0000000  1.0460000  1
   5087   5086   5092  10228     1  0.0000000  0.0000000  3
   5087   5086   5092   5093     1  0.0000000  0.6508444  3
   5087   5086   5092   5094     1  0.0000000  0.6508444  3
   5088   5086   5092  10228     1  0.0000000  1.0460000  1
   5088   5086   5092  10228     1  0.0000000  0.0000000  3
   5088   5086   5092   5093     1  0.0000000  0.6508444  3
   5088   5086   5092   5094     1  0.0000000  0.6508444  3
   5092  10228  10219  10220     1  0.0000000  1.6038667  3
   5092  10228  10219  10221     1  0.0000000  1.6038667  3
   5093   5092  10228  10219     1  0.0000000  1.6038667  3
   5094   5092  10228  10219     1  0.0000000  1.6038667  3
   5095  10258  10249  10250     1  0.0000000  1.6038667  3
   5095  10258  10249  10251     1  0.0000000  1.6038667  3
   5096   5095  10258  10249     1  0.0000000  1.6038667  3
   5097   5095  10258  10249     1  0.0000000  1.6038667  3
   5100   5101   5113   5114     1  0.0000000  0.6508444  3
   5100   5101   5113   5115     1  0.0000000  0.6508444  3
   5100   5104   5116   5117     1  0.0000000  0.6508444  3
   5100   5104   5116   5118     1  0.0000000  0.6508444  3
   5100   5107   5110   5111     1  0.0000000  0.6508444  3
   5100   5107   5110   5112     1  0.0000000  0.6508444  3
   5101   5100   5104   5105     1  0.0000000  0.6508444  3
   5101   5100   5104   5106     1  0.0000000  0.6508444  3
   5101   5100   5107   5108     1  0.0000000  0.6508444  3
   5101   5100   5107   5109     1  0.0000000  0.6508444  3
   5101   5113   5125   5126     1  0.0000000  0.6508444  3
   5101   5113   5125   5127     1  0.0000000  0.6508444  3
   5102   5101   5100   5104     1  0.0000000  0.6508444  3
   5102   5101   5100   5107     1  0.0000000  0.6508444  3
   5102   5101   5100   5129     1  0.0000000  0.6508444  3
   5102   5101   5113   5125     1  0.0000000  0.6508444  3
   5102   5101   5113   5114     1  0.0000000  0.6508444  3
   5102   5101   5113   5115     1  0.0000000  0.6508444  3
   5103   5101   5100   5104     1  0.0000000  0.6508444  3
   5103   5101   5100   5107     1  0.0000000  0.6508444  3
   5103   5101   5100   5129     1  0.0000000  0.6508444  3
   5103   5101   5113   5125     1  0.0000000  0.6508444  3
   5103   5101   5113   5114     1  0.0000000  0.6508444  3
   5103   5101   5113   5115     1  0.0000000  0.6508444  3
   5104   5100   5107   5108     1  0.0000000  0.6508444  3
   5104   5100   5107   5109     1  0.0000000  0.6508444  3
   5104   5116   5122   5123     1  0.0000000  0.6508444  3
   5104   5116   5122   5124     1  0.0000000  0.6508444  3
   5105   5104   5100   5107     1  0.0000000  0.6508444  3
   5105   5104   5100   5129     1  0.0000000  0.6508444  3
   5105   5104   5116   5122     1  0.0000000  0.6508444  3
   5105   5104   5116   5117     1  0.0000000  0.6508444  3
   5105   5104   5116   5118     1  0.0000000  0.6508444  3
   5106   5104   5100   5107     1  0.0000000  0.6508444  3
   5106   5104   5100   5129     1  0.0000000  0.6508444  3
   5106   5104   5116   5122     1  0.0000000  0.6508444  3
   5106   5104   5116   5117     1  0.0000000  0.6508444  3
   5106   5104   5116   5118     1  0.0000000  0.6508444  3
   5107   5110   5119   5120     1  0.0000000  0.6508444  3
   5107   5110   5119   5121     1  0.0000000  0.6508444  3
   5108   5107   5100   5129     1  0.0000000  0.6508444  3
   5108   5107   5110   5119     1  0.0000000  0.6508444  3
   5108   5107   5110   5111     1  0.0000000  0.6508444  3
   5108   5107   5110   5112     1  0.0000000  0.6508444  3
   5109   5107   5100   5129     1  0.0000000  0.6508444  3
   5109   5107   5110   5119     1  0.0000000  0.6508444  3
   5109   5107   5110   5111     1  0.0000000  0.6508444  3
   5109   5107   5110   5112     1  0.0000000  0.6508444  3
   5110   5107   5100   5129     1  0.0000000  0.6508444  3
   5111   5110   5119   5128     1  0.0000000  1.0460000  1
   5111   5110   5119   5128     1  0.0000000  0.0000000  3
   5111   5110   5119   5120     1  0.0000000  0.6508444  3
   5111   5110   5119   5121     1  0.0000000  0.6508444  3
   5112   5110   5119   5128     1  0.0000000  1.0460000  1
   5112   5110   5119   5128     1  0.0000000  0.0000000  3
   5112   5110   5119   5120     1  0.0000000  0.6508444  3
   5112   5110   5119   5121     1  0.0000000  0.6508444  3
   5113   5101   5100   5129     1  0.0000000  0.6508444  3
   5114   5113   5125  10318     1  0.0000000  1.0460000  1
   5114   5113   5125  10318     1  0.0000000  0.0000000  3
   5114   5113   5125   5126     1  0.0000000  0.6508444  3
   5114   5113   5125   5127     1  0.0000000  0.6508444  3
   5115   5113   5125  10318     1  0.0000000  1.0460000  1
   5115   5113   5125  10318     1  0.0000000  0.0000000  3
   5115   5113   5125   5126     1  0.0000000  0.6508444  3
   5115   5113   5125   5127     1  0.0000000  0.6508444  3
   5116   5104   5100   5129     1  0.0000000  0.6508444  3
   5117   5116   5122  10288     1  0.0000000  1.0460000  1
   5117   5116   5122  10288     1  0.0000000  0.0000000  3
   5117   5116   5122   5123     1  0.0000000  0.6508444  3
   5117   5116   5122   5124     1  0.0000000  0.6508444  3
   5118   5116   5122  10288     1  0.0000000  1.0460000  1
   5118   5116   5122  10288     1  0.0000000  0.0000000  3
   5118   5116   5122   5123     1  0.0000000  0.6508444  3
   5118   5116   5122   5124     1  0.0000000  0.6508444  3
   5122  10288  10279  10280     1  0.0000000  1.6038667  3
   5122  10288  10279  10281     1  0.0000000  1.6038667  3
   5123   5122  10288  10279     1  0.0000000  1.6038667  3
   5124   5122  10288  10279     1  0.0000000  1.6038667  3
   5125  10318  10309  10310     1  0.0000000  1.6038667  3
   5125  10318  10309  10311     1  0.0000000  1.6038667  3
   5126   5125  10318  10309     1  0.0000000  1.6038667  3
   5127   5125  10318  10309     1  0.0000000  1.6038667  3
   5130   5131   5143   5144     1  0.0000000  0.6508444  3
   5130   5131   5143   5145     1  0.0000000  0.6508444  3
   5130   5134   5146   5147     1  0.0000000  0.6508444  3
   5130   5134   5146   5148     1  0.0000000  0.6508444  3
   5130   5137   5140   5141     1  0.0000000  0.6508444  3
   5130   5137   5140   5142     1  0.0000000  0.6508444  3
   5131   5130   5134   5135     1  0.0000000  0.6508444  3
   5131   5130   5134   5136     1  0.0000000  0.6508444  3
   5131   5130   5137   5138     1  0.0000000  0.6508444  3
   5131   5130   5137   5139     1  0.0000000  0.6508444  3
   5131   5143   5155   5156     1  0.0000000  0.6508444  3
   5131   5143   5155   5157     1  0.0000000  0.6508444  3
   5132   5131   5130   5134     1  0.0000000  0.6508444  3
   5132   5131   5130   5137     1  0.0000000  0.6508444  3
   5132   5131   5130   5159     1  0.0000000  0.6508444  3
   5132   5131   5143   5155     1  0.0000000  0.6508444  3
   5132   5131   5143   5144     1  0.0000000  0.6508444  3
   5132   5131   5143   5145     1  0.0000000  0.6508444  3
   5133   5131   5130   5134     1  0.0000000  0.6508444  3
   5133   5131   5130   5137     1  0.0000000  0.6508444  3
   5133   5131   5130   5159     1  0.0000000  0.6508444  3
   5133   5131   5143   5155     1  0.0000000  0.6508444  3
   5133   5131   5143   5144     1  0.0000000  0.6508444  3
   5133   5131   5143   5145     1  0.0000000  0.6508444  3
   5134   5130   5137   5138     1  0.0000000  0.6508444  3
   5134   5130   5137   5139     1  0.0000000  0.6508444  3
   5134   5146   5152   5153     1  0.0000000  0.6508444  3
   5134   5146   5152   5154     1  0.0000000  0.6508444  3
   5135   5134   5130   5137     1  0.0000000  0.6508444  3
   5135   5134   5130   5159     1  0.0000000  0.6508444  3
   5135   5134   5146   5152     1  0.0000000  0.6508444  3
   5135   5134   5146   5147     1  0.0000000  0.6508444  3
   5135   5134   5146   5148     1  0.0000000  0.6508444  3
   5136   5134   5130   5137     1  0.0000000  0.6508444  3
   5136   5134   5130   5159     1  0.0000000  0.6508444  3
   5136   5134   5146   5152     1  0.0000000  0.6508444  3
   5136   5134   5146   5147     1  0.0000000  0.6508444  3
   5136   5134   5146   5148     1  0.0000000  0.6508444  3
   5137   5140   5149   5150     1  0.0000000  0.6508444  3
   5137   5140   5149   5151     1  0.0000000  0.6508444  3
   5138   5137   5130   5159     1  0.0000000  0.6508444  3
   5138   5137   5140   5149     1  0.0000000  0.6508444  3
   5138   5137   5140   5141     1  0.0000000  0.6508444  3
   5138   5137   5140   5142     1  0.0000000  0.6508444  3
   5139   5137   5130   5159     1  0.0000000  0.6508444  3
   5139   5137   5140   5149     1  0.0000000  0.6508444  3
   5139   5137   5140   5141     1  0.0000000  0.6508444  3
   5139   5137   5140   5142     1  0.0000000  0.6508444  3
   5140   5137   5130   5159     1  0.0000000  0.6508444  3
   5141   5140   5149   5158     1  0.0000000  1.0460000  1
   5141   5140   5149   5158     1  0.0000000  0.0000000  3
   5141   5140   5149   5150     1  0.0000000  0.6508444  3
   5141   5140   5149   5151     1  0.0000000  0.6508444  3
   5142   5140   5149   5158     1  0.0000000  1.0460000  1
   5142   5140   5149   5158     1  0.0000000  0.0000000  3
   5142   5140   5149   5150     1  0.0000000  0.6508444  3
   5142   5140   5149   5151     1  0.0000000  0.6508444  3
   5143   5131   5130   5159     1  0.0000000  0.6508444  3
   5144   5143   5155  10378     1  0.0000000  1.0460000  1
   5144   5143   5155  10378     1  0.0000000  0.0000000  3
   5144   5143   5155   5156     1  0.0000000  0.6508444  3
   5144   5143   5155   5157     1  0.0000000  0.6508444  3
   5145   5143   5155  10378     1  0.0000000  1.0460000  1
   5145   5143   5155  10378     1  0.0000000  0.0000000  3
   5145   5143   5155   5156     1  0.0000000  0.6508444  3
   5145   5143   5155   5157     1  0.0000000  0.6508444  3
   5146   5134   5130   5159     1  0.0000000  0.6508444  3
   5147   5146   5152  10348     1  0.0000000  1.0460000  1
   5147   5146   5152  10348     1  0.0000000  0.0000000  3
   5147   5146   5152   5153     1  0.0000000  0.6508444  3
   5147   5146   5152   5154     1  0.0000000  0.6508444  3
   5148   5146   5152  10348     1  0.0000000  1.0460000  1
   5148   5146   5152  10348     1  0.0000000  0.0000000  3
   5148   5146   5152   5153     1  0.0000000  0.6508444  3
   5148   5146   5152   5154     1  0.0000000  0.6508444  3
   5152  10348  10339  10340     1  0.0000000  1.6038667  3
   5152  10348  10339  10341     1  0.0000000  1.6038667  3
   5153   5152  10348  10339     1  0.0000000  1.6038667  3
   5154   5152  10348  10339     1  0.0000000  1.6038667  3
   5155  10378  10369  10370     1  0.0000000  1.6038667  3
   5155  10378  10369  10371     1  0.0000000  1.6038667  3
   5156   5155  10378  10369     1  0.0000000  1.6038667  3
   5157   5155  10378  10369     1  0.0000000  1.6038667  3
   5160   5161   5173   5174     1  0.0000000  0.6508444  3
   5160   5161   5173   5175     1  0.0000000  0.6508444  3
   5160   5164   5176   5177     1  0.0000000  0.6508444  3
   5160   5164   5176   5178     1  0.0000000  0.6508444  3
   5160   5167   5170   5171     1  0.0000000  0.6508444  3
   5160   5167   5170   5172     1  0.0000000  0.6508444  3
   5161   5160   5164   5165     1  0.0000000  0.6508444  3
   5161   5160   5164   5166     1  0.0000000  0.6508444  3
   5161   5160   5167   5168     1  0.0000000  0.6508444  3
   5161   5160   5167   5169     1  0.0000000  0.6508444  3
   5161   5173   5185   5186     1  0.0000000  0.6508444  3
   5161   5173   5185   5187     1  0.0000000  0.6508444  3
   5162   5161   5160   5164     1  0.0000000  0.6508444  3
   5162   5161   5160   5167     1  0.0000000  0.6508444  3
   5162   5161   5160   5189     1  0.0000000  0.6508444  3
   5162   5161   5173   5185     1  0.0000000  0.6508444  3
   5162   5161   5173   5174     1  0.0000000  0.6508444  3
   5162   5161   5173   5175     1  0.0000000  0.6508444  3
   5163   5161   5160   5164     1  0.0000000  0.6508444  3
   5163   5161   5160   5167     1  0.0000000  0.6508444  3
   5163   5161   5160   5189     1  0.0000000  0.6508444  3
   5163   5161   5173   5185     1  0.0000000  0.6508444  3
   5163   5161   5173   5174     1  0.0000000  0.6508444  3
   5163   5161   5173   5175     1  0.0000000  0.6508444  3
   5164   5160   5167   5168     1  0.0000000  0.6508444  3
   5164   5160   5167   5169     1  0.0000000  0.6508444  3
   5164   5176   5182   5183     1  0.0000000  0.6508444  3
   5164   5176   5182   5184     1  0.0000000  0.6508444  3
   5165   5164   5160   5167     1  0.0000000  0.6508444  3
   5165   5164   5160   5189     1  0.0000000  0.6508444  3
   5165   5164   5176   5182     1  0.0000000  0.6508444  3
   5165   5164   5176   5177     1  0.0000000  0.6508444  3
   5165   5164   5176   5178     1  0.0000000  0.6508444  3
   5166   5164   5160   5167     1  0.0000000  0.6508444  3
   5166   5164   5160   5189     1  0.0000000  0.6508444  3
   5166   5164   5176   5182     1  0.0000000  0.6508444  3
   5166   5164   5176   5177     1  0.0000000  0.6508444  3
   5166   5164   5176   5178     1  0.0000000  0.6508444  3
   5167   5170   5179   5180     1  0.0000000  0.6508444  3
   5167   5170   5179   5181     1  0.0000000  0.6508444  3
   5168   5167   5160   5189     1  0.0000000  0.6508444  3
   5168   5167   5170   5179     1  0.0000000  0.6508444  3
   5168   5167   5170   5171     1  0.0000000  0.6508444  3
   5168   5167   5170   5172     1  0.0000000  0.6508444  3
   5169   5167   5160   5189     1  0.0000000  0.6508444  3
   5169   5167   5170   5179     1  0.0000000  0.6508444  3
   5169   5167   5170   5171     1  0.0000000  0.6508444  3
   5169   5167   5170   5172     1  0.0000000  0.6508444  3
   5170   5167   5160   5189     1  0.0000000  0.6508444  3
   5171   5170   5179   5188     1  0.0000000  1.0460000  1
   5171   5170   5179   5188     1  0.0000000  0.0000000  3
   5171   5170   5179   5180     1  0.0000000  0.6508444  3
   5171   5170   5179   5181     1  0.0000000  0.6508444  3
   5172   5170   5179   5188     1  0.0000000  1.0460000  1
   5172   5170   5179   5188     1  0.0000000  0.0000000  3
   5172   5170   5179   5180     1  0.0000000  0.6508444  3
   5172   5170   5179   5181     1  0.0000000  0.6508444  3
   5173   5161   5160   5189     1  0.0000000  0.6508444  3
   5174   5173   5185  10438     1  0.0000000  1.0460000  1
   5174   5173   5185  10438     1  0.0000000  0.0000000  3
   5174   5173   5185   5186     1  0.0000000  0.6508444  3
   5174   5173   5185   5187     1  0.0000000  0.6508444  3
   5175   5173   5185  10438     1  0.0000000  1.0460000  1
   5175   5173   5185  10438     1  0.0000000  0.0000000  3
   5175   5173   5185   5186     1  0.0000000  0.6508444  3
   5175   5173   5185   5187     1  0.0000000  0.6508444  3
   5176   5164   5160   5189     1  0.0000000  0.6508444  3
   5177   5176   5182  10408     1  0.0000000  1.0460000  1
   5177   5176   5182  10408     1  0.0000000  0.0000000  3
   5177   5176   5182   5183     1  0.0000000  0.6508444  3
   5177   5176   5182   5184     1  0.0000000  0.6508444  3
   5178   5176   5182  10408     1  0.0000000  1.0460000  1
   5178   5176   5182  10408     1  0.0000000  0.0000000  3
   5178   5176   5182   5183     1  0.0000000  0.6508444  3
   5178   5176   5182   5184     1  0.0000000  0.6508444  3
   5182  10408  10399  10400     1  0.0000000  1.6038667  3
   5182  10408  10399  10401     1  0.0000000  1.6038667  3
   5183   5182  10408  10399     1  0.0000000  1.6038667  3
   5184   5182  10408  10399     1  0.0000000  1.6038667  3
   5185  10438  10429  10430     1  0.0000000  1.6038667  3
   5185  10438  10429  10431     1  0.0000000  1.6038667  3
   5186   5185  10438  10429     1  0.0000000  1.6038667  3
   5187   5185  10438  10429     1  0.0000000  1.6038667  3
   5190   5191   5203   5204     1  0.0000000  0.6508444  3
   5190   5191   5203   5205     1  0.0000000  0.6508444  3
   5190   5194   5206   5207     1  0.0000000  0.6508444  3
   5190   5194   5206   5208     1  0.0000000  0.6508444  3
   5190   5197   5200   5201     1  0.0000000  0.6508444  3
   5190   5197   5200   5202     1  0.0000000  0.6508444  3
   5191   5190   5194   5195     1  0.0000000  0.6508444  3
   5191   5190   5194   5196     1  0.0000000  0.6508444  3
   5191   5190   5197   5198     1  0.0000000  0.6508444  3
   5191   5190   5197   5199     1  0.0000000  0.6508444  3
   5191   5203   5215   5216     1  0.0000000  0.6508444  3
   5191   5203   5215   5217     1  0.0000000  0.6508444  3
   5192   5191   5190   5194     1  0.0000000  0.6508444  3
   5192   5191   5190   5197     1  0.0000000  0.6508444  3
   5192   5191   5190   5219     1  0.0000000  0.6508444  3
   5192   5191   5203   5215     1  0.0000000  0.6508444  3
   5192   5191   5203   5204     1  0.0000000  0.6508444  3
   5192   5191   5203   5205     1  0.0000000  0.6508444  3
   5193   5191   5190   5194     1  0.0000000  0.6508444  3
   5193   5191   5190   5197     1  0.0000000  0.6508444  3
   5193   5191   5190   5219     1  0.0000000  0.6508444  3
   5193   5191   5203   5215     1  0.0000000  0.6508444  3
   5193   5191   5203   5204     1  0.0000000  0.6508444  3
   5193   5191   5203   5205     1  0.0000000  0.6508444  3
   5194   5190   5197   5198     1  0.0000000  0.6508444  3
   5194   5190   5197   5199     1  0.0000000  0.6508444  3
   5194   5206   5212   5213     1  0.0000000  0.6508444  3
   5194   5206   5212   5214     1  0.0000000  0.6508444  3
   5195   5194   5190   5197     1  0.0000000  0.6508444  3
   5195   5194   5190   5219     1  0.0000000  0.6508444  3
   5195   5194   5206   5212     1  0.0000000  0.6508444  3
   5195   5194   5206   5207     1  0.0000000  0.6508444  3
   5195   5194   5206   5208     1  0.0000000  0.6508444  3
   5196   5194   5190   5197     1  0.0000000  0.6508444  3
   5196   5194   5190   5219     1  0.0000000  0.6508444  3
   5196   5194   5206   5212     1  0.0000000  0.6508444  3
   5196   5194   5206   5207     1  0.0000000  0.6508444  3
   5196   5194   5206   5208     1  0.0000000  0.6508444  3
   5197   5200   5209   5210     1  0.0000000  0.6508444  3
   5197   5200   5209   5211     1  0.0000000  0.6508444  3
   5198   5197   5190   5219     1  0.0000000  0.6508444  3
   5198   5197   5200   5209     1  0.0000000  0.6508444  3
   5198   5197   5200   5201     1  0.0000000  0.6508444  3
   5198   5197   5200   5202     1  0.0000000  0.6508444  3
   5199   5197   5190   5219     1  0.0000000  0.6508444  3
   5199   5197   5200   5209     1  0.0000000  0.6508444  3
   5199   5197   5200   5201     1  0.0000000  0.6508444  3
   5199   5197   5200   5202     1  0.0000000  0.6508444  3
   5200   5197   5190   5219     1  0.0000000  0.6508444  3
   5201   5200   5209   5218     1  0.0000000  1.0460000  1
   5201   5200   5209   5218     1  0.0000000  0.0000000  3
   5201   5200   5209   5210     1  0.0000000  0.6508444  3
   5201   5200   5209   5211     1  0.0000000  0.6508444  3
   5202   5200   5209   5218     1  0.0000000  1.0460000  1
   5202   5200   5209   5218     1  0.0000000  0.0000000  3
   5202   5200   5209   5210     1  0.0000000  0.6508444  3
   5202   5200   5209   5211     1  0.0000000  0.6508444  3
   5203   5191   5190   5219     1  0.0000000  0.6508444  3
   5204   5203   5215  10498     1  0.0000000  1.0460000  1
   5204   5203   5215  10498     1  0.0000000  0.0000000  3
   5204   5203   5215   5216     1  0.0000000  0.6508444  3
   5204   5203   5215   5217     1  0.0000000  0.6508444  3
   5205   5203   5215  10498     1  0.0000000  1.0460000  1
   5205   5203   5215  10498     1  0.0000000  0.0000000  3
   5205   5203   5215   5216     1  0.0000000  0.6508444  3
   5205   5203   5215   5217     1  0.0000000  0.6508444  3
   5206   5194   5190   5219     1  0.0000000  0.6508444  3
   5207   5206   5212  10468     1  0.0000000  1.0460000  1
   5207   5206   5212  10468     1  0.0000000  0.0000000  3
   5207   5206   5212   5213     1  0.0000000  0.6508444  3
   5207   5206   5212   5214     1  0.0000000  0.6508444  3
   5208   5206   5212  10468     1  0.0000000  1.0460000  1
   5208   5206   5212  10468     1  0.0000000  0.0000000  3
   5208   5206   5212   5213     1  0.0000000  0.6508444  3
   5208   5206   5212   5214     1  0.0000000  0.6508444  3
   5212  10468  10459  10460     1  0.0000000  1.6038667  3
   5212  10468  10459  10461     1  0.0000000  1.6038667  3
   5213   5212  10468  10459     1  0.0000000  1.6038667  3
   5214   5212  10468  10459     1  0.0000000  1.6038667  3
   5215  10498  10489  10490     1  0.0000000  1.6038667  3
   5215  10498  10489  10491     1  0.0000000  1.6038667  3
   5216   5215  10498  10489     1  0.0000000  1.6038667  3
   5217   5215  10498  10489     1  0.0000000  1.6038667  3
   5220   5221   5233   5234     1  0.0000000  0.6508444  3
   5220   5221   5233   5235     1  0.0000000  0.6508444  3
   5220   5224   5236   5237     1  0.0000000  0.6508444  3
   5220   5224   5236   5238     1  0.0000000  0.6508444  3
   5220   5227   5230   5231     1  0.0000000  0.6508444  3
   5220   5227   5230   5232     1  0.0000000  0.6508444  3
   5221   5220   5224   5225     1  0.0000000  0.6508444  3
   5221   5220   5224   5226     1  0.0000000  0.6508444  3
   5221   5220   5227   5228     1  0.0000000  0.6508444  3
   5221   5220   5227   5229     1  0.0000000  0.6508444  3
   5221   5233   5245   5246     1  0.0000000  0.6508444  3
   5221   5233   5245   5247     1  0.0000000  0.6508444  3
   5222   5221   5220   5224     1  0.0000000  0.6508444  3
   5222   5221   5220   5227     1  0.0000000  0.6508444  3
   5222   5221   5220   5249     1  0.0000000  0.6508444  3
   5222   5221   5233   5245     1  0.0000000  0.6508444  3
   5222   5221   5233   5234     1  0.0000000  0.6508444  3
   5222   5221   5233   5235     1  0.0000000  0.6508444  3
   5223   5221   5220   5224     1  0.0000000  0.6508444  3
   5223   5221   5220   5227     1  0.0000000  0.6508444  3
   5223   5221   5220   5249     1  0.0000000  0.6508444  3
   5223   5221   5233   5245     1  0.0000000  0.6508444  3
   5223   5221   5233   5234     1  0.0000000  0.6508444  3
   5223   5221   5233   5235     1  0.0000000  0.6508444  3
   5224   5220   5227   5228     1  0.0000000  0.6508444  3
   5224   5220   5227   5229     1  0.0000000  0.6508444  3
   5224   5236   5242   5243     1  0.0000000  0.6508444  3
   5224   5236   5242   5244     1  0.0000000  0.6508444  3
   5225   5224   5220   5227     1  0.0000000  0.6508444  3
   5225   5224   5220   5249     1  0.0000000  0.6508444  3
   5225   5224   5236   5242     1  0.0000000  0.6508444  3
   5225   5224   5236   5237     1  0.0000000  0.6508444  3
   5225   5224   5236   5238     1  0.0000000  0.6508444  3
   5226   5224   5220   5227     1  0.0000000  0.6508444  3
   5226   5224   5220   5249     1  0.0000000  0.6508444  3
   5226   5224   5236   5242     1  0.0000000  0.6508444  3
   5226   5224   5236   5237     1  0.0000000  0.6508444  3
   5226   5224   5236   5238     1  0.0000000  0.6508444  3
   5227   5230   5239   5240     1  0.0000000  0.6508444  3
   5227   5230   5239   5241     1  0.0000000  0.6508444  3
   5228   5227   5220   5249     1  0.0000000  0.6508444  3
   5228   5227   5230   5239     1  0.0000000  0.6508444  3
   5228   5227   5230   5231     1  0.0000000  0.6508444  3
   5228   5227   5230   5232     1  0.0000000  0.6508444  3
   5229   5227   5220   5249     1  0.0000000  0.6508444  3
   5229   5227   5230   5239     1  0.0000000  0.6508444  3
   5229   5227   5230   5231     1  0.0000000  0.6508444  3
   5229   5227   5230   5232     1  0.0000000  0.6508444  3
   5230   5227   5220   5249     1  0.0000000  0.6508444  3
   5231   5230   5239   5248     1  0.0000000  1.0460000  1
   5231   5230   5239   5248     1  0.0000000  0.0000000  3
   5231   5230   5239   5240     1  0.0000000  0.6508444  3
   5231   5230   5239   5241     1  0.0000000  0.6508444  3
   5232   5230   5239   5248     1  0.0000000  1.0460000  1
   5232   5230   5239   5248     1  0.0000000  0.0000000  3
   5232   5230   5239   5240     1  0.0000000  0.6508444  3
   5232   5230   5239   5241     1  0.0000000  0.6508444  3
   5233   5221   5220   5249     1  0.0000000  0.6508444  3
   5234   5233   5245  10558     1  0.0000000  1.0460000  1
   5234   5233   5245  10558     1  0.0000000  0.0000000  3
   5234   5233   5245   5246     1  0.0000000  0.6508444  3
   5234   5233   5245   5247     1  0.0000000  0.6508444  3
   5235   5233   5245  10558     1  0.0000000  1.0460000  1
   5235   5233   5245  10558     1  0.0000000  0.0000000  3
   5235   5233   5245   5246     1  0.0000000  0.6508444  3
   5235   5233   5245   5247     1  0.0000000  0.6508444  3
   5236   5224   5220   5249     1  0.0000000  0.6508444  3
   5237   5236   5242  10528     1  0.0000000  1.0460000  1
   5237   5236   5242  10528     1  0.0000000  0.0000000  3
   5237   5236   5242   5243     1  0.0000000  0.6508444  3
   5237   5236   5242   5244     1  0.0000000  0.6508444  3
   5238   5236   5242  10528     1  0.0000000  1.0460000  1
   5238   5236   5242  10528     1  0.0000000  0.0000000  3
   5238   5236   5242   5243     1  0.0000000  0.6508444  3
   5238   5236   5242   5244     1  0.0000000  0.6508444  3
   5242  10528  10519  10520     1  0.0000000  1.6038667  3
   5242  10528  10519  10521     1  0.0000000  1.6038667  3
   5243   5242  10528  10519     1  0.0000000  1.6038667  3
   5244   5242  10528  10519     1  0.0000000  1.6038667  3
   5245  10558  10549  10550     1  0.0000000  1.6038667  3
   5245  10558  10549  10551     1  0.0000000  1.6038667  3
   5246   5245  10558  10549     1  0.0000000  1.6038667  3
   5247   5245  10558  10549     1  0.0000000  1.6038667  3
   5250   5251   5263   5264     1  0.0000000  0.6508444  3
   5250   5251   5263   5265     1  0.0000000  0.6508444  3
   5250   5254   5266   5267     1  0.0000000  0.6508444  3
   5250   5254   5266   5268     1  0.0000000  0.6508444  3
   5250   5257   5260   5261     1  0.0000000  0.6508444  3
   5250   5257   5260   5262     1  0.0000000  0.6508444  3
   5251   5250   5254   5255     1  0.0000000  0.6508444  3
   5251   5250   5254   5256     1  0.0000000  0.6508444  3
   5251   5250   5257   5258     1  0.0000000  0.6508444  3
   5251   5250   5257   5259     1  0.0000000  0.6508444  3
   5251   5263   5275   5276     1  0.0000000  0.6508444  3
   5251   5263   5275   5277     1  0.0000000  0.6508444  3
   5252   5251   5250   5254     1  0.0000000  0.6508444  3
   5252   5251   5250   5257     1  0.0000000  0.6508444  3
   5252   5251   5250   5279     1  0.0000000  0.6508444  3
   5252   5251   5263   5275     1  0.0000000  0.6508444  3
   5252   5251   5263   5264     1  0.0000000  0.6508444  3
   5252   5251   5263   5265     1  0.0000000  0.6508444  3
   5253   5251   5250   5254     1  0.0000000  0.6508444  3
   5253   5251   5250   5257     1  0.0000000  0.6508444  3
   5253   5251   5250   5279     1  0.0000000  0.6508444  3
   5253   5251   5263   5275     1  0.0000000  0.6508444  3
   5253   5251   5263   5264     1  0.0000000  0.6508444  3
   5253   5251   5263   5265     1  0.0000000  0.6508444  3
   5254   5250   5257   5258     1  0.0000000  0.6508444  3
   5254   5250   5257   5259     1  0.0000000  0.6508444  3
   5254   5266   5272   5273     1  0.0000000  0.6508444  3
   5254   5266   5272   5274     1  0.0000000  0.6508444  3
   5255   5254   5250   5257     1  0.0000000  0.6508444  3
   5255   5254   5250   5279     1  0.0000000  0.6508444  3
   5255   5254   5266   5272     1  0.0000000  0.6508444  3
   5255   5254   5266   5267     1  0.0000000  0.6508444  3
   5255   5254   5266   5268     1  0.0000000  0.6508444  3
   5256   5254   5250   5257     1  0.0000000  0.6508444  3
   5256   5254   5250   5279     1  0.0000000  0.6508444  3
   5256   5254   5266   5272     1  0.0000000  0.6508444  3
   5256   5254   5266   5267     1  0.0000000  0.6508444  3
   5256   5254   5266   5268     1  0.0000000  0.6508444  3
   5257   5260   5269   5270     1  0.0000000  0.6508444  3
   5257   5260   5269   5271     1  0.0000000  0.6508444  3
   5258   5257   5250   5279     1  0.0000000  0.6508444  3
   5258   5257   5260   5269     1  0.0000000  0.6508444  3
   5258   5257   5260   5261     1  0.0000000  0.6508444  3
   5258   5257   5260   5262     1  0.0000000  0.6508444  3
   5259   5257   5250   5279     1  0.0000000  0.6508444  3
   5259   5257   5260   5269     1  0.0000000  0.6508444  3
   5259   5257   5260   5261     1  0.0000000  0.6508444  3
   5259   5257   5260   5262     1  0.0000000  0.6508444  3
   5260   5257   5250   5279     1  0.0000000  0.6508444  3
   5261   5260   5269   5278     1  0.0000000  1.0460000  1
   5261   5260   5269   5278     1  0.0000000  0.0000000  3
   5261   5260   5269   5270     1  0.0000000  0.6508444  3
   5261   5260   5269   5271     1  0.0000000  0.6508444  3
   5262   5260   5269   5278     1  0.0000000  1.0460000  1
   5262   5260   5269   5278     1  0.0000000  0.0000000  3
   5262   5260   5269   5270     1  0.0000000  0.6508444  3
   5262   5260   5269   5271     1  0.0000000  0.6508444  3
   5263   5251   5250   5279     1  0.0000000  0.6508444  3
   5264   5263   5275  10618     1  0.0000000  1.0460000  1
   5264   5263   5275  10618     1  0.0000000  0.0000000  3
   5264   5263   5275   5276     1  0.0000000  0.6508444  3
   5264   5263   5275   5277     1  0.0000000  0.6508444  3
   5265   5263   5275  10618     1  0.0000000  1.0460000  1
   5265   5263   5275  10618     1  0.0000000  0.0000000  3
   5265   5263   5275   5276     1  0.0000000  0.6508444  3
   5265   5263   5275   5277     1  0.0000000  0.6508444  3
   5266   5254   5250   5279     1  0.0000000  0.6508444  3
   5267   5266   5272  10588     1  0.0000000  1.0460000  1
   5267   5266   5272  10588     1  0.0000000  0.0000000  3
   5267   5266   5272   5273     1  0.0000000  0.6508444  3
   5267   5266   5272   5274     1  0.0000000  0.6508444  3
   5268   5266   5272  10588     1  0.0000000  1.0460000  1
   5268   5266   5272  10588     1  0.0000000  0.0000000  3
   5268   5266   5272   5273     1  0.0000000  0.6508444  3
   5268   5266   5272   5274     1  0.0000000  0.6508444  3
   5272  10588  10579  10580     1  0.0000000  1.6038667  3
   5272  10588  10579  10581     1  0.0000000  1.6038667  3
   5273   5272  10588  10579     1  0.0000000  1.6038667  3
   5274   5272  10588  10579     1  0.0000000  1.6038667  3
   5275  10618  10609  10610     1  0.0000000  1.6038667  3
   5275  10618  10609  10611     1  0.0000000  1.6038667  3
   5276   5275  10618  10609     1  0.0000000  1.6038667  3
   5277   5275  10618  10609     1  0.0000000  1.6038667  3
   5280   5281   5293   5294     1  0.0000000  0.6508444  3
   5280   5281   5293   5295     1  0.0000000  0.6508444  3
   5280   5284   5296   5297     1  0.0000000  0.6508444  3
   5280   5284   5296   5298     1  0.0000000  0.6508444  3
   5280   5287   5290   5291     1  0.0000000  0.6508444  3
   5280   5287   5290   5292     1  0.0000000  0.6508444  3
   5281   5280   5284   5285     1  0.0000000  0.6508444  3
   5281   5280   5284   5286     1  0.0000000  0.6508444  3
   5281   5280   5287   5288     1  0.0000000  0.6508444  3
   5281   5280   5287   5289     1  0.0000000  0.6508444  3
   5281   5293   5305   5306     1  0.0000000  0.6508444  3
   5281   5293   5305   5307     1  0.0000000  0.6508444  3
   5282   5281   5280   5284     1  0.0000000  0.6508444  3
   5282   5281   5280   5287     1  0.0000000  0.6508444  3
   5282   5281   5280   5309     1  0.0000000  0.6508444  3
   5282   5281   5293   5305     1  0.0000000  0.6508444  3
   5282   5281   5293   5294     1  0.0000000  0.6508444  3
   5282   5281   5293   5295     1  0.0000000  0.6508444  3
   5283   5281   5280   5284     1  0.0000000  0.6508444  3
   5283   5281   5280   5287     1  0.0000000  0.6508444  3
   5283   5281   5280   5309     1  0.0000000  0.6508444  3
   5283   5281   5293   5305     1  0.0000000  0.6508444  3
   5283   5281   5293   5294     1  0.0000000  0.6508444  3
   5283   5281   5293   5295     1  0.0000000  0.6508444  3
   5284   5280   5287   5288     1  0.0000000  0.6508444  3
   5284   5280   5287   5289     1  0.0000000  0.6508444  3
   5284   5296   5302   5303     1  0.0000000  0.6508444  3
   5284   5296   5302   5304     1  0.0000000  0.6508444  3
   5285   5284   5280   5287     1  0.0000000  0.6508444  3
   5285   5284   5280   5309     1  0.0000000  0.6508444  3
   5285   5284   5296   5302     1  0.0000000  0.6508444  3
   5285   5284   5296   5297     1  0.0000000  0.6508444  3
   5285   5284   5296   5298     1  0.0000000  0.6508444  3
   5286   5284   5280   5287     1  0.0000000  0.6508444  3
   5286   5284   5280   5309     1  0.0000000  0.6508444  3
   5286   5284   5296   5302     1  0.0000000  0.6508444  3
   5286   5284   5296   5297     1  0.0000000  0.6508444  3
   5286   5284   5296   5298     1  0.0000000  0.6508444  3
   5287   5290   5299   5300     1  0.0000000  0.6508444  3
   5287   5290   5299   5301     1  0.0000000  0.6508444  3
   5288   5287   5280   5309     1  0.0000000  0.6508444  3
   5288   5287   5290   5299     1  0.0000000  0.6508444  3
   5288   5287   5290   5291     1  0.0000000  0.6508444  3
   5288   5287   5290   5292     1  0.0000000  0.6508444  3
   5289   5287   5280   5309     1  0.0000000  0.6508444  3
   5289   5287   5290   5299     1  0.0000000  0.6508444  3
   5289   5287   5290   5291     1  0.0000000  0.6508444  3
   5289   5287   5290   5292     1  0.0000000  0.6508444  3
   5290   5287   5280   5309     1  0.0000000  0.6508444  3
   5291   5290   5299   5308     1  0.0000000  1.0460000  1
   5291   5290   5299   5308     1  0.0000000  0.0000000  3
   5291   5290   5299   5300     1  0.0000000  0.6508444  3
   5291   5290   5299   5301     1  0.0000000  0.6508444  3
   5292   5290   5299   5308     1  0.0000000  1.0460000  1
   5292   5290   5299   5308     1  0.0000000  0.0000000  3
   5292   5290   5299   5300     1  0.0000000  0.6508444  3
   5292   5290   5299   5301     1  0.0000000  0.6508444  3
   5293   5281   5280   5309     1  0.0000000  0.6508444  3
   5294   5293   5305  10678     1  0.0000000  1.0460000  1
   5294   5293   5305  10678     1  0.0000000  0.0000000  3
   5294   5293   5305   5306     1  0.0000000  0.6508444  3
   5294   5293   5305   5307     1  0.0000000  0.6508444  3
   5295   5293   5305  10678     1  0.0000000  1.0460000  1
   5295   5293   5305  10678     1  0.0000000  0.0000000  3
   5295   5293   5305   5306     1  0.0000000  0.6508444  3
   5295   5293   5305   5307     1  0.0000000  0.6508444  3
   5296   5284   5280   5309     1  0.0000000  0.6508444  3
   5297   5296   5302  10648     1  0.0000000  1.0460000  1
   5297   5296   5302  10648     1  0.0000000  0.0000000  3
   5297   5296   5302   5303     1  0.0000000  0.6508444  3
   5297   5296   5302   5304     1  0.0000000  0.6508444  3
   5298   5296   5302  10648     1  0.0000000  1.0460000  1
   5298   5296   5302  10648     1  0.0000000  0.0000000  3
   5298   5296   5302   5303     1  0.0000000  0.6508444  3
   5298   5296   5302   5304     1  0.0000000  0.6508444  3
   5302  10648  10639  10640     1  0.0000000  1.6038667  3
   5302  10648  10639  10641     1  0.0000000  1.6038667  3
   5303   5302  10648  10639     1  0.0000000  1.6038667  3
   5304   5302  10648  10639     1  0.0000000  1.6038667  3
   5305  10678  10669  10670     1  0.0000000  1.6038667  3
   5305  10678  10669  10671     1  0.0000000  1.6038667  3
   5306   5305  10678  10669     1  0.0000000  1.6038667  3
   5307   5305  10678  10669     1  0.0000000  1.6038667  3
   5310   5311   5323   5324     1  0.0000000  0.6508444  3
   5310   5311   5323   5325     1  0.0000000  0.6508444  3
   5310   5314   5326   5327     1  0.0000000  0.6508444  3
   5310   5314   5326   5328     1  0.0000000  0.6508444  3
   5310   5317   5320   5321     1  0.0000000  0.6508444  3
   5310   5317   5320   5322     1  0.0000000  0.6508444  3
   5311   5310   5314   5315     1  0.0000000  0.6508444  3
   5311   5310   5314   5316     1  0.0000000  0.6508444  3
   5311   5310   5317   5318     1  0.0000000  0.6508444  3
   5311   5310   5317   5319     1  0.0000000  0.6508444  3
   5311   5323   5335   5336     1  0.0000000  0.6508444  3
   5311   5323   5335   5337     1  0.0000000  0.6508444  3
   5312   5311   5310   5314     1  0.0000000  0.6508444  3
   5312   5311   5310   5317     1  0.0000000  0.6508444  3
   5312   5311   5310   5339     1  0.0000000  0.6508444  3
   5312   5311   5323   5335     1  0.0000000  0.6508444  3
   5312   5311   5323   5324     1  0.0000000  0.6508444  3
   5312   5311   5323   5325     1  0.0000000  0.6508444  3
   5313   5311   5310   5314     1  0.0000000  0.6508444  3
   5313   5311   5310   5317     1  0.0000000  0.6508444  3
   5313   5311   5310   5339     1  0.0000000  0.6508444  3
   5313   5311   5323   5335     1  0.0000000  0.6508444  3
   5313   5311   5323   5324     1  0.0000000  0.6508444  3
   5313   5311   5323   5325     1  0.0000000  0.6508444  3
   5314   5310   5317   5318     1  0.0000000  0.6508444  3
   5314   5310   5317   5319     1  0.0000000  0.6508444  3
   5314   5326   5332   5333     1  0.0000000  0.6508444  3
   5314   5326   5332   5334     1  0.0000000  0.6508444  3
   5315   5314   5310   5317     1  0.0000000  0.6508444  3
   5315   5314   5310   5339     1  0.0000000  0.6508444  3
   5315   5314   5326   5332     1  0.0000000  0.6508444  3
   5315   5314   5326   5327     1  0.0000000  0.6508444  3
   5315   5314   5326   5328     1  0.0000000  0.6508444  3
   5316   5314   5310   5317     1  0.0000000  0.6508444  3
   5316   5314   5310   5339     1  0.0000000  0.6508444  3
   5316   5314   5326   5332     1  0.0000000  0.6508444  3
   5316   5314   5326   5327     1  0.0000000  0.6508444  3
   5316   5314   5326   5328     1  0.0000000  0.6508444  3
   5317   5320   5329   5330     1  0.0000000  0.6508444  3
   5317   5320   5329   5331     1  0.0000000  0.6508444  3
   5318   5317   5310   5339     1  0.0000000  0.6508444  3
   5318   5317   5320   5329     1  0.0000000  0.6508444  3
   5318   5317   5320   5321     1  0.0000000  0.6508444  3
   5318   5317   5320   5322     1  0.0000000  0.6508444  3
   5319   5317   5310   5339     1  0.0000000  0.6508444  3
   5319   5317   5320   5329     1  0.0000000  0.6508444  3
   5319   5317   5320   5321     1  0.0000000  0.6508444  3
   5319   5317   5320   5322     1  0.0000000  0.6508444  3
   5320   5317   5310   5339     1  0.0000000  0.6508444  3
   5321   5320   5329   5338     1  0.0000000  1.0460000  1
   5321   5320   5329   5338     1  0.0000000  0.0000000  3
   5321   5320   5329   5330     1  0.0000000  0.6508444  3
   5321   5320   5329   5331     1  0.0000000  0.6508444  3
   5322   5320   5329   5338     1  0.0000000  1.0460000  1
   5322   5320   5329   5338     1  0.0000000  0.0000000  3
   5322   5320   5329   5330     1  0.0000000  0.6508444  3
   5322   5320   5329   5331     1  0.0000000  0.6508444  3
   5323   5311   5310   5339     1  0.0000000  0.6508444  3
   5324   5323   5335  10738     1  0.0000000  1.0460000  1
   5324   5323   5335  10738     1  0.0000000  0.0000000  3
   5324   5323   5335   5336     1  0.0000000  0.6508444  3
   5324   5323   5335   5337     1  0.0000000  0.6508444  3
   5325   5323   5335  10738     1  0.0000000  1.0460000  1
   5325   5323   5335  10738     1  0.0000000  0.0000000  3
   5325   5323   5335   5336     1  0.0000000  0.6508444  3
   5325   5323   5335   5337     1  0.0000000  0.6508444  3
   5326   5314   5310   5339     1  0.0000000  0.6508444  3
   5327   5326   5332  10708     1  0.0000000  1.0460000  1
   5327   5326   5332  10708     1  0.0000000  0.0000000  3
   5327   5326   5332   5333     1  0.0000000  0.6508444  3
   5327   5326   5332   5334     1  0.0000000  0.6508444  3
   5328   5326   5332  10708     1  0.0000000  1.0460000  1
   5328   5326   5332  10708     1  0.0000000  0.0000000  3
   5328   5326   5332   5333     1  0.0000000  0.6508444  3
   5328   5326   5332   5334     1  0.0000000  0.6508444  3
   5332  10708  10699  10700     1  0.0000000  1.6038667  3
   5332  10708  10699  10701     1  0.0000000  1.6038667  3
   5333   5332  10708  10699     1  0.0000000  1.6038667  3
   5334   5332  10708  10699     1  0.0000000  1.6038667  3
   5335  10738  10729  10730     1  0.0000000  1.6038667  3
   5335  10738  10729  10731     1  0.0000000  1.6038667  3
   5336   5335  10738  10729     1  0.0000000  1.6038667  3
   5337   5335  10738  10729     1  0.0000000  1.6038667  3
   5340   5341   5353   5354     1  0.0000000  0.6508444  3
   5340   5341   5353   5355     1  0.0000000  0.6508444  3
   5340   5344   5356   5357     1  0.0000000  0.6508444  3
   5340   5344   5356   5358     1  0.0000000  0.6508444  3
   5340   5347   5350   5351     1  0.0000000  0.6508444  3
   5340   5347   5350   5352     1  0.0000000  0.6508444  3
   5341   5340   5344   5345     1  0.0000000  0.6508444  3
   5341   5340   5344   5346     1  0.0000000  0.6508444  3
   5341   5340   5347   5348     1  0.0000000  0.6508444  3
   5341   5340   5347   5349     1  0.0000000  0.6508444  3
   5341   5353   5365   5366     1  0.0000000  0.6508444  3
   5341   5353   5365   5367     1  0.0000000  0.6508444  3
   5342   5341   5340   5344     1  0.0000000  0.6508444  3
   5342   5341   5340   5347     1  0.0000000  0.6508444  3
   5342   5341   5340   5369     1  0.0000000  0.6508444  3
   5342   5341   5353   5365     1  0.0000000  0.6508444  3
   5342   5341   5353   5354     1  0.0000000  0.6508444  3
   5342   5341   5353   5355     1  0.0000000  0.6508444  3
   5343   5341   5340   5344     1  0.0000000  0.6508444  3
   5343   5341   5340   5347     1  0.0000000  0.6508444  3
   5343   5341   5340   5369     1  0.0000000  0.6508444  3
   5343   5341   5353   5365     1  0.0000000  0.6508444  3
   5343   5341   5353   5354     1  0.0000000  0.6508444  3
   5343   5341   5353   5355     1  0.0000000  0.6508444  3
   5344   5340   5347   5348     1  0.0000000  0.6508444  3
   5344   5340   5347   5349     1  0.0000000  0.6508444  3
   5344   5356   5362   5363     1  0.0000000  0.6508444  3
   5344   5356   5362   5364     1  0.0000000  0.6508444  3
   5345   5344   5340   5347     1  0.0000000  0.6508444  3
   5345   5344   5340   5369     1  0.0000000  0.6508444  3
   5345   5344   5356   5362     1  0.0000000  0.6508444  3
   5345   5344   5356   5357     1  0.0000000  0.6508444  3
   5345   5344   5356   5358     1  0.0000000  0.6508444  3
   5346   5344   5340   5347     1  0.0000000  0.6508444  3
   5346   5344   5340   5369     1  0.0000000  0.6508444  3
   5346   5344   5356   5362     1  0.0000000  0.6508444  3
   5346   5344   5356   5357     1  0.0000000  0.6508444  3
   5346   5344   5356   5358     1  0.0000000  0.6508444  3
   5347   5350   5359   5360     1  0.0000000  0.6508444  3
   5347   5350   5359   5361     1  0.0000000  0.6508444  3
   5348   5347   5340   5369     1  0.0000000  0.6508444  3
   5348   5347   5350   5359     1  0.0000000  0.6508444  3
   5348   5347   5350   5351     1  0.0000000  0.6508444  3
   5348   5347   5350   5352     1  0.0000000  0.6508444  3
   5349   5347   5340   5369     1  0.0000000  0.6508444  3
   5349   5347   5350   5359     1  0.0000000  0.6508444  3
   5349   5347   5350   5351     1  0.0000000  0.6508444  3
   5349   5347   5350   5352     1  0.0000000  0.6508444  3
   5350   5347   5340   5369     1  0.0000000  0.6508444  3
   5351   5350   5359   5368     1  0.0000000  1.0460000  1
   5351   5350   5359   5368     1  0.0000000  0.0000000  3
   5351   5350   5359   5360     1  0.0000000  0.6508444  3
   5351   5350   5359   5361     1  0.0000000  0.6508444  3
   5352   5350   5359   5368     1  0.0000000  1.0460000  1
   5352   5350   5359   5368     1  0.0000000  0.0000000  3
   5352   5350   5359   5360     1  0.0000000  0.6508444  3
   5352   5350   5359   5361     1  0.0000000  0.6508444  3
   5353   5341   5340   5369     1  0.0000000  0.6508444  3
   5354   5353   5365  10798     1  0.0000000  1.0460000  1
   5354   5353   5365  10798     1  0.0000000  0.0000000  3
   5354   5353   5365   5366     1  0.0000000  0.6508444  3
   5354   5353   5365   5367     1  0.0000000  0.6508444  3
   5355   5353   5365  10798     1  0.0000000  1.0460000  1
   5355   5353   5365  10798     1  0.0000000  0.0000000  3
   5355   5353   5365   5366     1  0.0000000  0.6508444  3
   5355   5353   5365   5367     1  0.0000000  0.6508444  3
   5356   5344   5340   5369     1  0.0000000  0.6508444  3
   5357   5356   5362  10768     1  0.0000000  1.0460000  1
   5357   5356   5362  10768     1  0.0000000  0.0000000  3
   5357   5356   5362   5363     1  0.0000000  0.6508444  3
   5357   5356   5362   5364     1  0.0000000  0.6508444  3
   5358   5356   5362  10768     1  0.0000000  1.0460000  1
   5358   5356   5362  10768     1  0.0000000  0.0000000  3
   5358   5356   5362   5363     1  0.0000000  0.6508444  3
   5358   5356   5362   5364     1  0.0000000  0.6508444  3
   5362  10768  10759  10760     1  0.0000000  1.6038667  3
   5362  10768  10759  10761     1  0.0000000  1.6038667  3
   5363   5362  10768  10759     1  0.0000000  1.6038667  3
   5364   5362  10768  10759     1  0.0000000  1.6038667  3
   5365  10798  10789  10790     1  0.0000000  1.6038667  3
   5365  10798  10789  10791     1  0.0000000  1.6038667  3
   5366   5365  10798  10789     1  0.0000000  1.6038667  3
   5367   5365  10798  10789     1  0.0000000  1.6038667  3
   5370   5371   5383   5384     1  0.0000000  0.6508444  3
   5370   5371   5383   5385     1  0.0000000  0.6508444  3
   5370   5374   5386   5387     1  0.0000000  0.6508444  3
   5370   5374   5386   5388     1  0.0000000  0.6508444  3
   5370   5377   5380   5381     1  0.0000000  0.6508444  3
   5370   5377   5380   5382     1  0.0000000  0.6508444  3
   5371   5370   5374   5375     1  0.0000000  0.6508444  3
   5371   5370   5374   5376     1  0.0000000  0.6508444  3
   5371   5370   5377   5378     1  0.0000000  0.6508444  3
   5371   5370   5377   5379     1  0.0000000  0.6508444  3
   5371   5383   5395   5396     1  0.0000000  0.6508444  3
   5371   5383   5395   5397     1  0.0000000  0.6508444  3
   5372   5371   5370   5374     1  0.0000000  0.6508444  3
   5372   5371   5370   5377     1  0.0000000  0.6508444  3
   5372   5371   5370   5399     1  0.0000000  0.6508444  3
   5372   5371   5383   5395     1  0.0000000  0.6508444  3
   5372   5371   5383   5384     1  0.0000000  0.6508444  3
   5372   5371   5383   5385     1  0.0000000  0.6508444  3
   5373   5371   5370   5374     1  0.0000000  0.6508444  3
   5373   5371   5370   5377     1  0.0000000  0.6508444  3
   5373   5371   5370   5399     1  0.0000000  0.6508444  3
   5373   5371   5383   5395     1  0.0000000  0.6508444  3
   5373   5371   5383   5384     1  0.0000000  0.6508444  3
   5373   5371   5383   5385     1  0.0000000  0.6508444  3
   5374   5370   5377   5378     1  0.0000000  0.6508444  3
   5374   5370   5377   5379     1  0.0000000  0.6508444  3
   5374   5386   5392   5393     1  0.0000000  0.6508444  3
   5374   5386   5392   5394     1  0.0000000  0.6508444  3
   5375   5374   5370   5377     1  0.0000000  0.6508444  3
   5375   5374   5370   5399     1  0.0000000  0.6508444  3
   5375   5374   5386   5392     1  0.0000000  0.6508444  3
   5375   5374   5386   5387     1  0.0000000  0.6508444  3
   5375   5374   5386   5388     1  0.0000000  0.6508444  3
   5376   5374   5370   5377     1  0.0000000  0.6508444  3
   5376   5374   5370   5399     1  0.0000000  0.6508444  3
   5376   5374   5386   5392     1  0.0000000  0.6508444  3
   5376   5374   5386   5387     1  0.0000000  0.6508444  3
   5376   5374   5386   5388     1  0.0000000  0.6508444  3
   5377   5380   5389   5390     1  0.0000000  0.6508444  3
   5377   5380   5389   5391     1  0.0000000  0.6508444  3
   5378   5377   5370   5399     1  0.0000000  0.6508444  3
   5378   5377   5380   5389     1  0.0000000  0.6508444  3
   5378   5377   5380   5381     1  0.0000000  0.6508444  3
   5378   5377   5380   5382     1  0.0000000  0.6508444  3
   5379   5377   5370   5399     1  0.0000000  0.6508444  3
   5379   5377   5380   5389     1  0.0000000  0.6508444  3
   5379   5377   5380   5381     1  0.0000000  0.6508444  3
   5379   5377   5380   5382     1  0.0000000  0.6508444  3
   5380   5377   5370   5399     1  0.0000000  0.6508444  3
   5381   5380   5389   5398     1  0.0000000  1.0460000  1
   5381   5380   5389   5398     1  0.0000000  0.0000000  3
   5381   5380   5389   5390     1  0.0000000  0.6508444  3
   5381   5380   5389   5391     1  0.0000000  0.6508444  3
   5382   5380   5389   5398     1  0.0000000  1.0460000  1
   5382   5380   5389   5398     1  0.0000000  0.0000000  3
   5382   5380   5389   5390     1  0.0000000  0.6508444  3
   5382   5380   5389   5391     1  0.0000000  0.6508444  3
   5383   5371   5370   5399     1  0.0000000  0.6508444  3
   5384   5383   5395  10858     1  0.0000000  1.0460000  1
   5384   5383   5395  10858     1  0.0000000  0.0000000  3
   5384   5383   5395   5396     1  0.0000000  0.6508444  3
   5384   5383   5395   5397     1  0.0000000  0.6508444  3
   5385   5383   5395  10858     1  0.0000000  1.0460000  1
   5385   5383   5395  10858     1  0.0000000  0.0000000  3
   5385   5383   5395   5396     1  0.0000000  0.6508444  3
   5385   5383   5395   5397     1  0.0000000  0.6508444  3
   5386   5374   5370   5399     1  0.0000000  0.6508444  3
   5387   5386   5392  10828     1  0.0000000  1.0460000  1
   5387   5386   5392  10828     1  0.0000000  0.0000000  3
   5387   5386   5392   5393     1  0.0000000  0.6508444  3
   5387   5386   5392   5394     1  0.0000000  0.6508444  3
   5388   5386   5392  10828     1  0.0000000  1.0460000  1
   5388   5386   5392  10828     1  0.0000000  0.0000000  3
   5388   5386   5392   5393     1  0.0000000  0.6508444  3
   5388   5386   5392   5394     1  0.0000000  0.6508444  3
   5392  10828  10819  10820     1  0.0000000  1.6038667  3
   5392  10828  10819  10821     1  0.0000000  1.6038667  3
   5393   5392  10828  10819     1  0.0000000  1.6038667  3
   5394   5392  10828  10819     1  0.0000000  1.6038667  3
   5395  10858  10849  10850     1  0.0000000  1.6038667  3
   5395  10858  10849  10851     1  0.0000000  1.6038667  3
   5396   5395  10858  10849     1  0.0000000  1.6038667  3
   5397   5395  10858  10849     1  0.0000000  1.6038667  3
   5400   5401   5413   5414     1  0.0000000  0.6508444  3
   5400   5401   5413   5415     1  0.0000000  0.6508444  3
   5400   5404   5416   5417     1  0.0000000  0.6508444  3
   5400   5404   5416   5418     1  0.0000000  0.6508444  3
   5400   5407   5410   5411     1  0.0000000  0.6508444  3
   5400   5407   5410   5412     1  0.0000000  0.6508444  3
   5401   5400   5404   5405     1  0.0000000  0.6508444  3
   5401   5400   5404   5406     1  0.0000000  0.6508444  3
   5401   5400   5407   5408     1  0.0000000  0.6508444  3
   5401   5400   5407   5409     1  0.0000000  0.6508444  3
   5401   5413   5425   5426     1  0.0000000  0.6508444  3
   5401   5413   5425   5427     1  0.0000000  0.6508444  3
   5402   5401   5400   5404     1  0.0000000  0.6508444  3
   5402   5401   5400   5407     1  0.0000000  0.6508444  3
   5402   5401   5400   5429     1  0.0000000  0.6508444  3
   5402   5401   5413   5425     1  0.0000000  0.6508444  3
   5402   5401   5413   5414     1  0.0000000  0.6508444  3
   5402   5401   5413   5415     1  0.0000000  0.6508444  3
   5403   5401   5400   5404     1  0.0000000  0.6508444  3
   5403   5401   5400   5407     1  0.0000000  0.6508444  3
   5403   5401   5400   5429     1  0.0000000  0.6508444  3
   5403   5401   5413   5425     1  0.0000000  0.6508444  3
   5403   5401   5413   5414     1  0.0000000  0.6508444  3
   5403   5401   5413   5415     1  0.0000000  0.6508444  3
   5404   5400   5407   5408     1  0.0000000  0.6508444  3
   5404   5400   5407   5409     1  0.0000000  0.6508444  3
   5404   5416   5422   5423     1  0.0000000  0.6508444  3
   5404   5416   5422   5424     1  0.0000000  0.6508444  3
   5405   5404   5400   5407     1  0.0000000  0.6508444  3
   5405   5404   5400   5429     1  0.0000000  0.6508444  3
   5405   5404   5416   5422     1  0.0000000  0.6508444  3
   5405   5404   5416   5417     1  0.0000000  0.6508444  3
   5405   5404   5416   5418     1  0.0000000  0.6508444  3
   5406   5404   5400   5407     1  0.0000000  0.6508444  3
   5406   5404   5400   5429     1  0.0000000  0.6508444  3
   5406   5404   5416   5422     1  0.0000000  0.6508444  3
   5406   5404   5416   5417     1  0.0000000  0.6508444  3
   5406   5404   5416   5418     1  0.0000000  0.6508444  3
   5407   5410   5419   5420     1  0.0000000  0.6508444  3
   5407   5410   5419   5421     1  0.0000000  0.6508444  3
   5408   5407   5400   5429     1  0.0000000  0.6508444  3
   5408   5407   5410   5419     1  0.0000000  0.6508444  3
   5408   5407   5410   5411     1  0.0000000  0.6508444  3
   5408   5407   5410   5412     1  0.0000000  0.6508444  3
   5409   5407   5400   5429     1  0.0000000  0.6508444  3
   5409   5407   5410   5419     1  0.0000000  0.6508444  3
   5409   5407   5410   5411     1  0.0000000  0.6508444  3
   5409   5407   5410   5412     1  0.0000000  0.6508444  3
   5410   5407   5400   5429     1  0.0000000  0.6508444  3
   5411   5410   5419   5428     1  0.0000000  1.0460000  1
   5411   5410   5419   5428     1  0.0000000  0.0000000  3
   5411   5410   5419   5420     1  0.0000000  0.6508444  3
   5411   5410   5419   5421     1  0.0000000  0.6508444  3
   5412   5410   5419   5428     1  0.0000000  1.0460000  1
   5412   5410   5419   5428     1  0.0000000  0.0000000  3
   5412   5410   5419   5420     1  0.0000000  0.6508444  3
   5412   5410   5419   5421     1  0.0000000  0.6508444  3
   5413   5401   5400   5429     1  0.0000000  0.6508444  3
   5414   5413   5425  10918     1  0.0000000  1.0460000  1
   5414   5413   5425  10918     1  0.0000000  0.0000000  3
   5414   5413   5425   5426     1  0.0000000  0.6508444  3
   5414   5413   5425   5427     1  0.0000000  0.6508444  3
   5415   5413   5425  10918     1  0.0000000  1.0460000  1
   5415   5413   5425  10918     1  0.0000000  0.0000000  3
   5415   5413   5425   5426     1  0.0000000  0.6508444  3
   5415   5413   5425   5427     1  0.0000000  0.6508444  3
   5416   5404   5400   5429     1  0.0000000  0.6508444  3
   5417   5416   5422  10888     1  0.0000000  1.0460000  1
   5417   5416   5422  10888     1  0.0000000  0.0000000  3
   5417   5416   5422   5423     1  0.0000000  0.6508444  3
   5417   5416   5422   5424     1  0.0000000  0.6508444  3
   5418   5416   5422  10888     1  0.0000000  1.0460000  1
   5418   5416   5422  10888     1  0.0000000  0.0000000  3
   5418   5416   5422   5423     1  0.0000000  0.6508444  3
   5418   5416   5422   5424     1  0.0000000  0.6508444  3
   5422  10888  10879  10880     1  0.0000000  1.6038667  3
   5422  10888  10879  10881     1  0.0000000  1.6038667  3
   5423   5422  10888  10879     1  0.0000000  1.6038667  3
   5424   5422  10888  10879     1  0.0000000  1.6038667  3
   5425  10918  10909  10910     1  0.0000000  1.6038667  3
   5425  10918  10909  10911     1  0.0000000  1.6038667  3
   5426   5425  10918  10909     1  0.0000000  1.6038667  3
   5427   5425  10918  10909     1  0.0000000  1.6038667  3
   5430   5431   5443   5444     1  0.0000000  0.6508444  3
   5430   5431   5443   5445     1  0.0000000  0.6508444  3
   5430   5434   5446   5447     1  0.0000000  0.6508444  3
   5430   5434   5446   5448     1  0.0000000  0.6508444  3
   5430   5437   5440   5441     1  0.0000000  0.6508444  3
   5430   5437   5440   5442     1  0.0000000  0.6508444  3
   5431   5430   5434   5435     1  0.0000000  0.6508444  3
   5431   5430   5434   5436     1  0.0000000  0.6508444  3
   5431   5430   5437   5438     1  0.0000000  0.6508444  3
   5431   5430   5437   5439     1  0.0000000  0.6508444  3
   5431   5443   5455   5456     1  0.0000000  0.6508444  3
   5431   5443   5455   5457     1  0.0000000  0.6508444  3
   5432   5431   5430   5434     1  0.0000000  0.6508444  3
   5432   5431   5430   5437     1  0.0000000  0.6508444  3
   5432   5431   5430   5459     1  0.0000000  0.6508444  3
   5432   5431   5443   5455     1  0.0000000  0.6508444  3
   5432   5431   5443   5444     1  0.0000000  0.6508444  3
   5432   5431   5443   5445     1  0.0000000  0.6508444  3
   5433   5431   5430   5434     1  0.0000000  0.6508444  3
   5433   5431   5430   5437     1  0.0000000  0.6508444  3
   5433   5431   5430   5459     1  0.0000000  0.6508444  3
   5433   5431   5443   5455     1  0.0000000  0.6508444  3
   5433   5431   5443   5444     1  0.0000000  0.6508444  3
   5433   5431   5443   5445     1  0.0000000  0.6508444  3
   5434   5430   5437   5438     1  0.0000000  0.6508444  3
   5434   5430   5437   5439     1  0.0000000  0.6508444  3
   5434   5446   5452   5453     1  0.0000000  0.6508444  3
   5434   5446   5452   5454     1  0.0000000  0.6508444  3
   5435   5434   5430   5437     1  0.0000000  0.6508444  3
   5435   5434   5430   5459     1  0.0000000  0.6508444  3
   5435   5434   5446   5452     1  0.0000000  0.6508444  3
   5435   5434   5446   5447     1  0.0000000  0.6508444  3
   5435   5434   5446   5448     1  0.0000000  0.6508444  3
   5436   5434   5430   5437     1  0.0000000  0.6508444  3
   5436   5434   5430   5459     1  0.0000000  0.6508444  3
   5436   5434   5446   5452     1  0.0000000  0.6508444  3
   5436   5434   5446   5447     1  0.0000000  0.6508444  3
   5436   5434   5446   5448     1  0.0000000  0.6508444  3
   5437   5440   5449   5450     1  0.0000000  0.6508444  3
   5437   5440   5449   5451     1  0.0000000  0.6508444  3
   5438   5437   5430   5459     1  0.0000000  0.6508444  3
   5438   5437   5440   5449     1  0.0000000  0.6508444  3
   5438   5437   5440   5441     1  0.0000000  0.6508444  3
   5438   5437   5440   5442     1  0.0000000  0.6508444  3
   5439   5437   5430   5459     1  0.0000000  0.6508444  3
   5439   5437   5440   5449     1  0.0000000  0.6508444  3
   5439   5437   5440   5441     1  0.0000000  0.6508444  3
   5439   5437   5440   5442     1  0.0000000  0.6508444  3
   5440   5437   5430   5459     1  0.0000000  0.6508444  3
   5441   5440   5449   5458     1  0.0000000  1.0460000  1
   5441   5440   5449   5458     1  0.0000000  0.0000000  3
   5441   5440   5449   5450     1  0.0000000  0.6508444  3
   5441   5440   5449   5451     1  0.0000000  0.6508444  3
   5442   5440   5449   5458     1  0.0000000  1.0460000  1
   5442   5440   5449   5458     1  0.0000000  0.0000000  3
   5442   5440   5449   5450     1  0.0000000  0.6508444  3
   5442   5440   5449   5451     1  0.0000000  0.6508444  3
   5443   5431   5430   5459     1  0.0000000  0.6508444  3
   5444   5443   5455  10978     1  0.0000000  1.0460000  1
   5444   5443   5455  10978     1  0.0000000  0.0000000  3
   5444   5443   5455   5456     1  0.0000000  0.6508444  3
   5444   5443   5455   5457     1  0.0000000  0.6508444  3
   5445   5443   5455  10978     1  0.0000000  1.0460000  1
   5445   5443   5455  10978     1  0.0000000  0.0000000  3
   5445   5443   5455   5456     1  0.0000000  0.6508444  3
   5445   5443   5455   5457     1  0.0000000  0.6508444  3
   5446   5434   5430   5459     1  0.0000000  0.6508444  3
   5447   5446   5452  10948     1  0.0000000  1.0460000  1
   5447   5446   5452  10948     1  0.0000000  0.0000000  3
   5447   5446   5452   5453     1  0.0000000  0.6508444  3
   5447   5446   5452   5454     1  0.0000000  0.6508444  3
   5448   5446   5452  10948     1  0.0000000  1.0460000  1
   5448   5446   5452  10948     1  0.0000000  0.0000000  3
   5448   5446   5452   5453     1  0.0000000  0.6508444  3
   5448   5446   5452   5454     1  0.0000000  0.6508444  3
   5452  10948  10939  10940     1  0.0000000  1.6038667  3
   5452  10948  10939  10941     1  0.0000000  1.6038667  3
   5453   5452  10948  10939     1  0.0000000  1.6038667  3
   5454   5452  10948  10939     1  0.0000000  1.6038667  3
   5455  10978  10969  10970     1  0.0000000  1.6038667  3
   5455  10978  10969  10971     1  0.0000000  1.6038667  3
   5456   5455  10978  10969     1  0.0000000  1.6038667  3
   5457   5455  10978  10969     1  0.0000000  1.6038667  3
   5460   5461   5473   5474     1  0.0000000  0.6508444  3
   5460   5461   5473   5475     1  0.0000000  0.6508444  3
   5460   5464   5476   5477     1  0.0000000  0.6508444  3
   5460   5464   5476   5478     1  0.0000000  0.6508444  3
   5460   5467   5470   5471     1  0.0000000  0.6508444  3
   5460   5467   5470   5472     1  0.0000000  0.6508444  3
   5461   5460   5464   5465     1  0.0000000  0.6508444  3
   5461   5460   5464   5466     1  0.0000000  0.6508444  3
   5461   5460   5467   5468     1  0.0000000  0.6508444  3
   5461   5460   5467   5469     1  0.0000000  0.6508444  3
   5461   5473   5485   5486     1  0.0000000  0.6508444  3
   5461   5473   5485   5487     1  0.0000000  0.6508444  3
   5462   5461   5460   5464     1  0.0000000  0.6508444  3
   5462   5461   5460   5467     1  0.0000000  0.6508444  3
   5462   5461   5460   5489     1  0.0000000  0.6508444  3
   5462   5461   5473   5485     1  0.0000000  0.6508444  3
   5462   5461   5473   5474     1  0.0000000  0.6508444  3
   5462   5461   5473   5475     1  0.0000000  0.6508444  3
   5463   5461   5460   5464     1  0.0000000  0.6508444  3
   5463   5461   5460   5467     1  0.0000000  0.6508444  3
   5463   5461   5460   5489     1  0.0000000  0.6508444  3
   5463   5461   5473   5485     1  0.0000000  0.6508444  3
   5463   5461   5473   5474     1  0.0000000  0.6508444  3
   5463   5461   5473   5475     1  0.0000000  0.6508444  3
   5464   5460   5467   5468     1  0.0000000  0.6508444  3
   5464   5460   5467   5469     1  0.0000000  0.6508444  3
   5464   5476   5482   5483     1  0.0000000  0.6508444  3
   5464   5476   5482   5484     1  0.0000000  0.6508444  3
   5465   5464   5460   5467     1  0.0000000  0.6508444  3
   5465   5464   5460   5489     1  0.0000000  0.6508444  3
   5465   5464   5476   5482     1  0.0000000  0.6508444  3
   5465   5464   5476   5477     1  0.0000000  0.6508444  3
   5465   5464   5476   5478     1  0.0000000  0.6508444  3
   5466   5464   5460   5467     1  0.0000000  0.6508444  3
   5466   5464   5460   5489     1  0.0000000  0.6508444  3
   5466   5464   5476   5482     1  0.0000000  0.6508444  3
   5466   5464   5476   5477     1  0.0000000  0.6508444  3
   5466   5464   5476   5478     1  0.0000000  0.6508444  3
   5467   5470   5479   5480     1  0.0000000  0.6508444  3
   5467   5470   5479   5481     1  0.0000000  0.6508444  3
   5468   5467   5460   5489     1  0.0000000  0.6508444  3
   5468   5467   5470   5479     1  0.0000000  0.6508444  3
   5468   5467   5470   5471     1  0.0000000  0.6508444  3
   5468   5467   5470   5472     1  0.0000000  0.6508444  3
   5469   5467   5460   5489     1  0.0000000  0.6508444  3
   5469   5467   5470   5479     1  0.0000000  0.6508444  3
   5469   5467   5470   5471     1  0.0000000  0.6508444  3
   5469   5467   5470   5472     1  0.0000000  0.6508444  3
   5470   5467   5460   5489     1  0.0000000  0.6508444  3
   5471   5470   5479   5488     1  0.0000000  1.0460000  1
   5471   5470   5479   5488     1  0.0000000  0.0000000  3
   5471   5470   5479   5480     1  0.0000000  0.6508444  3
   5471   5470   5479   5481     1  0.0000000  0.6508444  3
   5472   5470   5479   5488     1  0.0000000  1.0460000  1
   5472   5470   5479   5488     1  0.0000000  0.0000000  3
   5472   5470   5479   5480     1  0.0000000  0.6508444  3
   5472   5470   5479   5481     1  0.0000000  0.6508444  3
   5473   5461   5460   5489     1  0.0000000  0.6508444  3
   5474   5473   5485  11038     1  0.0000000  1.0460000  1
   5474   5473   5485  11038     1  0.0000000  0.0000000  3
   5474   5473   5485   5486     1  0.0000000  0.6508444  3
   5474   5473   5485   5487     1  0.0000000  0.6508444  3
   5475   5473   5485  11038     1  0.0000000  1.0460000  1
   5475   5473   5485  11038     1  0.0000000  0.0000000  3
   5475   5473   5485   5486     1  0.0000000  0.6508444  3
   5475   5473   5485   5487     1  0.0000000  0.6508444  3
   5476   5464   5460   5489     1  0.0000000  0.6508444  3
   5477   5476   5482  11008     1  0.0000000  1.0460000  1
   5477   5476   5482  11008     1  0.0000000  0.0000000  3
   5477   5476   5482   5483     1  0.0000000  0.6508444  3
   5477   5476   5482   5484     1  0.0000000  0.6508444  3
   5478   5476   5482  11008     1  0.0000000  1.0460000  1
   5478   5476   5482  11008     1  0.0000000  0.0000000  3
   5478   5476   5482   5483     1  0.0000000  0.6508444  3
   5478   5476   5482   5484     1  0.0000000  0.6508444  3
   5482  11008  10999  11000     1  0.0000000  1.6038667  3
   5482  11008  10999  11001     1  0.0000000  1.6038667  3
   5483   5482  11008  10999     1  0.0000000  1.6038667  3
   5484   5482  11008  10999     1  0.0000000  1.6038667  3
   5485  11038  11029  11030     1  0.0000000  1.6038667  3
   5485  11038  11029  11031     1  0.0000000  1.6038667  3
   5486   5485  11038  11029     1  0.0000000  1.6038667  3
   5487   5485  11038  11029     1  0.0000000  1.6038667  3
   5490   5491   5503   5504     1  0.0000000  0.6508444  3
   5490   5491   5503   5505     1  0.0000000  0.6508444  3
   5490   5494   5506   5507     1  0.0000000  0.6508444  3
   5490   5494   5506   5508     1  0.0000000  0.6508444  3
   5490   5497   5500   5501     1  0.0000000  0.6508444  3
   5490   5497   5500   5502     1  0.0000000  0.6508444  3
   5491   5490   5494   5495     1  0.0000000  0.6508444  3
   5491   5490   5494   5496     1  0.0000000  0.6508444  3
   5491   5490   5497   5498     1  0.0000000  0.6508444  3
   5491   5490   5497   5499     1  0.0000000  0.6508444  3
   5491   5503   5515   5516     1  0.0000000  0.6508444  3
   5491   5503   5515   5517     1  0.0000000  0.6508444  3
   5492   5491   5490   5494     1  0.0000000  0.6508444  3
   5492   5491   5490   5497     1  0.0000000  0.6508444  3
   5492   5491   5490   5519     1  0.0000000  0.6508444  3
   5492   5491   5503   5515     1  0.0000000  0.6508444  3
   5492   5491   5503   5504     1  0.0000000  0.6508444  3
   5492   5491   5503   5505     1  0.0000000  0.6508444  3
   5493   5491   5490   5494     1  0.0000000  0.6508444  3
   5493   5491   5490   5497     1  0.0000000  0.6508444  3
   5493   5491   5490   5519     1  0.0000000  0.6508444  3
   5493   5491   5503   5515     1  0.0000000  0.6508444  3
   5493   5491   5503   5504     1  0.0000000  0.6508444  3
   5493   5491   5503   5505     1  0.0000000  0.6508444  3
   5494   5490   5497   5498     1  0.0000000  0.6508444  3
   5494   5490   5497   5499     1  0.0000000  0.6508444  3
   5494   5506   5512   5513     1  0.0000000  0.6508444  3
   5494   5506   5512   5514     1  0.0000000  0.6508444  3
   5495   5494   5490   5497     1  0.0000000  0.6508444  3
   5495   5494   5490   5519     1  0.0000000  0.6508444  3
   5495   5494   5506   5512     1  0.0000000  0.6508444  3
   5495   5494   5506   5507     1  0.0000000  0.6508444  3
   5495   5494   5506   5508     1  0.0000000  0.6508444  3
   5496   5494   5490   5497     1  0.0000000  0.6508444  3
   5496   5494   5490   5519     1  0.0000000  0.6508444  3
   5496   5494   5506   5512     1  0.0000000  0.6508444  3
   5496   5494   5506   5507     1  0.0000000  0.6508444  3
   5496   5494   5506   5508     1  0.0000000  0.6508444  3
   5497   5500   5509   5510     1  0.0000000  0.6508444  3
   5497   5500   5509   5511     1  0.0000000  0.6508444  3
   5498   5497   5490   5519     1  0.0000000  0.6508444  3
   5498   5497   5500   5509     1  0.0000000  0.6508444  3
   5498   5497   5500   5501     1  0.0000000  0.6508444  3
   5498   5497   5500   5502     1  0.0000000  0.6508444  3
   5499   5497   5490   5519     1  0.0000000  0.6508444  3
   5499   5497   5500   5509     1  0.0000000  0.6508444  3
   5499   5497   5500   5501     1  0.0000000  0.6508444  3
   5499   5497   5500   5502     1  0.0000000  0.6508444  3
   5500   5497   5490   5519     1  0.0000000  0.6508444  3
   5501   5500   5509   5518     1  0.0000000  1.0460000  1
   5501   5500   5509   5518     1  0.0000000  0.0000000  3
   5501   5500   5509   5510     1  0.0000000  0.6508444  3
   5501   5500   5509   5511     1  0.0000000  0.6508444  3
   5502   5500   5509   5518     1  0.0000000  1.0460000  1
   5502   5500   5509   5518     1  0.0000000  0.0000000  3
   5502   5500   5509   5510     1  0.0000000  0.6508444  3
   5502   5500   5509   5511     1  0.0000000  0.6508444  3
   5503   5491   5490   5519     1  0.0000000  0.6508444  3
   5504   5503   5515  11098     1  0.0000000  1.0460000  1
   5504   5503   5515  11098     1  0.0000000  0.0000000  3
   5504   5503   5515   5516     1  0.0000000  0.6508444  3
   5504   5503   5515   5517     1  0.0000000  0.6508444  3
   5505   5503   5515  11098     1  0.0000000  1.0460000  1
   5505   5503   5515  11098     1  0.0000000  0.0000000  3
   5505   5503   5515   5516     1  0.0000000  0.6508444  3
   5505   5503   5515   5517     1  0.0000000  0.6508444  3
   5506   5494   5490   5519     1  0.0000000  0.6508444  3
   5507   5506   5512  11068     1  0.0000000  1.0460000  1
   5507   5506   5512  11068     1  0.0000000  0.0000000  3
   5507   5506   5512   5513     1  0.0000000  0.6508444  3
   5507   5506   5512   5514     1  0.0000000  0.6508444  3
   5508   5506   5512  11068     1  0.0000000  1.0460000  1
   5508   5506   5512  11068     1  0.0000000  0.0000000  3
   5508   5506   5512   5513     1  0.0000000  0.6508444  3
   5508   5506   5512   5514     1  0.0000000  0.6508444  3
   5512  11068  11059  11060     1  0.0000000  1.6038667  3
   5512  11068  11059  11061     1  0.0000000  1.6038667  3
   5513   5512  11068  11059     1  0.0000000  1.6038667  3
   5514   5512  11068  11059     1  0.0000000  1.6038667  3
   5515  11098  11089  11090     1  0.0000000  1.6038667  3
   5515  11098  11089  11091     1  0.0000000  1.6038667  3
   5516   5515  11098  11089     1  0.0000000  1.6038667  3
   5517   5515  11098  11089     1  0.0000000  1.6038667  3
   5520   5521   5533   5534     1  0.0000000  0.6508444  3
   5520   5521   5533   5535     1  0.0000000  0.6508444  3
   5520   5524   5536   5537     1  0.0000000  0.6508444  3
   5520   5524   5536   5538     1  0.0000000  0.6508444  3
   5520   5527   5530   5531     1  0.0000000  0.6508444  3
   5520   5527   5530   5532     1  0.0000000  0.6508444  3
   5521   5520   5524   5525     1  0.0000000  0.6508444  3
   5521   5520   5524   5526     1  0.0000000  0.6508444  3
   5521   5520   5527   5528     1  0.0000000  0.6508444  3
   5521   5520   5527   5529     1  0.0000000  0.6508444  3
   5521   5533   5545   5546     1  0.0000000  0.6508444  3
   5521   5533   5545   5547     1  0.0000000  0.6508444  3
   5522   5521   5520   5524     1  0.0000000  0.6508444  3
   5522   5521   5520   5527     1  0.0000000  0.6508444  3
   5522   5521   5520   5549     1  0.0000000  0.6508444  3
   5522   5521   5533   5545     1  0.0000000  0.6508444  3
   5522   5521   5533   5534     1  0.0000000  0.6508444  3
   5522   5521   5533   5535     1  0.0000000  0.6508444  3
   5523   5521   5520   5524     1  0.0000000  0.6508444  3
   5523   5521   5520   5527     1  0.0000000  0.6508444  3
   5523   5521   5520   5549     1  0.0000000  0.6508444  3
   5523   5521   5533   5545     1  0.0000000  0.6508444  3
   5523   5521   5533   5534     1  0.0000000  0.6508444  3
   5523   5521   5533   5535     1  0.0000000  0.6508444  3
   5524   5520   5527   5528     1  0.0000000  0.6508444  3
   5524   5520   5527   5529     1  0.0000000  0.6508444  3
   5524   5536   5542   5543     1  0.0000000  0.6508444  3
   5524   5536   5542   5544     1  0.0000000  0.6508444  3
   5525   5524   5520   5527     1  0.0000000  0.6508444  3
   5525   5524   5520   5549     1  0.0000000  0.6508444  3
   5525   5524   5536   5542     1  0.0000000  0.6508444  3
   5525   5524   5536   5537     1  0.0000000  0.6508444  3
   5525   5524   5536   5538     1  0.0000000  0.6508444  3
   5526   5524   5520   5527     1  0.0000000  0.6508444  3
   5526   5524   5520   5549     1  0.0000000  0.6508444  3
   5526   5524   5536   5542     1  0.0000000  0.6508444  3
   5526   5524   5536   5537     1  0.0000000  0.6508444  3
   5526   5524   5536   5538     1  0.0000000  0.6508444  3
   5527   5530   5539   5540     1  0.0000000  0.6508444  3
   5527   5530   5539   5541     1  0.0000000  0.6508444  3
   5528   5527   5520   5549     1  0.0000000  0.6508444  3
   5528   5527   5530   5539     1  0.0000000  0.6508444  3
   5528   5527   5530   5531     1  0.0000000  0.6508444  3
   5528   5527   5530   5532     1  0.0000000  0.6508444  3
   5529   5527   5520   5549     1  0.0000000  0.6508444  3
   5529   5527   5530   5539     1  0.0000000  0.6508444  3
   5529   5527   5530   5531     1  0.0000000  0.6508444  3
   5529   5527   5530   5532     1  0.0000000  0.6508444  3
   5530   5527   5520   5549     1  0.0000000  0.6508444  3
   5531   5530   5539   5548     1  0.0000000  1.0460000  1
   5531   5530   5539   5548     1  0.0000000  0.0000000  3
   5531   5530   5539   5540     1  0.0000000  0.6508444  3
   5531   5530   5539   5541     1  0.0000000  0.6508444  3
   5532   5530   5539   5548     1  0.0000000  1.0460000  1
   5532   5530   5539   5548     1  0.0000000  0.0000000  3
   5532   5530   5539   5540     1  0.0000000  0.6508444  3
   5532   5530   5539   5541     1  0.0000000  0.6508444  3
   5533   5521   5520   5549     1  0.0000000  0.6508444  3
   5534   5533   5545  11158     1  0.0000000  1.0460000  1
   5534   5533   5545  11158     1  0.0000000  0.0000000  3
   5534   5533   5545   5546     1  0.0000000  0.6508444  3
   5534   5533   5545   5547     1  0.0000000  0.6508444  3
   5535   5533   5545  11158     1  0.0000000  1.0460000  1
   5535   5533   5545  11158     1  0.0000000  0.0000000  3
   5535   5533   5545   5546     1  0.0000000  0.6508444  3
   5535   5533   5545   5547     1  0.0000000  0.6508444  3
   5536   5524   5520   5549     1  0.0000000  0.6508444  3
   5537   5536   5542  11128     1  0.0000000  1.0460000  1
   5537   5536   5542  11128     1  0.0000000  0.0000000  3
   5537   5536   5542   5543     1  0.0000000  0.6508444  3
   5537   5536   5542   5544     1  0.0000000  0.6508444  3
   5538   5536   5542  11128     1  0.0000000  1.0460000  1
   5538   5536   5542  11128     1  0.0000000  0.0000000  3
   5538   5536   5542   5543     1  0.0000000  0.6508444  3
   5538   5536   5542   5544     1  0.0000000  0.6508444  3
   5542  11128  11119  11120     1  0.0000000  1.6038667  3
   5542  11128  11119  11121     1  0.0000000  1.6038667  3
   5543   5542  11128  11119     1  0.0000000  1.6038667  3
   5544   5542  11128  11119     1  0.0000000  1.6038667  3
   5545  11158  11149  11150     1  0.0000000  1.6038667  3
   5545  11158  11149  11151     1  0.0000000  1.6038667  3
   5546   5545  11158  11149     1  0.0000000  1.6038667  3
   5547   5545  11158  11149     1  0.0000000  1.6038667  3
   5550   5551   5563   5564     1  0.0000000  0.6508444  3
   5550   5551   5563   5565     1  0.0000000  0.6508444  3
   5550   5554   5566   5567     1  0.0000000  0.6508444  3
   5550   5554   5566   5568     1  0.0000000  0.6508444  3
   5550   5557   5560   5561     1  0.0000000  0.6508444  3
   5550   5557   5560   5562     1  0.0000000  0.6508444  3
   5551   5550   5554   5555     1  0.0000000  0.6508444  3
   5551   5550   5554   5556     1  0.0000000  0.6508444  3
   5551   5550   5557   5558     1  0.0000000  0.6508444  3
   5551   5550   5557   5559     1  0.0000000  0.6508444  3
   5551   5563   5575   5576     1  0.0000000  0.6508444  3
   5551   5563   5575   5577     1  0.0000000  0.6508444  3
   5552   5551   5550   5554     1  0.0000000  0.6508444  3
   5552   5551   5550   5557     1  0.0000000  0.6508444  3
   5552   5551   5550   5579     1  0.0000000  0.6508444  3
   5552   5551   5563   5575     1  0.0000000  0.6508444  3
   5552   5551   5563   5564     1  0.0000000  0.6508444  3
   5552   5551   5563   5565     1  0.0000000  0.6508444  3
   5553   5551   5550   5554     1  0.0000000  0.6508444  3
   5553   5551   5550   5557     1  0.0000000  0.6508444  3
   5553   5551   5550   5579     1  0.0000000  0.6508444  3
   5553   5551   5563   5575     1  0.0000000  0.6508444  3
   5553   5551   5563   5564     1  0.0000000  0.6508444  3
   5553   5551   5563   5565     1  0.0000000  0.6508444  3
   5554   5550   5557   5558     1  0.0000000  0.6508444  3
   5554   5550   5557   5559     1  0.0000000  0.6508444  3
   5554   5566   5572   5573     1  0.0000000  0.6508444  3
   5554   5566   5572   5574     1  0.0000000  0.6508444  3
   5555   5554   5550   5557     1  0.0000000  0.6508444  3
   5555   5554   5550   5579     1  0.0000000  0.6508444  3
   5555   5554   5566   5572     1  0.0000000  0.6508444  3
   5555   5554   5566   5567     1  0.0000000  0.6508444  3
   5555   5554   5566   5568     1  0.0000000  0.6508444  3
   5556   5554   5550   5557     1  0.0000000  0.6508444  3
   5556   5554   5550   5579     1  0.0000000  0.6508444  3
   5556   5554   5566   5572     1  0.0000000  0.6508444  3
   5556   5554   5566   5567     1  0.0000000  0.6508444  3
   5556   5554   5566   5568     1  0.0000000  0.6508444  3
   5557   5560   5569   5570     1  0.0000000  0.6508444  3
   5557   5560   5569   5571     1  0.0000000  0.6508444  3
   5558   5557   5550   5579     1  0.0000000  0.6508444  3
   5558   5557   5560   5569     1  0.0000000  0.6508444  3
   5558   5557   5560   5561     1  0.0000000  0.6508444  3
   5558   5557   5560   5562     1  0.0000000  0.6508444  3
   5559   5557   5550   5579     1  0.0000000  0.6508444  3
   5559   5557   5560   5569     1  0.0000000  0.6508444  3
   5559   5557   5560   5561     1  0.0000000  0.6508444  3
   5559   5557   5560   5562     1  0.0000000  0.6508444  3
   5560   5557   5550   5579     1  0.0000000  0.6508444  3
   5561   5560   5569   5578     1  0.0000000  1.0460000  1
   5561   5560   5569   5578     1  0.0000000  0.0000000  3
   5561   5560   5569   5570     1  0.0000000  0.6508444  3
   5561   5560   5569   5571     1  0.0000000  0.6508444  3
   5562   5560   5569   5578     1  0.0000000  1.0460000  1
   5562   5560   5569   5578     1  0.0000000  0.0000000  3
   5562   5560   5569   5570     1  0.0000000  0.6508444  3
   5562   5560   5569   5571     1  0.0000000  0.6508444  3
   5563   5551   5550   5579     1  0.0000000  0.6508444  3
   5564   5563   5575  11218     1  0.0000000  1.0460000  1
   5564   5563   5575  11218     1  0.0000000  0.0000000  3
   5564   5563   5575   5576     1  0.0000000  0.6508444  3
   5564   5563   5575   5577     1  0.0000000  0.6508444  3
   5565   5563   5575  11218     1  0.0000000  1.0460000  1
   5565   5563   5575  11218     1  0.0000000  0.0000000  3
   5565   5563   5575   5576     1  0.0000000  0.6508444  3
   5565   5563   5575   5577     1  0.0000000  0.6508444  3
   5566   5554   5550   5579     1  0.0000000  0.6508444  3
   5567   5566   5572  11188     1  0.0000000  1.0460000  1
   5567   5566   5572  11188     1  0.0000000  0.0000000  3
   5567   5566   5572   5573     1  0.0000000  0.6508444  3
   5567   5566   5572   5574     1  0.0000000  0.6508444  3
   5568   5566   5572  11188     1  0.0000000  1.0460000  1
   5568   5566   5572  11188     1  0.0000000  0.0000000  3
   5568   5566   5572   5573     1  0.0000000  0.6508444  3
   5568   5566   5572   5574     1  0.0000000  0.6508444  3
   5572  11188  11179  11180     1  0.0000000  1.6038667  3
   5572  11188  11179  11181     1  0.0000000  1.6038667  3
   5573   5572  11188  11179     1  0.0000000  1.6038667  3
   5574   5572  11188  11179     1  0.0000000  1.6038667  3
   5575  11218  11209  11210     1  0.0000000  1.6038667  3
   5575  11218  11209  11211     1  0.0000000  1.6038667  3
   5576   5575  11218  11209     1  0.0000000  1.6038667  3
   5577   5575  11218  11209     1  0.0000000  1.6038667  3
   5580   5581   5593   5594     1  0.0000000  0.6508444  3
   5580   5581   5593   5595     1  0.0000000  0.6508444  3
   5580   5584   5596   5597     1  0.0000000  0.6508444  3
   5580   5584   5596   5598     1  0.0000000  0.6508444  3
   5580   5587   5590   5591     1  0.0000000  0.6508444  3
   5580   5587   5590   5592     1  0.0000000  0.6508444  3
   5581   5580   5584   5585     1  0.0000000  0.6508444  3
   5581   5580   5584   5586     1  0.0000000  0.6508444  3
   5581   5580   5587   5588     1  0.0000000  0.6508444  3
   5581   5580   5587   5589     1  0.0000000  0.6508444  3
   5581   5593   5605   5606     1  0.0000000  0.6508444  3
   5581   5593   5605   5607     1  0.0000000  0.6508444  3
   5582   5581   5580   5584     1  0.0000000  0.6508444  3
   5582   5581   5580   5587     1  0.0000000  0.6508444  3
   5582   5581   5580   5609     1  0.0000000  0.6508444  3
   5582   5581   5593   5605     1  0.0000000  0.6508444  3
   5582   5581   5593   5594     1  0.0000000  0.6508444  3
   5582   5581   5593   5595     1  0.0000000  0.6508444  3
   5583   5581   5580   5584     1  0.0000000  0.6508444  3
   5583   5581   5580   5587     1  0.0000000  0.6508444  3
   5583   5581   5580   5609     1  0.0000000  0.6508444  3
   5583   5581   5593   5605     1  0.0000000  0.6508444  3
   5583   5581   5593   5594     1  0.0000000  0.6508444  3
   5583   5581   5593   5595     1  0.0000000  0.6508444  3
   5584   5580   5587   5588     1  0.0000000  0.6508444  3
   5584   5580   5587   5589     1  0.0000000  0.6508444  3
   5584   5596   5602   5603     1  0.0000000  0.6508444  3
   5584   5596   5602   5604     1  0.0000000  0.6508444  3
   5585   5584   5580   5587     1  0.0000000  0.6508444  3
   5585   5584   5580   5609     1  0.0000000  0.6508444  3
   5585   5584   5596   5602     1  0.0000000  0.6508444  3
   5585   5584   5596   5597     1  0.0000000  0.6508444  3
   5585   5584   5596   5598     1  0.0000000  0.6508444  3
   5586   5584   5580   5587     1  0.0000000  0.6508444  3
   5586   5584   5580   5609     1  0.0000000  0.6508444  3
   5586   5584   5596   5602     1  0.0000000  0.6508444  3
   5586   5584   5596   5597     1  0.0000000  0.6508444  3
   5586   5584   5596   5598     1  0.0000000  0.6508444  3
   5587   5590   5599   5600     1  0.0000000  0.6508444  3
   5587   5590   5599   5601     1  0.0000000  0.6508444  3
   5588   5587   5580   5609     1  0.0000000  0.6508444  3
   5588   5587   5590   5599     1  0.0000000  0.6508444  3
   5588   5587   5590   5591     1  0.0000000  0.6508444  3
   5588   5587   5590   5592     1  0.0000000  0.6508444  3
   5589   5587   5580   5609     1  0.0000000  0.6508444  3
   5589   5587   5590   5599     1  0.0000000  0.6508444  3
   5589   5587   5590   5591     1  0.0000000  0.6508444  3
   5589   5587   5590   5592     1  0.0000000  0.6508444  3
   5590   5587   5580   5609     1  0.0000000  0.6508444  3
   5591   5590   5599   5608     1  0.0000000  1.0460000  1
   5591   5590   5599   5608     1  0.0000000  0.0000000  3
   5591   5590   5599   5600     1  0.0000000  0.6508444  3
   5591   5590   5599   5601     1  0.0000000  0.6508444  3
   5592   5590   5599   5608     1  0.0000000  1.0460000  1
   5592   5590   5599   5608     1  0.0000000  0.0000000  3
   5592   5590   5599   5600     1  0.0000000  0.6508444  3
   5592   5590   5599   5601     1  0.0000000  0.6508444  3
   5593   5581   5580   5609     1  0.0000000  0.6508444  3
   5594   5593   5605  11278     1  0.0000000  1.0460000  1
   5594   5593   5605  11278     1  0.0000000  0.0000000  3
   5594   5593   5605   5606     1  0.0000000  0.6508444  3
   5594   5593   5605   5607     1  0.0000000  0.6508444  3
   5595   5593   5605  11278     1  0.0000000  1.0460000  1
   5595   5593   5605  11278     1  0.0000000  0.0000000  3
   5595   5593   5605   5606     1  0.0000000  0.6508444  3
   5595   5593   5605   5607     1  0.0000000  0.6508444  3
   5596   5584   5580   5609     1  0.0000000  0.6508444  3
   5597   5596   5602  11248     1  0.0000000  1.0460000  1
   5597   5596   5602  11248     1  0.0000000  0.0000000  3
   5597   5596   5602   5603     1  0.0000000  0.6508444  3
   5597   5596   5602   5604     1  0.0000000  0.6508444  3
   5598   5596   5602  11248     1  0.0000000  1.0460000  1
   5598   5596   5602  11248     1  0.0000000  0.0000000  3
   5598   5596   5602   5603     1  0.0000000  0.6508444  3
   5598   5596   5602   5604     1  0.0000000  0.6508444  3
   5602  11248  11239  11240     1  0.0000000  1.6038667  3
   5602  11248  11239  11241     1  0.0000000  1.6038667  3
   5603   5602  11248  11239     1  0.0000000  1.6038667  3
   5604   5602  11248  11239     1  0.0000000  1.6038667  3
   5605  11278  11269  11270     1  0.0000000  1.6038667  3
   5605  11278  11269  11271     1  0.0000000  1.6038667  3
   5606   5605  11278  11269     1  0.0000000  1.6038667  3
   5607   5605  11278  11269     1  0.0000000  1.6038667  3
   5610   5611   5623   5624     1  0.0000000  0.6508444  3
   5610   5611   5623   5625     1  0.0000000  0.6508444  3
   5610   5614   5626   5627     1  0.0000000  0.6508444  3
   5610   5614   5626   5628     1  0.0000000  0.6508444  3
   5610   5617   5620   5621     1  0.0000000  0.6508444  3
   5610   5617   5620   5622     1  0.0000000  0.6508444  3
   5611   5610   5614   5615     1  0.0000000  0.6508444  3
   5611   5610   5614   5616     1  0.0000000  0.6508444  3
   5611   5610   5617   5618     1  0.0000000  0.6508444  3
   5611   5610   5617   5619     1  0.0000000  0.6508444  3
   5611   5623   5635   5636     1  0.0000000  0.6508444  3
   5611   5623   5635   5637     1  0.0000000  0.6508444  3
   5612   5611   5610   5614     1  0.0000000  0.6508444  3
   5612   5611   5610   5617     1  0.0000000  0.6508444  3
   5612   5611   5610   5639     1  0.0000000  0.6508444  3
   5612   5611   5623   5635     1  0.0000000  0.6508444  3
   5612   5611   5623   5624     1  0.0000000  0.6508444  3
   5612   5611   5623   5625     1  0.0000000  0.6508444  3
   5613   5611   5610   5614     1  0.0000000  0.6508444  3
   5613   5611   5610   5617     1  0.0000000  0.6508444  3
   5613   5611   5610   5639     1  0.0000000  0.6508444  3
   5613   5611   5623   5635     1  0.0000000  0.6508444  3
   5613   5611   5623   5624     1  0.0000000  0.6508444  3
   5613   5611   5623   5625     1  0.0000000  0.6508444  3
   5614   5610   5617   5618     1  0.0000000  0.6508444  3
   5614   5610   5617   5619     1  0.0000000  0.6508444  3
   5614   5626   5632   5633     1  0.0000000  0.6508444  3
   5614   5626   5632   5634     1  0.0000000  0.6508444  3
   5615   5614   5610   5617     1  0.0000000  0.6508444  3
   5615   5614   5610   5639     1  0.0000000  0.6508444  3
   5615   5614   5626   5632     1  0.0000000  0.6508444  3
   5615   5614   5626   5627     1  0.0000000  0.6508444  3
   5615   5614   5626   5628     1  0.0000000  0.6508444  3
   5616   5614   5610   5617     1  0.0000000  0.6508444  3
   5616   5614   5610   5639     1  0.0000000  0.6508444  3
   5616   5614   5626   5632     1  0.0000000  0.6508444  3
   5616   5614   5626   5627     1  0.0000000  0.6508444  3
   5616   5614   5626   5628     1  0.0000000  0.6508444  3
   5617   5620   5629   5630     1  0.0000000  0.6508444  3
   5617   5620   5629   5631     1  0.0000000  0.6508444  3
   5618   5617   5610   5639     1  0.0000000  0.6508444  3
   5618   5617   5620   5629     1  0.0000000  0.6508444  3
   5618   5617   5620   5621     1  0.0000000  0.6508444  3
   5618   5617   5620   5622     1  0.0000000  0.6508444  3
   5619   5617   5610   5639     1  0.0000000  0.6508444  3
   5619   5617   5620   5629     1  0.0000000  0.6508444  3
   5619   5617   5620   5621     1  0.0000000  0.6508444  3
   5619   5617   5620   5622     1  0.0000000  0.6508444  3
   5620   5617   5610   5639     1  0.0000000  0.6508444  3
   5621   5620   5629   5638     1  0.0000000  1.0460000  1
   5621   5620   5629   5638     1  0.0000000  0.0000000  3
   5621   5620   5629   5630     1  0.0000000  0.6508444  3
   5621   5620   5629   5631     1  0.0000000  0.6508444  3
   5622   5620   5629   5638     1  0.0000000  1.0460000  1
   5622   5620   5629   5638     1  0.0000000  0.0000000  3
   5622   5620   5629   5630     1  0.0000000  0.6508444  3
   5622   5620   5629   5631     1  0.0000000  0.6508444  3
   5623   5611   5610   5639     1  0.0000000  0.6508444  3
   5624   5623   5635  11338     1  0.0000000  1.0460000  1
   5624   5623   5635  11338     1  0.0000000  0.0000000  3
   5624   5623   5635   5636     1  0.0000000  0.6508444  3
   5624   5623   5635   5637     1  0.0000000  0.6508444  3
   5625   5623   5635  11338     1  0.0000000  1.0460000  1
   5625   5623   5635  11338     1  0.0000000  0.0000000  3
   5625   5623   5635   5636     1  0.0000000  0.6508444  3
   5625   5623   5635   5637     1  0.0000000  0.6508444  3
   5626   5614   5610   5639     1  0.0000000  0.6508444  3
   5627   5626   5632  11308     1  0.0000000  1.0460000  1
   5627   5626   5632  11308     1  0.0000000  0.0000000  3
   5627   5626   5632   5633     1  0.0000000  0.6508444  3
   5627   5626   5632   5634     1  0.0000000  0.6508444  3
   5628   5626   5632  11308     1  0.0000000  1.0460000  1
   5628   5626   5632  11308     1  0.0000000  0.0000000  3
   5628   5626   5632   5633     1  0.0000000  0.6508444  3
   5628   5626   5632   5634     1  0.0000000  0.6508444  3
   5632  11308  11299  11300     1  0.0000000  1.6038667  3
   5632  11308  11299  11301     1  0.0000000  1.6038667  3
   5633   5632  11308  11299     1  0.0000000  1.6038667  3
   5634   5632  11308  11299     1  0.0000000  1.6038667  3
   5635  11338  11329  11330     1  0.0000000  1.6038667  3
   5635  11338  11329  11331     1  0.0000000  1.6038667  3
   5636   5635  11338  11329     1  0.0000000  1.6038667  3
   5637   5635  11338  11329     1  0.0000000  1.6038667  3
   5640   5641   5653   5654     1  0.0000000  0.6508444  3
   5640   5641   5653   5655     1  0.0000000  0.6508444  3
   5640   5644   5656   5657     1  0.0000000  0.6508444  3
   5640   5644   5656   5658     1  0.0000000  0.6508444  3
   5640   5647   5650   5651     1  0.0000000  0.6508444  3
   5640   5647   5650   5652     1  0.0000000  0.6508444  3
   5641   5640   5644   5645     1  0.0000000  0.6508444  3
   5641   5640   5644   5646     1  0.0000000  0.6508444  3
   5641   5640   5647   5648     1  0.0000000  0.6508444  3
   5641   5640   5647   5649     1  0.0000000  0.6508444  3
   5641   5653   5665   5666     1  0.0000000  0.6508444  3
   5641   5653   5665   5667     1  0.0000000  0.6508444  3
   5642   5641   5640   5644     1  0.0000000  0.6508444  3
   5642   5641   5640   5647     1  0.0000000  0.6508444  3
   5642   5641   5640   5669     1  0.0000000  0.6508444  3
   5642   5641   5653   5665     1  0.0000000  0.6508444  3
   5642   5641   5653   5654     1  0.0000000  0.6508444  3
   5642   5641   5653   5655     1  0.0000000  0.6508444  3
   5643   5641   5640   5644     1  0.0000000  0.6508444  3
   5643   5641   5640   5647     1  0.0000000  0.6508444  3
   5643   5641   5640   5669     1  0.0000000  0.6508444  3
   5643   5641   5653   5665     1  0.0000000  0.6508444  3
   5643   5641   5653   5654     1  0.0000000  0.6508444  3
   5643   5641   5653   5655     1  0.0000000  0.6508444  3
   5644   5640   5647   5648     1  0.0000000  0.6508444  3
   5644   5640   5647   5649     1  0.0000000  0.6508444  3
   5644   5656   5662   5663     1  0.0000000  0.6508444  3
   5644   5656   5662   5664     1  0.0000000  0.6508444  3
   5645   5644   5640   5647     1  0.0000000  0.6508444  3
   5645   5644   5640   5669     1  0.0000000  0.6508444  3
   5645   5644   5656   5662     1  0.0000000  0.6508444  3
   5645   5644   5656   5657     1  0.0000000  0.6508444  3
   5645   5644   5656   5658     1  0.0000000  0.6508444  3
   5646   5644   5640   5647     1  0.0000000  0.6508444  3
   5646   5644   5640   5669     1  0.0000000  0.6508444  3
   5646   5644   5656   5662     1  0.0000000  0.6508444  3
   5646   5644   5656   5657     1  0.0000000  0.6508444  3
   5646   5644   5656   5658     1  0.0000000  0.6508444  3
   5647   5650   5659   5660     1  0.0000000  0.6508444  3
   5647   5650   5659   5661     1  0.0000000  0.6508444  3
   5648   5647   5640   5669     1  0.0000000  0.6508444  3
   5648   5647   5650   5659     1  0.0000000  0.6508444  3
   5648   5647   5650   5651     1  0.0000000  0.6508444  3
   5648   5647   5650   5652     1  0.0000000  0.6508444  3
   5649   5647   5640   5669     1  0.0000000  0.6508444  3
   5649   5647   5650   5659     1  0.0000000  0.6508444  3
   5649   5647   5650   5651     1  0.0000000  0.6508444  3
   5649   5647   5650   5652     1  0.0000000  0.6508444  3
   5650   5647   5640   5669     1  0.0000000  0.6508444  3
   5651   5650   5659   5668     1  0.0000000  1.0460000  1
   5651   5650   5659   5668     1  0.0000000  0.0000000  3
   5651   5650   5659   5660     1  0.0000000  0.6508444  3
   5651   5650   5659   5661     1  0.0000000  0.6508444  3
   5652   5650   5659   5668     1  0.0000000  1.0460000  1
   5652   5650   5659   5668     1  0.0000000  0.0000000  3
   5652   5650   5659   5660     1  0.0000000  0.6508444  3
   5652   5650   5659   5661     1  0.0000000  0.6508444  3
   5653   5641   5640   5669     1  0.0000000  0.6508444  3
   5654   5653   5665  11398     1  0.0000000  1.0460000  1
   5654   5653   5665  11398     1  0.0000000  0.0000000  3
   5654   5653   5665   5666     1  0.0000000  0.6508444  3
   5654   5653   5665   5667     1  0.0000000  0.6508444  3
   5655   5653   5665  11398     1  0.0000000  1.0460000  1
   5655   5653   5665  11398     1  0.0000000  0.0000000  3
   5655   5653   5665   5666     1  0.0000000  0.6508444  3
   5655   5653   5665   5667     1  0.0000000  0.6508444  3
   5656   5644   5640   5669     1  0.0000000  0.6508444  3
   5657   5656   5662  11368     1  0.0000000  1.0460000  1
   5657   5656   5662  11368     1  0.0000000  0.0000000  3
   5657   5656   5662   5663     1  0.0000000  0.6508444  3
   5657   5656   5662   5664     1  0.0000000  0.6508444  3
   5658   5656   5662  11368     1  0.0000000  1.0460000  1
   5658   5656   5662  11368     1  0.0000000  0.0000000  3
   5658   5656   5662   5663     1  0.0000000  0.6508444  3
   5658   5656   5662   5664     1  0.0000000  0.6508444  3
   5662  11368  11359  11360     1  0.0000000  1.6038667  3
   5662  11368  11359  11361     1  0.0000000  1.6038667  3
   5663   5662  11368  11359     1  0.0000000  1.6038667  3
   5664   5662  11368  11359     1  0.0000000  1.6038667  3
   5665  11398  11389  11390     1  0.0000000  1.6038667  3
   5665  11398  11389  11391     1  0.0000000  1.6038667  3
   5666   5665  11398  11389     1  0.0000000  1.6038667  3
   5667   5665  11398  11389     1  0.0000000  1.6038667  3
   5670   5671   5683   5684     1  0.0000000  0.6508444  3
   5670   5671   5683   5685     1  0.0000000  0.6508444  3
   5670   5674   5686   5687     1  0.0000000  0.6508444  3
   5670   5674   5686   5688     1  0.0000000  0.6508444  3
   5670   5677   5680   5681     1  0.0000000  0.6508444  3
   5670   5677   5680   5682     1  0.0000000  0.6508444  3
   5671   5670   5674   5675     1  0.0000000  0.6508444  3
   5671   5670   5674   5676     1  0.0000000  0.6508444  3
   5671   5670   5677   5678     1  0.0000000  0.6508444  3
   5671   5670   5677   5679     1  0.0000000  0.6508444  3
   5671   5683   5695   5696     1  0.0000000  0.6508444  3
   5671   5683   5695   5697     1  0.0000000  0.6508444  3
   5672   5671   5670   5674     1  0.0000000  0.6508444  3
   5672   5671   5670   5677     1  0.0000000  0.6508444  3
   5672   5671   5670   5699     1  0.0000000  0.6508444  3
   5672   5671   5683   5695     1  0.0000000  0.6508444  3
   5672   5671   5683   5684     1  0.0000000  0.6508444  3
   5672   5671   5683   5685     1  0.0000000  0.6508444  3
   5673   5671   5670   5674     1  0.0000000  0.6508444  3
   5673   5671   5670   5677     1  0.0000000  0.6508444  3
   5673   5671   5670   5699     1  0.0000000  0.6508444  3
   5673   5671   5683   5695     1  0.0000000  0.6508444  3
   5673   5671   5683   5684     1  0.0000000  0.6508444  3
   5673   5671   5683   5685     1  0.0000000  0.6508444  3
   5674   5670   5677   5678     1  0.0000000  0.6508444  3
   5674   5670   5677   5679     1  0.0000000  0.6508444  3
   5674   5686   5692   5693     1  0.0000000  0.6508444  3
   5674   5686   5692   5694     1  0.0000000  0.6508444  3
   5675   5674   5670   5677     1  0.0000000  0.6508444  3
   5675   5674   5670   5699     1  0.0000000  0.6508444  3
   5675   5674   5686   5692     1  0.0000000  0.6508444  3
   5675   5674   5686   5687     1  0.0000000  0.6508444  3
   5675   5674   5686   5688     1  0.0000000  0.6508444  3
   5676   5674   5670   5677     1  0.0000000  0.6508444  3
   5676   5674   5670   5699     1  0.0000000  0.6508444  3
   5676   5674   5686   5692     1  0.0000000  0.6508444  3
   5676   5674   5686   5687     1  0.0000000  0.6508444  3
   5676   5674   5686   5688     1  0.0000000  0.6508444  3
   5677   5680   5689   5690     1  0.0000000  0.6508444  3
   5677   5680   5689   5691     1  0.0000000  0.6508444  3
   5678   5677   5670   5699     1  0.0000000  0.6508444  3
   5678   5677   5680   5689     1  0.0000000  0.6508444  3
   5678   5677   5680   5681     1  0.0000000  0.6508444  3
   5678   5677   5680   5682     1  0.0000000  0.6508444  3
   5679   5677   5670   5699     1  0.0000000  0.6508444  3
   5679   5677   5680   5689     1  0.0000000  0.6508444  3
   5679   5677   5680   5681     1  0.0000000  0.6508444  3
   5679   5677   5680   5682     1  0.0000000  0.6508444  3
   5680   5677   5670   5699     1  0.0000000  0.6508444  3
   5681   5680   5689   5698     1  0.0000000  1.0460000  1
   5681   5680   5689   5698     1  0.0000000  0.0000000  3
   5681   5680   5689   5690     1  0.0000000  0.6508444  3
   5681   5680   5689   5691     1  0.0000000  0.6508444  3
   5682   5680   5689   5698     1  0.0000000  1.0460000  1
   5682   5680   5689   5698     1  0.0000000  0.0000000  3
   5682   5680   5689   5690     1  0.0000000  0.6508444  3
   5682   5680   5689   5691     1  0.0000000  0.6508444  3
   5683   5671   5670   5699     1  0.0000000  0.6508444  3
   5684   5683   5695  11458     1  0.0000000  1.0460000  1
   5684   5683   5695  11458     1  0.0000000  0.0000000  3
   5684   5683   5695   5696     1  0.0000000  0.6508444  3
   5684   5683   5695   5697     1  0.0000000  0.6508444  3
   5685   5683   5695  11458     1  0.0000000  1.0460000  1
   5685   5683   5695  11458     1  0.0000000  0.0000000  3
   5685   5683   5695   5696     1  0.0000000  0.6508444  3
   5685   5683   5695   5697     1  0.0000000  0.6508444  3
   5686   5674   5670   5699     1  0.0000000  0.6508444  3
   5687   5686   5692  11428     1  0.0000000  1.0460000  1
   5687   5686   5692  11428     1  0.0000000  0.0000000  3
   5687   5686   5692   5693     1  0.0000000  0.6508444  3
   5687   5686   5692   5694     1  0.0000000  0.6508444  3
   5688   5686   5692  11428     1  0.0000000  1.0460000  1
   5688   5686   5692  11428     1  0.0000000  0.0000000  3
   5688   5686   5692   5693     1  0.0000000  0.6508444  3
   5688   5686   5692   5694     1  0.0000000  0.6508444  3
   5692  11428  11419  11420     1  0.0000000  1.6038667  3
   5692  11428  11419  11421     1  0.0000000  1.6038667  3
   5693   5692  11428  11419     1  0.0000000  1.6038667  3
   5694   5692  11428  11419     1  0.0000000  1.6038667  3
   5695  11458  11449  11450     1  0.0000000  1.6038667  3
   5695  11458  11449  11451     1  0.0000000  1.6038667  3
   5696   5695  11458  11449     1  0.0000000  1.6038667  3
   5697   5695  11458  11449     1  0.0000000  1.6038667  3
   5700   5701   5713   5714     1  0.0000000  0.6508444  3
   5700   5701   5713   5715     1  0.0000000  0.6508444  3
   5700   5704   5716   5717     1  0.0000000  0.6508444  3
   5700   5704   5716   5718     1  0.0000000  0.6508444  3
   5700   5707   5710   5711     1  0.0000000  0.6508444  3
   5700   5707   5710   5712     1  0.0000000  0.6508444  3
   5701   5700   5704   5705     1  0.0000000  0.6508444  3
   5701   5700   5704   5706     1  0.0000000  0.6508444  3
   5701   5700   5707   5708     1  0.0000000  0.6508444  3
   5701   5700   5707   5709     1  0.0000000  0.6508444  3
   5701   5713   5725   5726     1  0.0000000  0.6508444  3
   5701   5713   5725   5727     1  0.0000000  0.6508444  3
   5702   5701   5700   5704     1  0.0000000  0.6508444  3
   5702   5701   5700   5707     1  0.0000000  0.6508444  3
   5702   5701   5700   5729     1  0.0000000  0.6508444  3
   5702   5701   5713   5725     1  0.0000000  0.6508444  3
   5702   5701   5713   5714     1  0.0000000  0.6508444  3
   5702   5701   5713   5715     1  0.0000000  0.6508444  3
   5703   5701   5700   5704     1  0.0000000  0.6508444  3
   5703   5701   5700   5707     1  0.0000000  0.6508444  3
   5703   5701   5700   5729     1  0.0000000  0.6508444  3
   5703   5701   5713   5725     1  0.0000000  0.6508444  3
   5703   5701   5713   5714     1  0.0000000  0.6508444  3
   5703   5701   5713   5715     1  0.0000000  0.6508444  3
   5704   5700   5707   5708     1  0.0000000  0.6508444  3
   5704   5700   5707   5709     1  0.0000000  0.6508444  3
   5704   5716   5722   5723     1  0.0000000  0.6508444  3
   5704   5716   5722   5724     1  0.0000000  0.6508444  3
   5705   5704   5700   5707     1  0.0000000  0.6508444  3
   5705   5704   5700   5729     1  0.0000000  0.6508444  3
   5705   5704   5716   5722     1  0.0000000  0.6508444  3
   5705   5704   5716   5717     1  0.0000000  0.6508444  3
   5705   5704   5716   5718     1  0.0000000  0.6508444  3
   5706   5704   5700   5707     1  0.0000000  0.6508444  3
   5706   5704   5700   5729     1  0.0000000  0.6508444  3
   5706   5704   5716   5722     1  0.0000000  0.6508444  3
   5706   5704   5716   5717     1  0.0000000  0.6508444  3
   5706   5704   5716   5718     1  0.0000000  0.6508444  3
   5707   5710   5719   5720     1  0.0000000  0.6508444  3
   5707   5710   5719   5721     1  0.0000000  0.6508444  3
   5708   5707   5700   5729     1  0.0000000  0.6508444  3
   5708   5707   5710   5719     1  0.0000000  0.6508444  3
   5708   5707   5710   5711     1  0.0000000  0.6508444  3
   5708   5707   5710   5712     1  0.0000000  0.6508444  3
   5709   5707   5700   5729     1  0.0000000  0.6508444  3
   5709   5707   5710   5719     1  0.0000000  0.6508444  3
   5709   5707   5710   5711     1  0.0000000  0.6508444  3
   5709   5707   5710   5712     1  0.0000000  0.6508444  3
   5710   5707   5700   5729     1  0.0000000  0.6508444  3
   5711   5710   5719   5728     1  0.0000000  1.0460000  1
   5711   5710   5719   5728     1  0.0000000  0.0000000  3
   5711   5710   5719   5720     1  0.0000000  0.6508444  3
   5711   5710   5719   5721     1  0.0000000  0.6508444  3
   5712   5710   5719   5728     1  0.0000000  1.0460000  1
   5712   5710   5719   5728     1  0.0000000  0.0000000  3
   5712   5710   5719   5720     1  0.0000000  0.6508444  3
   5712   5710   5719   5721     1  0.0000000  0.6508444  3
   5713   5701   5700   5729     1  0.0000000  0.6508444  3
   5714   5713   5725  11493     1  0.0000000  1.0460000  1
   5714   5713   5725  11493     1  0.0000000  0.0000000  3
   5714   5713   5725   5726     1  0.0000000  0.6508444  3
   5714   5713   5725   5727     1  0.0000000  0.6508444  3
   5715   5713   5725  11493     1  0.0000000  1.0460000  1
   5715   5713   5725  11493     1  0.0000000  0.0000000  3
   5715   5713   5725   5726     1  0.0000000  0.6508444  3
   5715   5713   5725   5727     1  0.0000000  0.6508444  3
   5716   5704   5700   5729     1  0.0000000  0.6508444  3
   5717   5716   5722  11470     1  0.0000000  1.0460000  1
   5717   5716   5722  11470     1  0.0000000  0.0000000  3
   5717   5716   5722   5723     1  0.0000000  0.6508444  3
   5717   5716   5722   5724     1  0.0000000  0.6508444  3
   5718   5716   5722  11470     1  0.0000000  1.0460000  1
   5718   5716   5722  11470     1  0.0000000  0.0000000  3
   5718   5716   5722   5723     1  0.0000000  0.6508444  3
   5718   5716   5722   5724     1  0.0000000  0.6508444  3
   5722  11470  11466  11469     1  0.0000000  1.6038667  3
   5723   5722  11470  11466     1  0.0000000  1.6038667  3
   5724   5722  11470  11466     1  0.0000000  1.6038667  3
   5725  11493  11489  11492     1  0.0000000  1.6038667  3
   5726   5725  11493  11489     1  0.0000000  1.6038667  3
   5727   5725  11493  11489     1  0.0000000  1.6038667  3
   5730   5731   5743   5744     1  0.0000000  0.6508444  3
   5730   5731   5743   5745     1  0.0000000  0.6508444  3
   5730   5734   5746   5747     1  0.0000000  0.6508444  3
   5730   5734   5746   5748     1  0.0000000  0.6508444  3
   5730   5737   5740   5741     1  0.0000000  0.6508444  3
   5730   5737   5740   5742     1  0.0000000  0.6508444  3
   5731   5730   5734   5735     1  0.0000000  0.6508444  3
   5731   5730   5734   5736     1  0.0000000  0.6508444  3
   5731   5730   5737   5738     1  0.0000000  0.6508444  3
   5731   5730   5737   5739     1  0.0000000  0.6508444  3
   5731   5743   5755   5756     1  0.0000000  0.6508444  3
   5731   5743   5755   5757     1  0.0000000  0.6508444  3
   5732   5731   5730   5734     1  0.0000000  0.6508444  3
   5732   5731   5730   5737     1  0.0000000  0.6508444  3
   5732   5731   5730   5759     1  0.0000000  0.6508444  3
   5732   5731   5743   5755     1  0.0000000  0.6508444  3
   5732   5731   5743   5744     1  0.0000000  0.6508444  3
   5732   5731   5743   5745     1  0.0000000  0.6508444  3
   5733   5731   5730   5734     1  0.0000000  0.6508444  3
   5733   5731   5730   5737     1  0.0000000  0.6508444  3
   5733   5731   5730   5759     1  0.0000000  0.6508444  3
   5733   5731   5743   5755     1  0.0000000  0.6508444  3
   5733   5731   5743   5744     1  0.0000000  0.6508444  3
   5733   5731   5743   5745     1  0.0000000  0.6508444  3
   5734   5730   5737   5738     1  0.0000000  0.6508444  3
   5734   5730   5737   5739     1  0.0000000  0.6508444  3
   5734   5746   5752   5753     1  0.0000000  0.6508444  3
   5734   5746   5752   5754     1  0.0000000  0.6508444  3
   5735   5734   5730   5737     1  0.0000000  0.6508444  3
   5735   5734   5730   5759     1  0.0000000  0.6508444  3
   5735   5734   5746   5752     1  0.0000000  0.6508444  3
   5735   5734   5746   5747     1  0.0000000  0.6508444  3
   5735   5734   5746   5748     1  0.0000000  0.6508444  3
   5736   5734   5730   5737     1  0.0000000  0.6508444  3
   5736   5734   5730   5759     1  0.0000000  0.6508444  3
   5736   5734   5746   5752     1  0.0000000  0.6508444  3
   5736   5734   5746   5747     1  0.0000000  0.6508444  3
   5736   5734   5746   5748     1  0.0000000  0.6508444  3
   5737   5740   5749   5750     1  0.0000000  0.6508444  3
   5737   5740   5749   5751     1  0.0000000  0.6508444  3
   5738   5737   5730   5759     1  0.0000000  0.6508444  3
   5738   5737   5740   5749     1  0.0000000  0.6508444  3
   5738   5737   5740   5741     1  0.0000000  0.6508444  3
   5738   5737   5740   5742     1  0.0000000  0.6508444  3
   5739   5737   5730   5759     1  0.0000000  0.6508444  3
   5739   5737   5740   5749     1  0.0000000  0.6508444  3
   5739   5737   5740   5741     1  0.0000000  0.6508444  3
   5739   5737   5740   5742     1  0.0000000  0.6508444  3
   5740   5737   5730   5759     1  0.0000000  0.6508444  3
   5741   5740   5749   5758     1  0.0000000  1.0460000  1
   5741   5740   5749   5758     1  0.0000000  0.0000000  3
   5741   5740   5749   5750     1  0.0000000  0.6508444  3
   5741   5740   5749   5751     1  0.0000000  0.6508444  3
   5742   5740   5749   5758     1  0.0000000  1.0460000  1
   5742   5740   5749   5758     1  0.0000000  0.0000000  3
   5742   5740   5749   5750     1  0.0000000  0.6508444  3
   5742   5740   5749   5751     1  0.0000000  0.6508444  3
   5743   5731   5730   5759     1  0.0000000  0.6508444  3
   5744   5743   5755  11539     1  0.0000000  1.0460000  1
   5744   5743   5755  11539     1  0.0000000  0.0000000  3
   5744   5743   5755   5756     1  0.0000000  0.6508444  3
   5744   5743   5755   5757     1  0.0000000  0.6508444  3
   5745   5743   5755  11539     1  0.0000000  1.0460000  1
   5745   5743   5755  11539     1  0.0000000  0.0000000  3
   5745   5743   5755   5756     1  0.0000000  0.6508444  3
   5745   5743   5755   5757     1  0.0000000  0.6508444  3
   5746   5734   5730   5759     1  0.0000000  0.6508444  3
   5747   5746   5752  11516     1  0.0000000  1.0460000  1
   5747   5746   5752  11516     1  0.0000000  0.0000000  3
   5747   5746   5752   5753     1  0.0000000  0.6508444  3
   5747   5746   5752   5754     1  0.0000000  0.6508444  3
   5748   5746   5752  11516     1  0.0000000  1.0460000  1
   5748   5746   5752  11516     1  0.0000000  0.0000000  3
   5748   5746   5752   5753     1  0.0000000  0.6508444  3
   5748   5746   5752   5754     1  0.0000000  0.6508444  3
   5752  11516  11512  11515     1  0.0000000  1.6038667  3
   5753   5752  11516  11512     1  0.0000000  1.6038667  3
   5754   5752  11516  11512     1  0.0000000  1.6038667  3
   5755  11539  11535  11538     1  0.0000000  1.6038667  3
   5756   5755  11539  11535     1  0.0000000  1.6038667  3
   5757   5755  11539  11535     1  0.0000000  1.6038667  3
   5760   5761   5773   5774     1  0.0000000  0.6508444  3
   5760   5761   5773   5775     1  0.0000000  0.6508444  3
   5760   5764   5776   5777     1  0.0000000  0.6508444  3
   5760   5764   5776   5778     1  0.0000000  0.6508444  3
   5760   5767   5770   5771     1  0.0000000  0.6508444  3
   5760   5767   5770   5772     1  0.0000000  0.6508444  3
   5761   5760   5764   5765     1  0.0000000  0.6508444  3
   5761   5760   5764   5766     1  0.0000000  0.6508444  3
   5761   5760   5767   5768     1  0.0000000  0.6508444  3
   5761   5760   5767   5769     1  0.0000000  0.6508444  3
   5761   5773   5785   5786     1  0.0000000  0.6508444  3
   5761   5773   5785   5787     1  0.0000000  0.6508444  3
   5762   5761   5760   5764     1  0.0000000  0.6508444  3
   5762   5761   5760   5767     1  0.0000000  0.6508444  3
   5762   5761   5760   5789     1  0.0000000  0.6508444  3
   5762   5761   5773   5785     1  0.0000000  0.6508444  3
   5762   5761   5773   5774     1  0.0000000  0.6508444  3
   5762   5761   5773   5775     1  0.0000000  0.6508444  3
   5763   5761   5760   5764     1  0.0000000  0.6508444  3
   5763   5761   5760   5767     1  0.0000000  0.6508444  3
   5763   5761   5760   5789     1  0.0000000  0.6508444  3
   5763   5761   5773   5785     1  0.0000000  0.6508444  3
   5763   5761   5773   5774     1  0.0000000  0.6508444  3
   5763   5761   5773   5775     1  0.0000000  0.6508444  3
   5764   5760   5767   5768     1  0.0000000  0.6508444  3
   5764   5760   5767   5769     1  0.0000000  0.6508444  3
   5764   5776   5782   5783     1  0.0000000  0.6508444  3
   5764   5776   5782   5784     1  0.0000000  0.6508444  3
   5765   5764   5760   5767     1  0.0000000  0.6508444  3
   5765   5764   5760   5789     1  0.0000000  0.6508444  3
   5765   5764   5776   5782     1  0.0000000  0.6508444  3
   5765   5764   5776   5777     1  0.0000000  0.6508444  3
   5765   5764   5776   5778     1  0.0000000  0.6508444  3
   5766   5764   5760   5767     1  0.0000000  0.6508444  3
   5766   5764   5760   5789     1  0.0000000  0.6508444  3
   5766   5764   5776   5782     1  0.0000000  0.6508444  3
   5766   5764   5776   5777     1  0.0000000  0.6508444  3
   5766   5764   5776   5778     1  0.0000000  0.6508444  3
   5767   5770   5779   5780     1  0.0000000  0.6508444  3
   5767   5770   5779   5781     1  0.0000000  0.6508444  3
   5768   5767   5760   5789     1  0.0000000  0.6508444  3
   5768   5767   5770   5779     1  0.0000000  0.6508444  3
   5768   5767   5770   5771     1  0.0000000  0.6508444  3
   5768   5767   5770   5772     1  0.0000000  0.6508444  3
   5769   5767   5760   5789     1  0.0000000  0.6508444  3
   5769   5767   5770   5779     1  0.0000000  0.6508444  3
   5769   5767   5770   5771     1  0.0000000  0.6508444  3
   5769   5767   5770   5772     1  0.0000000  0.6508444  3
   5770   5767   5760   5789     1  0.0000000  0.6508444  3
   5771   5770   5779   5788     1  0.0000000  1.0460000  1
   5771   5770   5779   5788     1  0.0000000  0.0000000  3
   5771   5770   5779   5780     1  0.0000000  0.6508444  3
   5771   5770   5779   5781     1  0.0000000  0.6508444  3
   5772   5770   5779   5788     1  0.0000000  1.0460000  1
   5772   5770   5779   5788     1  0.0000000  0.0000000  3
   5772   5770   5779   5780     1  0.0000000  0.6508444  3
   5772   5770   5779   5781     1  0.0000000  0.6508444  3
   5773   5761   5760   5789     1  0.0000000  0.6508444  3
   5774   5773   5785  11585     1  0.0000000  1.0460000  1
   5774   5773   5785  11585     1  0.0000000  0.0000000  3
   5774   5773   5785   5786     1  0.0000000  0.6508444  3
   5774   5773   5785   5787     1  0.0000000  0.6508444  3
   5775   5773   5785  11585     1  0.0000000  1.0460000  1
   5775   5773   5785  11585     1  0.0000000  0.0000000  3
   5775   5773   5785   5786     1  0.0000000  0.6508444  3
   5775   5773   5785   5787     1  0.0000000  0.6508444  3
   5776   5764   5760   5789     1  0.0000000  0.6508444  3
   5777   5776   5782  11562     1  0.0000000  1.0460000  1
   5777   5776   5782  11562     1  0.0000000  0.0000000  3
   5777   5776   5782   5783     1  0.0000000  0.6508444  3
   5777   5776   5782   5784     1  0.0000000  0.6508444  3
   5778   5776   5782  11562     1  0.0000000  1.0460000  1
   5778   5776   5782  11562     1  0.0000000  0.0000000  3
   5778   5776   5782   5783     1  0.0000000  0.6508444  3
   5778   5776   5782   5784     1  0.0000000  0.6508444  3
   5782  11562  11558  11561     1  0.0000000  1.6038667  3
   5783   5782  11562  11558     1  0.0000000  1.6038667  3
   5784   5782  11562  11558     1  0.0000000  1.6038667  3
   5785  11585  11581  11584     1  0.0000000  1.6038667  3
   5786   5785  11585  11581     1  0.0000000  1.6038667  3
   5787   5785  11585  11581     1  0.0000000  1.6038667  3
   5790   5791   5803   5804     1  0.0000000  0.6508444  3
   5790   5791   5803   5805     1  0.0000000  0.6508444  3
   5790   5794   5806   5807     1  0.0000000  0.6508444  3
   5790   5794   5806   5808     1  0.0000000  0.6508444  3
   5790   5797   5800   5801     1  0.0000000  0.6508444  3
   5790   5797   5800   5802     1  0.0000000  0.6508444  3
   5791   5790   5794   5795     1  0.0000000  0.6508444  3
   5791   5790   5794   5796     1  0.0000000  0.6508444  3
   5791   5790   5797   5798     1  0.0000000  0.6508444  3
   5791   5790   5797   5799     1  0.0000000  0.6508444  3
   5791   5803   5815   5816     1  0.0000000  0.6508444  3
   5791   5803   5815   5817     1  0.0000000  0.6508444  3
   5792   5791   5790   5794     1  0.0000000  0.6508444  3
   5792   5791   5790   5797     1  0.0000000  0.6508444  3
   5792   5791   5790   5819     1  0.0000000  0.6508444  3
   5792   5791   5803   5815     1  0.0000000  0.6508444  3
   5792   5791   5803   5804     1  0.0000000  0.6508444  3
   5792   5791   5803   5805     1  0.0000000  0.6508444  3
   5793   5791   5790   5794     1  0.0000000  0.6508444  3
   5793   5791   5790   5797     1  0.0000000  0.6508444  3
   5793   5791   5790   5819     1  0.0000000  0.6508444  3
   5793   5791   5803   5815     1  0.0000000  0.6508444  3
   5793   5791   5803   5804     1  0.0000000  0.6508444  3
   5793   5791   5803   5805     1  0.0000000  0.6508444  3
   5794   5790   5797   5798     1  0.0000000  0.6508444  3
   5794   5790   5797   5799     1  0.0000000  0.6508444  3
   5794   5806   5812   5813     1  0.0000000  0.6508444  3
   5794   5806   5812   5814     1  0.0000000  0.6508444  3
   5795   5794   5790   5797     1  0.0000000  0.6508444  3
   5795   5794   5790   5819     1  0.0000000  0.6508444  3
   5795   5794   5806   5812     1  0.0000000  0.6508444  3
   5795   5794   5806   5807     1  0.0000000  0.6508444  3
   5795   5794   5806   5808     1  0.0000000  0.6508444  3
   5796   5794   5790   5797     1  0.0000000  0.6508444  3
   5796   5794   5790   5819     1  0.0000000  0.6508444  3
   5796   5794   5806   5812     1  0.0000000  0.6508444  3
   5796   5794   5806   5807     1  0.0000000  0.6508444  3
   5796   5794   5806   5808     1  0.0000000  0.6508444  3
   5797   5800   5809   5810     1  0.0000000  0.6508444  3
   5797   5800   5809   5811     1  0.0000000  0.6508444  3
   5798   5797   5790   5819     1  0.0000000  0.6508444  3
   5798   5797   5800   5809     1  0.0000000  0.6508444  3
   5798   5797   5800   5801     1  0.0000000  0.6508444  3
   5798   5797   5800   5802     1  0.0000000  0.6508444  3
   5799   5797   5790   5819     1  0.0000000  0.6508444  3
   5799   5797   5800   5809     1  0.0000000  0.6508444  3
   5799   5797   5800   5801     1  0.0000000  0.6508444  3
   5799   5797   5800   5802     1  0.0000000  0.6508444  3
   5800   5797   5790   5819     1  0.0000000  0.6508444  3
   5801   5800   5809   5818     1  0.0000000  1.0460000  1
   5801   5800   5809   5818     1  0.0000000  0.0000000  3
   5801   5800   5809   5810     1  0.0000000  0.6508444  3
   5801   5800   5809   5811     1  0.0000000  0.6508444  3
   5802   5800   5809   5818     1  0.0000000  1.0460000  1
   5802   5800   5809   5818     1  0.0000000  0.0000000  3
   5802   5800   5809   5810     1  0.0000000  0.6508444  3
   5802   5800   5809   5811     1  0.0000000  0.6508444  3
   5803   5791   5790   5819     1  0.0000000  0.6508444  3
   5804   5803   5815  11631     1  0.0000000  1.0460000  1
   5804   5803   5815  11631     1  0.0000000  0.0000000  3
   5804   5803   5815   5816     1  0.0000000  0.6508444  3
   5804   5803   5815   5817     1  0.0000000  0.6508444  3
   5805   5803   5815  11631     1  0.0000000  1.0460000  1
   5805   5803   5815  11631     1  0.0000000  0.0000000  3
   5805   5803   5815   5816     1  0.0000000  0.6508444  3
   5805   5803   5815   5817     1  0.0000000  0.6508444  3
   5806   5794   5790   5819     1  0.0000000  0.6508444  3
   5807   5806   5812  11608     1  0.0000000  1.0460000  1
   5807   5806   5812  11608     1  0.0000000  0.0000000  3
   5807   5806   5812   5813     1  0.0000000  0.6508444  3
   5807   5806   5812   5814     1  0.0000000  0.6508444  3
   5808   5806   5812  11608     1  0.0000000  1.0460000  1
   5808   5806   5812  11608     1  0.0000000  0.0000000  3
   5808   5806   5812   5813     1  0.0000000  0.6508444  3
   5808   5806   5812   5814     1  0.0000000  0.6508444  3
   5812  11608  11604  11607     1  0.0000000  1.6038667  3
   5813   5812  11608  11604     1  0.0000000  1.6038667  3
   5814   5812  11608  11604     1  0.0000000  1.6038667  3
   5815  11631  11627  11630     1  0.0000000  1.6038667  3
   5816   5815  11631  11627     1  0.0000000  1.6038667  3
   5817   5815  11631  11627     1  0.0000000  1.6038667  3
   5820   5821   5833   5834     1  0.0000000  0.6508444  3
   5820   5821   5833   5835     1  0.0000000  0.6508444  3
   5820   5824   5836   5837     1  0.0000000  0.6508444  3
   5820   5824   5836   5838     1  0.0000000  0.6508444  3
   5820   5827   5830   5831     1  0.0000000  0.6508444  3
   5820   5827   5830   5832     1  0.0000000  0.6508444  3
   5821   5820   5824   5825     1  0.0000000  0.6508444  3
   5821   5820   5824   5826     1  0.0000000  0.6508444  3
   5821   5820   5827   5828     1  0.0000000  0.6508444  3
   5821   5820   5827   5829     1  0.0000000  0.6508444  3
   5821   5833   5845   5846     1  0.0000000  0.6508444  3
   5821   5833   5845   5847     1  0.0000000  0.6508444  3
   5822   5821   5820   5824     1  0.0000000  0.6508444  3
   5822   5821   5820   5827     1  0.0000000  0.6508444  3
   5822   5821   5820   5849     1  0.0000000  0.6508444  3
   5822   5821   5833   5845     1  0.0000000  0.6508444  3
   5822   5821   5833   5834     1  0.0000000  0.6508444  3
   5822   5821   5833   5835     1  0.0000000  0.6508444  3
   5823   5821   5820   5824     1  0.0000000  0.6508444  3
   5823   5821   5820   5827     1  0.0000000  0.6508444  3
   5823   5821   5820   5849     1  0.0000000  0.6508444  3
   5823   5821   5833   5845     1  0.0000000  0.6508444  3
   5823   5821   5833   5834     1  0.0000000  0.6508444  3
   5823   5821   5833   5835     1  0.0000000  0.6508444  3
   5824   5820   5827   5828     1  0.0000000  0.6508444  3
   5824   5820   5827   5829     1  0.0000000  0.6508444  3
   5824   5836   5842   5843     1  0.0000000  0.6508444  3
   5824   5836   5842   5844     1  0.0000000  0.6508444  3
   5825   5824   5820   5827     1  0.0000000  0.6508444  3
   5825   5824   5820   5849     1  0.0000000  0.6508444  3
   5825   5824   5836   5842     1  0.0000000  0.6508444  3
   5825   5824   5836   5837     1  0.0000000  0.6508444  3
   5825   5824   5836   5838     1  0.0000000  0.6508444  3
   5826   5824   5820   5827     1  0.0000000  0.6508444  3
   5826   5824   5820   5849     1  0.0000000  0.6508444  3
   5826   5824   5836   5842     1  0.0000000  0.6508444  3
   5826   5824   5836   5837     1  0.0000000  0.6508444  3
   5826   5824   5836   5838     1  0.0000000  0.6508444  3
   5827   5830   5839   5840     1  0.0000000  0.6508444  3
   5827   5830   5839   5841     1  0.0000000  0.6508444  3
   5828   5827   5820   5849     1  0.0000000  0.6508444  3
   5828   5827   5830   5839     1  0.0000000  0.6508444  3
   5828   5827   5830   5831     1  0.0000000  0.6508444  3
   5828   5827   5830   5832     1  0.0000000  0.6508444  3
   5829   5827   5820   5849     1  0.0000000  0.6508444  3
   5829   5827   5830   5839     1  0.0000000  0.6508444  3
   5829   5827   5830   5831     1  0.0000000  0.6508444  3
   5829   5827   5830   5832     1  0.0000000  0.6508444  3
   5830   5827   5820   5849     1  0.0000000  0.6508444  3
   5831   5830   5839   5848     1  0.0000000  1.0460000  1
   5831   5830   5839   5848     1  0.0000000  0.0000000  3
   5831   5830   5839   5840     1  0.0000000  0.6508444  3
   5831   5830   5839   5841     1  0.0000000  0.6508444  3
   5832   5830   5839   5848     1  0.0000000  1.0460000  1
   5832   5830   5839   5848     1  0.0000000  0.0000000  3
   5832   5830   5839   5840     1  0.0000000  0.6508444  3
   5832   5830   5839   5841     1  0.0000000  0.6508444  3
   5833   5821   5820   5849     1  0.0000000  0.6508444  3
   5834   5833   5845  11677     1  0.0000000  1.0460000  1
   5834   5833   5845  11677     1  0.0000000  0.0000000  3
   5834   5833   5845   5846     1  0.0000000  0.6508444  3
   5834   5833   5845   5847     1  0.0000000  0.6508444  3
   5835   5833   5845  11677     1  0.0000000  1.0460000  1
   5835   5833   5845  11677     1  0.0000000  0.0000000  3
   5835   5833   5845   5846     1  0.0000000  0.6508444  3
   5835   5833   5845   5847     1  0.0000000  0.6508444  3
   5836   5824   5820   5849     1  0.0000000  0.6508444  3
   5837   5836   5842  11654     1  0.0000000  1.0460000  1
   5837   5836   5842  11654     1  0.0000000  0.0000000  3
   5837   5836   5842   5843     1  0.0000000  0.6508444  3
   5837   5836   5842   5844     1  0.0000000  0.6508444  3
   5838   5836   5842  11654     1  0.0000000  1.0460000  1
   5838   5836   5842  11654     1  0.0000000  0.0000000  3
   5838   5836   5842   5843     1  0.0000000  0.6508444  3
   5838   5836   5842   5844     1  0.0000000  0.6508444  3
   5842  11654  11650  11653     1  0.0000000  1.6038667  3
   5843   5842  11654  11650     1  0.0000000  1.6038667  3
   5844   5842  11654  11650     1  0.0000000  1.6038667  3
   5845  11677  11673  11676     1  0.0000000  1.6038667  3
   5846   5845  11677  11673     1  0.0000000  1.6038667  3
   5847   5845  11677  11673     1  0.0000000  1.6038667  3
   5850   5851   5863   5864     1  0.0000000  0.6508444  3
   5850   5851   5863   5865     1  0.0000000  0.6508444  3
   5850   5854   5866   5867     1  0.0000000  0.6508444  3
   5850   5854   5866   5868     1  0.0000000  0.6508444  3
   5850   5857   5860   5861     1  0.0000000  0.6508444  3
   5850   5857   5860   5862     1  0.0000000  0.6508444  3
   5851   5850   5854   5855     1  0.0000000  0.6508444  3
   5851   5850   5854   5856     1  0.0000000  0.6508444  3
   5851   5850   5857   5858     1  0.0000000  0.6508444  3
   5851   5850   5857   5859     1  0.0000000  0.6508444  3
   5851   5863   5875   5876     1  0.0000000  0.6508444  3
   5851   5863   5875   5877     1  0.0000000  0.6508444  3
   5852   5851   5850   5854     1  0.0000000  0.6508444  3
   5852   5851   5850   5857     1  0.0000000  0.6508444  3
   5852   5851   5850   5879     1  0.0000000  0.6508444  3
   5852   5851   5863   5875     1  0.0000000  0.6508444  3
   5852   5851   5863   5864     1  0.0000000  0.6508444  3
   5852   5851   5863   5865     1  0.0000000  0.6508444  3
   5853   5851   5850   5854     1  0.0000000  0.6508444  3
   5853   5851   5850   5857     1  0.0000000  0.6508444  3
   5853   5851   5850   5879     1  0.0000000  0.6508444  3
   5853   5851   5863   5875     1  0.0000000  0.6508444  3
   5853   5851   5863   5864     1  0.0000000  0.6508444  3
   5853   5851   5863   5865     1  0.0000000  0.6508444  3
   5854   5850   5857   5858     1  0.0000000  0.6508444  3
   5854   5850   5857   5859     1  0.0000000  0.6508444  3
   5854   5866   5872   5873     1  0.0000000  0.6508444  3
   5854   5866   5872   5874     1  0.0000000  0.6508444  3
   5855   5854   5850   5857     1  0.0000000  0.6508444  3
   5855   5854   5850   5879     1  0.0000000  0.6508444  3
   5855   5854   5866   5872     1  0.0000000  0.6508444  3
   5855   5854   5866   5867     1  0.0000000  0.6508444  3
   5855   5854   5866   5868     1  0.0000000  0.6508444  3
   5856   5854   5850   5857     1  0.0000000  0.6508444  3
   5856   5854   5850   5879     1  0.0000000  0.6508444  3
   5856   5854   5866   5872     1  0.0000000  0.6508444  3
   5856   5854   5866   5867     1  0.0000000  0.6508444  3
   5856   5854   5866   5868     1  0.0000000  0.6508444  3
   5857   5860   5869   5870     1  0.0000000  0.6508444  3
   5857   5860   5869   5871     1  0.0000000  0.6508444  3
   5858   5857   5850   5879     1  0.0000000  0.6508444  3
   5858   5857   5860   5869     1  0.0000000  0.6508444  3
   5858   5857   5860   5861     1  0.0000000  0.6508444  3
   5858   5857   5860   5862     1  0.0000000  0.6508444  3
   5859   5857   5850   5879     1  0.0000000  0.6508444  3
   5859   5857   5860   5869     1  0.0000000  0.6508444  3
   5859   5857   5860   5861     1  0.0000000  0.6508444  3
   5859   5857   5860   5862     1  0.0000000  0.6508444  3
   5860   5857   5850   5879     1  0.0000000  0.6508444  3
   5861   5860   5869   5878     1  0.0000000  1.0460000  1
   5861   5860   5869   5878     1  0.0000000  0.0000000  3
   5861   5860   5869   5870     1  0.0000000  0.6508444  3
   5861   5860   5869   5871     1  0.0000000  0.6508444  3
   5862   5860   5869   5878     1  0.0000000  1.0460000  1
   5862   5860   5869   5878     1  0.0000000  0.0000000  3
   5862   5860   5869   5870     1  0.0000000  0.6508444  3
   5862   5860   5869   5871     1  0.0000000  0.6508444  3
   5863   5851   5850   5879     1  0.0000000  0.6508444  3
   5864   5863   5875  11723     1  0.0000000  1.0460000  1
   5864   5863   5875  11723     1  0.0000000  0.0000000  3
   5864   5863   5875   5876     1  0.0000000  0.6508444  3
   5864   5863   5875   5877     1  0.0000000  0.6508444  3
   5865   5863   5875  11723     1  0.0000000  1.0460000  1
   5865   5863   5875  11723     1  0.0000000  0.0000000  3
   5865   5863   5875   5876     1  0.0000000  0.6508444  3
   5865   5863   5875   5877     1  0.0000000  0.6508444  3
   5866   5854   5850   5879     1  0.0000000  0.6508444  3
   5867   5866   5872  11700     1  0.0000000  1.0460000  1
   5867   5866   5872  11700     1  0.0000000  0.0000000  3
   5867   5866   5872   5873     1  0.0000000  0.6508444  3
   5867   5866   5872   5874     1  0.0000000  0.6508444  3
   5868   5866   5872  11700     1  0.0000000  1.0460000  1
   5868   5866   5872  11700     1  0.0000000  0.0000000  3
   5868   5866   5872   5873     1  0.0000000  0.6508444  3
   5868   5866   5872   5874     1  0.0000000  0.6508444  3
   5872  11700  11696  11699     1  0.0000000  1.6038667  3
   5873   5872  11700  11696     1  0.0000000  1.6038667  3
   5874   5872  11700  11696     1  0.0000000  1.6038667  3
   5875  11723  11719  11722     1  0.0000000  1.6038667  3
   5876   5875  11723  11719     1  0.0000000  1.6038667  3
   5877   5875  11723  11719     1  0.0000000  1.6038667  3
   5880   5881   5893   5894     1  0.0000000  0.6508444  3
   5880   5881   5893   5895     1  0.0000000  0.6508444  3
   5880   5884   5896   5897     1  0.0000000  0.6508444  3
   5880   5884   5896   5898     1  0.0000000  0.6508444  3
   5880   5887   5890   5891     1  0.0000000  0.6508444  3
   5880   5887   5890   5892     1  0.0000000  0.6508444  3
   5881   5880   5884   5885     1  0.0000000  0.6508444  3
   5881   5880   5884   5886     1  0.0000000  0.6508444  3
   5881   5880   5887   5888     1  0.0000000  0.6508444  3
   5881   5880   5887   5889     1  0.0000000  0.6508444  3
   5881   5893   5905   5906     1  0.0000000  0.6508444  3
   5881   5893   5905   5907     1  0.0000000  0.6508444  3
   5882   5881   5880   5884     1  0.0000000  0.6508444  3
   5882   5881   5880   5887     1  0.0000000  0.6508444  3
   5882   5881   5880   5909     1  0.0000000  0.6508444  3
   5882   5881   5893   5905     1  0.0000000  0.6508444  3
   5882   5881   5893   5894     1  0.0000000  0.6508444  3
   5882   5881   5893   5895     1  0.0000000  0.6508444  3
   5883   5881   5880   5884     1  0.0000000  0.6508444  3
   5883   5881   5880   5887     1  0.0000000  0.6508444  3
   5883   5881   5880   5909     1  0.0000000  0.6508444  3
   5883   5881   5893   5905     1  0.0000000  0.6508444  3
   5883   5881   5893   5894     1  0.0000000  0.6508444  3
   5883   5881   5893   5895     1  0.0000000  0.6508444  3
   5884   5880   5887   5888     1  0.0000000  0.6508444  3
   5884   5880   5887   5889     1  0.0000000  0.6508444  3
   5884   5896   5902   5903     1  0.0000000  0.6508444  3
   5884   5896   5902   5904     1  0.0000000  0.6508444  3
   5885   5884   5880   5887     1  0.0000000  0.6508444  3
   5885   5884   5880   5909     1  0.0000000  0.6508444  3
   5885   5884   5896   5902     1  0.0000000  0.6508444  3
   5885   5884   5896   5897     1  0.0000000  0.6508444  3
   5885   5884   5896   5898     1  0.0000000  0.6508444  3
   5886   5884   5880   5887     1  0.0000000  0.6508444  3
   5886   5884   5880   5909     1  0.0000000  0.6508444  3
   5886   5884   5896   5902     1  0.0000000  0.6508444  3
   5886   5884   5896   5897     1  0.0000000  0.6508444  3
   5886   5884   5896   5898     1  0.0000000  0.6508444  3
   5887   5890   5899   5900     1  0.0000000  0.6508444  3
   5887   5890   5899   5901     1  0.0000000  0.6508444  3
   5888   5887   5880   5909     1  0.0000000  0.6508444  3
   5888   5887   5890   5899     1  0.0000000  0.6508444  3
   5888   5887   5890   5891     1  0.0000000  0.6508444  3
   5888   5887   5890   5892     1  0.0000000  0.6508444  3
   5889   5887   5880   5909     1  0.0000000  0.6508444  3
   5889   5887   5890   5899     1  0.0000000  0.6508444  3
   5889   5887   5890   5891     1  0.0000000  0.6508444  3
   5889   5887   5890   5892     1  0.0000000  0.6508444  3
   5890   5887   5880   5909     1  0.0000000  0.6508444  3
   5891   5890   5899   5908     1  0.0000000  1.0460000  1
   5891   5890   5899   5908     1  0.0000000  0.0000000  3
   5891   5890   5899   5900     1  0.0000000  0.6508444  3
   5891   5890   5899   5901     1  0.0000000  0.6508444  3
   5892   5890   5899   5908     1  0.0000000  1.0460000  1
   5892   5890   5899   5908     1  0.0000000  0.0000000  3
   5892   5890   5899   5900     1  0.0000000  0.6508444  3
   5892   5890   5899   5901     1  0.0000000  0.6508444  3
   5893   5881   5880   5909     1  0.0000000  0.6508444  3
   5894   5893   5905  11769     1  0.0000000  1.0460000  1
   5894   5893   5905  11769     1  0.0000000  0.0000000  3
   5894   5893   5905   5906     1  0.0000000  0.6508444  3
   5894   5893   5905   5907     1  0.0000000  0.6508444  3
   5895   5893   5905  11769     1  0.0000000  1.0460000  1
   5895   5893   5905  11769     1  0.0000000  0.0000000  3
   5895   5893   5905   5906     1  0.0000000  0.6508444  3
   5895   5893   5905   5907     1  0.0000000  0.6508444  3
   5896   5884   5880   5909     1  0.0000000  0.6508444  3
   5897   5896   5902  11746     1  0.0000000  1.0460000  1
   5897   5896   5902  11746     1  0.0000000  0.0000000  3
   5897   5896   5902   5903     1  0.0000000  0.6508444  3
   5897   5896   5902   5904     1  0.0000000  0.6508444  3
   5898   5896   5902  11746     1  0.0000000  1.0460000  1
   5898   5896   5902  11746     1  0.0000000  0.0000000  3
   5898   5896   5902   5903     1  0.0000000  0.6508444  3
   5898   5896   5902   5904     1  0.0000000  0.6508444  3
   5902  11746  11742  11745     1  0.0000000  1.6038667  3
   5903   5902  11746  11742     1  0.0000000  1.6038667  3
   5904   5902  11746  11742     1  0.0000000  1.6038667  3
   5905  11769  11765  11768     1  0.0000000  1.6038667  3
   5906   5905  11769  11765     1  0.0000000  1.6038667  3
   5907   5905  11769  11765     1  0.0000000  1.6038667  3
   5910   5911   5923   5924     1  0.0000000  0.6508444  3
   5910   5911   5923   5925     1  0.0000000  0.6508444  3
   5910   5914   5926   5927     1  0.0000000  0.6508444  3
   5910   5914   5926   5928     1  0.0000000  0.6508444  3
   5910   5917   5920   5921     1  0.0000000  0.6508444  3
   5910   5917   5920   5922     1  0.0000000  0.6508444  3
   5911   5910   5914   5915     1  0.0000000  0.6508444  3
   5911   5910   5914   5916     1  0.0000000  0.6508444  3
   5911   5910   5917   5918     1  0.0000000  0.6508444  3
   5911   5910   5917   5919     1  0.0000000  0.6508444  3
   5911   5923   5935   5936     1  0.0000000  0.6508444  3
   5911   5923   5935   5937     1  0.0000000  0.6508444  3
   5912   5911   5910   5914     1  0.0000000  0.6508444  3
   5912   5911   5910   5917     1  0.0000000  0.6508444  3
   5912   5911   5910   5939     1  0.0000000  0.6508444  3
   5912   5911   5923   5935     1  0.0000000  0.6508444  3
   5912   5911   5923   5924     1  0.0000000  0.6508444  3
   5912   5911   5923   5925     1  0.0000000  0.6508444  3
   5913   5911   5910   5914     1  0.0000000  0.6508444  3
   5913   5911   5910   5917     1  0.0000000  0.6508444  3
   5913   5911   5910   5939     1  0.0000000  0.6508444  3
   5913   5911   5923   5935     1  0.0000000  0.6508444  3
   5913   5911   5923   5924     1  0.0000000  0.6508444  3
   5913   5911   5923   5925     1  0.0000000  0.6508444  3
   5914   5910   5917   5918     1  0.0000000  0.6508444  3
   5914   5910   5917   5919     1  0.0000000  0.6508444  3
   5914   5926   5932   5933     1  0.0000000  0.6508444  3
   5914   5926   5932   5934     1  0.0000000  0.6508444  3
   5915   5914   5910   5917     1  0.0000000  0.6508444  3
   5915   5914   5910   5939     1  0.0000000  0.6508444  3
   5915   5914   5926   5932     1  0.0000000  0.6508444  3
   5915   5914   5926   5927     1  0.0000000  0.6508444  3
   5915   5914   5926   5928     1  0.0000000  0.6508444  3
   5916   5914   5910   5917     1  0.0000000  0.6508444  3
   5916   5914   5910   5939     1  0.0000000  0.6508444  3
   5916   5914   5926   5932     1  0.0000000  0.6508444  3
   5916   5914   5926   5927     1  0.0000000  0.6508444  3
   5916   5914   5926   5928     1  0.0000000  0.6508444  3
   5917   5920   5929   5930     1  0.0000000  0.6508444  3
   5917   5920   5929   5931     1  0.0000000  0.6508444  3
   5918   5917   5910   5939     1  0.0000000  0.6508444  3
   5918   5917   5920   5929     1  0.0000000  0.6508444  3
   5918   5917   5920   5921     1  0.0000000  0.6508444  3
   5918   5917   5920   5922     1  0.0000000  0.6508444  3
   5919   5917   5910   5939     1  0.0000000  0.6508444  3
   5919   5917   5920   5929     1  0.0000000  0.6508444  3
   5919   5917   5920   5921     1  0.0000000  0.6508444  3
   5919   5917   5920   5922     1  0.0000000  0.6508444  3
   5920   5917   5910   5939     1  0.0000000  0.6508444  3
   5921   5920   5929   5938     1  0.0000000  1.0460000  1
   5921   5920   5929   5938     1  0.0000000  0.0000000  3
   5921   5920   5929   5930     1  0.0000000  0.6508444  3
   5921   5920   5929   5931     1  0.0000000  0.6508444  3
   5922   5920   5929   5938     1  0.0000000  1.0460000  1
   5922   5920   5929   5938     1  0.0000000  0.0000000  3
   5922   5920   5929   5930     1  0.0000000  0.6508444  3
   5922   5920   5929   5931     1  0.0000000  0.6508444  3
   5923   5911   5910   5939     1  0.0000000  0.6508444  3
   5924   5923   5935  11815     1  0.0000000  1.0460000  1
   5924   5923   5935  11815     1  0.0000000  0.0000000  3
   5924   5923   5935   5936     1  0.0000000  0.6508444  3
   5924   5923   5935   5937     1  0.0000000  0.6508444  3
   5925   5923   5935  11815     1  0.0000000  1.0460000  1
   5925   5923   5935  11815     1  0.0000000  0.0000000  3
   5925   5923   5935   5936     1  0.0000000  0.6508444  3
   5925   5923   5935   5937     1  0.0000000  0.6508444  3
   5926   5914   5910   5939     1  0.0000000  0.6508444  3
   5927   5926   5932  11792     1  0.0000000  1.0460000  1
   5927   5926   5932  11792     1  0.0000000  0.0000000  3
   5927   5926   5932   5933     1  0.0000000  0.6508444  3
   5927   5926   5932   5934     1  0.0000000  0.6508444  3
   5928   5926   5932  11792     1  0.0000000  1.0460000  1
   5928   5926   5932  11792     1  0.0000000  0.0000000  3
   5928   5926   5932   5933     1  0.0000000  0.6508444  3
   5928   5926   5932   5934     1  0.0000000  0.6508444  3
   5932  11792  11788  11791     1  0.0000000  1.6038667  3
   5933   5932  11792  11788     1  0.0000000  1.6038667  3
   5934   5932  11792  11788     1  0.0000000  1.6038667  3
   5935  11815  11811  11814     1  0.0000000  1.6038667  3
   5936   5935  11815  11811     1  0.0000000  1.6038667  3
   5937   5935  11815  11811     1  0.0000000  1.6038667  3
   5940   5941   5953   5954     1  0.0000000  0.6508444  3
   5940   5941   5953   5955     1  0.0000000  0.6508444  3
   5940   5944   5956   5957     1  0.0000000  0.6508444  3
   5940   5944   5956   5958     1  0.0000000  0.6508444  3
   5940   5947   5950   5951     1  0.0000000  0.6508444  3
   5940   5947   5950   5952     1  0.0000000  0.6508444  3
   5941   5940   5944   5945     1  0.0000000  0.6508444  3
   5941   5940   5944   5946     1  0.0000000  0.6508444  3
   5941   5940   5947   5948     1  0.0000000  0.6508444  3
   5941   5940   5947   5949     1  0.0000000  0.6508444  3
   5941   5953   5965   5966     1  0.0000000  0.6508444  3
   5941   5953   5965   5967     1  0.0000000  0.6508444  3
   5942   5941   5940   5944     1  0.0000000  0.6508444  3
   5942   5941   5940   5947     1  0.0000000  0.6508444  3
   5942   5941   5940   5969     1  0.0000000  0.6508444  3
   5942   5941   5953   5965     1  0.0000000  0.6508444  3
   5942   5941   5953   5954     1  0.0000000  0.6508444  3
   5942   5941   5953   5955     1  0.0000000  0.6508444  3
   5943   5941   5940   5944     1  0.0000000  0.6508444  3
   5943   5941   5940   5947     1  0.0000000  0.6508444  3
   5943   5941   5940   5969     1  0.0000000  0.6508444  3
   5943   5941   5953   5965     1  0.0000000  0.6508444  3
   5943   5941   5953   5954     1  0.0000000  0.6508444  3
   5943   5941   5953   5955     1  0.0000000  0.6508444  3
   5944   5940   5947   5948     1  0.0000000  0.6508444  3
   5944   5940   5947   5949     1  0.0000000  0.6508444  3
   5944   5956   5962   5963     1  0.0000000  0.6508444  3
   5944   5956   5962   5964     1  0.0000000  0.6508444  3
   5945   5944   5940   5947     1  0.0000000  0.6508444  3
   5945   5944   5940   5969     1  0.0000000  0.6508444  3
   5945   5944   5956   5962     1  0.0000000  0.6508444  3
   5945   5944   5956   5957     1  0.0000000  0.6508444  3
   5945   5944   5956   5958     1  0.0000000  0.6508444  3
   5946   5944   5940   5947     1  0.0000000  0.6508444  3
   5946   5944   5940   5969     1  0.0000000  0.6508444  3
   5946   5944   5956   5962     1  0.0000000  0.6508444  3
   5946   5944   5956   5957     1  0.0000000  0.6508444  3
   5946   5944   5956   5958     1  0.0000000  0.6508444  3
   5947   5950   5959   5960     1  0.0000000  0.6508444  3
   5947   5950   5959   5961     1  0.0000000  0.6508444  3
   5948   5947   5940   5969     1  0.0000000  0.6508444  3
   5948   5947   5950   5959     1  0.0000000  0.6508444  3
   5948   5947   5950   5951     1  0.0000000  0.6508444  3
   5948   5947   5950   5952     1  0.0000000  0.6508444  3
   5949   5947   5940   5969     1  0.0000000  0.6508444  3
   5949   5947   5950   5959     1  0.0000000  0.6508444  3
   5949   5947   5950   5951     1  0.0000000  0.6508444  3
   5949   5947   5950   5952     1  0.0000000  0.6508444  3
   5950   5947   5940   5969     1  0.0000000  0.6508444  3
   5951   5950   5959   5968     1  0.0000000  1.0460000  1
   5951   5950   5959   5968     1  0.0000000  0.0000000  3
   5951   5950   5959   5960     1  0.0000000  0.6508444  3
   5951   5950   5959   5961     1  0.0000000  0.6508444  3
   5952   5950   5959   5968     1  0.0000000  1.0460000  1
   5952   5950   5959   5968     1  0.0000000  0.0000000  3
   5952   5950   5959   5960     1  0.0000000  0.6508444  3
   5952   5950   5959   5961     1  0.0000000  0.6508444  3
   5953   5941   5940   5969     1  0.0000000  0.6508444  3
   5954   5953   5965  11861     1  0.0000000  1.0460000  1
   5954   5953   5965  11861     1  0.0000000  0.0000000  3
   5954   5953   5965   5966     1  0.0000000  0.6508444  3
   5954   5953   5965   5967     1  0.0000000  0.6508444  3
   5955   5953   5965  11861     1  0.0000000  1.0460000  1
   5955   5953   5965  11861     1  0.0000000  0.0000000  3
   5955   5953   5965   5966     1  0.0000000  0.6508444  3
   5955   5953   5965   5967     1  0.0000000  0.6508444  3
   5956   5944   5940   5969     1  0.0000000  0.6508444  3
   5957   5956   5962  11838     1  0.0000000  1.0460000  1
   5957   5956   5962  11838     1  0.0000000  0.0000000  3
   5957   5956   5962   5963     1  0.0000000  0.6508444  3
   5957   5956   5962   5964     1  0.0000000  0.6508444  3
   5958   5956   5962  11838     1  0.0000000  1.0460000  1
   5958   5956   5962  11838     1  0.0000000  0.0000000  3
   5958   5956   5962   5963     1  0.0000000  0.6508444  3
   5958   5956   5962   5964     1  0.0000000  0.6508444  3
   5962  11838  11834  11837     1  0.0000000  1.6038667  3
   5963   5962  11838  11834     1  0.0000000  1.6038667  3
   5964   5962  11838  11834     1  0.0000000  1.6038667  3
   5965  11861  11857  11860     1  0.0000000  1.6038667  3
   5966   5965  11861  11857     1  0.0000000  1.6038667  3
   5967   5965  11861  11857     1  0.0000000  1.6038667  3
   5970   5971   5983   5984     1  0.0000000  0.6508444  3
   5970   5971   5983   5985     1  0.0000000  0.6508444  3
   5970   5974   5986   5987     1  0.0000000  0.6508444  3
   5970   5974   5986   5988     1  0.0000000  0.6508444  3
   5970   5977   5980   5981     1  0.0000000  0.6508444  3
   5970   5977   5980   5982     1  0.0000000  0.6508444  3
   5971   5970   5974   5975     1  0.0000000  0.6508444  3
   5971   5970   5974   5976     1  0.0000000  0.6508444  3
   5971   5970   5977   5978     1  0.0000000  0.6508444  3
   5971   5970   5977   5979     1  0.0000000  0.6508444  3
   5971   5983   5995   5996     1  0.0000000  0.6508444  3
   5971   5983   5995   5997     1  0.0000000  0.6508444  3
   5972   5971   5970   5974     1  0.0000000  0.6508444  3
   5972   5971   5970   5977     1  0.0000000  0.6508444  3
   5972   5971   5970   5999     1  0.0000000  0.6508444  3
   5972   5971   5983   5995     1  0.0000000  0.6508444  3
   5972   5971   5983   5984     1  0.0000000  0.6508444  3
   5972   5971   5983   5985     1  0.0000000  0.6508444  3
   5973   5971   5970   5974     1  0.0000000  0.6508444  3
   5973   5971   5970   5977     1  0.0000000  0.6508444  3
   5973   5971   5970   5999     1  0.0000000  0.6508444  3
   5973   5971   5983   5995     1  0.0000000  0.6508444  3
   5973   5971   5983   5984     1  0.0000000  0.6508444  3
   5973   5971   5983   5985     1  0.0000000  0.6508444  3
   5974   5970   5977   5978     1  0.0000000  0.6508444  3
   5974   5970   5977   5979     1  0.0000000  0.6508444  3
   5974   5986   5992   5993     1  0.0000000  0.6508444  3
   5974   5986   5992   5994     1  0.0000000  0.6508444  3
   5975   5974   5970   5977     1  0.0000000  0.6508444  3
   5975   5974   5970   5999     1  0.0000000  0.6508444  3
   5975   5974   5986   5992     1  0.0000000  0.6508444  3
   5975   5974   5986   5987     1  0.0000000  0.6508444  3
   5975   5974   5986   5988     1  0.0000000  0.6508444  3
   5976   5974   5970   5977     1  0.0000000  0.6508444  3
   5976   5974   5970   5999     1  0.0000000  0.6508444  3
   5976   5974   5986   5992     1  0.0000000  0.6508444  3
   5976   5974   5986   5987     1  0.0000000  0.6508444  3
   5976   5974   5986   5988     1  0.0000000  0.6508444  3
   5977   5980   5989   5990     1  0.0000000  0.6508444  3
   5977   5980   5989   5991     1  0.0000000  0.6508444  3
   5978   5977   5970   5999     1  0.0000000  0.6508444  3
   5978   5977   5980   5989     1  0.0000000  0.6508444  3
   5978   5977   5980   5981     1  0.0000000  0.6508444  3
   5978   5977   5980   5982     1  0.0000000  0.6508444  3
   5979   5977   5970   5999     1  0.0000000  0.6508444  3
   5979   5977   5980   5989     1  0.0000000  0.6508444  3
   5979   5977   5980   5981     1  0.0000000  0.6508444  3
   5979   5977   5980   5982     1  0.0000000  0.6508444  3
   5980   5977   5970   5999     1  0.0000000  0.6508444  3
   5981   5980   5989   5998     1  0.0000000  1.0460000  1
   5981   5980   5989   5998     1  0.0000000  0.0000000  3
   5981   5980   5989   5990     1  0.0000000  0.6508444  3
   5981   5980   5989   5991     1  0.0000000  0.6508444  3
   5982   5980   5989   5998     1  0.0000000  1.0460000  1
   5982   5980   5989   5998     1  0.0000000  0.0000000  3
   5982   5980   5989   5990     1  0.0000000  0.6508444  3
   5982   5980   5989   5991     1  0.0000000  0.6508444  3
   5983   5971   5970   5999     1  0.0000000  0.6508444  3
   5984   5983   5995  11907     1  0.0000000  1.0460000  1
   5984   5983   5995  11907     1  0.0000000  0.0000000  3
   5984   5983   5995   5996     1  0.0000000  0.6508444  3
   5984   5983   5995   5997     1  0.0000000  0.6508444  3
   5985   5983   5995  11907     1  0.0000000  1.0460000  1
   5985   5983   5995  11907     1  0.0000000  0.0000000  3
   5985   5983   5995   5996     1  0.0000000  0.6508444  3
   5985   5983   5995   5997     1  0.0000000  0.6508444  3
   5986   5974   5970   5999     1  0.0000000  0.6508444  3
   5987   5986   5992  11884     1  0.0000000  1.0460000  1
   5987   5986   5992  11884     1  0.0000000  0.0000000  3
   5987   5986   5992   5993     1  0.0000000  0.6508444  3
   5987   5986   5992   5994     1  0.0000000  0.6508444  3
   5988   5986   5992  11884     1  0.0000000  1.0460000  1
   5988   5986   5992  11884     1  0.0000000  0.0000000  3
   5988   5986   5992   5993     1  0.0000000  0.6508444  3
   5988   5986   5992   5994     1  0.0000000  0.6508444  3
   5992  11884  11880  11883     1  0.0000000  1.6038667  3
   5993   5992  11884  11880     1  0.0000000  1.6038667  3
   5994   5992  11884  11880     1  0.0000000  1.6038667  3
   5995  11907  11903  11906     1  0.0000000  1.6038667  3
   5996   5995  11907  11903     1  0.0000000  1.6038667  3
   5997   5995  11907  11903     1  0.0000000  1.6038667  3
   6000   6001   6013   6014     1  0.0000000  0.6508444  3
   6000   6001   6013   6015     1  0.0000000  0.6508444  3
   6000   6004   6016   6017     1  0.0000000  0.6508444  3
   6000   6004   6016   6018     1  0.0000000  0.6508444  3
   6000   6007   6010   6011     1  0.0000000  0.6508444  3
   6000   6007   6010   6012     1  0.0000000  0.6508444  3
   6001   6000   6004   6005     1  0.0000000  0.6508444  3
   6001   6000   6004   6006     1  0.0000000  0.6508444  3
   6001   6000   6007   6008     1  0.0000000  0.6508444  3
   6001   6000   6007   6009     1  0.0000000  0.6508444  3
   6001   6013   6025   6026     1  0.0000000  0.6508444  3
   6001   6013   6025   6027     1  0.0000000  0.6508444  3
   6002   6001   6000   6004     1  0.0000000  0.6508444  3
   6002   6001   6000   6007     1  0.0000000  0.6508444  3
   6002   6001   6000   6029     1  0.0000000  0.6508444  3
   6002   6001   6013   6025     1  0.0000000  0.6508444  3
   6002   6001   6013   6014     1  0.0000000  0.6508444  3
   6002   6001   6013   6015     1  0.0000000  0.6508444  3
   6003   6001   6000   6004     1  0.0000000  0.6508444  3
   6003   6001   6000   6007     1  0.0000000  0.6508444  3
   6003   6001   6000   6029     1  0.0000000  0.6508444  3
   6003   6001   6013   6025     1  0.0000000  0.6508444  3
   6003   6001   6013   6014     1  0.0000000  0.6508444  3
   6003   6001   6013   6015     1  0.0000000  0.6508444  3
   6004   6000   6007   6008     1  0.0000000  0.6508444  3
   6004   6000   6007   6009     1  0.0000000  0.6508444  3
   6004   6016   6022   6023     1  0.0000000  0.6508444  3
   6004   6016   6022   6024     1  0.0000000  0.6508444  3
   6005   6004   6000   6007     1  0.0000000  0.6508444  3
   6005   6004   6000   6029     1  0.0000000  0.6508444  3
   6005   6004   6016   6022     1  0.0000000  0.6508444  3
   6005   6004   6016   6017     1  0.0000000  0.6508444  3
   6005   6004   6016   6018     1  0.0000000  0.6508444  3
   6006   6004   6000   6007     1  0.0000000  0.6508444  3
   6006   6004   6000   6029     1  0.0000000  0.6508444  3
   6006   6004   6016   6022     1  0.0000000  0.6508444  3
   6006   6004   6016   6017     1  0.0000000  0.6508444  3
   6006   6004   6016   6018     1  0.0000000  0.6508444  3
   6007   6010   6019   6020     1  0.0000000  0.6508444  3
   6007   6010   6019   6021     1  0.0000000  0.6508444  3
   6008   6007   6000   6029     1  0.0000000  0.6508444  3
   6008   6007   6010   6019     1  0.0000000  0.6508444  3
   6008   6007   6010   6011     1  0.0000000  0.6508444  3
   6008   6007   6010   6012     1  0.0000000  0.6508444  3
   6009   6007   6000   6029     1  0.0000000  0.6508444  3
   6009   6007   6010   6019     1  0.0000000  0.6508444  3
   6009   6007   6010   6011     1  0.0000000  0.6508444  3
   6009   6007   6010   6012     1  0.0000000  0.6508444  3
   6010   6007   6000   6029     1  0.0000000  0.6508444  3
   6011   6010   6019   6028     1  0.0000000  1.0460000  1
   6011   6010   6019   6028     1  0.0000000  0.0000000  3
   6011   6010   6019   6020     1  0.0000000  0.6508444  3
   6011   6010   6019   6021     1  0.0000000  0.6508444  3
   6012   6010   6019   6028     1  0.0000000  1.0460000  1
   6012   6010   6019   6028     1  0.0000000  0.0000000  3
   6012   6010   6019   6020     1  0.0000000  0.6508444  3
   6012   6010   6019   6021     1  0.0000000  0.6508444  3
   6013   6001   6000   6029     1  0.0000000  0.6508444  3
   6014   6013   6025  11953     1  0.0000000  1.0460000  1
   6014   6013   6025  11953     1  0.0000000  0.0000000  3
   6014   6013   6025   6026     1  0.0000000  0.6508444  3
   6014   6013   6025   6027     1  0.0000000  0.6508444  3
   6015   6013   6025  11953     1  0.0000000  1.0460000  1
   6015   6013   6025  11953     1  0.0000000  0.0000000  3
   6015   6013   6025   6026     1  0.0000000  0.6508444  3
   6015   6013   6025   6027     1  0.0000000  0.6508444  3
   6016   6004   6000   6029     1  0.0000000  0.6508444  3
   6017   6016   6022  11930     1  0.0000000  1.0460000  1
   6017   6016   6022  11930     1  0.0000000  0.0000000  3
   6017   6016   6022   6023     1  0.0000000  0.6508444  3
   6017   6016   6022   6024     1  0.0000000  0.6508444  3
   6018   6016   6022  11930     1  0.0000000  1.0460000  1
   6018   6016   6022  11930     1  0.0000000  0.0000000  3
   6018   6016   6022   6023     1  0.0000000  0.6508444  3
   6018   6016   6022   6024     1  0.0000000  0.6508444  3
   6022  11930  11926  11929     1  0.0000000  1.6038667  3
   6023   6022  11930  11926     1  0.0000000  1.6038667  3
   6024   6022  11930  11926     1  0.0000000  1.6038667  3
   6025  11953  11949  11952     1  0.0000000  1.6038667  3
   6026   6025  11953  11949     1  0.0000000  1.6038667  3
   6027   6025  11953  11949     1  0.0000000  1.6038667  3
   6030   6031   6043   6044     1  0.0000000  0.6508444  3
   6030   6031   6043   6045     1  0.0000000  0.6508444  3
   6030   6034   6046   6047     1  0.0000000  0.6508444  3
   6030   6034   6046   6048     1  0.0000000  0.6508444  3
   6030   6037   6040   6041     1  0.0000000  0.6508444  3
   6030   6037   6040   6042     1  0.0000000  0.6508444  3
   6031   6030   6034   6035     1  0.0000000  0.6508444  3
   6031   6030   6034   6036     1  0.0000000  0.6508444  3
   6031   6030   6037   6038     1  0.0000000  0.6508444  3
   6031   6030   6037   6039     1  0.0000000  0.6508444  3
   6031   6043   6055   6056     1  0.0000000  0.6508444  3
   6031   6043   6055   6057     1  0.0000000  0.6508444  3
   6032   6031   6030   6034     1  0.0000000  0.6508444  3
   6032   6031   6030   6037     1  0.0000000  0.6508444  3
   6032   6031   6030   6059     1  0.0000000  0.6508444  3
   6032   6031   6043   6055     1  0.0000000  0.6508444  3
   6032   6031   6043   6044     1  0.0000000  0.6508444  3
   6032   6031   6043   6045     1  0.0000000  0.6508444  3
   6033   6031   6030   6034     1  0.0000000  0.6508444  3
   6033   6031   6030   6037     1  0.0000000  0.6508444  3
   6033   6031   6030   6059     1  0.0000000  0.6508444  3
   6033   6031   6043   6055     1  0.0000000  0.6508444  3
   6033   6031   6043   6044     1  0.0000000  0.6508444  3
   6033   6031   6043   6045     1  0.0000000  0.6508444  3
   6034   6030   6037   6038     1  0.0000000  0.6508444  3
   6034   6030   6037   6039     1  0.0000000  0.6508444  3
   6034   6046   6052   6053     1  0.0000000  0.6508444  3
   6034   6046   6052   6054     1  0.0000000  0.6508444  3
   6035   6034   6030   6037     1  0.0000000  0.6508444  3
   6035   6034   6030   6059     1  0.0000000  0.6508444  3
   6035   6034   6046   6052     1  0.0000000  0.6508444  3
   6035   6034   6046   6047     1  0.0000000  0.6508444  3
   6035   6034   6046   6048     1  0.0000000  0.6508444  3
   6036   6034   6030   6037     1  0.0000000  0.6508444  3
   6036   6034   6030   6059     1  0.0000000  0.6508444  3
   6036   6034   6046   6052     1  0.0000000  0.6508444  3
   6036   6034   6046   6047     1  0.0000000  0.6508444  3
   6036   6034   6046   6048     1  0.0000000  0.6508444  3
   6037   6040   6049   6050     1  0.0000000  0.6508444  3
   6037   6040   6049   6051     1  0.0000000  0.6508444  3
   6038   6037   6030   6059     1  0.0000000  0.6508444  3
   6038   6037   6040   6049     1  0.0000000  0.6508444  3
   6038   6037   6040   6041     1  0.0000000  0.6508444  3
   6038   6037   6040   6042     1  0.0000000  0.6508444  3
   6039   6037   6030   6059     1  0.0000000  0.6508444  3
   6039   6037   6040   6049     1  0.0000000  0.6508444  3
   6039   6037   6040   6041     1  0.0000000  0.6508444  3
   6039   6037   6040   6042     1  0.0000000  0.6508444  3
   6040   6037   6030   6059     1  0.0000000  0.6508444  3
   6041   6040   6049   6058     1  0.0000000  1.0460000  1
   6041   6040   6049   6058     1  0.0000000  0.0000000  3
   6041   6040   6049   6050     1  0.0000000  0.6508444  3
   6041   6040   6049   6051     1  0.0000000  0.6508444  3
   6042   6040   6049   6058     1  0.0000000  1.0460000  1
   6042   6040   6049   6058     1  0.0000000  0.0000000  3
   6042   6040   6049   6050     1  0.0000000  0.6508444  3
   6042   6040   6049   6051     1  0.0000000  0.6508444  3
   6043   6031   6030   6059     1  0.0000000  0.6508444  3
   6044   6043   6055  11999     1  0.0000000  1.0460000  1
   6044   6043   6055  11999     1  0.0000000  0.0000000  3
   6044   6043   6055   6056     1  0.0000000  0.6508444  3
   6044   6043   6055   6057     1  0.0000000  0.6508444  3
   6045   6043   6055  11999     1  0.0000000  1.0460000  1
   6045   6043   6055  11999     1  0.0000000  0.0000000  3
   6045   6043   6055   6056     1  0.0000000  0.6508444  3
   6045   6043   6055   6057     1  0.0000000  0.6508444  3
   6046   6034   6030   6059     1  0.0000000  0.6508444  3
   6047   6046   6052  11976     1  0.0000000  1.0460000  1
   6047   6046   6052  11976     1  0.0000000  0.0000000  3
   6047   6046   6052   6053     1  0.0000000  0.6508444  3
   6047   6046   6052   6054     1  0.0000000  0.6508444  3
   6048   6046   6052  11976     1  0.0000000  1.0460000  1
   6048   6046   6052  11976     1  0.0000000  0.0000000  3
   6048   6046   6052   6053     1  0.0000000  0.6508444  3
   6048   6046   6052   6054     1  0.0000000  0.6508444  3
   6052  11976  11972  11975     1  0.0000000  1.6038667  3
   6053   6052  11976  11972     1  0.0000000  1.6038667  3
   6054   6052  11976  11972     1  0.0000000  1.6038667  3
   6055  11999  11995  11998     1  0.0000000  1.6038667  3
   6056   6055  11999  11995     1  0.0000000  1.6038667  3
   6057   6055  11999  11995     1  0.0000000  1.6038667  3
   6060   6061   6073   6074     1  0.0000000  0.6508444  3
   6060   6061   6073   6075     1  0.0000000  0.6508444  3
   6060   6064   6076   6077     1  0.0000000  0.6508444  3
   6060   6064   6076   6078     1  0.0000000  0.6508444  3
   6060   6067   6070   6071     1  0.0000000  0.6508444  3
   6060   6067   6070   6072     1  0.0000000  0.6508444  3
   6061   6060   6064   6065     1  0.0000000  0.6508444  3
   6061   6060   6064   6066     1  0.0000000  0.6508444  3
   6061   6060   6067   6068     1  0.0000000  0.6508444  3
   6061   6060   6067   6069     1  0.0000000  0.6508444  3
   6061   6073   6085   6086     1  0.0000000  0.6508444  3
   6061   6073   6085   6087     1  0.0000000  0.6508444  3
   6062   6061   6060   6064     1  0.0000000  0.6508444  3
   6062   6061   6060   6067     1  0.0000000  0.6508444  3
   6062   6061   6060   6089     1  0.0000000  0.6508444  3
   6062   6061   6073   6085     1  0.0000000  0.6508444  3
   6062   6061   6073   6074     1  0.0000000  0.6508444  3
   6062   6061   6073   6075     1  0.0000000  0.6508444  3
   6063   6061   6060   6064     1  0.0000000  0.6508444  3
   6063   6061   6060   6067     1  0.0000000  0.6508444  3
   6063   6061   6060   6089     1  0.0000000  0.6508444  3
   6063   6061   6073   6085     1  0.0000000  0.6508444  3
   6063   6061   6073   6074     1  0.0000000  0.6508444  3
   6063   6061   6073   6075     1  0.0000000  0.6508444  3
   6064   6060   6067   6068     1  0.0000000  0.6508444  3
   6064   6060   6067   6069     1  0.0000000  0.6508444  3
   6064   6076   6082   6083     1  0.0000000  0.6508444  3
   6064   6076   6082   6084     1  0.0000000  0.6508444  3
   6065   6064   6060   6067     1  0.0000000  0.6508444  3
   6065   6064   6060   6089     1  0.0000000  0.6508444  3
   6065   6064   6076   6082     1  0.0000000  0.6508444  3
   6065   6064   6076   6077     1  0.0000000  0.6508444  3
   6065   6064   6076   6078     1  0.0000000  0.6508444  3
   6066   6064   6060   6067     1  0.0000000  0.6508444  3
   6066   6064   6060   6089     1  0.0000000  0.6508444  3
   6066   6064   6076   6082     1  0.0000000  0.6508444  3
   6066   6064   6076   6077     1  0.0000000  0.6508444  3
   6066   6064   6076   6078     1  0.0000000  0.6508444  3
   6067   6070   6079   6080     1  0.0000000  0.6508444  3
   6067   6070   6079   6081     1  0.0000000  0.6508444  3
   6068   6067   6060   6089     1  0.0000000  0.6508444  3
   6068   6067   6070   6079     1  0.0000000  0.6508444  3
   6068   6067   6070   6071     1  0.0000000  0.6508444  3
   6068   6067   6070   6072     1  0.0000000  0.6508444  3
   6069   6067   6060   6089     1  0.0000000  0.6508444  3
   6069   6067   6070   6079     1  0.0000000  0.6508444  3
   6069   6067   6070   6071     1  0.0000000  0.6508444  3
   6069   6067   6070   6072     1  0.0000000  0.6508444  3
   6070   6067   6060   6089     1  0.0000000  0.6508444  3
   6071   6070   6079   6088     1  0.0000000  1.0460000  1
   6071   6070   6079   6088     1  0.0000000  0.0000000  3
   6071   6070   6079   6080     1  0.0000000  0.6508444  3
   6071   6070   6079   6081     1  0.0000000  0.6508444  3
   6072   6070   6079   6088     1  0.0000000  1.0460000  1
   6072   6070   6079   6088     1  0.0000000  0.0000000  3
   6072   6070   6079   6080     1  0.0000000  0.6508444  3
   6072   6070   6079   6081     1  0.0000000  0.6508444  3
   6073   6061   6060   6089     1  0.0000000  0.6508444  3
   6074   6073   6085  12045     1  0.0000000  1.0460000  1
   6074   6073   6085  12045     1  0.0000000  0.0000000  3
   6074   6073   6085   6086     1  0.0000000  0.6508444  3
   6074   6073   6085   6087     1  0.0000000  0.6508444  3
   6075   6073   6085  12045     1  0.0000000  1.0460000  1
   6075   6073   6085  12045     1  0.0000000  0.0000000  3
   6075   6073   6085   6086     1  0.0000000  0.6508444  3
   6075   6073   6085   6087     1  0.0000000  0.6508444  3
   6076   6064   6060   6089     1  0.0000000  0.6508444  3
   6077   6076   6082  12022     1  0.0000000  1.0460000  1
   6077   6076   6082  12022     1  0.0000000  0.0000000  3
   6077   6076   6082   6083     1  0.0000000  0.6508444  3
   6077   6076   6082   6084     1  0.0000000  0.6508444  3
   6078   6076   6082  12022     1  0.0000000  1.0460000  1
   6078   6076   6082  12022     1  0.0000000  0.0000000  3
   6078   6076   6082   6083     1  0.0000000  0.6508444  3
   6078   6076   6082   6084     1  0.0000000  0.6508444  3
   6082  12022  12018  12021     1  0.0000000  1.6038667  3
   6083   6082  12022  12018     1  0.0000000  1.6038667  3
   6084   6082  12022  12018     1  0.0000000  1.6038667  3
   6085  12045  12041  12044     1  0.0000000  1.6038667  3
   6086   6085  12045  12041     1  0.0000000  1.6038667  3
   6087   6085  12045  12041     1  0.0000000  1.6038667  3
   6090   6091   6103   6104     1  0.0000000  0.6508444  3
   6090   6091   6103   6105     1  0.0000000  0.6508444  3
   6090   6094   6106   6107     1  0.0000000  0.6508444  3
   6090   6094   6106   6108     1  0.0000000  0.6508444  3
   6090   6097   6100   6101     1  0.0000000  0.6508444  3
   6090   6097   6100   6102     1  0.0000000  0.6508444  3
   6091   6090   6094   6095     1  0.0000000  0.6508444  3
   6091   6090   6094   6096     1  0.0000000  0.6508444  3
   6091   6090   6097   6098     1  0.0000000  0.6508444  3
   6091   6090   6097   6099     1  0.0000000  0.6508444  3
   6091   6103   6115   6116     1  0.0000000  0.6508444  3
   6091   6103   6115   6117     1  0.0000000  0.6508444  3
   6092   6091   6090   6094     1  0.0000000  0.6508444  3
   6092   6091   6090   6097     1  0.0000000  0.6508444  3
   6092   6091   6090   6119     1  0.0000000  0.6508444  3
   6092   6091   6103   6115     1  0.0000000  0.6508444  3
   6092   6091   6103   6104     1  0.0000000  0.6508444  3
   6092   6091   6103   6105     1  0.0000000  0.6508444  3
   6093   6091   6090   6094     1  0.0000000  0.6508444  3
   6093   6091   6090   6097     1  0.0000000  0.6508444  3
   6093   6091   6090   6119     1  0.0000000  0.6508444  3
   6093   6091   6103   6115     1  0.0000000  0.6508444  3
   6093   6091   6103   6104     1  0.0000000  0.6508444  3
   6093   6091   6103   6105     1  0.0000000  0.6508444  3
   6094   6090   6097   6098     1  0.0000000  0.6508444  3
   6094   6090   6097   6099     1  0.0000000  0.6508444  3
   6094   6106   6112   6113     1  0.0000000  0.6508444  3
   6094   6106   6112   6114     1  0.0000000  0.6508444  3
   6095   6094   6090   6097     1  0.0000000  0.6508444  3
   6095   6094   6090   6119     1  0.0000000  0.6508444  3
   6095   6094   6106   6112     1  0.0000000  0.6508444  3
   6095   6094   6106   6107     1  0.0000000  0.6508444  3
   6095   6094   6106   6108     1  0.0000000  0.6508444  3
   6096   6094   6090   6097     1  0.0000000  0.6508444  3
   6096   6094   6090   6119     1  0.0000000  0.6508444  3
   6096   6094   6106   6112     1  0.0000000  0.6508444  3
   6096   6094   6106   6107     1  0.0000000  0.6508444  3
   6096   6094   6106   6108     1  0.0000000  0.6508444  3
   6097   6100   6109   6110     1  0.0000000  0.6508444  3
   6097   6100   6109   6111     1  0.0000000  0.6508444  3
   6098   6097   6090   6119     1  0.0000000  0.6508444  3
   6098   6097   6100   6109     1  0.0000000  0.6508444  3
   6098   6097   6100   6101     1  0.0000000  0.6508444  3
   6098   6097   6100   6102     1  0.0000000  0.6508444  3
   6099   6097   6090   6119     1  0.0000000  0.6508444  3
   6099   6097   6100   6109     1  0.0000000  0.6508444  3
   6099   6097   6100   6101     1  0.0000000  0.6508444  3
   6099   6097   6100   6102     1  0.0000000  0.6508444  3
   6100   6097   6090   6119     1  0.0000000  0.6508444  3
   6101   6100   6109   6118     1  0.0000000  1.0460000  1
   6101   6100   6109   6118     1  0.0000000  0.0000000  3
   6101   6100   6109   6110     1  0.0000000  0.6508444  3
   6101   6100   6109   6111     1  0.0000000  0.6508444  3
   6102   6100   6109   6118     1  0.0000000  1.0460000  1
   6102   6100   6109   6118     1  0.0000000  0.0000000  3
   6102   6100   6109   6110     1  0.0000000  0.6508444  3
   6102   6100   6109   6111     1  0.0000000  0.6508444  3
   6103   6091   6090   6119     1  0.0000000  0.6508444  3
   6104   6103   6115  12091     1  0.0000000  1.0460000  1
   6104   6103   6115  12091     1  0.0000000  0.0000000  3
   6104   6103   6115   6116     1  0.0000000  0.6508444  3
   6104   6103   6115   6117     1  0.0000000  0.6508444  3
   6105   6103   6115  12091     1  0.0000000  1.0460000  1
   6105   6103   6115  12091     1  0.0000000  0.0000000  3
   6105   6103   6115   6116     1  0.0000000  0.6508444  3
   6105   6103   6115   6117     1  0.0000000  0.6508444  3
   6106   6094   6090   6119     1  0.0000000  0.6508444  3
   6107   6106   6112  12068     1  0.0000000  1.0460000  1
   6107   6106   6112  12068     1  0.0000000  0.0000000  3
   6107   6106   6112   6113     1  0.0000000  0.6508444  3
   6107   6106   6112   6114     1  0.0000000  0.6508444  3
   6108   6106   6112  12068     1  0.0000000  1.0460000  1
   6108   6106   6112  12068     1  0.0000000  0.0000000  3
   6108   6106   6112   6113     1  0.0000000  0.6508444  3
   6108   6106   6112   6114     1  0.0000000  0.6508444  3
   6112  12068  12064  12067     1  0.0000000  1.6038667  3
   6113   6112  12068  12064     1  0.0000000  1.6038667  3
   6114   6112  12068  12064     1  0.0000000  1.6038667  3
   6115  12091  12087  12090     1  0.0000000  1.6038667  3
   6116   6115  12091  12087     1  0.0000000  1.6038667  3
   6117   6115  12091  12087     1  0.0000000  1.6038667  3
   6120   6121   6133   6134     1  0.0000000  0.6508444  3
   6120   6121   6133   6135     1  0.0000000  0.6508444  3
   6120   6124   6136   6137     1  0.0000000  0.6508444  3
   6120   6124   6136   6138     1  0.0000000  0.6508444  3
   6120   6127   6130   6131     1  0.0000000  0.6508444  3
   6120   6127   6130   6132     1  0.0000000  0.6508444  3
   6121   6120   6124   6125     1  0.0000000  0.6508444  3
   6121   6120   6124   6126     1  0.0000000  0.6508444  3
   6121   6120   6127   6128     1  0.0000000  0.6508444  3
   6121   6120   6127   6129     1  0.0000000  0.6508444  3
   6121   6133   6145   6146     1  0.0000000  0.6508444  3
   6121   6133   6145   6147     1  0.0000000  0.6508444  3
   6122   6121   6120   6124     1  0.0000000  0.6508444  3
   6122   6121   6120   6127     1  0.0000000  0.6508444  3
   6122   6121   6120   6149     1  0.0000000  0.6508444  3
   6122   6121   6133   6145     1  0.0000000  0.6508444  3
   6122   6121   6133   6134     1  0.0000000  0.6508444  3
   6122   6121   6133   6135     1  0.0000000  0.6508444  3
   6123   6121   6120   6124     1  0.0000000  0.6508444  3
   6123   6121   6120   6127     1  0.0000000  0.6508444  3
   6123   6121   6120   6149     1  0.0000000  0.6508444  3
   6123   6121   6133   6145     1  0.0000000  0.6508444  3
   6123   6121   6133   6134     1  0.0000000  0.6508444  3
   6123   6121   6133   6135     1  0.0000000  0.6508444  3
   6124   6120   6127   6128     1  0.0000000  0.6508444  3
   6124   6120   6127   6129     1  0.0000000  0.6508444  3
   6124   6136   6142   6143     1  0.0000000  0.6508444  3
   6124   6136   6142   6144     1  0.0000000  0.6508444  3
   6125   6124   6120   6127     1  0.0000000  0.6508444  3
   6125   6124   6120   6149     1  0.0000000  0.6508444  3
   6125   6124   6136   6142     1  0.0000000  0.6508444  3
   6125   6124   6136   6137     1  0.0000000  0.6508444  3
   6125   6124   6136   6138     1  0.0000000  0.6508444  3
   6126   6124   6120   6127     1  0.0000000  0.6508444  3
   6126   6124   6120   6149     1  0.0000000  0.6508444  3
   6126   6124   6136   6142     1  0.0000000  0.6508444  3
   6126   6124   6136   6137     1  0.0000000  0.6508444  3
   6126   6124   6136   6138     1  0.0000000  0.6508444  3
   6127   6130   6139   6140     1  0.0000000  0.6508444  3
   6127   6130   6139   6141     1  0.0000000  0.6508444  3
   6128   6127   6120   6149     1  0.0000000  0.6508444  3
   6128   6127   6130   6139     1  0.0000000  0.6508444  3
   6128   6127   6130   6131     1  0.0000000  0.6508444  3
   6128   6127   6130   6132     1  0.0000000  0.6508444  3
   6129   6127   6120   6149     1  0.0000000  0.6508444  3
   6129   6127   6130   6139     1  0.0000000  0.6508444  3
   6129   6127   6130   6131     1  0.0000000  0.6508444  3
   6129   6127   6130   6132     1  0.0000000  0.6508444  3
   6130   6127   6120   6149     1  0.0000000  0.6508444  3
   6131   6130   6139   6148     1  0.0000000  1.0460000  1
   6131   6130   6139   6148     1  0.0000000  0.0000000  3
   6131   6130   6139   6140     1  0.0000000  0.6508444  3
   6131   6130   6139   6141     1  0.0000000  0.6508444  3
   6132   6130   6139   6148     1  0.0000000  1.0460000  1
   6132   6130   6139   6148     1  0.0000000  0.0000000  3
   6132   6130   6139   6140     1  0.0000000  0.6508444  3
   6132   6130   6139   6141     1  0.0000000  0.6508444  3
   6133   6121   6120   6149     1  0.0000000  0.6508444  3
   6134   6133   6145  12137     1  0.0000000  1.0460000  1
   6134   6133   6145  12137     1  0.0000000  0.0000000  3
   6134   6133   6145   6146     1  0.0000000  0.6508444  3
   6134   6133   6145   6147     1  0.0000000  0.6508444  3
   6135   6133   6145  12137     1  0.0000000  1.0460000  1
   6135   6133   6145  12137     1  0.0000000  0.0000000  3
   6135   6133   6145   6146     1  0.0000000  0.6508444  3
   6135   6133   6145   6147     1  0.0000000  0.6508444  3
   6136   6124   6120   6149     1  0.0000000  0.6508444  3
   6137   6136   6142  12114     1  0.0000000  1.0460000  1
   6137   6136   6142  12114     1  0.0000000  0.0000000  3
   6137   6136   6142   6143     1  0.0000000  0.6508444  3
   6137   6136   6142   6144     1  0.0000000  0.6508444  3
   6138   6136   6142  12114     1  0.0000000  1.0460000  1
   6138   6136   6142  12114     1  0.0000000  0.0000000  3
   6138   6136   6142   6143     1  0.0000000  0.6508444  3
   6138   6136   6142   6144     1  0.0000000  0.6508444  3
   6142  12114  12110  12113     1  0.0000000  1.6038667  3
   6143   6142  12114  12110     1  0.0000000  1.6038667  3
   6144   6142  12114  12110     1  0.0000000  1.6038667  3
   6145  12137  12133  12136     1  0.0000000  1.6038667  3
   6146   6145  12137  12133     1  0.0000000  1.6038667  3
   6147   6145  12137  12133     1  0.0000000  1.6038667  3
   6150   6151   6163   6164     1  0.0000000  0.6508444  3
   6150   6151   6163   6165     1  0.0000000  0.6508444  3
   6150   6154   6166   6167     1  0.0000000  0.6508444  3
   6150   6154   6166   6168     1  0.0000000  0.6508444  3
   6150   6157   6160   6161     1  0.0000000  0.6508444  3
   6150   6157   6160   6162     1  0.0000000  0.6508444  3
   6151   6150   6154   6155     1  0.0000000  0.6508444  3
   6151   6150   6154   6156     1  0.0000000  0.6508444  3
   6151   6150   6157   6158     1  0.0000000  0.6508444  3
   6151   6150   6157   6159     1  0.0000000  0.6508444  3
   6151   6163   6175   6176     1  0.0000000  0.6508444  3
   6151   6163   6175   6177     1  0.0000000  0.6508444  3
   6152   6151   6150   6154     1  0.0000000  0.6508444  3
   6152   6151   6150   6157     1  0.0000000  0.6508444  3
   6152   6151   6150   6179     1  0.0000000  0.6508444  3
   6152   6151   6163   6175     1  0.0000000  0.6508444  3
   6152   6151   6163   6164     1  0.0000000  0.6508444  3
   6152   6151   6163   6165     1  0.0000000  0.6508444  3
   6153   6151   6150   6154     1  0.0000000  0.6508444  3
   6153   6151   6150   6157     1  0.0000000  0.6508444  3
   6153   6151   6150   6179     1  0.0000000  0.6508444  3
   6153   6151   6163   6175     1  0.0000000  0.6508444  3
   6153   6151   6163   6164     1  0.0000000  0.6508444  3
   6153   6151   6163   6165     1  0.0000000  0.6508444  3
   6154   6150   6157   6158     1  0.0000000  0.6508444  3
   6154   6150   6157   6159     1  0.0000000  0.6508444  3
   6154   6166   6172   6173     1  0.0000000  0.6508444  3
   6154   6166   6172   6174     1  0.0000000  0.6508444  3
   6155   6154   6150   6157     1  0.0000000  0.6508444  3
   6155   6154   6150   6179     1  0.0000000  0.6508444  3
   6155   6154   6166   6172     1  0.0000000  0.6508444  3
   6155   6154   6166   6167     1  0.0000000  0.6508444  3
   6155   6154   6166   6168     1  0.0000000  0.6508444  3
   6156   6154   6150   6157     1  0.0000000  0.6508444  3
   6156   6154   6150   6179     1  0.0000000  0.6508444  3
   6156   6154   6166   6172     1  0.0000000  0.6508444  3
   6156   6154   6166   6167     1  0.0000000  0.6508444  3
   6156   6154   6166   6168     1  0.0000000  0.6508444  3
   6157   6160   6169   6170     1  0.0000000  0.6508444  3
   6157   6160   6169   6171     1  0.0000000  0.6508444  3
   6158   6157   6150   6179     1  0.0000000  0.6508444  3
   6158   6157   6160   6169     1  0.0000000  0.6508444  3
   6158   6157   6160   6161     1  0.0000000  0.6508444  3
   6158   6157   6160   6162     1  0.0000000  0.6508444  3
   6159   6157   6150   6179     1  0.0000000  0.6508444  3
   6159   6157   6160   6169     1  0.0000000  0.6508444  3
   6159   6157   6160   6161     1  0.0000000  0.6508444  3
   6159   6157   6160   6162     1  0.0000000  0.6508444  3
   6160   6157   6150   6179     1  0.0000000  0.6508444  3
   6161   6160   6169   6178     1  0.0000000  1.0460000  1
   6161   6160   6169   6178     1  0.0000000  0.0000000  3
   6161   6160   6169   6170     1  0.0000000  0.6508444  3
   6161   6160   6169   6171     1  0.0000000  0.6508444  3
   6162   6160   6169   6178     1  0.0000000  1.0460000  1
   6162   6160   6169   6178     1  0.0000000  0.0000000  3
   6162   6160   6169   6170     1  0.0000000  0.6508444  3
   6162   6160   6169   6171     1  0.0000000  0.6508444  3
   6163   6151   6150   6179     1  0.0000000  0.6508444  3
   6164   6163   6175  12183     1  0.0000000  1.0460000  1
   6164   6163   6175  12183     1  0.0000000  0.0000000  3
   6164   6163   6175   6176     1  0.0000000  0.6508444  3
   6164   6163   6175   6177     1  0.0000000  0.6508444  3
   6165   6163   6175  12183     1  0.0000000  1.0460000  1
   6165   6163   6175  12183     1  0.0000000  0.0000000  3
   6165   6163   6175   6176     1  0.0000000  0.6508444  3
   6165   6163   6175   6177     1  0.0000000  0.6508444  3
   6166   6154   6150   6179     1  0.0000000  0.6508444  3
   6167   6166   6172  12160     1  0.0000000  1.0460000  1
   6167   6166   6172  12160     1  0.0000000  0.0000000  3
   6167   6166   6172   6173     1  0.0000000  0.6508444  3
   6167   6166   6172   6174     1  0.0000000  0.6508444  3
   6168   6166   6172  12160     1  0.0000000  1.0460000  1
   6168   6166   6172  12160     1  0.0000000  0.0000000  3
   6168   6166   6172   6173     1  0.0000000  0.6508444  3
   6168   6166   6172   6174     1  0.0000000  0.6508444  3
   6172  12160  12156  12159     1  0.0000000  1.6038667  3
   6173   6172  12160  12156     1  0.0000000  1.6038667  3
   6174   6172  12160  12156     1  0.0000000  1.6038667  3
   6175  12183  12179  12182     1  0.0000000  1.6038667  3
   6176   6175  12183  12179     1  0.0000000  1.6038667  3
   6177   6175  12183  12179     1  0.0000000  1.6038667  3
   6180   6181   6193   6194     1  0.0000000  0.6508444  3
   6180   6181   6193   6195     1  0.0000000  0.6508444  3
   6180   6184   6196   6197     1  0.0000000  0.6508444  3
   6180   6184   6196   6198     1  0.0000000  0.6508444  3
   6180   6187   6190   6191     1  0.0000000  0.6508444  3
   6180   6187   6190   6192     1  0.0000000  0.6508444  3
   6181   6180   6184   6185     1  0.0000000  0.6508444  3
   6181   6180   6184   6186     1  0.0000000  0.6508444  3
   6181   6180   6187   6188     1  0.0000000  0.6508444  3
   6181   6180   6187   6189     1  0.0000000  0.6508444  3
   6181   6193   6205   6206     1  0.0000000  0.6508444  3
   6181   6193   6205   6207     1  0.0000000  0.6508444  3
   6182   6181   6180   6184     1  0.0000000  0.6508444  3
   6182   6181   6180   6187     1  0.0000000  0.6508444  3
   6182   6181   6180   6209     1  0.0000000  0.6508444  3
   6182   6181   6193   6205     1  0.0000000  0.6508444  3
   6182   6181   6193   6194     1  0.0000000  0.6508444  3
   6182   6181   6193   6195     1  0.0000000  0.6508444  3
   6183   6181   6180   6184     1  0.0000000  0.6508444  3
   6183   6181   6180   6187     1  0.0000000  0.6508444  3
   6183   6181   6180   6209     1  0.0000000  0.6508444  3
   6183   6181   6193   6205     1  0.0000000  0.6508444  3
   6183   6181   6193   6194     1  0.0000000  0.6508444  3
   6183   6181   6193   6195     1  0.0000000  0.6508444  3
   6184   6180   6187   6188     1  0.0000000  0.6508444  3
   6184   6180   6187   6189     1  0.0000000  0.6508444  3
   6184   6196   6202   6203     1  0.0000000  0.6508444  3
   6184   6196   6202   6204     1  0.0000000  0.6508444  3
   6185   6184   6180   6187     1  0.0000000  0.6508444  3
   6185   6184   6180   6209     1  0.0000000  0.6508444  3
   6185   6184   6196   6202     1  0.0000000  0.6508444  3
   6185   6184   6196   6197     1  0.0000000  0.6508444  3
   6185   6184   6196   6198     1  0.0000000  0.6508444  3
   6186   6184   6180   6187     1  0.0000000  0.6508444  3
   6186   6184   6180   6209     1  0.0000000  0.6508444  3
   6186   6184   6196   6202     1  0.0000000  0.6508444  3
   6186   6184   6196   6197     1  0.0000000  0.6508444  3
   6186   6184   6196   6198     1  0.0000000  0.6508444  3
   6187   6190   6199   6200     1  0.0000000  0.6508444  3
   6187   6190   6199   6201     1  0.0000000  0.6508444  3
   6188   6187   6180   6209     1  0.0000000  0.6508444  3
   6188   6187   6190   6199     1  0.0000000  0.6508444  3
   6188   6187   6190   6191     1  0.0000000  0.6508444  3
   6188   6187   6190   6192     1  0.0000000  0.6508444  3
   6189   6187   6180   6209     1  0.0000000  0.6508444  3
   6189   6187   6190   6199     1  0.0000000  0.6508444  3
   6189   6187   6190   6191     1  0.0000000  0.6508444  3
   6189   6187   6190   6192     1  0.0000000  0.6508444  3
   6190   6187   6180   6209     1  0.0000000  0.6508444  3
   6191   6190   6199   6208     1  0.0000000  1.0460000  1
   6191   6190   6199   6208     1  0.0000000  0.0000000  3
   6191   6190   6199   6200     1  0.0000000  0.6508444  3
   6191   6190   6199   6201     1  0.0000000  0.6508444  3
   6192   6190   6199   6208     1  0.0000000  1.0460000  1
   6192   6190   6199   6208     1  0.0000000  0.0000000  3
   6192   6190   6199   6200     1  0.0000000  0.6508444  3
   6192   6190   6199   6201     1  0.0000000  0.6508444  3
   6193   6181   6180   6209     1  0.0000000  0.6508444  3
   6194   6193   6205  12229     1  0.0000000  1.0460000  1
   6194   6193   6205  12229     1  0.0000000  0.0000000  3
   6194   6193   6205   6206     1  0.0000000  0.6508444  3
   6194   6193   6205   6207     1  0.0000000  0.6508444  3
   6195   6193   6205  12229     1  0.0000000  1.0460000  1
   6195   6193   6205  12229     1  0.0000000  0.0000000  3
   6195   6193   6205   6206     1  0.0000000  0.6508444  3
   6195   6193   6205   6207     1  0.0000000  0.6508444  3
   6196   6184   6180   6209     1  0.0000000  0.6508444  3
   6197   6196   6202  12206     1  0.0000000  1.0460000  1
   6197   6196   6202  12206     1  0.0000000  0.0000000  3
   6197   6196   6202   6203     1  0.0000000  0.6508444  3
   6197   6196   6202   6204     1  0.0000000  0.6508444  3
   6198   6196   6202  12206     1  0.0000000  1.0460000  1
   6198   6196   6202  12206     1  0.0000000  0.0000000  3
   6198   6196   6202   6203     1  0.0000000  0.6508444  3
   6198   6196   6202   6204     1  0.0000000  0.6508444  3
   6202  12206  12202  12205     1  0.0000000  1.6038667  3
   6203   6202  12206  12202     1  0.0000000  1.6038667  3
   6204   6202  12206  12202     1  0.0000000  1.6038667  3
   6205  12229  12225  12228     1  0.0000000  1.6038667  3
   6206   6205  12229  12225     1  0.0000000  1.6038667  3
   6207   6205  12229  12225     1  0.0000000  1.6038667  3
   6210   6211   6223   6224     1  0.0000000  0.6508444  3
   6210   6211   6223   6225     1  0.0000000  0.6508444  3
   6210   6214   6226   6227     1  0.0000000  0.6508444  3
   6210   6214   6226   6228     1  0.0000000  0.6508444  3
   6210   6217   6220   6221     1  0.0000000  0.6508444  3
   6210   6217   6220   6222     1  0.0000000  0.6508444  3
   6211   6210   6214   6215     1  0.0000000  0.6508444  3
   6211   6210   6214   6216     1  0.0000000  0.6508444  3
   6211   6210   6217   6218     1  0.0000000  0.6508444  3
   6211   6210   6217   6219     1  0.0000000  0.6508444  3
   6211   6223   6235   6236     1  0.0000000  0.6508444  3
   6211   6223   6235   6237     1  0.0000000  0.6508444  3
   6212   6211   6210   6214     1  0.0000000  0.6508444  3
   6212   6211   6210   6217     1  0.0000000  0.6508444  3
   6212   6211   6210   6239     1  0.0000000  0.6508444  3
   6212   6211   6223   6235     1  0.0000000  0.6508444  3
   6212   6211   6223   6224     1  0.0000000  0.6508444  3
   6212   6211   6223   6225     1  0.0000000  0.6508444  3
   6213   6211   6210   6214     1  0.0000000  0.6508444  3
   6213   6211   6210   6217     1  0.0000000  0.6508444  3
   6213   6211   6210   6239     1  0.0000000  0.6508444  3
   6213   6211   6223   6235     1  0.0000000  0.6508444  3
   6213   6211   6223   6224     1  0.0000000  0.6508444  3
   6213   6211   6223   6225     1  0.0000000  0.6508444  3
   6214   6210   6217   6218     1  0.0000000  0.6508444  3
   6214   6210   6217   6219     1  0.0000000  0.6508444  3
   6214   6226   6232   6233     1  0.0000000  0.6508444  3
   6214   6226   6232   6234     1  0.0000000  0.6508444  3
   6215   6214   6210   6217     1  0.0000000  0.6508444  3
   6215   6214   6210   6239     1  0.0000000  0.6508444  3
   6215   6214   6226   6232     1  0.0000000  0.6508444  3
   6215   6214   6226   6227     1  0.0000000  0.6508444  3
   6215   6214   6226   6228     1  0.0000000  0.6508444  3
   6216   6214   6210   6217     1  0.0000000  0.6508444  3
   6216   6214   6210   6239     1  0.0000000  0.6508444  3
   6216   6214   6226   6232     1  0.0000000  0.6508444  3
   6216   6214   6226   6227     1  0.0000000  0.6508444  3
   6216   6214   6226   6228     1  0.0000000  0.6508444  3
   6217   6220   6229   6230     1  0.0000000  0.6508444  3
   6217   6220   6229   6231     1  0.0000000  0.6508444  3
   6218   6217   6210   6239     1  0.0000000  0.6508444  3
   6218   6217   6220   6229     1  0.0000000  0.6508444  3
   6218   6217   6220   6221     1  0.0000000  0.6508444  3
   6218   6217   6220   6222     1  0.0000000  0.6508444  3
   6219   6217   6210   6239     1  0.0000000  0.6508444  3
   6219   6217   6220   6229     1  0.0000000  0.6508444  3
   6219   6217   6220   6221     1  0.0000000  0.6508444  3
   6219   6217   6220   6222     1  0.0000000  0.6508444  3
   6220   6217   6210   6239     1  0.0000000  0.6508444  3
   6221   6220   6229   6238     1  0.0000000  1.0460000  1
   6221   6220   6229   6238     1  0.0000000  0.0000000  3
   6221   6220   6229   6230     1  0.0000000  0.6508444  3
   6221   6220   6229   6231     1  0.0000000  0.6508444  3
   6222   6220   6229   6238     1  0.0000000  1.0460000  1
   6222   6220   6229   6238     1  0.0000000  0.0000000  3
   6222   6220   6229   6230     1  0.0000000  0.6508444  3
   6222   6220   6229   6231     1  0.0000000  0.6508444  3
   6223   6211   6210   6239     1  0.0000000  0.6508444  3
   6224   6223   6235  12275     1  0.0000000  1.0460000  1
   6224   6223   6235  12275     1  0.0000000  0.0000000  3
   6224   6223   6235   6236     1  0.0000000  0.6508444  3
   6224   6223   6235   6237     1  0.0000000  0.6508444  3
   6225   6223   6235  12275     1  0.0000000  1.0460000  1
   6225   6223   6235  12275     1  0.0000000  0.0000000  3
   6225   6223   6235   6236     1  0.0000000  0.6508444  3
   6225   6223   6235   6237     1  0.0000000  0.6508444  3
   6226   6214   6210   6239     1  0.0000000  0.6508444  3
   6227   6226   6232  12252     1  0.0000000  1.0460000  1
   6227   6226   6232  12252     1  0.0000000  0.0000000  3
   6227   6226   6232   6233     1  0.0000000  0.6508444  3
   6227   6226   6232   6234     1  0.0000000  0.6508444  3
   6228   6226   6232  12252     1  0.0000000  1.0460000  1
   6228   6226   6232  12252     1  0.0000000  0.0000000  3
   6228   6226   6232   6233     1  0.0000000  0.6508444  3
   6228   6226   6232   6234     1  0.0000000  0.6508444  3
   6232  12252  12248  12251     1  0.0000000  1.6038667  3
   6233   6232  12252  12248     1  0.0000000  1.6038667  3
   6234   6232  12252  12248     1  0.0000000  1.6038667  3
   6235  12275  12271  12274     1  0.0000000  1.6038667  3
   6236   6235  12275  12271     1  0.0000000  1.6038667  3
   6237   6235  12275  12271     1  0.0000000  1.6038667  3
   6240   6241   6253   6254     1  0.0000000  0.6508444  3
   6240   6241   6253   6255     1  0.0000000  0.6508444  3
   6240   6244   6256   6257     1  0.0000000  0.6508444  3
   6240   6244   6256   6258     1  0.0000000  0.6508444  3
   6240   6247   6250   6251     1  0.0000000  0.6508444  3
   6240   6247   6250   6252     1  0.0000000  0.6508444  3
   6241   6240   6244   6245     1  0.0000000  0.6508444  3
   6241   6240   6244   6246     1  0.0000000  0.6508444  3
   6241   6240   6247   6248     1  0.0000000  0.6508444  3
   6241   6240   6247   6249     1  0.0000000  0.6508444  3
   6241   6253   6265   6266     1  0.0000000  0.6508444  3
   6241   6253   6265   6267     1  0.0000000  0.6508444  3
   6242   6241   6240   6244     1  0.0000000  0.6508444  3
   6242   6241   6240   6247     1  0.0000000  0.6508444  3
   6242   6241   6240   6269     1  0.0000000  0.6508444  3
   6242   6241   6253   6265     1  0.0000000  0.6508444  3
   6242   6241   6253   6254     1  0.0000000  0.6508444  3
   6242   6241   6253   6255     1  0.0000000  0.6508444  3
   6243   6241   6240   6244     1  0.0000000  0.6508444  3
   6243   6241   6240   6247     1  0.0000000  0.6508444  3
   6243   6241   6240   6269     1  0.0000000  0.6508444  3
   6243   6241   6253   6265     1  0.0000000  0.6508444  3
   6243   6241   6253   6254     1  0.0000000  0.6508444  3
   6243   6241   6253   6255     1  0.0000000  0.6508444  3
   6244   6240   6247   6248     1  0.0000000  0.6508444  3
   6244   6240   6247   6249     1  0.0000000  0.6508444  3
   6244   6256   6262   6263     1  0.0000000  0.6508444  3
   6244   6256   6262   6264     1  0.0000000  0.6508444  3
   6245   6244   6240   6247     1  0.0000000  0.6508444  3
   6245   6244   6240   6269     1  0.0000000  0.6508444  3
   6245   6244   6256   6262     1  0.0000000  0.6508444  3
   6245   6244   6256   6257     1  0.0000000  0.6508444  3
   6245   6244   6256   6258     1  0.0000000  0.6508444  3
   6246   6244   6240   6247     1  0.0000000  0.6508444  3
   6246   6244   6240   6269     1  0.0000000  0.6508444  3
   6246   6244   6256   6262     1  0.0000000  0.6508444  3
   6246   6244   6256   6257     1  0.0000000  0.6508444  3
   6246   6244   6256   6258     1  0.0000000  0.6508444  3
   6247   6250   6259   6260     1  0.0000000  0.6508444  3
   6247   6250   6259   6261     1  0.0000000  0.6508444  3
   6248   6247   6240   6269     1  0.0000000  0.6508444  3
   6248   6247   6250   6259     1  0.0000000  0.6508444  3
   6248   6247   6250   6251     1  0.0000000  0.6508444  3
   6248   6247   6250   6252     1  0.0000000  0.6508444  3
   6249   6247   6240   6269     1  0.0000000  0.6508444  3
   6249   6247   6250   6259     1  0.0000000  0.6508444  3
   6249   6247   6250   6251     1  0.0000000  0.6508444  3
   6249   6247   6250   6252     1  0.0000000  0.6508444  3
   6250   6247   6240   6269     1  0.0000000  0.6508444  3
   6251   6250   6259   6268     1  0.0000000  1.0460000  1
   6251   6250   6259   6268     1  0.0000000  0.0000000  3
   6251   6250   6259   6260     1  0.0000000  0.6508444  3
   6251   6250   6259   6261     1  0.0000000  0.6508444  3
   6252   6250   6259   6268     1  0.0000000  1.0460000  1
   6252   6250   6259   6268     1  0.0000000  0.0000000  3
   6252   6250   6259   6260     1  0.0000000  0.6508444  3
   6252   6250   6259   6261     1  0.0000000  0.6508444  3
   6253   6241   6240   6269     1  0.0000000  0.6508444  3
   6254   6253   6265  12321     1  0.0000000  1.0460000  1
   6254   6253   6265  12321     1  0.0000000  0.0000000  3
   6254   6253   6265   6266     1  0.0000000  0.6508444  3
   6254   6253   6265   6267     1  0.0000000  0.6508444  3
   6255   6253   6265  12321     1  0.0000000  1.0460000  1
   6255   6253   6265  12321     1  0.0000000  0.0000000  3
   6255   6253   6265   6266     1  0.0000000  0.6508444  3
   6255   6253   6265   6267     1  0.0000000  0.6508444  3
   6256   6244   6240   6269     1  0.0000000  0.6508444  3
   6257   6256   6262  12298     1  0.0000000  1.0460000  1
   6257   6256   6262  12298     1  0.0000000  0.0000000  3
   6257   6256   6262   6263     1  0.0000000  0.6508444  3
   6257   6256   6262   6264     1  0.0000000  0.6508444  3
   6258   6256   6262  12298     1  0.0000000  1.0460000  1
   6258   6256   6262  12298     1  0.0000000  0.0000000  3
   6258   6256   6262   6263     1  0.0000000  0.6508444  3
   6258   6256   6262   6264     1  0.0000000  0.6508444  3
   6262  12298  12294  12297     1  0.0000000  1.6038667  3
   6263   6262  12298  12294     1  0.0000000  1.6038667  3
   6264   6262  12298  12294     1  0.0000000  1.6038667  3
   6265  12321  12317  12320     1  0.0000000  1.6038667  3
   6266   6265  12321  12317     1  0.0000000  1.6038667  3
   6267   6265  12321  12317     1  0.0000000  1.6038667  3
   6270   6271   6283   6284     1  0.0000000  0.6508444  3
   6270   6271   6283   6285     1  0.0000000  0.6508444  3
   6270   6274   6286   6287     1  0.0000000  0.6508444  3
   6270   6274   6286   6288     1  0.0000000  0.6508444  3
   6270   6277   6280   6281     1  0.0000000  0.6508444  3
   6270   6277   6280   6282     1  0.0000000  0.6508444  3
   6271   6270   6274   6275     1  0.0000000  0.6508444  3
   6271   6270   6274   6276     1  0.0000000  0.6508444  3
   6271   6270   6277   6278     1  0.0000000  0.6508444  3
   6271   6270   6277   6279     1  0.0000000  0.6508444  3
   6271   6283   6295   6296     1  0.0000000  0.6508444  3
   6271   6283   6295   6297     1  0.0000000  0.6508444  3
   6272   6271   6270   6274     1  0.0000000  0.6508444  3
   6272   6271   6270   6277     1  0.0000000  0.6508444  3
   6272   6271   6270   6299     1  0.0000000  0.6508444  3
   6272   6271   6283   6295     1  0.0000000  0.6508444  3
   6272   6271   6283   6284     1  0.0000000  0.6508444  3
   6272   6271   6283   6285     1  0.0000000  0.6508444  3
   6273   6271   6270   6274     1  0.0000000  0.6508444  3
   6273   6271   6270   6277     1  0.0000000  0.6508444  3
   6273   6271   6270   6299     1  0.0000000  0.6508444  3
   6273   6271   6283   6295     1  0.0000000  0.6508444  3
   6273   6271   6283   6284     1  0.0000000  0.6508444  3
   6273   6271   6283   6285     1  0.0000000  0.6508444  3
   6274   6270   6277   6278     1  0.0000000  0.6508444  3
   6274   6270   6277   6279     1  0.0000000  0.6508444  3
   6274   6286   6292   6293     1  0.0000000  0.6508444  3
   6274   6286   6292   6294     1  0.0000000  0.6508444  3
   6275   6274   6270   6277     1  0.0000000  0.6508444  3
   6275   6274   6270   6299     1  0.0000000  0.6508444  3
   6275   6274   6286   6292     1  0.0000000  0.6508444  3
   6275   6274   6286   6287     1  0.0000000  0.6508444  3
   6275   6274   6286   6288     1  0.0000000  0.6508444  3
   6276   6274   6270   6277     1  0.0000000  0.6508444  3
   6276   6274   6270   6299     1  0.0000000  0.6508444  3
   6276   6274   6286   6292     1  0.0000000  0.6508444  3
   6276   6274   6286   6287     1  0.0000000  0.6508444  3
   6276   6274   6286   6288     1  0.0000000  0.6508444  3
   6277   6280   6289   6290     1  0.0000000  0.6508444  3
   6277   6280   6289   6291     1  0.0000000  0.6508444  3
   6278   6277   6270   6299     1  0.0000000  0.6508444  3
   6278   6277   6280   6289     1  0.0000000  0.6508444  3
   6278   6277   6280   6281     1  0.0000000  0.6508444  3
   6278   6277   6280   6282     1  0.0000000  0.6508444  3
   6279   6277   6270   6299     1  0.0000000  0.6508444  3
   6279   6277   6280   6289     1  0.0000000  0.6508444  3
   6279   6277   6280   6281     1  0.0000000  0.6508444  3
   6279   6277   6280   6282     1  0.0000000  0.6508444  3
   6280   6277   6270   6299     1  0.0000000  0.6508444  3
   6281   6280   6289   6298     1  0.0000000  1.0460000  1
   6281   6280   6289   6298     1  0.0000000  0.0000000  3
   6281   6280   6289   6290     1  0.0000000  0.6508444  3
   6281   6280   6289   6291     1  0.0000000  0.6508444  3
   6282   6280   6289   6298     1  0.0000000  1.0460000  1
   6282   6280   6289   6298     1  0.0000000  0.0000000  3
   6282   6280   6289   6290     1  0.0000000  0.6508444  3
   6282   6280   6289   6291     1  0.0000000  0.6508444  3
   6283   6271   6270   6299     1  0.0000000  0.6508444  3
   6284   6283   6295  12367     1  0.0000000  1.0460000  1
   6284   6283   6295  12367     1  0.0000000  0.0000000  3
   6284   6283   6295   6296     1  0.0000000  0.6508444  3
   6284   6283   6295   6297     1  0.0000000  0.6508444  3
   6285   6283   6295  12367     1  0.0000000  1.0460000  1
   6285   6283   6295  12367     1  0.0000000  0.0000000  3
   6285   6283   6295   6296     1  0.0000000  0.6508444  3
   6285   6283   6295   6297     1  0.0000000  0.6508444  3
   6286   6274   6270   6299     1  0.0000000  0.6508444  3
   6287   6286   6292  12344     1  0.0000000  1.0460000  1
   6287   6286   6292  12344     1  0.0000000  0.0000000  3
   6287   6286   6292   6293     1  0.0000000  0.6508444  3
   6287   6286   6292   6294     1  0.0000000  0.6508444  3
   6288   6286   6292  12344     1  0.0000000  1.0460000  1
   6288   6286   6292  12344     1  0.0000000  0.0000000  3
   6288   6286   6292   6293     1  0.0000000  0.6508444  3
   6288   6286   6292   6294     1  0.0000000  0.6508444  3
   6292  12344  12340  12343     1  0.0000000  1.6038667  3
   6293   6292  12344  12340     1  0.0000000  1.6038667  3
   6294   6292  12344  12340     1  0.0000000  1.6038667  3
   6295  12367  12363  12366     1  0.0000000  1.6038667  3
   6296   6295  12367  12363     1  0.0000000  1.6038667  3
   6297   6295  12367  12363     1  0.0000000  1.6038667  3
   6300   6301   6313   6314     1  0.0000000  0.6508444  3
   6300   6301   6313   6315     1  0.0000000  0.6508444  3
   6300   6304   6316   6317     1  0.0000000  0.6508444  3
   6300   6304   6316   6318     1  0.0000000  0.6508444  3
   6300   6307   6310   6311     1  0.0000000  0.6508444  3
   6300   6307   6310   6312     1  0.0000000  0.6508444  3
   6301   6300   6304   6305     1  0.0000000  0.6508444  3
   6301   6300   6304   6306     1  0.0000000  0.6508444  3
   6301   6300   6307   6308     1  0.0000000  0.6508444  3
   6301   6300   6307   6309     1  0.0000000  0.6508444  3
   6301   6313   6325   6326     1  0.0000000  0.6508444  3
   6301   6313   6325   6327     1  0.0000000  0.6508444  3
   6302   6301   6300   6304     1  0.0000000  0.6508444  3
   6302   6301   6300   6307     1  0.0000000  0.6508444  3
   6302   6301   6300   6329     1  0.0000000  0.6508444  3
   6302   6301   6313   6325     1  0.0000000  0.6508444  3
   6302   6301   6313   6314     1  0.0000000  0.6508444  3
   6302   6301   6313   6315     1  0.0000000  0.6508444  3
   6303   6301   6300   6304     1  0.0000000  0.6508444  3
   6303   6301   6300   6307     1  0.0000000  0.6508444  3
   6303   6301   6300   6329     1  0.0000000  0.6508444  3
   6303   6301   6313   6325     1  0.0000000  0.6508444  3
   6303   6301   6313   6314     1  0.0000000  0.6508444  3
   6303   6301   6313   6315     1  0.0000000  0.6508444  3
   6304   6300   6307   6308     1  0.0000000  0.6508444  3
   6304   6300   6307   6309     1  0.0000000  0.6508444  3
   6304   6316   6322   6323     1  0.0000000  0.6508444  3
   6304   6316   6322   6324     1  0.0000000  0.6508444  3
   6305   6304   6300   6307     1  0.0000000  0.6508444  3
   6305   6304   6300   6329     1  0.0000000  0.6508444  3
   6305   6304   6316   6322     1  0.0000000  0.6508444  3
   6305   6304   6316   6317     1  0.0000000  0.6508444  3
   6305   6304   6316   6318     1  0.0000000  0.6508444  3
   6306   6304   6300   6307     1  0.0000000  0.6508444  3
   6306   6304   6300   6329     1  0.0000000  0.6508444  3
   6306   6304   6316   6322     1  0.0000000  0.6508444  3
   6306   6304   6316   6317     1  0.0000000  0.6508444  3
   6306   6304   6316   6318     1  0.0000000  0.6508444  3
   6307   6310   6319   6320     1  0.0000000  0.6508444  3
   6307   6310   6319   6321     1  0.0000000  0.6508444  3
   6308   6307   6300   6329     1  0.0000000  0.6508444  3
   6308   6307   6310   6319     1  0.0000000  0.6508444  3
   6308   6307   6310   6311     1  0.0000000  0.6508444  3
   6308   6307   6310   6312     1  0.0000000  0.6508444  3
   6309   6307   6300   6329     1  0.0000000  0.6508444  3
   6309   6307   6310   6319     1  0.0000000  0.6508444  3
   6309   6307   6310   6311     1  0.0000000  0.6508444  3
   6309   6307   6310   6312     1  0.0000000  0.6508444  3
   6310   6307   6300   6329     1  0.0000000  0.6508444  3
   6311   6310   6319   6328     1  0.0000000  1.0460000  1
   6311   6310   6319   6328     1  0.0000000  0.0000000  3
   6311   6310   6319   6320     1  0.0000000  0.6508444  3
   6311   6310   6319   6321     1  0.0000000  0.6508444  3
   6312   6310   6319   6328     1  0.0000000  1.0460000  1
   6312   6310   6319   6328     1  0.0000000  0.0000000  3
   6312   6310   6319   6320     1  0.0000000  0.6508444  3
   6312   6310   6319   6321     1  0.0000000  0.6508444  3
   6313   6301   6300   6329     1  0.0000000  0.6508444  3
   6314   6313   6325  12413     1  0.0000000  1.0460000  1
   6314   6313   6325  12413     1  0.0000000  0.0000000  3
   6314   6313   6325   6326     1  0.0000000  0.6508444  3
   6314   6313   6325   6327     1  0.0000000  0.6508444  3
   6315   6313   6325  12413     1  0.0000000  1.0460000  1
   6315   6313   6325  12413     1  0.0000000  0.0000000  3
   6315   6313   6325   6326     1  0.0000000  0.6508444  3
   6315   6313   6325   6327     1  0.0000000  0.6508444  3
   6316   6304   6300   6329     1  0.0000000  0.6508444  3
   6317   6316   6322  12390     1  0.0000000  1.0460000  1
   6317   6316   6322  12390     1  0.0000000  0.0000000  3
   6317   6316   6322   6323     1  0.0000000  0.6508444  3
   6317   6316   6322   6324     1  0.0000000  0.6508444  3
   6318   6316   6322  12390     1  0.0000000  1.0460000  1
   6318   6316   6322  12390     1  0.0000000  0.0000000  3
   6318   6316   6322   6323     1  0.0000000  0.6508444  3
   6318   6316   6322   6324     1  0.0000000  0.6508444  3
   6322  12390  12386  12389     1  0.0000000  1.6038667  3
   6323   6322  12390  12386     1  0.0000000  1.6038667  3
   6324   6322  12390  12386     1  0.0000000  1.6038667  3
   6325  12413  12409  12412     1  0.0000000  1.6038667  3
   6326   6325  12413  12409     1  0.0000000  1.6038667  3
   6327   6325  12413  12409     1  0.0000000  1.6038667  3
   6330   6331   6343   6344     1  0.0000000  0.6508444  3
   6330   6331   6343   6345     1  0.0000000  0.6508444  3
   6330   6334   6346   6347     1  0.0000000  0.6508444  3
   6330   6334   6346   6348     1  0.0000000  0.6508444  3
   6330   6337   6340   6341     1  0.0000000  0.6508444  3
   6330   6337   6340   6342     1  0.0000000  0.6508444  3
   6331   6330   6334   6335     1  0.0000000  0.6508444  3
   6331   6330   6334   6336     1  0.0000000  0.6508444  3
   6331   6330   6337   6338     1  0.0000000  0.6508444  3
   6331   6330   6337   6339     1  0.0000000  0.6508444  3
   6331   6343   6355   6356     1  0.0000000  0.6508444  3
   6331   6343   6355   6357     1  0.0000000  0.6508444  3
   6332   6331   6330   6334     1  0.0000000  0.6508444  3
   6332   6331   6330   6337     1  0.0000000  0.6508444  3
   6332   6331   6330   6359     1  0.0000000  0.6508444  3
   6332   6331   6343   6355     1  0.0000000  0.6508444  3
   6332   6331   6343   6344     1  0.0000000  0.6508444  3
   6332   6331   6343   6345     1  0.0000000  0.6508444  3
   6333   6331   6330   6334     1  0.0000000  0.6508444  3
   6333   6331   6330   6337     1  0.0000000  0.6508444  3
   6333   6331   6330   6359     1  0.0000000  0.6508444  3
   6333   6331   6343   6355     1  0.0000000  0.6508444  3
   6333   6331   6343   6344     1  0.0000000  0.6508444  3
   6333   6331   6343   6345     1  0.0000000  0.6508444  3
   6334   6330   6337   6338     1  0.0000000  0.6508444  3
   6334   6330   6337   6339     1  0.0000000  0.6508444  3
   6334   6346   6352   6353     1  0.0000000  0.6508444  3
   6334   6346   6352   6354     1  0.0000000  0.6508444  3
   6335   6334   6330   6337     1  0.0000000  0.6508444  3
   6335   6334   6330   6359     1  0.0000000  0.6508444  3
   6335   6334   6346   6352     1  0.0000000  0.6508444  3
   6335   6334   6346   6347     1  0.0000000  0.6508444  3
   6335   6334   6346   6348     1  0.0000000  0.6508444  3
   6336   6334   6330   6337     1  0.0000000  0.6508444  3
   6336   6334   6330   6359     1  0.0000000  0.6508444  3
   6336   6334   6346   6352     1  0.0000000  0.6508444  3
   6336   6334   6346   6347     1  0.0000000  0.6508444  3
   6336   6334   6346   6348     1  0.0000000  0.6508444  3
   6337   6340   6349   6350     1  0.0000000  0.6508444  3
   6337   6340   6349   6351     1  0.0000000  0.6508444  3
   6338   6337   6330   6359     1  0.0000000  0.6508444  3
   6338   6337   6340   6349     1  0.0000000  0.6508444  3
   6338   6337   6340   6341     1  0.0000000  0.6508444  3
   6338   6337   6340   6342     1  0.0000000  0.6508444  3
   6339   6337   6330   6359     1  0.0000000  0.6508444  3
   6339   6337   6340   6349     1  0.0000000  0.6508444  3
   6339   6337   6340   6341     1  0.0000000  0.6508444  3
   6339   6337   6340   6342     1  0.0000000  0.6508444  3
   6340   6337   6330   6359     1  0.0000000  0.6508444  3
   6341   6340   6349   6358     1  0.0000000  1.0460000  1
   6341   6340   6349   6358     1  0.0000000  0.0000000  3
   6341   6340   6349   6350     1  0.0000000  0.6508444  3
   6341   6340   6349   6351     1  0.0000000  0.6508444  3
   6342   6340   6349   6358     1  0.0000000  1.0460000  1
   6342   6340   6349   6358     1  0.0000000  0.0000000  3
   6342   6340   6349   6350     1  0.0000000  0.6508444  3
   6342   6340   6349   6351     1  0.0000000  0.6508444  3
   6343   6331   6330   6359     1  0.0000000  0.6508444  3
   6344   6343   6355  12459     1  0.0000000  1.0460000  1
   6344   6343   6355  12459     1  0.0000000  0.0000000  3
   6344   6343   6355   6356     1  0.0000000  0.6508444  3
   6344   6343   6355   6357     1  0.0000000  0.6508444  3
   6345   6343   6355  12459     1  0.0000000  1.0460000  1
   6345   6343   6355  12459     1  0.0000000  0.0000000  3
   6345   6343   6355   6356     1  0.0000000  0.6508444  3
   6345   6343   6355   6357     1  0.0000000  0.6508444  3
   6346   6334   6330   6359     1  0.0000000  0.6508444  3
   6347   6346   6352  12436     1  0.0000000  1.0460000  1
   6347   6346   6352  12436     1  0.0000000  0.0000000  3
   6347   6346   6352   6353     1  0.0000000  0.6508444  3
   6347   6346   6352   6354     1  0.0000000  0.6508444  3
   6348   6346   6352  12436     1  0.0000000  1.0460000  1
   6348   6346   6352  12436     1  0.0000000  0.0000000  3
   6348   6346   6352   6353     1  0.0000000  0.6508444  3
   6348   6346   6352   6354     1  0.0000000  0.6508444  3
   6352  12436  12432  12435     1  0.0000000  1.6038667  3
   6353   6352  12436  12432     1  0.0000000  1.6038667  3
   6354   6352  12436  12432     1  0.0000000  1.6038667  3
   6355  12459  12455  12458     1  0.0000000  1.6038667  3
   6356   6355  12459  12455     1  0.0000000  1.6038667  3
   6357   6355  12459  12455     1  0.0000000  1.6038667  3
   6360   6361   6373   6374     1  0.0000000  0.6508444  3
   6360   6361   6373   6375     1  0.0000000  0.6508444  3
   6360   6364   6376   6377     1  0.0000000  0.6508444  3
   6360   6364   6376   6378     1  0.0000000  0.6508444  3
   6360   6367   6370   6371     1  0.0000000  0.6508444  3
   6360   6367   6370   6372     1  0.0000000  0.6508444  3
   6361   6360   6364   6365     1  0.0000000  0.6508444  3
   6361   6360   6364   6366     1  0.0000000  0.6508444  3
   6361   6360   6367   6368     1  0.0000000  0.6508444  3
   6361   6360   6367   6369     1  0.0000000  0.6508444  3
   6361   6373   6385   6386     1  0.0000000  0.6508444  3
   6361   6373   6385   6387     1  0.0000000  0.6508444  3
   6362   6361   6360   6364     1  0.0000000  0.6508444  3
   6362   6361   6360   6367     1  0.0000000  0.6508444  3
   6362   6361   6360   6389     1  0.0000000  0.6508444  3
   6362   6361   6373   6385     1  0.0000000  0.6508444  3
   6362   6361   6373   6374     1  0.0000000  0.6508444  3
   6362   6361   6373   6375     1  0.0000000  0.6508444  3
   6363   6361   6360   6364     1  0.0000000  0.6508444  3
   6363   6361   6360   6367     1  0.0000000  0.6508444  3
   6363   6361   6360   6389     1  0.0000000  0.6508444  3
   6363   6361   6373   6385     1  0.0000000  0.6508444  3
   6363   6361   6373   6374     1  0.0000000  0.6508444  3
   6363   6361   6373   6375     1  0.0000000  0.6508444  3
   6364   6360   6367   6368     1  0.0000000  0.6508444  3
   6364   6360   6367   6369     1  0.0000000  0.6508444  3
   6364   6376   6382   6383     1  0.0000000  0.6508444  3
   6364   6376   6382   6384     1  0.0000000  0.6508444  3
   6365   6364   6360   6367     1  0.0000000  0.6508444  3
   6365   6364   6360   6389     1  0.0000000  0.6508444  3
   6365   6364   6376   6382     1  0.0000000  0.6508444  3
   6365   6364   6376   6377     1  0.0000000  0.6508444  3
   6365   6364   6376   6378     1  0.0000000  0.6508444  3
   6366   6364   6360   6367     1  0.0000000  0.6508444  3
   6366   6364   6360   6389     1  0.0000000  0.6508444  3
   6366   6364   6376   6382     1  0.0000000  0.6508444  3
   6366   6364   6376   6377     1  0.0000000  0.6508444  3
   6366   6364   6376   6378     1  0.0000000  0.6508444  3
   6367   6370   6379   6380     1  0.0000000  0.6508444  3
   6367   6370   6379   6381     1  0.0000000  0.6508444  3
   6368   6367   6360   6389     1  0.0000000  0.6508444  3
   6368   6367   6370   6379     1  0.0000000  0.6508444  3
   6368   6367   6370   6371     1  0.0000000  0.6508444  3
   6368   6367   6370   6372     1  0.0000000  0.6508444  3
   6369   6367   6360   6389     1  0.0000000  0.6508444  3
   6369   6367   6370   6379     1  0.0000000  0.6508444  3
   6369   6367   6370   6371     1  0.0000000  0.6508444  3
   6369   6367   6370   6372     1  0.0000000  0.6508444  3
   6370   6367   6360   6389     1  0.0000000  0.6508444  3
   6371   6370   6379   6388     1  0.0000000  1.0460000  1
   6371   6370   6379   6388     1  0.0000000  0.0000000  3
   6371   6370   6379   6380     1  0.0000000  0.6508444  3
   6371   6370   6379   6381     1  0.0000000  0.6508444  3
   6372   6370   6379   6388     1  0.0000000  1.0460000  1
   6372   6370   6379   6388     1  0.0000000  0.0000000  3
   6372   6370   6379   6380     1  0.0000000  0.6508444  3
   6372   6370   6379   6381     1  0.0000000  0.6508444  3
   6373   6361   6360   6389     1  0.0000000  0.6508444  3
   6374   6373   6385  12505     1  0.0000000  1.0460000  1
   6374   6373   6385  12505     1  0.0000000  0.0000000  3
   6374   6373   6385   6386     1  0.0000000  0.6508444  3
   6374   6373   6385   6387     1  0.0000000  0.6508444  3
   6375   6373   6385  12505     1  0.0000000  1.0460000  1
   6375   6373   6385  12505     1  0.0000000  0.0000000  3
   6375   6373   6385   6386     1  0.0000000  0.6508444  3
   6375   6373   6385   6387     1  0.0000000  0.6508444  3
   6376   6364   6360   6389     1  0.0000000  0.6508444  3
   6377   6376   6382  12482     1  0.0000000  1.0460000  1
   6377   6376   6382  12482     1  0.0000000  0.0000000  3
   6377   6376   6382   6383     1  0.0000000  0.6508444  3
   6377   6376   6382   6384     1  0.0000000  0.6508444  3
   6378   6376   6382  12482     1  0.0000000  1.0460000  1
   6378   6376   6382  12482     1  0.0000000  0.0000000  3
   6378   6376   6382   6383     1  0.0000000  0.6508444  3
   6378   6376   6382   6384     1  0.0000000  0.6508444  3
   6382  12482  12478  12481     1  0.0000000  1.6038667  3
   6383   6382  12482  12478     1  0.0000000  1.6038667  3
   6384   6382  12482  12478     1  0.0000000  1.6038667  3
   6385  12505  12501  12504     1  0.0000000  1.6038667  3
   6386   6385  12505  12501     1  0.0000000  1.6038667  3
   6387   6385  12505  12501     1  0.0000000  1.6038667  3
   6390   6391   6403   6404     1  0.0000000  0.6508444  3
   6390   6391   6403   6405     1  0.0000000  0.6508444  3
   6390   6394   6406   6407     1  0.0000000  0.6508444  3
   6390   6394   6406   6408     1  0.0000000  0.6508444  3
   6390   6397   6400   6401     1  0.0000000  0.6508444  3
   6390   6397   6400   6402     1  0.0000000  0.6508444  3
   6391   6390   6394   6395     1  0.0000000  0.6508444  3
   6391   6390   6394   6396     1  0.0000000  0.6508444  3
   6391   6390   6397   6398     1  0.0000000  0.6508444  3
   6391   6390   6397   6399     1  0.0000000  0.6508444  3
   6391   6403   6415   6416     1  0.0000000  0.6508444  3
   6391   6403   6415   6417     1  0.0000000  0.6508444  3
   6392   6391   6390   6394     1  0.0000000  0.6508444  3
   6392   6391   6390   6397     1  0.0000000  0.6508444  3
   6392   6391   6390   6419     1  0.0000000  0.6508444  3
   6392   6391   6403   6415     1  0.0000000  0.6508444  3
   6392   6391   6403   6404     1  0.0000000  0.6508444  3
   6392   6391   6403   6405     1  0.0000000  0.6508444  3
   6393   6391   6390   6394     1  0.0000000  0.6508444  3
   6393   6391   6390   6397     1  0.0000000  0.6508444  3
   6393   6391   6390   6419     1  0.0000000  0.6508444  3
   6393   6391   6403   6415     1  0.0000000  0.6508444  3
   6393   6391   6403   6404     1  0.0000000  0.6508444  3
   6393   6391   6403   6405     1  0.0000000  0.6508444  3
   6394   6390   6397   6398     1  0.0000000  0.6508444  3
   6394   6390   6397   6399     1  0.0000000  0.6508444  3
   6394   6406   6412   6413     1  0.0000000  0.6508444  3
   6394   6406   6412   6414     1  0.0000000  0.6508444  3
   6395   6394   6390   6397     1  0.0000000  0.6508444  3
   6395   6394   6390   6419     1  0.0000000  0.6508444  3
   6395   6394   6406   6412     1  0.0000000  0.6508444  3
   6395   6394   6406   6407     1  0.0000000  0.6508444  3
   6395   6394   6406   6408     1  0.0000000  0.6508444  3
   6396   6394   6390   6397     1  0.0000000  0.6508444  3
   6396   6394   6390   6419     1  0.0000000  0.6508444  3
   6396   6394   6406   6412     1  0.0000000  0.6508444  3
   6396   6394   6406   6407     1  0.0000000  0.6508444  3
   6396   6394   6406   6408     1  0.0000000  0.6508444  3
   6397   6400   6409   6410     1  0.0000000  0.6508444  3
   6397   6400   6409   6411     1  0.0000000  0.6508444  3
   6398   6397   6390   6419     1  0.0000000  0.6508444  3
   6398   6397   6400   6409     1  0.0000000  0.6508444  3
   6398   6397   6400   6401     1  0.0000000  0.6508444  3
   6398   6397   6400   6402     1  0.0000000  0.6508444  3
   6399   6397   6390   6419     1  0.0000000  0.6508444  3
   6399   6397   6400   6409     1  0.0000000  0.6508444  3
   6399   6397   6400   6401     1  0.0000000  0.6508444  3
   6399   6397   6400   6402     1  0.0000000  0.6508444  3
   6400   6397   6390   6419     1  0.0000000  0.6508444  3
   6401   6400   6409   6418     1  0.0000000  1.0460000  1
   6401   6400   6409   6418     1  0.0000000  0.0000000  3
   6401   6400   6409   6410     1  0.0000000  0.6508444  3
   6401   6400   6409   6411     1  0.0000000  0.6508444  3
   6402   6400   6409   6418     1  0.0000000  1.0460000  1
   6402   6400   6409   6418     1  0.0000000  0.0000000  3
   6402   6400   6409   6410     1  0.0000000  0.6508444  3
   6402   6400   6409   6411     1  0.0000000  0.6508444  3
   6403   6391   6390   6419     1  0.0000000  0.6508444  3
   6404   6403   6415  12551     1  0.0000000  1.0460000  1
   6404   6403   6415  12551     1  0.0000000  0.0000000  3
   6404   6403   6415   6416     1  0.0000000  0.6508444  3
   6404   6403   6415   6417     1  0.0000000  0.6508444  3
   6405   6403   6415  12551     1  0.0000000  1.0460000  1
   6405   6403   6415  12551     1  0.0000000  0.0000000  3
   6405   6403   6415   6416     1  0.0000000  0.6508444  3
   6405   6403   6415   6417     1  0.0000000  0.6508444  3
   6406   6394   6390   6419     1  0.0000000  0.6508444  3
   6407   6406   6412  12528     1  0.0000000  1.0460000  1
   6407   6406   6412  12528     1  0.0000000  0.0000000  3
   6407   6406   6412   6413     1  0.0000000  0.6508444  3
   6407   6406   6412   6414     1  0.0000000  0.6508444  3
   6408   6406   6412  12528     1  0.0000000  1.0460000  1
   6408   6406   6412  12528     1  0.0000000  0.0000000  3
   6408   6406   6412   6413     1  0.0000000  0.6508444  3
   6408   6406   6412   6414     1  0.0000000  0.6508444  3
   6412  12528  12524  12527     1  0.0000000  1.6038667  3
   6413   6412  12528  12524     1  0.0000000  1.6038667  3
   6414   6412  12528  12524     1  0.0000000  1.6038667  3
   6415  12551  12547  12550     1  0.0000000  1.6038667  3
   6416   6415  12551  12547     1  0.0000000  1.6038667  3
   6417   6415  12551  12547     1  0.0000000  1.6038667  3
   6420   6421   6433   6434     1  0.0000000  0.6508444  3
   6420   6421   6433   6435     1  0.0000000  0.6508444  3
   6420   6424   6436   6437     1  0.0000000  0.6508444  3
   6420   6424   6436   6438     1  0.0000000  0.6508444  3
   6420   6427   6430   6431     1  0.0000000  0.6508444  3
   6420   6427   6430   6432     1  0.0000000  0.6508444  3
   6421   6420   6424   6425     1  0.0000000  0.6508444  3
   6421   6420   6424   6426     1  0.0000000  0.6508444  3
   6421   6420   6427   6428     1  0.0000000  0.6508444  3
   6421   6420   6427   6429     1  0.0000000  0.6508444  3
   6421   6433   6445   6446     1  0.0000000  0.6508444  3
   6421   6433   6445   6447     1  0.0000000  0.6508444  3
   6422   6421   6420   6424     1  0.0000000  0.6508444  3
   6422   6421   6420   6427     1  0.0000000  0.6508444  3
   6422   6421   6420   6449     1  0.0000000  0.6508444  3
   6422   6421   6433   6445     1  0.0000000  0.6508444  3
   6422   6421   6433   6434     1  0.0000000  0.6508444  3
   6422   6421   6433   6435     1  0.0000000  0.6508444  3
   6423   6421   6420   6424     1  0.0000000  0.6508444  3
   6423   6421   6420   6427     1  0.0000000  0.6508444  3
   6423   6421   6420   6449     1  0.0000000  0.6508444  3
   6423   6421   6433   6445     1  0.0000000  0.6508444  3
   6423   6421   6433   6434     1  0.0000000  0.6508444  3
   6423   6421   6433   6435     1  0.0000000  0.6508444  3
   6424   6420   6427   6428     1  0.0000000  0.6508444  3
   6424   6420   6427   6429     1  0.0000000  0.6508444  3
   6424   6436   6442   6443     1  0.0000000  0.6508444  3
   6424   6436   6442   6444     1  0.0000000  0.6508444  3
   6425   6424   6420   6427     1  0.0000000  0.6508444  3
   6425   6424   6420   6449     1  0.0000000  0.6508444  3
   6425   6424   6436   6442     1  0.0000000  0.6508444  3
   6425   6424   6436   6437     1  0.0000000  0.6508444  3
   6425   6424   6436   6438     1  0.0000000  0.6508444  3
   6426   6424   6420   6427     1  0.0000000  0.6508444  3
   6426   6424   6420   6449     1  0.0000000  0.6508444  3
   6426   6424   6436   6442     1  0.0000000  0.6508444  3
   6426   6424   6436   6437     1  0.0000000  0.6508444  3
   6426   6424   6436   6438     1  0.0000000  0.6508444  3
   6427   6430   6439   6440     1  0.0000000  0.6508444  3
   6427   6430   6439   6441     1  0.0000000  0.6508444  3
   6428   6427   6420   6449     1  0.0000000  0.6508444  3
   6428   6427   6430   6439     1  0.0000000  0.6508444  3
   6428   6427   6430   6431     1  0.0000000  0.6508444  3
   6428   6427   6430   6432     1  0.0000000  0.6508444  3
   6429   6427   6420   6449     1  0.0000000  0.6508444  3
   6429   6427   6430   6439     1  0.0000000  0.6508444  3
   6429   6427   6430   6431     1  0.0000000  0.6508444  3
   6429   6427   6430   6432     1  0.0000000  0.6508444  3
   6430   6427   6420   6449     1  0.0000000  0.6508444  3
   6431   6430   6439   6448     1  0.0000000  1.0460000  1
   6431   6430   6439   6448     1  0.0000000  0.0000000  3
   6431   6430   6439   6440     1  0.0000000  0.6508444  3
   6431   6430   6439   6441     1  0.0000000  0.6508444  3
   6432   6430   6439   6448     1  0.0000000  1.0460000  1
   6432   6430   6439   6448     1  0.0000000  0.0000000  3
   6432   6430   6439   6440     1  0.0000000  0.6508444  3
   6432   6430   6439   6441     1  0.0000000  0.6508444  3
   6433   6421   6420   6449     1  0.0000000  0.6508444  3
   6434   6433   6445  12597     1  0.0000000  1.0460000  1
   6434   6433   6445  12597     1  0.0000000  0.0000000  3
   6434   6433   6445   6446     1  0.0000000  0.6508444  3
   6434   6433   6445   6447     1  0.0000000  0.6508444  3
   6435   6433   6445  12597     1  0.0000000  1.0460000  1
   6435   6433   6445  12597     1  0.0000000  0.0000000  3
   6435   6433   6445   6446     1  0.0000000  0.6508444  3
   6435   6433   6445   6447     1  0.0000000  0.6508444  3
   6436   6424   6420   6449     1  0.0000000  0.6508444  3
   6437   6436   6442  12574     1  0.0000000  1.0460000  1
   6437   6436   6442  12574     1  0.0000000  0.0000000  3
   6437   6436   6442   6443     1  0.0000000  0.6508444  3
   6437   6436   6442   6444     1  0.0000000  0.6508444  3
   6438   6436   6442  12574     1  0.0000000  1.0460000  1
   6438   6436   6442  12574     1  0.0000000  0.0000000  3
   6438   6436   6442   6443     1  0.0000000  0.6508444  3
   6438   6436   6442   6444     1  0.0000000  0.6508444  3
   6442  12574  12570  12573     1  0.0000000  1.6038667  3
   6443   6442  12574  12570     1  0.0000000  1.6038667  3
   6444   6442  12574  12570     1  0.0000000  1.6038667  3
   6445  12597  12593  12596     1  0.0000000  1.6038667  3
   6446   6445  12597  12593     1  0.0000000  1.6038667  3
   6447   6445  12597  12593     1  0.0000000  1.6038667  3
   6450   6451   6463   6464     1  0.0000000  0.6508444  3
   6450   6451   6463   6465     1  0.0000000  0.6508444  3
   6450   6454   6466   6467     1  0.0000000  0.6508444  3
   6450   6454   6466   6468     1  0.0000000  0.6508444  3
   6450   6457   6460   6461     1  0.0000000  0.6508444  3
   6450   6457   6460   6462     1  0.0000000  0.6508444  3
   6451   6450   6454   6455     1  0.0000000  0.6508444  3
   6451   6450   6454   6456     1  0.0000000  0.6508444  3
   6451   6450   6457   6458     1  0.0000000  0.6508444  3
   6451   6450   6457   6459     1  0.0000000  0.6508444  3
   6451   6463   6475   6476     1  0.0000000  0.6508444  3
   6451   6463   6475   6477     1  0.0000000  0.6508444  3
   6452   6451   6450   6454     1  0.0000000  0.6508444  3
   6452   6451   6450   6457     1  0.0000000  0.6508444  3
   6452   6451   6450   6479     1  0.0000000  0.6508444  3
   6452   6451   6463   6475     1  0.0000000  0.6508444  3
   6452   6451   6463   6464     1  0.0000000  0.6508444  3
   6452   6451   6463   6465     1  0.0000000  0.6508444  3
   6453   6451   6450   6454     1  0.0000000  0.6508444  3
   6453   6451   6450   6457     1  0.0000000  0.6508444  3
   6453   6451   6450   6479     1  0.0000000  0.6508444  3
   6453   6451   6463   6475     1  0.0000000  0.6508444  3
   6453   6451   6463   6464     1  0.0000000  0.6508444  3
   6453   6451   6463   6465     1  0.0000000  0.6508444  3
   6454   6450   6457   6458     1  0.0000000  0.6508444  3
   6454   6450   6457   6459     1  0.0000000  0.6508444  3
   6454   6466   6472   6473     1  0.0000000  0.6508444  3
   6454   6466   6472   6474     1  0.0000000  0.6508444  3
   6455   6454   6450   6457     1  0.0000000  0.6508444  3
   6455   6454   6450   6479     1  0.0000000  0.6508444  3
   6455   6454   6466   6472     1  0.0000000  0.6508444  3
   6455   6454   6466   6467     1  0.0000000  0.6508444  3
   6455   6454   6466   6468     1  0.0000000  0.6508444  3
   6456   6454   6450   6457     1  0.0000000  0.6508444  3
   6456   6454   6450   6479     1  0.0000000  0.6508444  3
   6456   6454   6466   6472     1  0.0000000  0.6508444  3
   6456   6454   6466   6467     1  0.0000000  0.6508444  3
   6456   6454   6466   6468     1  0.0000000  0.6508444  3
   6457   6460   6469   6470     1  0.0000000  0.6508444  3
   6457   6460   6469   6471     1  0.0000000  0.6508444  3
   6458   6457   6450   6479     1  0.0000000  0.6508444  3
   6458   6457   6460   6469     1  0.0000000  0.6508444  3
   6458   6457   6460   6461     1  0.0000000  0.6508444  3
   6458   6457   6460   6462     1  0.0000000  0.6508444  3
   6459   6457   6450   6479     1  0.0000000  0.6508444  3
   6459   6457   6460   6469     1  0.0000000  0.6508444  3
   6459   6457   6460   6461     1  0.0000000  0.6508444  3
   6459   6457   6460   6462     1  0.0000000  0.6508444  3
   6460   6457   6450   6479     1  0.0000000  0.6508444  3
   6461   6460   6469   6478     1  0.0000000  1.0460000  1
   6461   6460   6469   6478     1  0.0000000  0.0000000  3
   6461   6460   6469   6470     1  0.0000000  0.6508444  3
   6461   6460   6469   6471     1  0.0000000  0.6508444  3
   6462   6460   6469   6478     1  0.0000000  1.0460000  1
   6462   6460   6469   6478     1  0.0000000  0.0000000  3
   6462   6460   6469   6470     1  0.0000000  0.6508444  3
   6462   6460   6469   6471     1  0.0000000  0.6508444  3
   6463   6451   6450   6479     1  0.0000000  0.6508444  3
   6464   6463   6475  12643     1  0.0000000  1.0460000  1
   6464   6463   6475  12643     1  0.0000000  0.0000000  3
   6464   6463   6475   6476     1  0.0000000  0.6508444  3
   6464   6463   6475   6477     1  0.0000000  0.6508444  3
   6465   6463   6475  12643     1  0.0000000  1.0460000  1
   6465   6463   6475  12643     1  0.0000000  0.0000000  3
   6465   6463   6475   6476     1  0.0000000  0.6508444  3
   6465   6463   6475   6477     1  0.0000000  0.6508444  3
   6466   6454   6450   6479     1  0.0000000  0.6508444  3
   6467   6466   6472  12620     1  0.0000000  1.0460000  1
   6467   6466   6472  12620     1  0.0000000  0.0000000  3
   6467   6466   6472   6473     1  0.0000000  0.6508444  3
   6467   6466   6472   6474     1  0.0000000  0.6508444  3
   6468   6466   6472  12620     1  0.0000000  1.0460000  1
   6468   6466   6472  12620     1  0.0000000  0.0000000  3
   6468   6466   6472   6473     1  0.0000000  0.6508444  3
   6468   6466   6472   6474     1  0.0000000  0.6508444  3
   6472  12620  12616  12619     1  0.0000000  1.6038667  3
   6473   6472  12620  12616     1  0.0000000  1.6038667  3
   6474   6472  12620  12616     1  0.0000000  1.6038667  3
   6475  12643  12639  12642     1  0.0000000  1.6038667  3
   6476   6475  12643  12639     1  0.0000000  1.6038667  3
   6477   6475  12643  12639     1  0.0000000  1.6038667  3
   6480   6481   6493   6494     1  0.0000000  0.6508444  3
   6480   6481   6493   6495     1  0.0000000  0.6508444  3
   6480   6484   6496   6497     1  0.0000000  0.6508444  3
   6480   6484   6496   6498     1  0.0000000  0.6508444  3
   6480   6487   6490   6491     1  0.0000000  0.6508444  3
   6480   6487   6490   6492     1  0.0000000  0.6508444  3
   6481   6480   6484   6485     1  0.0000000  0.6508444  3
   6481   6480   6484   6486     1  0.0000000  0.6508444  3
   6481   6480   6487   6488     1  0.0000000  0.6508444  3
   6481   6480   6487   6489     1  0.0000000  0.6508444  3
   6481   6493   6505   6506     1  0.0000000  0.6508444  3
   6481   6493   6505   6507     1  0.0000000  0.6508444  3
   6482   6481   6480   6484     1  0.0000000  0.6508444  3
   6482   6481   6480   6487     1  0.0000000  0.6508444  3
   6482   6481   6480   6509     1  0.0000000  0.6508444  3
   6482   6481   6493   6505     1  0.0000000  0.6508444  3
   6482   6481   6493   6494     1  0.0000000  0.6508444  3
   6482   6481   6493   6495     1  0.0000000  0.6508444  3
   6483   6481   6480   6484     1  0.0000000  0.6508444  3
   6483   6481   6480   6487     1  0.0000000  0.6508444  3
   6483   6481   6480   6509     1  0.0000000  0.6508444  3
   6483   6481   6493   6505     1  0.0000000  0.6508444  3
   6483   6481   6493   6494     1  0.0000000  0.6508444  3
   6483   6481   6493   6495     1  0.0000000  0.6508444  3
   6484   6480   6487   6488     1  0.0000000  0.6508444  3
   6484   6480   6487   6489     1  0.0000000  0.6508444  3
   6484   6496   6502   6503     1  0.0000000  0.6508444  3
   6484   6496   6502   6504     1  0.0000000  0.6508444  3
   6485   6484   6480   6487     1  0.0000000  0.6508444  3
   6485   6484   6480   6509     1  0.0000000  0.6508444  3
   6485   6484   6496   6502     1  0.0000000  0.6508444  3
   6485   6484   6496   6497     1  0.0000000  0.6508444  3
   6485   6484   6496   6498     1  0.0000000  0.6508444  3
   6486   6484   6480   6487     1  0.0000000  0.6508444  3
   6486   6484   6480   6509     1  0.0000000  0.6508444  3
   6486   6484   6496   6502     1  0.0000000  0.6508444  3
   6486   6484   6496   6497     1  0.0000000  0.6508444  3
   6486   6484   6496   6498     1  0.0000000  0.6508444  3
   6487   6490   6499   6500     1  0.0000000  0.6508444  3
   6487   6490   6499   6501     1  0.0000000  0.6508444  3
   6488   6487   6480   6509     1  0.0000000  0.6508444  3
   6488   6487   6490   6499     1  0.0000000  0.6508444  3
   6488   6487   6490   6491     1  0.0000000  0.6508444  3
   6488   6487   6490   6492     1  0.0000000  0.6508444  3
   6489   6487   6480   6509     1  0.0000000  0.6508444  3
   6489   6487   6490   6499     1  0.0000000  0.6508444  3
   6489   6487   6490   6491     1  0.0000000  0.6508444  3
   6489   6487   6490   6492     1  0.0000000  0.6508444  3
   6490   6487   6480   6509     1  0.0000000  0.6508444  3
   6491   6490   6499   6508     1  0.0000000  1.0460000  1
   6491   6490   6499   6508     1  0.0000000  0.0000000  3
   6491   6490   6499   6500     1  0.0000000  0.6508444  3
   6491   6490   6499   6501     1  0.0000000  0.6508444  3
   6492   6490   6499   6508     1  0.0000000  1.0460000  1
   6492   6490   6499   6508     1  0.0000000  0.0000000  3
   6492   6490   6499   6500     1  0.0000000  0.6508444  3
   6492   6490   6499   6501     1  0.0000000  0.6508444  3
   6493   6481   6480   6509     1  0.0000000  0.6508444  3
   6494   6493   6505  12689     1  0.0000000  1.0460000  1
   6494   6493   6505  12689     1  0.0000000  0.0000000  3
   6494   6493   6505   6506     1  0.0000000  0.6508444  3
   6494   6493   6505   6507     1  0.0000000  0.6508444  3
   6495   6493   6505  12689     1  0.0000000  1.0460000  1
   6495   6493   6505  12689     1  0.0000000  0.0000000  3
   6495   6493   6505   6506     1  0.0000000  0.6508444  3
   6495   6493   6505   6507     1  0.0000000  0.6508444  3
   6496   6484   6480   6509     1  0.0000000  0.6508444  3
   6497   6496   6502  12666     1  0.0000000  1.0460000  1
   6497   6496   6502  12666     1  0.0000000  0.0000000  3
   6497   6496   6502   6503     1  0.0000000  0.6508444  3
   6497   6496   6502   6504     1  0.0000000  0.6508444  3
   6498   6496   6502  12666     1  0.0000000  1.0460000  1
   6498   6496   6502  12666     1  0.0000000  0.0000000  3
   6498   6496   6502   6503     1  0.0000000  0.6508444  3
   6498   6496   6502   6504     1  0.0000000  0.6508444  3
   6502  12666  12662  12665     1  0.0000000  1.6038667  3
   6503   6502  12666  12662     1  0.0000000  1.6038667  3
   6504   6502  12666  12662     1  0.0000000  1.6038667  3
   6505  12689  12685  12688     1  0.0000000  1.6038667  3
   6506   6505  12689  12685     1  0.0000000  1.6038667  3
   6507   6505  12689  12685     1  0.0000000  1.6038667  3
   6510   6511   6523   6524     1  0.0000000  0.6508444  3
   6510   6511   6523   6525     1  0.0000000  0.6508444  3
   6510   6514   6526   6527     1  0.0000000  0.6508444  3
   6510   6514   6526   6528     1  0.0000000  0.6508444  3
   6510   6517   6520   6521     1  0.0000000  0.6508444  3
   6510   6517   6520   6522     1  0.0000000  0.6508444  3
   6511   6510   6514   6515     1  0.0000000  0.6508444  3
   6511   6510   6514   6516     1  0.0000000  0.6508444  3
   6511   6510   6517   6518     1  0.0000000  0.6508444  3
   6511   6510   6517   6519     1  0.0000000  0.6508444  3
   6511   6523   6535   6536     1  0.0000000  0.6508444  3
   6511   6523   6535   6537     1  0.0000000  0.6508444  3
   6512   6511   6510   6514     1  0.0000000  0.6508444  3
   6512   6511   6510   6517     1  0.0000000  0.6508444  3
   6512   6511   6510   6539     1  0.0000000  0.6508444  3
   6512   6511   6523   6535     1  0.0000000  0.6508444  3
   6512   6511   6523   6524     1  0.0000000  0.6508444  3
   6512   6511   6523   6525     1  0.0000000  0.6508444  3
   6513   6511   6510   6514     1  0.0000000  0.6508444  3
   6513   6511   6510   6517     1  0.0000000  0.6508444  3
   6513   6511   6510   6539     1  0.0000000  0.6508444  3
   6513   6511   6523   6535     1  0.0000000  0.6508444  3
   6513   6511   6523   6524     1  0.0000000  0.6508444  3
   6513   6511   6523   6525     1  0.0000000  0.6508444  3
   6514   6510   6517   6518     1  0.0000000  0.6508444  3
   6514   6510   6517   6519     1  0.0000000  0.6508444  3
   6514   6526   6532   6533     1  0.0000000  0.6508444  3
   6514   6526   6532   6534     1  0.0000000  0.6508444  3
   6515   6514   6510   6517     1  0.0000000  0.6508444  3
   6515   6514   6510   6539     1  0.0000000  0.6508444  3
   6515   6514   6526   6532     1  0.0000000  0.6508444  3
   6515   6514   6526   6527     1  0.0000000  0.6508444  3
   6515   6514   6526   6528     1  0.0000000  0.6508444  3
   6516   6514   6510   6517     1  0.0000000  0.6508444  3
   6516   6514   6510   6539     1  0.0000000  0.6508444  3
   6516   6514   6526   6532     1  0.0000000  0.6508444  3
   6516   6514   6526   6527     1  0.0000000  0.6508444  3
   6516   6514   6526   6528     1  0.0000000  0.6508444  3
   6517   6520   6529   6530     1  0.0000000  0.6508444  3
   6517   6520   6529   6531     1  0.0000000  0.6508444  3
   6518   6517   6510   6539     1  0.0000000  0.6508444  3
   6518   6517   6520   6529     1  0.0000000  0.6508444  3
   6518   6517   6520   6521     1  0.0000000  0.6508444  3
   6518   6517   6520   6522     1  0.0000000  0.6508444  3
   6519   6517   6510   6539     1  0.0000000  0.6508444  3
   6519   6517   6520   6529     1  0.0000000  0.6508444  3
   6519   6517   6520   6521     1  0.0000000  0.6508444  3
   6519   6517   6520   6522     1  0.0000000  0.6508444  3
   6520   6517   6510   6539     1  0.0000000  0.6508444  3
   6521   6520   6529   6538     1  0.0000000  1.0460000  1
   6521   6520   6529   6538     1  0.0000000  0.0000000  3
   6521   6520   6529   6530     1  0.0000000  0.6508444  3
   6521   6520   6529   6531     1  0.0000000  0.6508444  3
   6522   6520   6529   6538     1  0.0000000  1.0460000  1
   6522   6520   6529   6538     1  0.0000000  0.0000000  3
   6522   6520   6529   6530     1  0.0000000  0.6508444  3
   6522   6520   6529   6531     1  0.0000000  0.6508444  3
   6523   6511   6510   6539     1  0.0000000  0.6508444  3
   6524   6523   6535  12735     1  0.0000000  1.0460000  1
   6524   6523   6535  12735     1  0.0000000  0.0000000  3
   6524   6523   6535   6536     1  0.0000000  0.6508444  3
   6524   6523   6535   6537     1  0.0000000  0.6508444  3
   6525   6523   6535  12735     1  0.0000000  1.0460000  1
   6525   6523   6535  12735     1  0.0000000  0.0000000  3
   6525   6523   6535   6536     1  0.0000000  0.6508444  3
   6525   6523   6535   6537     1  0.0000000  0.6508444  3
   6526   6514   6510   6539     1  0.0000000  0.6508444  3
   6527   6526   6532  12712     1  0.0000000  1.0460000  1
   6527   6526   6532  12712     1  0.0000000  0.0000000  3
   6527   6526   6532   6533     1  0.0000000  0.6508444  3
   6527   6526   6532   6534     1  0.0000000  0.6508444  3
   6528   6526   6532  12712     1  0.0000000  1.0460000  1
   6528   6526   6532  12712     1  0.0000000  0.0000000  3
   6528   6526   6532   6533     1  0.0000000  0.6508444  3
   6528   6526   6532   6534     1  0.0000000  0.6508444  3
   6532  12712  12708  12711     1  0.0000000  1.6038667  3
   6533   6532  12712  12708     1  0.0000000  1.6038667  3
   6534   6532  12712  12708     1  0.0000000  1.6038667  3
   6535  12735  12731  12734     1  0.0000000  1.6038667  3
   6536   6535  12735  12731     1  0.0000000  1.6038667  3
   6537   6535  12735  12731     1  0.0000000  1.6038667  3
   6540   6541   6553   6554     1  0.0000000  0.6508444  3
   6540   6541   6553   6555     1  0.0000000  0.6508444  3
   6540   6544   6556   6557     1  0.0000000  0.6508444  3
   6540   6544   6556   6558     1  0.0000000  0.6508444  3
   6540   6547   6550   6551     1  0.0000000  0.6508444  3
   6540   6547   6550   6552     1  0.0000000  0.6508444  3
   6541   6540   6544   6545     1  0.0000000  0.6508444  3
   6541   6540   6544   6546     1  0.0000000  0.6508444  3
   6541   6540   6547   6548     1  0.0000000  0.6508444  3
   6541   6540   6547   6549     1  0.0000000  0.6508444  3
   6541   6553   6565   6566     1  0.0000000  0.6508444  3
   6541   6553   6565   6567     1  0.0000000  0.6508444  3
   6542   6541   6540   6544     1  0.0000000  0.6508444  3
   6542   6541   6540   6547     1  0.0000000  0.6508444  3
   6542   6541   6540   6569     1  0.0000000  0.6508444  3
   6542   6541   6553   6565     1  0.0000000  0.6508444  3
   6542   6541   6553   6554     1  0.0000000  0.6508444  3
   6542   6541   6553   6555     1  0.0000000  0.6508444  3
   6543   6541   6540   6544     1  0.0000000  0.6508444  3
   6543   6541   6540   6547     1  0.0000000  0.6508444  3
   6543   6541   6540   6569     1  0.0000000  0.6508444  3
   6543   6541   6553   6565     1  0.0000000  0.6508444  3
   6543   6541   6553   6554     1  0.0000000  0.6508444  3
   6543   6541   6553   6555     1  0.0000000  0.6508444  3
   6544   6540   6547   6548     1  0.0000000  0.6508444  3
   6544   6540   6547   6549     1  0.0000000  0.6508444  3
   6544   6556   6562   6563     1  0.0000000  0.6508444  3
   6544   6556   6562   6564     1  0.0000000  0.6508444  3
   6545   6544   6540   6547     1  0.0000000  0.6508444  3
   6545   6544   6540   6569     1  0.0000000  0.6508444  3
   6545   6544   6556   6562     1  0.0000000  0.6508444  3
   6545   6544   6556   6557     1  0.0000000  0.6508444  3
   6545   6544   6556   6558     1  0.0000000  0.6508444  3
   6546   6544   6540   6547     1  0.0000000  0.6508444  3
   6546   6544   6540   6569     1  0.0000000  0.6508444  3
   6546   6544   6556   6562     1  0.0000000  0.6508444  3
   6546   6544   6556   6557     1  0.0000000  0.6508444  3
   6546   6544   6556   6558     1  0.0000000  0.6508444  3
   6547   6550   6559   6560     1  0.0000000  0.6508444  3
   6547   6550   6559   6561     1  0.0000000  0.6508444  3
   6548   6547   6540   6569     1  0.0000000  0.6508444  3
   6548   6547   6550   6559     1  0.0000000  0.6508444  3
   6548   6547   6550   6551     1  0.0000000  0.6508444  3
   6548   6547   6550   6552     1  0.0000000  0.6508444  3
   6549   6547   6540   6569     1  0.0000000  0.6508444  3
   6549   6547   6550   6559     1  0.0000000  0.6508444  3
   6549   6547   6550   6551     1  0.0000000  0.6508444  3
   6549   6547   6550   6552     1  0.0000000  0.6508444  3
   6550   6547   6540   6569     1  0.0000000  0.6508444  3
   6551   6550   6559   6568     1  0.0000000  1.0460000  1
   6551   6550   6559   6568     1  0.0000000  0.0000000  3
   6551   6550   6559   6560     1  0.0000000  0.6508444  3
   6551   6550   6559   6561     1  0.0000000  0.6508444  3
   6552   6550   6559   6568     1  0.0000000  1.0460000  1
   6552   6550   6559   6568     1  0.0000000  0.0000000  3
   6552   6550   6559   6560     1  0.0000000  0.6508444  3
   6552   6550   6559   6561     1  0.0000000  0.6508444  3
   6553   6541   6540   6569     1  0.0000000  0.6508444  3
   6554   6553   6565  12781     1  0.0000000  1.0460000  1
   6554   6553   6565  12781     1  0.0000000  0.0000000  3
   6554   6553   6565   6566     1  0.0000000  0.6508444  3
   6554   6553   6565   6567     1  0.0000000  0.6508444  3
   6555   6553   6565  12781     1  0.0000000  1.0460000  1
   6555   6553   6565  12781     1  0.0000000  0.0000000  3
   6555   6553   6565   6566     1  0.0000000  0.6508444  3
   6555   6553   6565   6567     1  0.0000000  0.6508444  3
   6556   6544   6540   6569     1  0.0000000  0.6508444  3
   6557   6556   6562  12758     1  0.0000000  1.0460000  1
   6557   6556   6562  12758     1  0.0000000  0.0000000  3
   6557   6556   6562   6563     1  0.0000000  0.6508444  3
   6557   6556   6562   6564     1  0.0000000  0.6508444  3
   6558   6556   6562  12758     1  0.0000000  1.0460000  1
   6558   6556   6562  12758     1  0.0000000  0.0000000  3
   6558   6556   6562   6563     1  0.0000000  0.6508444  3
   6558   6556   6562   6564     1  0.0000000  0.6508444  3
   6562  12758  12754  12757     1  0.0000000  1.6038667  3
   6563   6562  12758  12754     1  0.0000000  1.6038667  3
   6564   6562  12758  12754     1  0.0000000  1.6038667  3
   6565  12781  12777  12780     1  0.0000000  1.6038667  3
   6566   6565  12781  12777     1  0.0000000  1.6038667  3
   6567   6565  12781  12777     1  0.0000000  1.6038667  3
   6570   6571   6583   6584     1  0.0000000  0.6508444  3
   6570   6571   6583   6585     1  0.0000000  0.6508444  3
   6570   6574   6586   6587     1  0.0000000  0.6508444  3
   6570   6574   6586   6588     1  0.0000000  0.6508444  3
   6570   6577   6580   6581     1  0.0000000  0.6508444  3
   6570   6577   6580   6582     1  0.0000000  0.6508444  3
   6571   6570   6574   6575     1  0.0000000  0.6508444  3
   6571   6570   6574   6576     1  0.0000000  0.6508444  3
   6571   6570   6577   6578     1  0.0000000  0.6508444  3
   6571   6570   6577   6579     1  0.0000000  0.6508444  3
   6571   6583   6595   6596     1  0.0000000  0.6508444  3
   6571   6583   6595   6597     1  0.0000000  0.6508444  3
   6572   6571   6570   6574     1  0.0000000  0.6508444  3
   6572   6571   6570   6577     1  0.0000000  0.6508444  3
   6572   6571   6570   6599     1  0.0000000  0.6508444  3
   6572   6571   6583   6595     1  0.0000000  0.6508444  3
   6572   6571   6583   6584     1  0.0000000  0.6508444  3
   6572   6571   6583   6585     1  0.0000000  0.6508444  3
   6573   6571   6570   6574     1  0.0000000  0.6508444  3
   6573   6571   6570   6577     1  0.0000000  0.6508444  3
   6573   6571   6570   6599     1  0.0000000  0.6508444  3
   6573   6571   6583   6595     1  0.0000000  0.6508444  3
   6573   6571   6583   6584     1  0.0000000  0.6508444  3
   6573   6571   6583   6585     1  0.0000000  0.6508444  3
   6574   6570   6577   6578     1  0.0000000  0.6508444  3
   6574   6570   6577   6579     1  0.0000000  0.6508444  3
   6574   6586   6592   6593     1  0.0000000  0.6508444  3
   6574   6586   6592   6594     1  0.0000000  0.6508444  3
   6575   6574   6570   6577     1  0.0000000  0.6508444  3
   6575   6574   6570   6599     1  0.0000000  0.6508444  3
   6575   6574   6586   6592     1  0.0000000  0.6508444  3
   6575   6574   6586   6587     1  0.0000000  0.6508444  3
   6575   6574   6586   6588     1  0.0000000  0.6508444  3
   6576   6574   6570   6577     1  0.0000000  0.6508444  3
   6576   6574   6570   6599     1  0.0000000  0.6508444  3
   6576   6574   6586   6592     1  0.0000000  0.6508444  3
   6576   6574   6586   6587     1  0.0000000  0.6508444  3
   6576   6574   6586   6588     1  0.0000000  0.6508444  3
   6577   6580   6589   6590     1  0.0000000  0.6508444  3
   6577   6580   6589   6591     1  0.0000000  0.6508444  3
   6578   6577   6570   6599     1  0.0000000  0.6508444  3
   6578   6577   6580   6589     1  0.0000000  0.6508444  3
   6578   6577   6580   6581     1  0.0000000  0.6508444  3
   6578   6577   6580   6582     1  0.0000000  0.6508444  3
   6579   6577   6570   6599     1  0.0000000  0.6508444  3
   6579   6577   6580   6589     1  0.0000000  0.6508444  3
   6579   6577   6580   6581     1  0.0000000  0.6508444  3
   6579   6577   6580   6582     1  0.0000000  0.6508444  3
   6580   6577   6570   6599     1  0.0000000  0.6508444  3
   6581   6580   6589   6598     1  0.0000000  1.0460000  1
   6581   6580   6589   6598     1  0.0000000  0.0000000  3
   6581   6580   6589   6590     1  0.0000000  0.6508444  3
   6581   6580   6589   6591     1  0.0000000  0.6508444  3
   6582   6580   6589   6598     1  0.0000000  1.0460000  1
   6582   6580   6589   6598     1  0.0000000  0.0000000  3
   6582   6580   6589   6590     1  0.0000000  0.6508444  3
   6582   6580   6589   6591     1  0.0000000  0.6508444  3
   6583   6571   6570   6599     1  0.0000000  0.6508444  3
   6584   6583   6595  12827     1  0.0000000  1.0460000  1
   6584   6583   6595  12827     1  0.0000000  0.0000000  3
   6584   6583   6595   6596     1  0.0000000  0.6508444  3
   6584   6583   6595   6597     1  0.0000000  0.6508444  3
   6585   6583   6595  12827     1  0.0000000  1.0460000  1
   6585   6583   6595  12827     1  0.0000000  0.0000000  3
   6585   6583   6595   6596     1  0.0000000  0.6508444  3
   6585   6583   6595   6597     1  0.0000000  0.6508444  3
   6586   6574   6570   6599     1  0.0000000  0.6508444  3
   6587   6586   6592  12804     1  0.0000000  1.0460000  1
   6587   6586   6592  12804     1  0.0000000  0.0000000  3
   6587   6586   6592   6593     1  0.0000000  0.6508444  3
   6587   6586   6592   6594     1  0.0000000  0.6508444  3
   6588   6586   6592  12804     1  0.0000000  1.0460000  1
   6588   6586   6592  12804     1  0.0000000  0.0000000  3
   6588   6586   6592   6593     1  0.0000000  0.6508444  3
   6588   6586   6592   6594     1  0.0000000  0.6508444  3
   6592  12804  12800  12803     1  0.0000000  1.6038667  3
   6593   6592  12804  12800     1  0.0000000  1.6038667  3
   6594   6592  12804  12800     1  0.0000000  1.6038667  3
   6595  12827  12823  12826     1  0.0000000  1.6038667  3
   6596   6595  12827  12823     1  0.0000000  1.6038667  3
   6597   6595  12827  12823     1  0.0000000  1.6038667  3
   6600   6601   6613   6614     1  0.0000000  0.6508444  3
   6600   6601   6613   6615     1  0.0000000  0.6508444  3
   6600   6604   6616   6617     1  0.0000000  0.6508444  3
   6600   6604   6616   6618     1  0.0000000  0.6508444  3
   6600   6607   6610   6611     1  0.0000000  0.6508444  3
   6600   6607   6610   6612     1  0.0000000  0.6508444  3
   6601   6600   6604   6605     1  0.0000000  0.6508444  3
   6601   6600   6604   6606     1  0.0000000  0.6508444  3
   6601   6600   6607   6608     1  0.0000000  0.6508444  3
   6601   6600   6607   6609     1  0.0000000  0.6508444  3
   6601   6613   6625   6626     1  0.0000000  0.6508444  3
   6601   6613   6625   6627     1  0.0000000  0.6508444  3
   6602   6601   6600   6604     1  0.0000000  0.6508444  3
   6602   6601   6600   6607     1  0.0000000  0.6508444  3
   6602   6601   6600   6629     1  0.0000000  0.6508444  3
   6602   6601   6613   6625     1  0.0000000  0.6508444  3
   6602   6601   6613   6614     1  0.0000000  0.6508444  3
   6602   6601   6613   6615     1  0.0000000  0.6508444  3
   6603   6601   6600   6604     1  0.0000000  0.6508444  3
   6603   6601   6600   6607     1  0.0000000  0.6508444  3
   6603   6601   6600   6629     1  0.0000000  0.6508444  3
   6603   6601   6613   6625     1  0.0000000  0.6508444  3
   6603   6601   6613   6614     1  0.0000000  0.6508444  3
   6603   6601   6613   6615     1  0.0000000  0.6508444  3
   6604   6600   6607   6608     1  0.0000000  0.6508444  3
   6604   6600   6607   6609     1  0.0000000  0.6508444  3
   6604   6616   6622   6623     1  0.0000000  0.6508444  3
   6604   6616   6622   6624     1  0.0000000  0.6508444  3
   6605   6604   6600   6607     1  0.0000000  0.6508444  3
   6605   6604   6600   6629     1  0.0000000  0.6508444  3
   6605   6604   6616   6622     1  0.0000000  0.6508444  3
   6605   6604   6616   6617     1  0.0000000  0.6508444  3
   6605   6604   6616   6618     1  0.0000000  0.6508444  3
   6606   6604   6600   6607     1  0.0000000  0.6508444  3
   6606   6604   6600   6629     1  0.0000000  0.6508444  3
   6606   6604   6616   6622     1  0.0000000  0.6508444  3
   6606   6604   6616   6617     1  0.0000000  0.6508444  3
   6606   6604   6616   6618     1  0.0000000  0.6508444  3
   6607   6610   6619   6620     1  0.0000000  0.6508444  3
   6607   6610   6619   6621     1  0.0000000  0.6508444  3
   6608   6607   6600   6629     1  0.0000000  0.6508444  3
   6608   6607   6610   6619     1  0.0000000  0.6508444  3
   6608   6607   6610   6611     1  0.0000000  0.6508444  3
   6608   6607   6610   6612     1  0.0000000  0.6508444  3
   6609   6607   6600   6629     1  0.0000000  0.6508444  3
   6609   6607   6610   6619     1  0.0000000  0.6508444  3
   6609   6607   6610   6611     1  0.0000000  0.6508444  3
   6609   6607   6610   6612     1  0.0000000  0.6508444  3
   6610   6607   6600   6629     1  0.0000000  0.6508444  3
   6611   6610   6619   6628     1  0.0000000  1.0460000  1
   6611   6610   6619   6628     1  0.0000000  0.0000000  3
   6611   6610   6619   6620     1  0.0000000  0.6508444  3
   6611   6610   6619   6621     1  0.0000000  0.6508444  3
   6612   6610   6619   6628     1  0.0000000  1.0460000  1
   6612   6610   6619   6628     1  0.0000000  0.0000000  3
   6612   6610   6619   6620     1  0.0000000  0.6508444  3
   6612   6610   6619   6621     1  0.0000000  0.6508444  3
   6613   6601   6600   6629     1  0.0000000  0.6508444  3
   6614   6613   6625  12873     1  0.0000000  1.0460000  1
   6614   6613   6625  12873     1  0.0000000  0.0000000  3
   6614   6613   6625   6626     1  0.0000000  0.6508444  3
   6614   6613   6625   6627     1  0.0000000  0.6508444  3
   6615   6613   6625  12873     1  0.0000000  1.0460000  1
   6615   6613   6625  12873     1  0.0000000  0.0000000  3
   6615   6613   6625   6626     1  0.0000000  0.6508444  3
   6615   6613   6625   6627     1  0.0000000  0.6508444  3
   6616   6604   6600   6629     1  0.0000000  0.6508444  3
   6617   6616   6622  12850     1  0.0000000  1.0460000  1
   6617   6616   6622  12850     1  0.0000000  0.0000000  3
   6617   6616   6622   6623     1  0.0000000  0.6508444  3
   6617   6616   6622   6624     1  0.0000000  0.6508444  3
   6618   6616   6622  12850     1  0.0000000  1.0460000  1
   6618   6616   6622  12850     1  0.0000000  0.0000000  3
   6618   6616   6622   6623     1  0.0000000  0.6508444  3
   6618   6616   6622   6624     1  0.0000000  0.6508444  3
   6622  12850  12846  12849     1  0.0000000  1.6038667  3
   6623   6622  12850  12846     1  0.0000000  1.6038667  3
   6624   6622  12850  12846     1  0.0000000  1.6038667  3
   6625  12873  12869  12872     1  0.0000000  1.6038667  3
   6626   6625  12873  12869     1  0.0000000  1.6038667  3
   6627   6625  12873  12869     1  0.0000000  1.6038667  3
   6630   6631   6643   6644     1  0.0000000  0.6508444  3
   6630   6631   6643   6645     1  0.0000000  0.6508444  3
   6630   6634   6646   6647     1  0.0000000  0.6508444  3
   6630   6634   6646   6648     1  0.0000000  0.6508444  3
   6630   6637   6640   6641     1  0.0000000  0.6508444  3
   6630   6637   6640   6642     1  0.0000000  0.6508444  3
   6631   6630   6634   6635     1  0.0000000  0.6508444  3
   6631   6630   6634   6636     1  0.0000000  0.6508444  3
   6631   6630   6637   6638     1  0.0000000  0.6508444  3
   6631   6630   6637   6639     1  0.0000000  0.6508444  3
   6631   6643   6655   6656     1  0.0000000  0.6508444  3
   6631   6643   6655   6657     1  0.0000000  0.6508444  3
   6632   6631   6630   6634     1  0.0000000  0.6508444  3
   6632   6631   6630   6637     1  0.0000000  0.6508444  3
   6632   6631   6630   6659     1  0.0000000  0.6508444  3
   6632   6631   6643   6655     1  0.0000000  0.6508444  3
   6632   6631   6643   6644     1  0.0000000  0.6508444  3
   6632   6631   6643   6645     1  0.0000000  0.6508444  3
   6633   6631   6630   6634     1  0.0000000  0.6508444  3
   6633   6631   6630   6637     1  0.0000000  0.6508444  3
   6633   6631   6630   6659     1  0.0000000  0.6508444  3
   6633   6631   6643   6655     1  0.0000000  0.6508444  3
   6633   6631   6643   6644     1  0.0000000  0.6508444  3
   6633   6631   6643   6645     1  0.0000000  0.6508444  3
   6634   6630   6637   6638     1  0.0000000  0.6508444  3
   6634   6630   6637   6639     1  0.0000000  0.6508444  3
   6634   6646   6652   6653     1  0.0000000  0.6508444  3
   6634   6646   6652   6654     1  0.0000000  0.6508444  3
   6635   6634   6630   6637     1  0.0000000  0.6508444  3
   6635   6634   6630   6659     1  0.0000000  0.6508444  3
   6635   6634   6646   6652     1  0.0000000  0.6508444  3
   6635   6634   6646   6647     1  0.0000000  0.6508444  3
   6635   6634   6646   6648     1  0.0000000  0.6508444  3
   6636   6634   6630   6637     1  0.0000000  0.6508444  3
   6636   6634   6630   6659     1  0.0000000  0.6508444  3
   6636   6634   6646   6652     1  0.0000000  0.6508444  3
   6636   6634   6646   6647     1  0.0000000  0.6508444  3
   6636   6634   6646   6648     1  0.0000000  0.6508444  3
   6637   6640   6649   6650     1  0.0000000  0.6508444  3
   6637   6640   6649   6651     1  0.0000000  0.6508444  3
   6638   6637   6630   6659     1  0.0000000  0.6508444  3
   6638   6637   6640   6649     1  0.0000000  0.6508444  3
   6638   6637   6640   6641     1  0.0000000  0.6508444  3
   6638   6637   6640   6642     1  0.0000000  0.6508444  3
   6639   6637   6630   6659     1  0.0000000  0.6508444  3
   6639   6637   6640   6649     1  0.0000000  0.6508444  3
   6639   6637   6640   6641     1  0.0000000  0.6508444  3
   6639   6637   6640   6642     1  0.0000000  0.6508444  3
   6640   6637   6630   6659     1  0.0000000  0.6508444  3
   6641   6640   6649   6658     1  0.0000000  1.0460000  1
   6641   6640   6649   6658     1  0.0000000  0.0000000  3
   6641   6640   6649   6650     1  0.0000000  0.6508444  3
   6641   6640   6649   6651     1  0.0000000  0.6508444  3
   6642   6640   6649   6658     1  0.0000000  1.0460000  1
   6642   6640   6649   6658     1  0.0000000  0.0000000  3
   6642   6640   6649   6650     1  0.0000000  0.6508444  3
   6642   6640   6649   6651     1  0.0000000  0.6508444  3
   6643   6631   6630   6659     1  0.0000000  0.6508444  3
   6644   6643   6655  12919     1  0.0000000  1.0460000  1
   6644   6643   6655  12919     1  0.0000000  0.0000000  3
   6644   6643   6655   6656     1  0.0000000  0.6508444  3
   6644   6643   6655   6657     1  0.0000000  0.6508444  3
   6645   6643   6655  12919     1  0.0000000  1.0460000  1
   6645   6643   6655  12919     1  0.0000000  0.0000000  3
   6645   6643   6655   6656     1  0.0000000  0.6508444  3
   6645   6643   6655   6657     1  0.0000000  0.6508444  3
   6646   6634   6630   6659     1  0.0000000  0.6508444  3
   6647   6646   6652  12896     1  0.0000000  1.0460000  1
   6647   6646   6652  12896     1  0.0000000  0.0000000  3
   6647   6646   6652   6653     1  0.0000000  0.6508444  3
   6647   6646   6652   6654     1  0.0000000  0.6508444  3
   6648   6646   6652  12896     1  0.0000000  1.0460000  1
   6648   6646   6652  12896     1  0.0000000  0.0000000  3
   6648   6646   6652   6653     1  0.0000000  0.6508444  3
   6648   6646   6652   6654     1  0.0000000  0.6508444  3
   6652  12896  12892  12895     1  0.0000000  1.6038667  3
   6653   6652  12896  12892     1  0.0000000  1.6038667  3
   6654   6652  12896  12892     1  0.0000000  1.6038667  3
   6655  12919  12915  12918     1  0.0000000  1.6038667  3
   6656   6655  12919  12915     1  0.0000000  1.6038667  3
   6657   6655  12919  12915     1  0.0000000  1.6038667  3
   6660   6661   6673   6674     1  0.0000000  0.6508444  3
   6660   6661   6673   6675     1  0.0000000  0.6508444  3
   6660   6664   6676   6677     1  0.0000000  0.6508444  3
   6660   6664   6676   6678     1  0.0000000  0.6508444  3
   6660   6667   6670   6671     1  0.0000000  0.6508444  3
   6660   6667   6670   6672     1  0.0000000  0.6508444  3
   6661   6660   6664   6665     1  0.0000000  0.6508444  3
   6661   6660   6664   6666     1  0.0000000  0.6508444  3
   6661   6660   6667   6668     1  0.0000000  0.6508444  3
   6661   6660   6667   6669     1  0.0000000  0.6508444  3
   6661   6673   6685   6686     1  0.0000000  0.6508444  3
   6661   6673   6685   6687     1  0.0000000  0.6508444  3
   6662   6661   6660   6664     1  0.0000000  0.6508444  3
   6662   6661   6660   6667     1  0.0000000  0.6508444  3
   6662   6661   6660   6689     1  0.0000000  0.6508444  3
   6662   6661   6673   6685     1  0.0000000  0.6508444  3
   6662   6661   6673   6674     1  0.0000000  0.6508444  3
   6662   6661   6673   6675     1  0.0000000  0.6508444  3
   6663   6661   6660   6664     1  0.0000000  0.6508444  3
   6663   6661   6660   6667     1  0.0000000  0.6508444  3
   6663   6661   6660   6689     1  0.0000000  0.6508444  3
   6663   6661   6673   6685     1  0.0000000  0.6508444  3
   6663   6661   6673   6674     1  0.0000000  0.6508444  3
   6663   6661   6673   6675     1  0.0000000  0.6508444  3
   6664   6660   6667   6668     1  0.0000000  0.6508444  3
   6664   6660   6667   6669     1  0.0000000  0.6508444  3
   6664   6676   6682   6683     1  0.0000000  0.6508444  3
   6664   6676   6682   6684     1  0.0000000  0.6508444  3
   6665   6664   6660   6667     1  0.0000000  0.6508444  3
   6665   6664   6660   6689     1  0.0000000  0.6508444  3
   6665   6664   6676   6682     1  0.0000000  0.6508444  3
   6665   6664   6676   6677     1  0.0000000  0.6508444  3
   6665   6664   6676   6678     1  0.0000000  0.6508444  3
   6666   6664   6660   6667     1  0.0000000  0.6508444  3
   6666   6664   6660   6689     1  0.0000000  0.6508444  3
   6666   6664   6676   6682     1  0.0000000  0.6508444  3
   6666   6664   6676   6677     1  0.0000000  0.6508444  3
   6666   6664   6676   6678     1  0.0000000  0.6508444  3
   6667   6670   6679   6680     1  0.0000000  0.6508444  3
   6667   6670   6679   6681     1  0.0000000  0.6508444  3
   6668   6667   6660   6689     1  0.0000000  0.6508444  3
   6668   6667   6670   6679     1  0.0000000  0.6508444  3
   6668   6667   6670   6671     1  0.0000000  0.6508444  3
   6668   6667   6670   6672     1  0.0000000  0.6508444  3
   6669   6667   6660   6689     1  0.0000000  0.6508444  3
   6669   6667   6670   6679     1  0.0000000  0.6508444  3
   6669   6667   6670   6671     1  0.0000000  0.6508444  3
   6669   6667   6670   6672     1  0.0000000  0.6508444  3
   6670   6667   6660   6689     1  0.0000000  0.6508444  3
   6671   6670   6679   6688     1  0.0000000  1.0460000  1
   6671   6670   6679   6688     1  0.0000000  0.0000000  3
   6671   6670   6679   6680     1  0.0000000  0.6508444  3
   6671   6670   6679   6681     1  0.0000000  0.6508444  3
   6672   6670   6679   6688     1  0.0000000  1.0460000  1
   6672   6670   6679   6688     1  0.0000000  0.0000000  3
   6672   6670   6679   6680     1  0.0000000  0.6508444  3
   6672   6670   6679   6681     1  0.0000000  0.6508444  3
   6673   6661   6660   6689     1  0.0000000  0.6508444  3
   6674   6673   6685  12965     1  0.0000000  1.0460000  1
   6674   6673   6685  12965     1  0.0000000  0.0000000  3
   6674   6673   6685   6686     1  0.0000000  0.6508444  3
   6674   6673   6685   6687     1  0.0000000  0.6508444  3
   6675   6673   6685  12965     1  0.0000000  1.0460000  1
   6675   6673   6685  12965     1  0.0000000  0.0000000  3
   6675   6673   6685   6686     1  0.0000000  0.6508444  3
   6675   6673   6685   6687     1  0.0000000  0.6508444  3
   6676   6664   6660   6689     1  0.0000000  0.6508444  3
   6677   6676   6682  12942     1  0.0000000  1.0460000  1
   6677   6676   6682  12942     1  0.0000000  0.0000000  3
   6677   6676   6682   6683     1  0.0000000  0.6508444  3
   6677   6676   6682   6684     1  0.0000000  0.6508444  3
   6678   6676   6682  12942     1  0.0000000  1.0460000  1
   6678   6676   6682  12942     1  0.0000000  0.0000000  3
   6678   6676   6682   6683     1  0.0000000  0.6508444  3
   6678   6676   6682   6684     1  0.0000000  0.6508444  3
   6682  12942  12938  12941     1  0.0000000  1.6038667  3
   6683   6682  12942  12938     1  0.0000000  1.6038667  3
   6684   6682  12942  12938     1  0.0000000  1.6038667  3
   6685  12965  12961  12964     1  0.0000000  1.6038667  3
   6686   6685  12965  12961     1  0.0000000  1.6038667  3
   6687   6685  12965  12961     1  0.0000000  1.6038667  3
   6690   6691   6703   6704     1  0.0000000  0.6508444  3
   6690   6691   6703   6705     1  0.0000000  0.6508444  3
   6690   6694   6706   6707     1  0.0000000  0.6508444  3
   6690   6694   6706   6708     1  0.0000000  0.6508444  3
   6690   6697   6700   6701     1  0.0000000  0.6508444  3
   6690   6697   6700   6702     1  0.0000000  0.6508444  3
   6691   6690   6694   6695     1  0.0000000  0.6508444  3
   6691   6690   6694   6696     1  0.0000000  0.6508444  3
   6691   6690   6697   6698     1  0.0000000  0.6508444  3
   6691   6690   6697   6699     1  0.0000000  0.6508444  3
   6691   6703   6715   6716     1  0.0000000  0.6508444  3
   6691   6703   6715   6717     1  0.0000000  0.6508444  3
   6692   6691   6690   6694     1  0.0000000  0.6508444  3
   6692   6691   6690   6697     1  0.0000000  0.6508444  3
   6692   6691   6690   6719     1  0.0000000  0.6508444  3
   6692   6691   6703   6715     1  0.0000000  0.6508444  3
   6692   6691   6703   6704     1  0.0000000  0.6508444  3
   6692   6691   6703   6705     1  0.0000000  0.6508444  3
   6693   6691   6690   6694     1  0.0000000  0.6508444  3
   6693   6691   6690   6697     1  0.0000000  0.6508444  3
   6693   6691   6690   6719     1  0.0000000  0.6508444  3
   6693   6691   6703   6715     1  0.0000000  0.6508444  3
   6693   6691   6703   6704     1  0.0000000  0.6508444  3
   6693   6691   6703   6705     1  0.0000000  0.6508444  3
   6694   6690   6697   6698     1  0.0000000  0.6508444  3
   6694   6690   6697   6699     1  0.0000000  0.6508444  3
   6694   6706   6712   6713     1  0.0000000  0.6508444  3
   6694   6706   6712   6714     1  0.0000000  0.6508444  3
   6695   6694   6690   6697     1  0.0000000  0.6508444  3
   6695   6694   6690   6719     1  0.0000000  0.6508444  3
   6695   6694   6706   6712     1  0.0000000  0.6508444  3
   6695   6694   6706   6707     1  0.0000000  0.6508444  3
   6695   6694   6706   6708     1  0.0000000  0.6508444  3
   6696   6694   6690   6697     1  0.0000000  0.6508444  3
   6696   6694   6690   6719     1  0.0000000  0.6508444  3
   6696   6694   6706   6712     1  0.0000000  0.6508444  3
   6696   6694   6706   6707     1  0.0000000  0.6508444  3
   6696   6694   6706   6708     1  0.0000000  0.6508444  3
   6697   6700   6709   6710     1  0.0000000  0.6508444  3
   6697   6700   6709   6711     1  0.0000000  0.6508444  3
   6698   6697   6690   6719     1  0.0000000  0.6508444  3
   6698   6697   6700   6709     1  0.0000000  0.6508444  3
   6698   6697   6700   6701     1  0.0000000  0.6508444  3
   6698   6697   6700   6702     1  0.0000000  0.6508444  3
   6699   6697   6690   6719     1  0.0000000  0.6508444  3
   6699   6697   6700   6709     1  0.0000000  0.6508444  3
   6699   6697   6700   6701     1  0.0000000  0.6508444  3
   6699   6697   6700   6702     1  0.0000000  0.6508444  3
   6700   6697   6690   6719     1  0.0000000  0.6508444  3
   6701   6700   6709   6718     1  0.0000000  1.0460000  1
   6701   6700   6709   6718     1  0.0000000  0.0000000  3
   6701   6700   6709   6710     1  0.0000000  0.6508444  3
   6701   6700   6709   6711     1  0.0000000  0.6508444  3
   6702   6700   6709   6718     1  0.0000000  1.0460000  1
   6702   6700   6709   6718     1  0.0000000  0.0000000  3
   6702   6700   6709   6710     1  0.0000000  0.6508444  3
   6702   6700   6709   6711     1  0.0000000  0.6508444  3
   6703   6691   6690   6719     1  0.0000000  0.6508444  3
   6704   6703   6715  13011     1  0.0000000  1.0460000  1
   6704   6703   6715  13011     1  0.0000000  0.0000000  3
   6704   6703   6715   6716     1  0.0000000  0.6508444  3
   6704   6703   6715   6717     1  0.0000000  0.6508444  3
   6705   6703   6715  13011     1  0.0000000  1.0460000  1
   6705   6703   6715  13011     1  0.0000000  0.0000000  3
   6705   6703   6715   6716     1  0.0000000  0.6508444  3
   6705   6703   6715   6717     1  0.0000000  0.6508444  3
   6706   6694   6690   6719     1  0.0000000  0.6508444  3
   6707   6706   6712  12988     1  0.0000000  1.0460000  1
   6707   6706   6712  12988     1  0.0000000  0.0000000  3
   6707   6706   6712   6713     1  0.0000000  0.6508444  3
   6707   6706   6712   6714     1  0.0000000  0.6508444  3
   6708   6706   6712  12988     1  0.0000000  1.0460000  1
   6708   6706   6712  12988     1  0.0000000  0.0000000  3
   6708   6706   6712   6713     1  0.0000000  0.6508444  3
   6708   6706   6712   6714     1  0.0000000  0.6508444  3
   6712  12988  12984  12987     1  0.0000000  1.6038667  3
   6713   6712  12988  12984     1  0.0000000  1.6038667  3
   6714   6712  12988  12984     1  0.0000000  1.6038667  3
   6715  13011  13007  13010     1  0.0000000  1.6038667  3
   6716   6715  13011  13007     1  0.0000000  1.6038667  3
   6717   6715  13011  13007     1  0.0000000  1.6038667  3
   6720   6721   6733   6734     1  0.0000000  0.6508444  3
   6720   6721   6733   6735     1  0.0000000  0.6508444  3
   6720   6724   6736   6737     1  0.0000000  0.6508444  3
   6720   6724   6736   6738     1  0.0000000  0.6508444  3
   6720   6727   6730   6731     1  0.0000000  0.6508444  3
   6720   6727   6730   6732     1  0.0000000  0.6508444  3
   6721   6720   6724   6725     1  0.0000000  0.6508444  3
   6721   6720   6724   6726     1  0.0000000  0.6508444  3
   6721   6720   6727   6728     1  0.0000000  0.6508444  3
   6721   6720   6727   6729     1  0.0000000  0.6508444  3
   6721   6733   6745   6746     1  0.0000000  0.6508444  3
   6721   6733   6745   6747     1  0.0000000  0.6508444  3
   6722   6721   6720   6724     1  0.0000000  0.6508444  3
   6722   6721   6720   6727     1  0.0000000  0.6508444  3
   6722   6721   6720   6749     1  0.0000000  0.6508444  3
   6722   6721   6733   6745     1  0.0000000  0.6508444  3
   6722   6721   6733   6734     1  0.0000000  0.6508444  3
   6722   6721   6733   6735     1  0.0000000  0.6508444  3
   6723   6721   6720   6724     1  0.0000000  0.6508444  3
   6723   6721   6720   6727     1  0.0000000  0.6508444  3
   6723   6721   6720   6749     1  0.0000000  0.6508444  3
   6723   6721   6733   6745     1  0.0000000  0.6508444  3
   6723   6721   6733   6734     1  0.0000000  0.6508444  3
   6723   6721   6733   6735     1  0.0000000  0.6508444  3
   6724   6720   6727   6728     1  0.0000000  0.6508444  3
   6724   6720   6727   6729     1  0.0000000  0.6508444  3
   6724   6736   6742   6743     1  0.0000000  0.6508444  3
   6724   6736   6742   6744     1  0.0000000  0.6508444  3
   6725   6724   6720   6727     1  0.0000000  0.6508444  3
   6725   6724   6720   6749     1  0.0000000  0.6508444  3
   6725   6724   6736   6742     1  0.0000000  0.6508444  3
   6725   6724   6736   6737     1  0.0000000  0.6508444  3
   6725   6724   6736   6738     1  0.0000000  0.6508444  3
   6726   6724   6720   6727     1  0.0000000  0.6508444  3
   6726   6724   6720   6749     1  0.0000000  0.6508444  3
   6726   6724   6736   6742     1  0.0000000  0.6508444  3
   6726   6724   6736   6737     1  0.0000000  0.6508444  3
   6726   6724   6736   6738     1  0.0000000  0.6508444  3
   6727   6730   6739   6740     1  0.0000000  0.6508444  3
   6727   6730   6739   6741     1  0.0000000  0.6508444  3
   6728   6727   6720   6749     1  0.0000000  0.6508444  3
   6728   6727   6730   6739     1  0.0000000  0.6508444  3
   6728   6727   6730   6731     1  0.0000000  0.6508444  3
   6728   6727   6730   6732     1  0.0000000  0.6508444  3
   6729   6727   6720   6749     1  0.0000000  0.6508444  3
   6729   6727   6730   6739     1  0.0000000  0.6508444  3
   6729   6727   6730   6731     1  0.0000000  0.6508444  3
   6729   6727   6730   6732     1  0.0000000  0.6508444  3
   6730   6727   6720   6749     1  0.0000000  0.6508444  3
   6731   6730   6739   6748     1  0.0000000  1.0460000  1
   6731   6730   6739   6748     1  0.0000000  0.0000000  3
   6731   6730   6739   6740     1  0.0000000  0.6508444  3
   6731   6730   6739   6741     1  0.0000000  0.6508444  3
   6732   6730   6739   6748     1  0.0000000  1.0460000  1
   6732   6730   6739   6748     1  0.0000000  0.0000000  3
   6732   6730   6739   6740     1  0.0000000  0.6508444  3
   6732   6730   6739   6741     1  0.0000000  0.6508444  3
   6733   6721   6720   6749     1  0.0000000  0.6508444  3
   6734   6733   6745  13057     1  0.0000000  1.0460000  1
   6734   6733   6745  13057     1  0.0000000  0.0000000  3
   6734   6733   6745   6746     1  0.0000000  0.6508444  3
   6734   6733   6745   6747     1  0.0000000  0.6508444  3
   6735   6733   6745  13057     1  0.0000000  1.0460000  1
   6735   6733   6745  13057     1  0.0000000  0.0000000  3
   6735   6733   6745   6746     1  0.0000000  0.6508444  3
   6735   6733   6745   6747     1  0.0000000  0.6508444  3
   6736   6724   6720   6749     1  0.0000000  0.6508444  3
   6737   6736   6742  13034     1  0.0000000  1.0460000  1
   6737   6736   6742  13034     1  0.0000000  0.0000000  3
   6737   6736   6742   6743     1  0.0000000  0.6508444  3
   6737   6736   6742   6744     1  0.0000000  0.6508444  3
   6738   6736   6742  13034     1  0.0000000  1.0460000  1
   6738   6736   6742  13034     1  0.0000000  0.0000000  3
   6738   6736   6742   6743     1  0.0000000  0.6508444  3
   6738   6736   6742   6744     1  0.0000000  0.6508444  3
   6742  13034  13030  13033     1  0.0000000  1.6038667  3
   6743   6742  13034  13030     1  0.0000000  1.6038667  3
   6744   6742  13034  13030     1  0.0000000  1.6038667  3
   6745  13057  13053  13056     1  0.0000000  1.6038667  3
   6746   6745  13057  13053     1  0.0000000  1.6038667  3
   6747   6745  13057  13053     1  0.0000000  1.6038667  3
   6750   6751   6763   6764     1  0.0000000  0.6508444  3
   6750   6751   6763   6765     1  0.0000000  0.6508444  3
   6750   6754   6766   6767     1  0.0000000  0.6508444  3
   6750   6754   6766   6768     1  0.0000000  0.6508444  3
   6750   6757   6760   6761     1  0.0000000  0.6508444  3
   6750   6757   6760   6762     1  0.0000000  0.6508444  3
   6751   6750   6754   6755     1  0.0000000  0.6508444  3
   6751   6750   6754   6756     1  0.0000000  0.6508444  3
   6751   6750   6757   6758     1  0.0000000  0.6508444  3
   6751   6750   6757   6759     1  0.0000000  0.6508444  3
   6751   6763   6775   6776     1  0.0000000  0.6508444  3
   6751   6763   6775   6777     1  0.0000000  0.6508444  3
   6752   6751   6750   6754     1  0.0000000  0.6508444  3
   6752   6751   6750   6757     1  0.0000000  0.6508444  3
   6752   6751   6750   6779     1  0.0000000  0.6508444  3
   6752   6751   6763   6775     1  0.0000000  0.6508444  3
   6752   6751   6763   6764     1  0.0000000  0.6508444  3
   6752   6751   6763   6765     1  0.0000000  0.6508444  3
   6753   6751   6750   6754     1  0.0000000  0.6508444  3
   6753   6751   6750   6757     1  0.0000000  0.6508444  3
   6753   6751   6750   6779     1  0.0000000  0.6508444  3
   6753   6751   6763   6775     1  0.0000000  0.6508444  3
   6753   6751   6763   6764     1  0.0000000  0.6508444  3
   6753   6751   6763   6765     1  0.0000000  0.6508444  3
   6754   6750   6757   6758     1  0.0000000  0.6508444  3
   6754   6750   6757   6759     1  0.0000000  0.6508444  3
   6754   6766   6772   6773     1  0.0000000  0.6508444  3
   6754   6766   6772   6774     1  0.0000000  0.6508444  3
   6755   6754   6750   6757     1  0.0000000  0.6508444  3
   6755   6754   6750   6779     1  0.0000000  0.6508444  3
   6755   6754   6766   6772     1  0.0000000  0.6508444  3
   6755   6754   6766   6767     1  0.0000000  0.6508444  3
   6755   6754   6766   6768     1  0.0000000  0.6508444  3
   6756   6754   6750   6757     1  0.0000000  0.6508444  3
   6756   6754   6750   6779     1  0.0000000  0.6508444  3
   6756   6754   6766   6772     1  0.0000000  0.6508444  3
   6756   6754   6766   6767     1  0.0000000  0.6508444  3
   6756   6754   6766   6768     1  0.0000000  0.6508444  3
   6757   6760   6769   6770     1  0.0000000  0.6508444  3
   6757   6760   6769   6771     1  0.0000000  0.6508444  3
   6758   6757   6750   6779     1  0.0000000  0.6508444  3
   6758   6757   6760   6769     1  0.0000000  0.6508444  3
   6758   6757   6760   6761     1  0.0000000  0.6508444  3
   6758   6757   6760   6762     1  0.0000000  0.6508444  3
   6759   6757   6750   6779     1  0.0000000  0.6508444  3
   6759   6757   6760   6769     1  0.0000000  0.6508444  3
   6759   6757   6760   6761     1  0.0000000  0.6508444  3
   6759   6757   6760   6762     1  0.0000000  0.6508444  3
   6760   6757   6750   6779     1  0.0000000  0.6508444  3
   6761   6760   6769   6778     1  0.0000000  1.0460000  1
   6761   6760   6769   6778     1  0.0000000  0.0000000  3
   6761   6760   6769   6770     1  0.0000000  0.6508444  3
   6761   6760   6769   6771     1  0.0000000  0.6508444  3
   6762   6760   6769   6778     1  0.0000000  1.0460000  1
   6762   6760   6769   6778     1  0.0000000  0.0000000  3
   6762   6760   6769   6770     1  0.0000000  0.6508444  3
   6762   6760   6769   6771     1  0.0000000  0.6508444  3
   6763   6751   6750   6779     1  0.0000000  0.6508444  3
   6764   6763   6775  13103     1  0.0000000  1.0460000  1
   6764   6763   6775  13103     1  0.0000000  0.0000000  3
   6764   6763   6775   6776     1  0.0000000  0.6508444  3
   6764   6763   6775   6777     1  0.0000000  0.6508444  3
   6765   6763   6775  13103     1  0.0000000  1.0460000  1
   6765   6763   6775  13103     1  0.0000000  0.0000000  3
   6765   6763   6775   6776     1  0.0000000  0.6508444  3
   6765   6763   6775   6777     1  0.0000000  0.6508444  3
   6766   6754   6750   6779     1  0.0000000  0.6508444  3
   6767   6766   6772  13080     1  0.0000000  1.0460000  1
   6767   6766   6772  13080     1  0.0000000  0.0000000  3
   6767   6766   6772   6773     1  0.0000000  0.6508444  3
   6767   6766   6772   6774     1  0.0000000  0.6508444  3
   6768   6766   6772  13080     1  0.0000000  1.0460000  1
   6768   6766   6772  13080     1  0.0000000  0.0000000  3
   6768   6766   6772   6773     1  0.0000000  0.6508444  3
   6768   6766   6772   6774     1  0.0000000  0.6508444  3
   6772  13080  13076  13079     1  0.0000000  1.6038667  3
   6773   6772  13080  13076     1  0.0000000  1.6038667  3
   6774   6772  13080  13076     1  0.0000000  1.6038667  3
   6775  13103  13099  13102     1  0.0000000  1.6038667  3
   6776   6775  13103  13099     1  0.0000000  1.6038667  3
   6777   6775  13103  13099     1  0.0000000  1.6038667  3
   6780   6781   6793   6794     1  0.0000000  0.6508444  3
   6780   6781   6793   6795     1  0.0000000  0.6508444  3
   6780   6784   6796   6797     1  0.0000000  0.6508444  3
   6780   6784   6796   6798     1  0.0000000  0.6508444  3
   6780   6787   6790   6791     1  0.0000000  0.6508444  3
   6780   6787   6790   6792     1  0.0000000  0.6508444  3
   6781   6780   6784   6785     1  0.0000000  0.6508444  3
   6781   6780   6784   6786     1  0.0000000  0.6508444  3
   6781   6780   6787   6788     1  0.0000000  0.6508444  3
   6781   6780   6787   6789     1  0.0000000  0.6508444  3
   6781   6793   6805   6806     1  0.0000000  0.6508444  3
   6781   6793   6805   6807     1  0.0000000  0.6508444  3
   6782   6781   6780   6784     1  0.0000000  0.6508444  3
   6782   6781   6780   6787     1  0.0000000  0.6508444  3
   6782   6781   6780   6809     1  0.0000000  0.6508444  3
   6782   6781   6793   6805     1  0.0000000  0.6508444  3
   6782   6781   6793   6794     1  0.0000000  0.6508444  3
   6782   6781   6793   6795     1  0.0000000  0.6508444  3
   6783   6781   6780   6784     1  0.0000000  0.6508444  3
   6783   6781   6780   6787     1  0.0000000  0.6508444  3
   6783   6781   6780   6809     1  0.0000000  0.6508444  3
   6783   6781   6793   6805     1  0.0000000  0.6508444  3
   6783   6781   6793   6794     1  0.0000000  0.6508444  3
   6783   6781   6793   6795     1  0.0000000  0.6508444  3
   6784   6780   6787   6788     1  0.0000000  0.6508444  3
   6784   6780   6787   6789     1  0.0000000  0.6508444  3
   6784   6796   6802   6803     1  0.0000000  0.6508444  3
   6784   6796   6802   6804     1  0.0000000  0.6508444  3
   6785   6784   6780   6787     1  0.0000000  0.6508444  3
   6785   6784   6780   6809     1  0.0000000  0.6508444  3
   6785   6784   6796   6802     1  0.0000000  0.6508444  3
   6785   6784   6796   6797     1  0.0000000  0.6508444  3
   6785   6784   6796   6798     1  0.0000000  0.6508444  3
   6786   6784   6780   6787     1  0.0000000  0.6508444  3
   6786   6784   6780   6809     1  0.0000000  0.6508444  3
   6786   6784   6796   6802     1  0.0000000  0.6508444  3
   6786   6784   6796   6797     1  0.0000000  0.6508444  3
   6786   6784   6796   6798     1  0.0000000  0.6508444  3
   6787   6790   6799   6800     1  0.0000000  0.6508444  3
   6787   6790   6799   6801     1  0.0000000  0.6508444  3
   6788   6787   6780   6809     1  0.0000000  0.6508444  3
   6788   6787   6790   6799     1  0.0000000  0.6508444  3
   6788   6787   6790   6791     1  0.0000000  0.6508444  3
   6788   6787   6790   6792     1  0.0000000  0.6508444  3
   6789   6787   6780   6809     1  0.0000000  0.6508444  3
   6789   6787   6790   6799     1  0.0000000  0.6508444  3
   6789   6787   6790   6791     1  0.0000000  0.6508444  3
   6789   6787   6790   6792     1  0.0000000  0.6508444  3
   6790   6787   6780   6809     1  0.0000000  0.6508444  3
   6791   6790   6799   6808     1  0.0000000  1.0460000  1
   6791   6790   6799   6808     1  0.0000000  0.0000000  3
   6791   6790   6799   6800     1  0.0000000  0.6508444  3
   6791   6790   6799   6801     1  0.0000000  0.6508444  3
   6792   6790   6799   6808     1  0.0000000  1.0460000  1
   6792   6790   6799   6808     1  0.0000000  0.0000000  3
   6792   6790   6799   6800     1  0.0000000  0.6508444  3
   6792   6790   6799   6801     1  0.0000000  0.6508444  3
   6793   6781   6780   6809     1  0.0000000  0.6508444  3
   6794   6793   6805  13149     1  0.0000000  1.0460000  1
   6794   6793   6805  13149     1  0.0000000  0.0000000  3
   6794   6793   6805   6806     1  0.0000000  0.6508444  3
   6794   6793   6805   6807     1  0.0000000  0.6508444  3
   6795   6793   6805  13149     1  0.0000000  1.0460000  1
   6795   6793   6805  13149     1  0.0000000  0.0000000  3
   6795   6793   6805   6806     1  0.0000000  0.6508444  3
   6795   6793   6805   6807     1  0.0000000  0.6508444  3
   6796   6784   6780   6809     1  0.0000000  0.6508444  3
   6797   6796   6802  13126     1  0.0000000  1.0460000  1
   6797   6796   6802  13126     1  0.0000000  0.0000000  3
   6797   6796   6802   6803     1  0.0000000  0.6508444  3
   6797   6796   6802   6804     1  0.0000000  0.6508444  3
   6798   6796   6802  13126     1  0.0000000  1.0460000  1
   6798   6796   6802  13126     1  0.0000000  0.0000000  3
   6798   6796   6802   6803     1  0.0000000  0.6508444  3
   6798   6796   6802   6804     1  0.0000000  0.6508444  3
   6802  13126  13122  13125     1  0.0000000  1.6038667  3
   6803   6802  13126  13122     1  0.0000000  1.6038667  3
   6804   6802  13126  13122     1  0.0000000  1.6038667  3
   6805  13149  13145  13148     1  0.0000000  1.6038667  3
   6806   6805  13149  13145     1  0.0000000  1.6038667  3
   6807   6805  13149  13145     1  0.0000000  1.6038667  3
   6810   6811   6823   6824     1  0.0000000  0.6508444  3
   6810   6811   6823   6825     1  0.0000000  0.6508444  3
   6810   6814   6826   6827     1  0.0000000  0.6508444  3
   6810   6814   6826   6828     1  0.0000000  0.6508444  3
   6810   6817   6820   6821     1  0.0000000  0.6508444  3
   6810   6817   6820   6822     1  0.0000000  0.6508444  3
   6811   6810   6814   6815     1  0.0000000  0.6508444  3
   6811   6810   6814   6816     1  0.0000000  0.6508444  3
   6811   6810   6817   6818     1  0.0000000  0.6508444  3
   6811   6810   6817   6819     1  0.0000000  0.6508444  3
   6811   6823   6835   6836     1  0.0000000  0.6508444  3
   6811   6823   6835   6837     1  0.0000000  0.6508444  3
   6812   6811   6810   6814     1  0.0000000  0.6508444  3
   6812   6811   6810   6817     1  0.0000000  0.6508444  3
   6812   6811   6810   6839     1  0.0000000  0.6508444  3
   6812   6811   6823   6835     1  0.0000000  0.6508444  3
   6812   6811   6823   6824     1  0.0000000  0.6508444  3
   6812   6811   6823   6825     1  0.0000000  0.6508444  3
   6813   6811   6810   6814     1  0.0000000  0.6508444  3
   6813   6811   6810   6817     1  0.0000000  0.6508444  3
   6813   6811   6810   6839     1  0.0000000  0.6508444  3
   6813   6811   6823   6835     1  0.0000000  0.6508444  3
   6813   6811   6823   6824     1  0.0000000  0.6508444  3
   6813   6811   6823   6825     1  0.0000000  0.6508444  3
   6814   6810   6817   6818     1  0.0000000  0.6508444  3
   6814   6810   6817   6819     1  0.0000000  0.6508444  3
   6814   6826   6832   6833     1  0.0000000  0.6508444  3
   6814   6826   6832   6834     1  0.0000000  0.6508444  3
   6815   6814   6810   6817     1  0.0000000  0.6508444  3
   6815   6814   6810   6839     1  0.0000000  0.6508444  3
   6815   6814   6826   6832     1  0.0000000  0.6508444  3
   6815   6814   6826   6827     1  0.0000000  0.6508444  3
   6815   6814   6826   6828     1  0.0000000  0.6508444  3
   6816   6814   6810   6817     1  0.0000000  0.6508444  3
   6816   6814   6810   6839     1  0.0000000  0.6508444  3
   6816   6814   6826   6832     1  0.0000000  0.6508444  3
   6816   6814   6826   6827     1  0.0000000  0.6508444  3
   6816   6814   6826   6828     1  0.0000000  0.6508444  3
   6817   6820   6829   6830     1  0.0000000  0.6508444  3
   6817   6820   6829   6831     1  0.0000000  0.6508444  3
   6818   6817   6810   6839     1  0.0000000  0.6508444  3
   6818   6817   6820   6829     1  0.0000000  0.6508444  3
   6818   6817   6820   6821     1  0.0000000  0.6508444  3
   6818   6817   6820   6822     1  0.0000000  0.6508444  3
   6819   6817   6810   6839     1  0.0000000  0.6508444  3
   6819   6817   6820   6829     1  0.0000000  0.6508444  3
   6819   6817   6820   6821     1  0.0000000  0.6508444  3
   6819   6817   6820   6822     1  0.0000000  0.6508444  3
   6820   6817   6810   6839     1  0.0000000  0.6508444  3
   6821   6820   6829   6838     1  0.0000000  1.0460000  1
   6821   6820   6829   6838     1  0.0000000  0.0000000  3
   6821   6820   6829   6830     1  0.0000000  0.6508444  3
   6821   6820   6829   6831     1  0.0000000  0.6508444  3
   6822   6820   6829   6838     1  0.0000000  1.0460000  1
   6822   6820   6829   6838     1  0.0000000  0.0000000  3
   6822   6820   6829   6830     1  0.0000000  0.6508444  3
   6822   6820   6829   6831     1  0.0000000  0.6508444  3
   6823   6811   6810   6839     1  0.0000000  0.6508444  3
   6824   6823   6835  13195     1  0.0000000  1.0460000  1
   6824   6823   6835  13195     1  0.0000000  0.0000000  3
   6824   6823   6835   6836     1  0.0000000  0.6508444  3
   6824   6823   6835   6837     1  0.0000000  0.6508444  3
   6825   6823   6835  13195     1  0.0000000  1.0460000  1
   6825   6823   6835  13195     1  0.0000000  0.0000000  3
   6825   6823   6835   6836     1  0.0000000  0.6508444  3
   6825   6823   6835   6837     1  0.0000000  0.6508444  3
   6826   6814   6810   6839     1  0.0000000  0.6508444  3
   6827   6826   6832  13172     1  0.0000000  1.0460000  1
   6827   6826   6832  13172     1  0.0000000  0.0000000  3
   6827   6826   6832   6833     1  0.0000000  0.6508444  3
   6827   6826   6832   6834     1  0.0000000  0.6508444  3
   6828   6826   6832  13172     1  0.0000000  1.0460000  1
   6828   6826   6832  13172     1  0.0000000  0.0000000  3
   6828   6826   6832   6833     1  0.0000000  0.6508444  3
   6828   6826   6832   6834     1  0.0000000  0.6508444  3
   6832  13172  13168  13171     1  0.0000000  1.6038667  3
   6833   6832  13172  13168     1  0.0000000  1.6038667  3
   6834   6832  13172  13168     1  0.0000000  1.6038667  3
   6835  13195  13191  13194     1  0.0000000  1.6038667  3
   6836   6835  13195  13191     1  0.0000000  1.6038667  3
   6837   6835  13195  13191     1  0.0000000  1.6038667  3
   6840   6841   6853   6854     1  0.0000000  0.6508444  3
   6840   6841   6853   6855     1  0.0000000  0.6508444  3
   6840   6844   6856   6857     1  0.0000000  0.6508444  3
   6840   6844   6856   6858     1  0.0000000  0.6508444  3
   6840   6847   6850   6851     1  0.0000000  0.6508444  3
   6840   6847   6850   6852     1  0.0000000  0.6508444  3
   6841   6840   6844   6845     1  0.0000000  0.6508444  3
   6841   6840   6844   6846     1  0.0000000  0.6508444  3
   6841   6840   6847   6848     1  0.0000000  0.6508444  3
   6841   6840   6847   6849     1  0.0000000  0.6508444  3
   6841   6853   6865   6866     1  0.0000000  0.6508444  3
   6841   6853   6865   6867     1  0.0000000  0.6508444  3
   6842   6841   6840   6844     1  0.0000000  0.6508444  3
   6842   6841   6840   6847     1  0.0000000  0.6508444  3
   6842   6841   6840   6869     1  0.0000000  0.6508444  3
   6842   6841   6853   6865     1  0.0000000  0.6508444  3
   6842   6841   6853   6854     1  0.0000000  0.6508444  3
   6842   6841   6853   6855     1  0.0000000  0.6508444  3
   6843   6841   6840   6844     1  0.0000000  0.6508444  3
   6843   6841   6840   6847     1  0.0000000  0.6508444  3
   6843   6841   6840   6869     1  0.0000000  0.6508444  3
   6843   6841   6853   6865     1  0.0000000  0.6508444  3
   6843   6841   6853   6854     1  0.0000000  0.6508444  3
   6843   6841   6853   6855     1  0.0000000  0.6508444  3
   6844   6840   6847   6848     1  0.0000000  0.6508444  3
   6844   6840   6847   6849     1  0.0000000  0.6508444  3
   6844   6856   6862   6863     1  0.0000000  0.6508444  3
   6844   6856   6862   6864     1  0.0000000  0.6508444  3
   6845   6844   6840   6847     1  0.0000000  0.6508444  3
   6845   6844   6840   6869     1  0.0000000  0.6508444  3
   6845   6844   6856   6862     1  0.0000000  0.6508444  3
   6845   6844   6856   6857     1  0.0000000  0.6508444  3
   6845   6844   6856   6858     1  0.0000000  0.6508444  3
   6846   6844   6840   6847     1  0.0000000  0.6508444  3
   6846   6844   6840   6869     1  0.0000000  0.6508444  3
   6846   6844   6856   6862     1  0.0000000  0.6508444  3
   6846   6844   6856   6857     1  0.0000000  0.6508444  3
   6846   6844   6856   6858     1  0.0000000  0.6508444  3
   6847   6850   6859   6860     1  0.0000000  0.6508444  3
   6847   6850   6859   6861     1  0.0000000  0.6508444  3
   6848   6847   6840   6869     1  0.0000000  0.6508444  3
   6848   6847   6850   6859     1  0.0000000  0.6508444  3
   6848   6847   6850   6851     1  0.0000000  0.6508444  3
   6848   6847   6850   6852     1  0.0000000  0.6508444  3
   6849   6847   6840   6869     1  0.0000000  0.6508444  3
   6849   6847   6850   6859     1  0.0000000  0.6508444  3
   6849   6847   6850   6851     1  0.0000000  0.6508444  3
   6849   6847   6850   6852     1  0.0000000  0.6508444  3
   6850   6847   6840   6869     1  0.0000000  0.6508444  3
   6851   6850   6859   6868     1  0.0000000  1.0460000  1
   6851   6850   6859   6868     1  0.0000000  0.0000000  3
   6851   6850   6859   6860     1  0.0000000  0.6508444  3
   6851   6850   6859   6861     1  0.0000000  0.6508444  3
   6852   6850   6859   6868     1  0.0000000  1.0460000  1
   6852   6850   6859   6868     1  0.0000000  0.0000000  3
   6852   6850   6859   6860     1  0.0000000  0.6508444  3
   6852   6850   6859   6861     1  0.0000000  0.6508444  3
   6853   6841   6840   6869     1  0.0000000  0.6508444  3
   6854   6853   6865  13241     1  0.0000000  1.0460000  1
   6854   6853   6865  13241     1  0.0000000  0.0000000  3
   6854   6853   6865   6866     1  0.0000000  0.6508444  3
   6854   6853   6865   6867     1  0.0000000  0.6508444  3
   6855   6853   6865  13241     1  0.0000000  1.0460000  1
   6855   6853   6865  13241     1  0.0000000  0.0000000  3
   6855   6853   6865   6866     1  0.0000000  0.6508444  3
   6855   6853   6865   6867     1  0.0000000  0.6508444  3
   6856   6844   6840   6869     1  0.0000000  0.6508444  3
   6857   6856   6862  13218     1  0.0000000  1.0460000  1
   6857   6856   6862  13218     1  0.0000000  0.0000000  3
   6857   6856   6862   6863     1  0.0000000  0.6508444  3
   6857   6856   6862   6864     1  0.0000000  0.6508444  3
   6858   6856   6862  13218     1  0.0000000  1.0460000  1
   6858   6856   6862  13218     1  0.0000000  0.0000000  3
   6858   6856   6862   6863     1  0.0000000  0.6508444  3
   6858   6856   6862   6864     1  0.0000000  0.6508444  3
   6862  13218  13214  13217     1  0.0000000  1.6038667  3
   6863   6862  13218  13214     1  0.0000000  1.6038667  3
   6864   6862  13218  13214     1  0.0000000  1.6038667  3
   6865  13241  13237  13240     1  0.0000000  1.6038667  3
   6866   6865  13241  13237     1  0.0000000  1.6038667  3
   6867   6865  13241  13237     1  0.0000000  1.6038667  3
   6870   6871   6883   6884     1  0.0000000  0.6508444  3
   6870   6871   6883   6885     1  0.0000000  0.6508444  3
   6870   6874   6886   6887     1  0.0000000  0.6508444  3
   6870   6874   6886   6888     1  0.0000000  0.6508444  3
   6870   6877   6880   6881     1  0.0000000  0.6508444  3
   6870   6877   6880   6882     1  0.0000000  0.6508444  3
   6871   6870   6874   6875     1  0.0000000  0.6508444  3
   6871   6870   6874   6876     1  0.0000000  0.6508444  3
   6871   6870   6877   6878     1  0.0000000  0.6508444  3
   6871   6870   6877   6879     1  0.0000000  0.6508444  3
   6871   6883   6895   6896     1  0.0000000  0.6508444  3
   6871   6883   6895   6897     1  0.0000000  0.6508444  3
   6872   6871   6870   6874     1  0.0000000  0.6508444  3
   6872   6871   6870   6877     1  0.0000000  0.6508444  3
   6872   6871   6870   6899     1  0.0000000  0.6508444  3
   6872   6871   6883   6895     1  0.0000000  0.6508444  3
   6872   6871   6883   6884     1  0.0000000  0.6508444  3
   6872   6871   6883   6885     1  0.0000000  0.6508444  3
   6873   6871   6870   6874     1  0.0000000  0.6508444  3
   6873   6871   6870   6877     1  0.0000000  0.6508444  3
   6873   6871   6870   6899     1  0.0000000  0.6508444  3
   6873   6871   6883   6895     1  0.0000000  0.6508444  3
   6873   6871   6883   6884     1  0.0000000  0.6508444  3
   6873   6871   6883   6885     1  0.0000000  0.6508444  3
   6874   6870   6877   6878     1  0.0000000  0.6508444  3
   6874   6870   6877   6879     1  0.0000000  0.6508444  3
   6874   6886   6892   6893     1  0.0000000  0.6508444  3
   6874   6886   6892   6894     1  0.0000000  0.6508444  3
   6875   6874   6870   6877     1  0.0000000  0.6508444  3
   6875   6874   6870   6899     1  0.0000000  0.6508444  3
   6875   6874   6886   6892     1  0.0000000  0.6508444  3
   6875   6874   6886   6887     1  0.0000000  0.6508444  3
   6875   6874   6886   6888     1  0.0000000  0.6508444  3
   6876   6874   6870   6877     1  0.0000000  0.6508444  3
   6876   6874   6870   6899     1  0.0000000  0.6508444  3
   6876   6874   6886   6892     1  0.0000000  0.6508444  3
   6876   6874   6886   6887     1  0.0000000  0.6508444  3
   6876   6874   6886   6888     1  0.0000000  0.6508444  3
   6877   6880   6889   6890     1  0.0000000  0.6508444  3
   6877   6880   6889   6891     1  0.0000000  0.6508444  3
   6878   6877   6870   6899     1  0.0000000  0.6508444  3
   6878   6877   6880   6889     1  0.0000000  0.6508444  3
   6878   6877   6880   6881     1  0.0000000  0.6508444  3
   6878   6877   6880   6882     1  0.0000000  0.6508444  3
   6879   6877   6870   6899     1  0.0000000  0.6508444  3
   6879   6877   6880   6889     1  0.0000000  0.6508444  3
   6879   6877   6880   6881     1  0.0000000  0.6508444  3
   6879   6877   6880   6882     1  0.0000000  0.6508444  3
   6880   6877   6870   6899     1  0.0000000  0.6508444  3
   6881   6880   6889   6898     1  0.0000000  1.0460000  1
   6881   6880   6889   6898     1  0.0000000  0.0000000  3
   6881   6880   6889   6890     1  0.0000000  0.6508444  3
   6881   6880   6889   6891     1  0.0000000  0.6508444  3
   6882   6880   6889   6898     1  0.0000000  1.0460000  1
   6882   6880   6889   6898     1  0.0000000  0.0000000  3
   6882   6880   6889   6890     1  0.0000000  0.6508444  3
   6882   6880   6889   6891     1  0.0000000  0.6508444  3
   6883   6871   6870   6899     1  0.0000000  0.6508444  3
   6884   6883   6895  13287     1  0.0000000  1.0460000  1
   6884   6883   6895  13287     1  0.0000000  0.0000000  3
   6884   6883   6895   6896     1  0.0000000  0.6508444  3
   6884   6883   6895   6897     1  0.0000000  0.6508444  3
   6885   6883   6895  13287     1  0.0000000  1.0460000  1
   6885   6883   6895  13287     1  0.0000000  0.0000000  3
   6885   6883   6895   6896     1  0.0000000  0.6508444  3
   6885   6883   6895   6897     1  0.0000000  0.6508444  3
   6886   6874   6870   6899     1  0.0000000  0.6508444  3
   6887   6886   6892  13264     1  0.0000000  1.0460000  1
   6887   6886   6892  13264     1  0.0000000  0.0000000  3
   6887   6886   6892   6893     1  0.0000000  0.6508444  3
   6887   6886   6892   6894     1  0.0000000  0.6508444  3
   6888   6886   6892  13264     1  0.0000000  1.0460000  1
   6888   6886   6892  13264     1  0.0000000  0.0000000  3
   6888   6886   6892   6893     1  0.0000000  0.6508444  3
   6888   6886   6892   6894     1  0.0000000  0.6508444  3
   6892  13264  13260  13263     1  0.0000000  1.6038667  3
   6893   6892  13264  13260     1  0.0000000  1.6038667  3
   6894   6892  13264  13260     1  0.0000000  1.6038667  3
   6895  13287  13283  13286     1  0.0000000  1.6038667  3
   6896   6895  13287  13283     1  0.0000000  1.6038667  3
   6897   6895  13287  13283     1  0.0000000  1.6038667  3
   6900   6901   6913   6914     1  0.0000000  0.6508444  3
   6900   6901   6913   6915     1  0.0000000  0.6508444  3
   6900   6904   6916   6917     1  0.0000000  0.6508444  3
   6900   6904   6916   6918     1  0.0000000  0.6508444  3
   6900   6907   6910   6911     1  0.0000000  0.6508444  3
   6900   6907   6910   6912     1  0.0000000  0.6508444  3
   6901   6900   6904   6905     1  0.0000000  0.6508444  3
   6901   6900   6904   6906     1  0.0000000  0.6508444  3
   6901   6900   6907   6908     1  0.0000000  0.6508444  3
   6901   6900   6907   6909     1  0.0000000  0.6508444  3
   6901   6913   6925   6926     1  0.0000000  0.6508444  3
   6901   6913   6925   6927     1  0.0000000  0.6508444  3
   6902   6901   6900   6904     1  0.0000000  0.6508444  3
   6902   6901   6900   6907     1  0.0000000  0.6508444  3
   6902   6901   6900   6929     1  0.0000000  0.6508444  3
   6902   6901   6913   6925     1  0.0000000  0.6508444  3
   6902   6901   6913   6914     1  0.0000000  0.6508444  3
   6902   6901   6913   6915     1  0.0000000  0.6508444  3
   6903   6901   6900   6904     1  0.0000000  0.6508444  3
   6903   6901   6900   6907     1  0.0000000  0.6508444  3
   6903   6901   6900   6929     1  0.0000000  0.6508444  3
   6903   6901   6913   6925     1  0.0000000  0.6508444  3
   6903   6901   6913   6914     1  0.0000000  0.6508444  3
   6903   6901   6913   6915     1  0.0000000  0.6508444  3
   6904   6900   6907   6908     1  0.0000000  0.6508444  3
   6904   6900   6907   6909     1  0.0000000  0.6508444  3
   6904   6916   6922   6923     1  0.0000000  0.6508444  3
   6904   6916   6922   6924     1  0.0000000  0.6508444  3
   6905   6904   6900   6907     1  0.0000000  0.6508444  3
   6905   6904   6900   6929     1  0.0000000  0.6508444  3
   6905   6904   6916   6922     1  0.0000000  0.6508444  3
   6905   6904   6916   6917     1  0.0000000  0.6508444  3
   6905   6904   6916   6918     1  0.0000000  0.6508444  3
   6906   6904   6900   6907     1  0.0000000  0.6508444  3
   6906   6904   6900   6929     1  0.0000000  0.6508444  3
   6906   6904   6916   6922     1  0.0000000  0.6508444  3
   6906   6904   6916   6917     1  0.0000000  0.6508444  3
   6906   6904   6916   6918     1  0.0000000  0.6508444  3
   6907   6910   6919   6920     1  0.0000000  0.6508444  3
   6907   6910   6919   6921     1  0.0000000  0.6508444  3
   6908   6907   6900   6929     1  0.0000000  0.6508444  3
   6908   6907   6910   6919     1  0.0000000  0.6508444  3
   6908   6907   6910   6911     1  0.0000000  0.6508444  3
   6908   6907   6910   6912     1  0.0000000  0.6508444  3
   6909   6907   6900   6929     1  0.0000000  0.6508444  3
   6909   6907   6910   6919     1  0.0000000  0.6508444  3
   6909   6907   6910   6911     1  0.0000000  0.6508444  3
   6909   6907   6910   6912     1  0.0000000  0.6508444  3
   6910   6907   6900   6929     1  0.0000000  0.6508444  3
   6911   6910   6919   6928     1  0.0000000  1.0460000  1
   6911   6910   6919   6928     1  0.0000000  0.0000000  3
   6911   6910   6919   6920     1  0.0000000  0.6508444  3
   6911   6910   6919   6921     1  0.0000000  0.6508444  3
   6912   6910   6919   6928     1  0.0000000  1.0460000  1
   6912   6910   6919   6928     1  0.0000000  0.0000000  3
   6912   6910   6919   6920     1  0.0000000  0.6508444  3
   6912   6910   6919   6921     1  0.0000000  0.6508444  3
   6913   6901   6900   6929     1  0.0000000  0.6508444  3
   6914   6913   6925  13333     1  0.0000000  1.0460000  1
   6914   6913   6925  13333     1  0.0000000  0.0000000  3
   6914   6913   6925   6926     1  0.0000000  0.6508444  3
   6914   6913   6925   6927     1  0.0000000  0.6508444  3
   6915   6913   6925  13333     1  0.0000000  1.0460000  1
   6915   6913   6925  13333     1  0.0000000  0.0000000  3
   6915   6913   6925   6926     1  0.0000000  0.6508444  3
   6915   6913   6925   6927     1  0.0000000  0.6508444  3
   6916   6904   6900   6929     1  0.0000000  0.6508444  3
   6917   6916   6922  13310     1  0.0000000  1.0460000  1
   6917   6916   6922  13310     1  0.0000000  0.0000000  3
   6917   6916   6922   6923     1  0.0000000  0.6508444  3
   6917   6916   6922   6924     1  0.0000000  0.6508444  3
   6918   6916   6922  13310     1  0.0000000  1.0460000  1
   6918   6916   6922  13310     1  0.0000000  0.0000000  3
   6918   6916   6922   6923     1  0.0000000  0.6508444  3
   6918   6916   6922   6924     1  0.0000000  0.6508444  3
   6922  13310  13306  13309     1  0.0000000  1.6038667  3
   6923   6922  13310  13306     1  0.0000000  1.6038667  3
   6924   6922  13310  13306     1  0.0000000  1.6038667  3
   6925  13333  13329  13332     1  0.0000000  1.6038667  3
   6926   6925  13333  13329     1  0.0000000  1.6038667  3
   6927   6925  13333  13329     1  0.0000000  1.6038667  3
   6930   6931   6943   6944     1  0.0000000  0.6508444  3
   6930   6931   6943   6945     1  0.0000000  0.6508444  3
   6930   6934   6946   6947     1  0.0000000  0.6508444  3
   6930   6934   6946   6948     1  0.0000000  0.6508444  3
   6930   6937   6940   6941     1  0.0000000  0.6508444  3
   6930   6937   6940   6942     1  0.0000000  0.6508444  3
   6931   6930   6934   6935     1  0.0000000  0.6508444  3
   6931   6930   6934   6936     1  0.0000000  0.6508444  3
   6931   6930   6937   6938     1  0.0000000  0.6508444  3
   6931   6930   6937   6939     1  0.0000000  0.6508444  3
   6931   6943   6955   6956     1  0.0000000  0.6508444  3
   6931   6943   6955   6957     1  0.0000000  0.6508444  3
   6932   6931   6930   6934     1  0.0000000  0.6508444  3
   6932   6931   6930   6937     1  0.0000000  0.6508444  3
   6932   6931   6930   6959     1  0.0000000  0.6508444  3
   6932   6931   6943   6955     1  0.0000000  0.6508444  3
   6932   6931   6943   6944     1  0.0000000  0.6508444  3
   6932   6931   6943   6945     1  0.0000000  0.6508444  3
   6933   6931   6930   6934     1  0.0000000  0.6508444  3
   6933   6931   6930   6937     1  0.0000000  0.6508444  3
   6933   6931   6930   6959     1  0.0000000  0.6508444  3
   6933   6931   6943   6955     1  0.0000000  0.6508444  3
   6933   6931   6943   6944     1  0.0000000  0.6508444  3
   6933   6931   6943   6945     1  0.0000000  0.6508444  3
   6934   6930   6937   6938     1  0.0000000  0.6508444  3
   6934   6930   6937   6939     1  0.0000000  0.6508444  3
   6934   6946   6952   6953     1  0.0000000  0.6508444  3
   6934   6946   6952   6954     1  0.0000000  0.6508444  3
   6935   6934   6930   6937     1  0.0000000  0.6508444  3
   6935   6934   6930   6959     1  0.0000000  0.6508444  3
   6935   6934   6946   6952     1  0.0000000  0.6508444  3
   6935   6934   6946   6947     1  0.0000000  0.6508444  3
   6935   6934   6946   6948     1  0.0000000  0.6508444  3
   6936   6934   6930   6937     1  0.0000000  0.6508444  3
   6936   6934   6930   6959     1  0.0000000  0.6508444  3
   6936   6934   6946   6952     1  0.0000000  0.6508444  3
   6936   6934   6946   6947     1  0.0000000  0.6508444  3
   6936   6934   6946   6948     1  0.0000000  0.6508444  3
   6937   6940   6949   6950     1  0.0000000  0.6508444  3
   6937   6940   6949   6951     1  0.0000000  0.6508444  3
   6938   6937   6930   6959     1  0.0000000  0.6508444  3
   6938   6937   6940   6949     1  0.0000000  0.6508444  3
   6938   6937   6940   6941     1  0.0000000  0.6508444  3
   6938   6937   6940   6942     1  0.0000000  0.6508444  3
   6939   6937   6930   6959     1  0.0000000  0.6508444  3
   6939   6937   6940   6949     1  0.0000000  0.6508444  3
   6939   6937   6940   6941     1  0.0000000  0.6508444  3
   6939   6937   6940   6942     1  0.0000000  0.6508444  3
   6940   6937   6930   6959     1  0.0000000  0.6508444  3
   6941   6940   6949   6958     1  0.0000000  1.0460000  1
   6941   6940   6949   6958     1  0.0000000  0.0000000  3
   6941   6940   6949   6950     1  0.0000000  0.6508444  3
   6941   6940   6949   6951     1  0.0000000  0.6508444  3
   6942   6940   6949   6958     1  0.0000000  1.0460000  1
   6942   6940   6949   6958     1  0.0000000  0.0000000  3
   6942   6940   6949   6950     1  0.0000000  0.6508444  3
   6942   6940   6949   6951     1  0.0000000  0.6508444  3
   6943   6931   6930   6959     1  0.0000000  0.6508444  3
   6944   6943   6955  13379     1  0.0000000  1.0460000  1
   6944   6943   6955  13379     1  0.0000000  0.0000000  3
   6944   6943   6955   6956     1  0.0000000  0.6508444  3
   6944   6943   6955   6957     1  0.0000000  0.6508444  3
   6945   6943   6955  13379     1  0.0000000  1.0460000  1
   6945   6943   6955  13379     1  0.0000000  0.0000000  3
   6945   6943   6955   6956     1  0.0000000  0.6508444  3
   6945   6943   6955   6957     1  0.0000000  0.6508444  3
   6946   6934   6930   6959     1  0.0000000  0.6508444  3
   6947   6946   6952  13356     1  0.0000000  1.0460000  1
   6947   6946   6952  13356     1  0.0000000  0.0000000  3
   6947   6946   6952   6953     1  0.0000000  0.6508444  3
   6947   6946   6952   6954     1  0.0000000  0.6508444  3
   6948   6946   6952  13356     1  0.0000000  1.0460000  1
   6948   6946   6952  13356     1  0.0000000  0.0000000  3
   6948   6946   6952   6953     1  0.0000000  0.6508444  3
   6948   6946   6952   6954     1  0.0000000  0.6508444  3
   6952  13356  13352  13355     1  0.0000000  1.6038667  3
   6953   6952  13356  13352     1  0.0000000  1.6038667  3
   6954   6952  13356  13352     1  0.0000000  1.6038667  3
   6955  13379  13375  13378     1  0.0000000  1.6038667  3
   6956   6955  13379  13375     1  0.0000000  1.6038667  3
   6957   6955  13379  13375     1  0.0000000  1.6038667  3
   6960   6961   6973   6974     1  0.0000000  0.6508444  3
   6960   6961   6973   6975     1  0.0000000  0.6508444  3
   6960   6964   6976   6977     1  0.0000000  0.6508444  3
   6960   6964   6976   6978     1  0.0000000  0.6508444  3
   6960   6967   6970   6971     1  0.0000000  0.6508444  3
   6960   6967   6970   6972     1  0.0000000  0.6508444  3
   6961   6960   6964   6965     1  0.0000000  0.6508444  3
   6961   6960   6964   6966     1  0.0000000  0.6508444  3
   6961   6960   6967   6968     1  0.0000000  0.6508444  3
   6961   6960   6967   6969     1  0.0000000  0.6508444  3
   6961   6973   6985   6986     1  0.0000000  0.6508444  3
   6961   6973   6985   6987     1  0.0000000  0.6508444  3
   6962   6961   6960   6964     1  0.0000000  0.6508444  3
   6962   6961   6960   6967     1  0.0000000  0.6508444  3
   6962   6961   6960   6989     1  0.0000000  0.6508444  3
   6962   6961   6973   6985     1  0.0000000  0.6508444  3
   6962   6961   6973   6974     1  0.0000000  0.6508444  3
   6962   6961   6973   6975     1  0.0000000  0.6508444  3
   6963   6961   6960   6964     1  0.0000000  0.6508444  3
   6963   6961   6960   6967     1  0.0000000  0.6508444  3
   6963   6961   6960   6989     1  0.0000000  0.6508444  3
   6963   6961   6973   6985     1  0.0000000  0.6508444  3
   6963   6961   6973   6974     1  0.0000000  0.6508444  3
   6963   6961   6973   6975     1  0.0000000  0.6508444  3
   6964   6960   6967   6968     1  0.0000000  0.6508444  3
   6964   6960   6967   6969     1  0.0000000  0.6508444  3
   6964   6976   6982   6983     1  0.0000000  0.6508444  3
   6964   6976   6982   6984     1  0.0000000  0.6508444  3
   6965   6964   6960   6967     1  0.0000000  0.6508444  3
   6965   6964   6960   6989     1  0.0000000  0.6508444  3
   6965   6964   6976   6982     1  0.0000000  0.6508444  3
   6965   6964   6976   6977     1  0.0000000  0.6508444  3
   6965   6964   6976   6978     1  0.0000000  0.6508444  3
   6966   6964   6960   6967     1  0.0000000  0.6508444  3
   6966   6964   6960   6989     1  0.0000000  0.6508444  3
   6966   6964   6976   6982     1  0.0000000  0.6508444  3
   6966   6964   6976   6977     1  0.0000000  0.6508444  3
   6966   6964   6976   6978     1  0.0000000  0.6508444  3
   6967   6970   6979   6980     1  0.0000000  0.6508444  3
   6967   6970   6979   6981     1  0.0000000  0.6508444  3
   6968   6967   6960   6989     1  0.0000000  0.6508444  3
   6968   6967   6970   6979     1  0.0000000  0.6508444  3
   6968   6967   6970   6971     1  0.0000000  0.6508444  3
   6968   6967   6970   6972     1  0.0000000  0.6508444  3
   6969   6967   6960   6989     1  0.0000000  0.6508444  3
   6969   6967   6970   6979     1  0.0000000  0.6508444  3
   6969   6967   6970   6971     1  0.0000000  0.6508444  3
   6969   6967   6970   6972     1  0.0000000  0.6508444  3
   6970   6967   6960   6989     1  0.0000000  0.6508444  3
   6971   6970   6979   6988     1  0.0000000  1.0460000  1
   6971   6970   6979   6988     1  0.0000000  0.0000000  3
   6971   6970   6979   6980     1  0.0000000  0.6508444  3
   6971   6970   6979   6981     1  0.0000000  0.6508444  3
   6972   6970   6979   6988     1  0.0000000  1.0460000  1
   6972   6970   6979   6988     1  0.0000000  0.0000000  3
   6972   6970   6979   6980     1  0.0000000  0.6508444  3
   6972   6970   6979   6981     1  0.0000000  0.6508444  3
   6973   6961   6960   6989     1  0.0000000  0.6508444  3
   6974   6973   6985  13425     1  0.0000000  1.0460000  1
   6974   6973   6985  13425     1  0.0000000  0.0000000  3
   6974   6973   6985   6986     1  0.0000000  0.6508444  3
   6974   6973   6985   6987     1  0.0000000  0.6508444  3
   6975   6973   6985  13425     1  0.0000000  1.0460000  1
   6975   6973   6985  13425     1  0.0000000  0.0000000  3
   6975   6973   6985   6986     1  0.0000000  0.6508444  3
   6975   6973   6985   6987     1  0.0000000  0.6508444  3
   6976   6964   6960   6989     1  0.0000000  0.6508444  3
   6977   6976   6982  13402     1  0.0000000  1.0460000  1
   6977   6976   6982  13402     1  0.0000000  0.0000000  3
   6977   6976   6982   6983     1  0.0000000  0.6508444  3
   6977   6976   6982   6984     1  0.0000000  0.6508444  3
   6978   6976   6982  13402     1  0.0000000  1.0460000  1
   6978   6976   6982  13402     1  0.0000000  0.0000000  3
   6978   6976   6982   6983     1  0.0000000  0.6508444  3
   6978   6976   6982   6984     1  0.0000000  0.6508444  3
   6982  13402  13398  13401     1  0.0000000  1.6038667  3
   6983   6982  13402  13398     1  0.0000000  1.6038667  3
   6984   6982  13402  13398     1  0.0000000  1.6038667  3
   6985  13425  13421  13424     1  0.0000000  1.6038667  3
   6986   6985  13425  13421     1  0.0000000  1.6038667  3
   6987   6985  13425  13421     1  0.0000000  1.6038667  3
   6990   6991   7003   7004     1  0.0000000  0.6508444  3
   6990   6991   7003   7005     1  0.0000000  0.6508444  3
   6990   6994   7006   7007     1  0.0000000  0.6508444  3
   6990   6994   7006   7008     1  0.0000000  0.6508444  3
   6990   6997   7000   7001     1  0.0000000  0.6508444  3
   6990   6997   7000   7002     1  0.0000000  0.6508444  3
   6991   6990   6994   6995     1  0.0000000  0.6508444  3
   6991   6990   6994   6996     1  0.0000000  0.6508444  3
   6991   6990   6997   6998     1  0.0000000  0.6508444  3
   6991   6990   6997   6999     1  0.0000000  0.6508444  3
   6991   7003   7015   7016     1  0.0000000  0.6508444  3
   6991   7003   7015   7017     1  0.0000000  0.6508444  3
   6992   6991   6990   6994     1  0.0000000  0.6508444  3
   6992   6991   6990   6997     1  0.0000000  0.6508444  3
   6992   6991   6990   7019     1  0.0000000  0.6508444  3
   6992   6991   7003   7015     1  0.0000000  0.6508444  3
   6992   6991   7003   7004     1  0.0000000  0.6508444  3
   6992   6991   7003   7005     1  0.0000000  0.6508444  3
   6993   6991   6990   6994     1  0.0000000  0.6508444  3
   6993   6991   6990   6997     1  0.0000000  0.6508444  3
   6993   6991   6990   7019     1  0.0000000  0.6508444  3
   6993   6991   7003   7015     1  0.0000000  0.6508444  3
   6993   6991   7003   7004     1  0.0000000  0.6508444  3
   6993   6991   7003   7005     1  0.0000000  0.6508444  3
   6994   6990   6997   6998     1  0.0000000  0.6508444  3
   6994   6990   6997   6999     1  0.0000000  0.6508444  3
   6994   7006   7012   7013     1  0.0000000  0.6508444  3
   6994   7006   7012   7014     1  0.0000000  0.6508444  3
   6995   6994   6990   6997     1  0.0000000  0.6508444  3
   6995   6994   6990   7019     1  0.0000000  0.6508444  3
   6995   6994   7006   7012     1  0.0000000  0.6508444  3
   6995   6994   7006   7007     1  0.0000000  0.6508444  3
   6995   6994   7006   7008     1  0.0000000  0.6508444  3
   6996   6994   6990   6997     1  0.0000000  0.6508444  3
   6996   6994   6990   7019     1  0.0000000  0.6508444  3
   6996   6994   7006   7012     1  0.0000000  0.6508444  3
   6996   6994   7006   7007     1  0.0000000  0.6508444  3
   6996   6994   7006   7008     1  0.0000000  0.6508444  3
   6997   7000   7009   7010     1  0.0000000  0.6508444  3
   6997   7000   7009   7011     1  0.0000000  0.6508444  3
   6998   6997   6990   7019     1  0.0000000  0.6508444  3
   6998   6997   7000   7009     1  0.0000000  0.6508444  3
   6998   6997   7000   7001     1  0.0000000  0.6508444  3
   6998   6997   7000   7002     1  0.0000000  0.6508444  3
   6999   6997   6990   7019     1  0.0000000  0.6508444  3
   6999   6997   7000   7009     1  0.0000000  0.6508444  3
   6999   6997   7000   7001     1  0.0000000  0.6508444  3
   6999   6997   7000   7002     1  0.0000000  0.6508444  3
   7000   6997   6990   7019     1  0.0000000  0.6508444  3
   7001   7000   7009   7018     1  0.0000000  1.0460000  1
   7001   7000   7009   7018     1  0.0000000  0.0000000  3
   7001   7000   7009   7010     1  0.0000000  0.6508444  3
   7001   7000   7009   7011     1  0.0000000  0.6508444  3
   7002   7000   7009   7018     1  0.0000000  1.0460000  1
   7002   7000   7009   7018     1  0.0000000  0.0000000  3
   7002   7000   7009   7010     1  0.0000000  0.6508444  3
   7002   7000   7009   7011     1  0.0000000  0.6508444  3
   7003   6991   6990   7019     1  0.0000000  0.6508444  3
   7004   7003   7015  13471     1  0.0000000  1.0460000  1
   7004   7003   7015  13471     1  0.0000000  0.0000000  3
   7004   7003   7015   7016     1  0.0000000  0.6508444  3
   7004   7003   7015   7017     1  0.0000000  0.6508444  3
   7005   7003   7015  13471     1  0.0000000  1.0460000  1
   7005   7003   7015  13471     1  0.0000000  0.0000000  3
   7005   7003   7015   7016     1  0.0000000  0.6508444  3
   7005   7003   7015   7017     1  0.0000000  0.6508444  3
   7006   6994   6990   7019     1  0.0000000  0.6508444  3
   7007   7006   7012  13448     1  0.0000000  1.0460000  1
   7007   7006   7012  13448     1  0.0000000  0.0000000  3
   7007   7006   7012   7013     1  0.0000000  0.6508444  3
   7007   7006   7012   7014     1  0.0000000  0.6508444  3
   7008   7006   7012  13448     1  0.0000000  1.0460000  1
   7008   7006   7012  13448     1  0.0000000  0.0000000  3
   7008   7006   7012   7013     1  0.0000000  0.6508444  3
   7008   7006   7012   7014     1  0.0000000  0.6508444  3
   7012  13448  13444  13447     1  0.0000000  1.6038667  3
   7013   7012  13448  13444     1  0.0000000  1.6038667  3
   7014   7012  13448  13444     1  0.0000000  1.6038667  3
   7015  13471  13467  13470     1  0.0000000  1.6038667  3
   7016   7015  13471  13467     1  0.0000000  1.6038667  3
   7017   7015  13471  13467     1  0.0000000  1.6038667  3
   7020   7021   7033   7034     1  0.0000000  0.6508444  3
   7020   7021   7033   7035     1  0.0000000  0.6508444  3
   7020   7024   7036   7037     1  0.0000000  0.6508444  3
   7020   7024   7036   7038     1  0.0000000  0.6508444  3
   7020   7027   7030   7031     1  0.0000000  0.6508444  3
   7020   7027   7030   7032     1  0.0000000  0.6508444  3
   7021   7020   7024   7025     1  0.0000000  0.6508444  3
   7021   7020   7024   7026     1  0.0000000  0.6508444  3
   7021   7020   7027   7028     1  0.0000000  0.6508444  3
   7021   7020   7027   7029     1  0.0000000  0.6508444  3
   7021   7033   7045   7046     1  0.0000000  0.6508444  3
   7021   7033   7045   7047     1  0.0000000  0.6508444  3
   7022   7021   7020   7024     1  0.0000000  0.6508444  3
   7022   7021   7020   7027     1  0.0000000  0.6508444  3
   7022   7021   7020   7049     1  0.0000000  0.6508444  3
   7022   7021   7033   7045     1  0.0000000  0.6508444  3
   7022   7021   7033   7034     1  0.0000000  0.6508444  3
   7022   7021   7033   7035     1  0.0000000  0.6508444  3
   7023   7021   7020   7024     1  0.0000000  0.6508444  3
   7023   7021   7020   7027     1  0.0000000  0.6508444  3
   7023   7021   7020   7049     1  0.0000000  0.6508444  3
   7023   7021   7033   7045     1  0.0000000  0.6508444  3
   7023   7021   7033   7034     1  0.0000000  0.6508444  3
   7023   7021   7033   7035     1  0.0000000  0.6508444  3
   7024   7020   7027   7028     1  0.0000000  0.6508444  3
   7024   7020   7027   7029     1  0.0000000  0.6508444  3
   7024   7036   7042   7043     1  0.0000000  0.6508444  3
   7024   7036   7042   7044     1  0.0000000  0.6508444  3
   7025   7024   7020   7027     1  0.0000000  0.6508444  3
   7025   7024   7020   7049     1  0.0000000  0.6508444  3
   7025   7024   7036   7042     1  0.0000000  0.6508444  3
   7025   7024   7036   7037     1  0.0000000  0.6508444  3
   7025   7024   7036   7038     1  0.0000000  0.6508444  3
   7026   7024   7020   7027     1  0.0000000  0.6508444  3
   7026   7024   7020   7049     1  0.0000000  0.6508444  3
   7026   7024   7036   7042     1  0.0000000  0.6508444  3
   7026   7024   7036   7037     1  0.0000000  0.6508444  3
   7026   7024   7036   7038     1  0.0000000  0.6508444  3
   7027   7030   7039   7040     1  0.0000000  0.6508444  3
   7027   7030   7039   7041     1  0.0000000  0.6508444  3
   7028   7027   7020   7049     1  0.0000000  0.6508444  3
   7028   7027   7030   7039     1  0.0000000  0.6508444  3
   7028   7027   7030   7031     1  0.0000000  0.6508444  3
   7028   7027   7030   7032     1  0.0000000  0.6508444  3
   7029   7027   7020   7049     1  0.0000000  0.6508444  3
   7029   7027   7030   7039     1  0.0000000  0.6508444  3
   7029   7027   7030   7031     1  0.0000000  0.6508444  3
   7029   7027   7030   7032     1  0.0000000  0.6508444  3
   7030   7027   7020   7049     1  0.0000000  0.6508444  3
   7031   7030   7039   7048     1  0.0000000  1.0460000  1
   7031   7030   7039   7048     1  0.0000000  0.0000000  3
   7031   7030   7039   7040     1  0.0000000  0.6508444  3
   7031   7030   7039   7041     1  0.0000000  0.6508444  3
   7032   7030   7039   7048     1  0.0000000  1.0460000  1
   7032   7030   7039   7048     1  0.0000000  0.0000000  3
   7032   7030   7039   7040     1  0.0000000  0.6508444  3
   7032   7030   7039   7041     1  0.0000000  0.6508444  3
   7033   7021   7020   7049     1  0.0000000  0.6508444  3
   7034   7033   7045  13517     1  0.0000000  1.0460000  1
   7034   7033   7045  13517     1  0.0000000  0.0000000  3
   7034   7033   7045   7046     1  0.0000000  0.6508444  3
   7034   7033   7045   7047     1  0.0000000  0.6508444  3
   7035   7033   7045  13517     1  0.0000000  1.0460000  1
   7035   7033   7045  13517     1  0.0000000  0.0000000  3
   7035   7033   7045   7046     1  0.0000000  0.6508444  3
   7035   7033   7045   7047     1  0.0000000  0.6508444  3
   7036   7024   7020   7049     1  0.0000000  0.6508444  3
   7037   7036   7042  13494     1  0.0000000  1.0460000  1
   7037   7036   7042  13494     1  0.0000000  0.0000000  3
   7037   7036   7042   7043     1  0.0000000  0.6508444  3
   7037   7036   7042   7044     1  0.0000000  0.6508444  3
   7038   7036   7042  13494     1  0.0000000  1.0460000  1
   7038   7036   7042  13494     1  0.0000000  0.0000000  3
   7038   7036   7042   7043     1  0.0000000  0.6508444  3
   7038   7036   7042   7044     1  0.0000000  0.6508444  3
   7042  13494  13490  13493     1  0.0000000  1.6038667  3
   7043   7042  13494  13490     1  0.0000000  1.6038667  3
   7044   7042  13494  13490     1  0.0000000  1.6038667  3
   7045  13517  13513  13516     1  0.0000000  1.6038667  3
   7046   7045  13517  13513     1  0.0000000  1.6038667  3
   7047   7045  13517  13513     1  0.0000000  1.6038667  3
   7050   7051   7063   7064     1  0.0000000  0.6508444  3
   7050   7051   7063   7065     1  0.0000000  0.6508444  3
   7050   7054   7066   7067     1  0.0000000  0.6508444  3
   7050   7054   7066   7068     1  0.0000000  0.6508444  3
   7050   7057   7060   7061     1  0.0000000  0.6508444  3
   7050   7057   7060   7062     1  0.0000000  0.6508444  3
   7051   7050   7054   7055     1  0.0000000  0.6508444  3
   7051   7050   7054   7056     1  0.0000000  0.6508444  3
   7051   7050   7057   7058     1  0.0000000  0.6508444  3
   7051   7050   7057   7059     1  0.0000000  0.6508444  3
   7051   7063   7075   7076     1  0.0000000  0.6508444  3
   7051   7063   7075   7077     1  0.0000000  0.6508444  3
   7052   7051   7050   7054     1  0.0000000  0.6508444  3
   7052   7051   7050   7057     1  0.0000000  0.6508444  3
   7052   7051   7050   7079     1  0.0000000  0.6508444  3
   7052   7051   7063   7075     1  0.0000000  0.6508444  3
   7052   7051   7063   7064     1  0.0000000  0.6508444  3
   7052   7051   7063   7065     1  0.0000000  0.6508444  3
   7053   7051   7050   7054     1  0.0000000  0.6508444  3
   7053   7051   7050   7057     1  0.0000000  0.6508444  3
   7053   7051   7050   7079     1  0.0000000  0.6508444  3
   7053   7051   7063   7075     1  0.0000000  0.6508444  3
   7053   7051   7063   7064     1  0.0000000  0.6508444  3
   7053   7051   7063   7065     1  0.0000000  0.6508444  3
   7054   7050   7057   7058     1  0.0000000  0.6508444  3
   7054   7050   7057   7059     1  0.0000000  0.6508444  3
   7054   7066   7072   7073     1  0.0000000  0.6508444  3
   7054   7066   7072   7074     1  0.0000000  0.6508444  3
   7055   7054   7050   7057     1  0.0000000  0.6508444  3
   7055   7054   7050   7079     1  0.0000000  0.6508444  3
   7055   7054   7066   7072     1  0.0000000  0.6508444  3
   7055   7054   7066   7067     1  0.0000000  0.6508444  3
   7055   7054   7066   7068     1  0.0000000  0.6508444  3
   7056   7054   7050   7057     1  0.0000000  0.6508444  3
   7056   7054   7050   7079     1  0.0000000  0.6508444  3
   7056   7054   7066   7072     1  0.0000000  0.6508444  3
   7056   7054   7066   7067     1  0.0000000  0.6508444  3
   7056   7054   7066   7068     1  0.0000000  0.6508444  3
   7057   7060   7069   7070     1  0.0000000  0.6508444  3
   7057   7060   7069   7071     1  0.0000000  0.6508444  3
   7058   7057   7050   7079     1  0.0000000  0.6508444  3
   7058   7057   7060   7069     1  0.0000000  0.6508444  3
   7058   7057   7060   7061     1  0.0000000  0.6508444  3
   7058   7057   7060   7062     1  0.0000000  0.6508444  3
   7059   7057   7050   7079     1  0.0000000  0.6508444  3
   7059   7057   7060   7069     1  0.0000000  0.6508444  3
   7059   7057   7060   7061     1  0.0000000  0.6508444  3
   7059   7057   7060   7062     1  0.0000000  0.6508444  3
   7060   7057   7050   7079     1  0.0000000  0.6508444  3
   7061   7060   7069   7078     1  0.0000000  1.0460000  1
   7061   7060   7069   7078     1  0.0000000  0.0000000  3
   7061   7060   7069   7070     1  0.0000000  0.6508444  3
   7061   7060   7069   7071     1  0.0000000  0.6508444  3
   7062   7060   7069   7078     1  0.0000000  1.0460000  1
   7062   7060   7069   7078     1  0.0000000  0.0000000  3
   7062   7060   7069   7070     1  0.0000000  0.6508444  3
   7062   7060   7069   7071     1  0.0000000  0.6508444  3
   7063   7051   7050   7079     1  0.0000000  0.6508444  3
   7064   7063   7075  13563     1  0.0000000  1.0460000  1
   7064   7063   7075  13563     1  0.0000000  0.0000000  3
   7064   7063   7075   7076     1  0.0000000  0.6508444  3
   7064   7063   7075   7077     1  0.0000000  0.6508444  3
   7065   7063   7075  13563     1  0.0000000  1.0460000  1
   7065   7063   7075  13563     1  0.0000000  0.0000000  3
   7065   7063   7075   7076     1  0.0000000  0.6508444  3
   7065   7063   7075   7077     1  0.0000000  0.6508444  3
   7066   7054   7050   7079     1  0.0000000  0.6508444  3
   7067   7066   7072  13540     1  0.0000000  1.0460000  1
   7067   7066   7072  13540     1  0.0000000  0.0000000  3
   7067   7066   7072   7073     1  0.0000000  0.6508444  3
   7067   7066   7072   7074     1  0.0000000  0.6508444  3
   7068   7066   7072  13540     1  0.0000000  1.0460000  1
   7068   7066   7072  13540     1  0.0000000  0.0000000  3
   7068   7066   7072   7073     1  0.0000000  0.6508444  3
   7068   7066   7072   7074     1  0.0000000  0.6508444  3
   7072  13540  13536  13539     1  0.0000000  1.6038667  3
   7073   7072  13540  13536     1  0.0000000  1.6038667  3
   7074   7072  13540  13536     1  0.0000000  1.6038667  3
   7075  13563  13559  13562     1  0.0000000  1.6038667  3
   7076   7075  13563  13559     1  0.0000000  1.6038667  3
   7077   7075  13563  13559     1  0.0000000  1.6038667  3
   7080   7081   7093   7094     1  0.0000000  0.6508444  3
   7080   7081   7093   7095     1  0.0000000  0.6508444  3
   7080   7084   7096   7097     1  0.0000000  0.6508444  3
   7080   7084   7096   7098     1  0.0000000  0.6508444  3
   7080   7087   7090   7091     1  0.0000000  0.6508444  3
   7080   7087   7090   7092     1  0.0000000  0.6508444  3
   7081   7080   7084   7085     1  0.0000000  0.6508444  3
   7081   7080   7084   7086     1  0.0000000  0.6508444  3
   7081   7080   7087   7088     1  0.0000000  0.6508444  3
   7081   7080   7087   7089     1  0.0000000  0.6508444  3
   7081   7093   7105   7106     1  0.0000000  0.6508444  3
   7081   7093   7105   7107     1  0.0000000  0.6508444  3
   7082   7081   7080   7084     1  0.0000000  0.6508444  3
   7082   7081   7080   7087     1  0.0000000  0.6508444  3
   7082   7081   7080   7109     1  0.0000000  0.6508444  3
   7082   7081   7093   7105     1  0.0000000  0.6508444  3
   7082   7081   7093   7094     1  0.0000000  0.6508444  3
   7082   7081   7093   7095     1  0.0000000  0.6508444  3
   7083   7081   7080   7084     1  0.0000000  0.6508444  3
   7083   7081   7080   7087     1  0.0000000  0.6508444  3
   7083   7081   7080   7109     1  0.0000000  0.6508444  3
   7083   7081   7093   7105     1  0.0000000  0.6508444  3
   7083   7081   7093   7094     1  0.0000000  0.6508444  3
   7083   7081   7093   7095     1  0.0000000  0.6508444  3
   7084   7080   7087   7088     1  0.0000000  0.6508444  3
   7084   7080   7087   7089     1  0.0000000  0.6508444  3
   7084   7096   7102   7103     1  0.0000000  0.6508444  3
   7084   7096   7102   7104     1  0.0000000  0.6508444  3
   7085   7084   7080   7087     1  0.0000000  0.6508444  3
   7085   7084   7080   7109     1  0.0000000  0.6508444  3
   7085   7084   7096   7102     1  0.0000000  0.6508444  3
   7085   7084   7096   7097     1  0.0000000  0.6508444  3
   7085   7084   7096   7098     1  0.0000000  0.6508444  3
   7086   7084   7080   7087     1  0.0000000  0.6508444  3
   7086   7084   7080   7109     1  0.0000000  0.6508444  3
   7086   7084   7096   7102     1  0.0000000  0.6508444  3
   7086   7084   7096   7097     1  0.0000000  0.6508444  3
   7086   7084   7096   7098     1  0.0000000  0.6508444  3
   7087   7090   7099   7100     1  0.0000000  0.6508444  3
   7087   7090   7099   7101     1  0.0000000  0.6508444  3
   7088   7087   7080   7109     1  0.0000000  0.6508444  3
   7088   7087   7090   7099     1  0.0000000  0.6508444  3
   7088   7087   7090   7091     1  0.0000000  0.6508444  3
   7088   7087   7090   7092     1  0.0000000  0.6508444  3
   7089   7087   7080   7109     1  0.0000000  0.6508444  3
   7089   7087   7090   7099     1  0.0000000  0.6508444  3
   7089   7087   7090   7091     1  0.0000000  0.6508444  3
   7089   7087   7090   7092     1  0.0000000  0.6508444  3
   7090   7087   7080   7109     1  0.0000000  0.6508444  3
   7091   7090   7099   7108     1  0.0000000  1.0460000  1
   7091   7090   7099   7108     1  0.0000000  0.0000000  3
   7091   7090   7099   7100     1  0.0000000  0.6508444  3
   7091   7090   7099   7101     1  0.0000000  0.6508444  3
   7092   7090   7099   7108     1  0.0000000  1.0460000  1
   7092   7090   7099   7108     1  0.0000000  0.0000000  3
   7092   7090   7099   7100     1  0.0000000  0.6508444  3
   7092   7090   7099   7101     1  0.0000000  0.6508444  3
   7093   7081   7080   7109     1  0.0000000  0.6508444  3
   7094   7093   7105  13609     1  0.0000000  1.0460000  1
   7094   7093   7105  13609     1  0.0000000  0.0000000  3
   7094   7093   7105   7106     1  0.0000000  0.6508444  3
   7094   7093   7105   7107     1  0.0000000  0.6508444  3
   7095   7093   7105  13609     1  0.0000000  1.0460000  1
   7095   7093   7105  13609     1  0.0000000  0.0000000  3
   7095   7093   7105   7106     1  0.0000000  0.6508444  3
   7095   7093   7105   7107     1  0.0000000  0.6508444  3
   7096   7084   7080   7109     1  0.0000000  0.6508444  3
   7097   7096   7102  13586     1  0.0000000  1.0460000  1
   7097   7096   7102  13586     1  0.0000000  0.0000000  3
   7097   7096   7102   7103     1  0.0000000  0.6508444  3
   7097   7096   7102   7104     1  0.0000000  0.6508444  3
   7098   7096   7102  13586     1  0.0000000  1.0460000  1
   7098   7096   7102  13586     1  0.0000000  0.0000000  3
   7098   7096   7102   7103     1  0.0000000  0.6508444  3
   7098   7096   7102   7104     1  0.0000000  0.6508444  3
   7102  13586  13582  13585     1  0.0000000  1.6038667  3
   7103   7102  13586  13582     1  0.0000000  1.6038667  3
   7104   7102  13586  13582     1  0.0000000  1.6038667  3
   7105  13609  13605  13608     1  0.0000000  1.6038667  3
   7106   7105  13609  13605     1  0.0000000  1.6038667  3
   7107   7105  13609  13605     1  0.0000000  1.6038667  3
   7110   7111   7123   7124     1  0.0000000  0.6508444  3
   7110   7111   7123   7125     1  0.0000000  0.6508444  3
   7110   7114   7126   7127     1  0.0000000  0.6508444  3
   7110   7114   7126   7128     1  0.0000000  0.6508444  3
   7110   7117   7120   7121     1  0.0000000  0.6508444  3
   7110   7117   7120   7122     1  0.0000000  0.6508444  3
   7111   7110   7114   7115     1  0.0000000  0.6508444  3
   7111   7110   7114   7116     1  0.0000000  0.6508444  3
   7111   7110   7117   7118     1  0.0000000  0.6508444  3
   7111   7110   7117   7119     1  0.0000000  0.6508444  3
   7111   7123   7135   7136     1  0.0000000  0.6508444  3
   7111   7123   7135   7137     1  0.0000000  0.6508444  3
   7112   7111   7110   7114     1  0.0000000  0.6508444  3
   7112   7111   7110   7117     1  0.0000000  0.6508444  3
   7112   7111   7110   7139     1  0.0000000  0.6508444  3
   7112   7111   7123   7135     1  0.0000000  0.6508444  3
   7112   7111   7123   7124     1  0.0000000  0.6508444  3
   7112   7111   7123   7125     1  0.0000000  0.6508444  3
   7113   7111   7110   7114     1  0.0000000  0.6508444  3
   7113   7111   7110   7117     1  0.0000000  0.6508444  3
   7113   7111   7110   7139     1  0.0000000  0.6508444  3
   7113   7111   7123   7135     1  0.0000000  0.6508444  3
   7113   7111   7123   7124     1  0.0000000  0.6508444  3
   7113   7111   7123   7125     1  0.0000000  0.6508444  3
   7114   7110   7117   7118     1  0.0000000  0.6508444  3
   7114   7110   7117   7119     1  0.0000000  0.6508444  3
   7114   7126   7132   7133     1  0.0000000  0.6508444  3
   7114   7126   7132   7134     1  0.0000000  0.6508444  3
   7115   7114   7110   7117     1  0.0000000  0.6508444  3
   7115   7114   7110   7139     1  0.0000000  0.6508444  3
   7115   7114   7126   7132     1  0.0000000  0.6508444  3
   7115   7114   7126   7127     1  0.0000000  0.6508444  3
   7115   7114   7126   7128     1  0.0000000  0.6508444  3
   7116   7114   7110   7117     1  0.0000000  0.6508444  3
   7116   7114   7110   7139     1  0.0000000  0.6508444  3
   7116   7114   7126   7132     1  0.0000000  0.6508444  3
   7116   7114   7126   7127     1  0.0000000  0.6508444  3
   7116   7114   7126   7128     1  0.0000000  0.6508444  3
   7117   7120   7129   7130     1  0.0000000  0.6508444  3
   7117   7120   7129   7131     1  0.0000000  0.6508444  3
   7118   7117   7110   7139     1  0.0000000  0.6508444  3
   7118   7117   7120   7129     1  0.0000000  0.6508444  3
   7118   7117   7120   7121     1  0.0000000  0.6508444  3
   7118   7117   7120   7122     1  0.0000000  0.6508444  3
   7119   7117   7110   7139     1  0.0000000  0.6508444  3
   7119   7117   7120   7129     1  0.0000000  0.6508444  3
   7119   7117   7120   7121     1  0.0000000  0.6508444  3
   7119   7117   7120   7122     1  0.0000000  0.6508444  3
   7120   7117   7110   7139     1  0.0000000  0.6508444  3
   7121   7120   7129   7138     1  0.0000000  1.0460000  1
   7121   7120   7129   7138     1  0.0000000  0.0000000  3
   7121   7120   7129   7130     1  0.0000000  0.6508444  3
   7121   7120   7129   7131     1  0.0000000  0.6508444  3
   7122   7120   7129   7138     1  0.0000000  1.0460000  1
   7122   7120   7129   7138     1  0.0000000  0.0000000  3
   7122   7120   7129   7130     1  0.0000000  0.6508444  3
   7122   7120   7129   7131     1  0.0000000  0.6508444  3
   7123   7111   7110   7139     1  0.0000000  0.6508444  3
   7124   7123   7135  13655     1  0.0000000  1.0460000  1
   7124   7123   7135  13655     1  0.0000000  0.0000000  3
   7124   7123   7135   7136     1  0.0000000  0.6508444  3
   7124   7123   7135   7137     1  0.0000000  0.6508444  3
   7125   7123   7135  13655     1  0.0000000  1.0460000  1
   7125   7123   7135  13655     1  0.0000000  0.0000000  3
   7125   7123   7135   7136     1  0.0000000  0.6508444  3
   7125   7123   7135   7137     1  0.0000000  0.6508444  3
   7126   7114   7110   7139     1  0.0000000  0.6508444  3
   7127   7126   7132  13632     1  0.0000000  1.0460000  1
   7127   7126   7132  13632     1  0.0000000  0.0000000  3
   7127   7126   7132   7133     1  0.0000000  0.6508444  3
   7127   7126   7132   7134     1  0.0000000  0.6508444  3
   7128   7126   7132  13632     1  0.0000000  1.0460000  1
   7128   7126   7132  13632     1  0.0000000  0.0000000  3
   7128   7126   7132   7133     1  0.0000000  0.6508444  3
   7128   7126   7132   7134     1  0.0000000  0.6508444  3
   7132  13632  13628  13631     1  0.0000000  1.6038667  3
   7133   7132  13632  13628     1  0.0000000  1.6038667  3
   7134   7132  13632  13628     1  0.0000000  1.6038667  3
   7135  13655  13651  13654     1  0.0000000  1.6038667  3
   7136   7135  13655  13651     1  0.0000000  1.6038667  3
   7137   7135  13655  13651     1  0.0000000  1.6038667  3
   7140   7141   7153   7154     1  0.0000000  0.6508444  3
   7140   7141   7153   7155     1  0.0000000  0.6508444  3
   7140   7144   7156   7157     1  0.0000000  0.6508444  3
   7140   7144   7156   7158     1  0.0000000  0.6508444  3
   7140   7147   7150   7151     1  0.0000000  0.6508444  3
   7140   7147   7150   7152     1  0.0000000  0.6508444  3
   7141   7140   7144   7145     1  0.0000000  0.6508444  3
   7141   7140   7144   7146     1  0.0000000  0.6508444  3
   7141   7140   7147   7148     1  0.0000000  0.6508444  3
   7141   7140   7147   7149     1  0.0000000  0.6508444  3
   7141   7153   7165   7166     1  0.0000000  0.6508444  3
   7141   7153   7165   7167     1  0.0000000  0.6508444  3
   7142   7141   7140   7144     1  0.0000000  0.6508444  3
   7142   7141   7140   7147     1  0.0000000  0.6508444  3
   7142   7141   7140   7169     1  0.0000000  0.6508444  3
   7142   7141   7153   7165     1  0.0000000  0.6508444  3
   7142   7141   7153   7154     1  0.0000000  0.6508444  3
   7142   7141   7153   7155     1  0.0000000  0.6508444  3
   7143   7141   7140   7144     1  0.0000000  0.6508444  3
   7143   7141   7140   7147     1  0.0000000  0.6508444  3
   7143   7141   7140   7169     1  0.0000000  0.6508444  3
   7143   7141   7153   7165     1  0.0000000  0.6508444  3
   7143   7141   7153   7154     1  0.0000000  0.6508444  3
   7143   7141   7153   7155     1  0.0000000  0.6508444  3
   7144   7140   7147   7148     1  0.0000000  0.6508444  3
   7144   7140   7147   7149     1  0.0000000  0.6508444  3
   7144   7156   7162   7163     1  0.0000000  0.6508444  3
   7144   7156   7162   7164     1  0.0000000  0.6508444  3
   7145   7144   7140   7147     1  0.0000000  0.6508444  3
   7145   7144   7140   7169     1  0.0000000  0.6508444  3
   7145   7144   7156   7162     1  0.0000000  0.6508444  3
   7145   7144   7156   7157     1  0.0000000  0.6508444  3
   7145   7144   7156   7158     1  0.0000000  0.6508444  3
   7146   7144   7140   7147     1  0.0000000  0.6508444  3
   7146   7144   7140   7169     1  0.0000000  0.6508444  3
   7146   7144   7156   7162     1  0.0000000  0.6508444  3
   7146   7144   7156   7157     1  0.0000000  0.6508444  3
   7146   7144   7156   7158     1  0.0000000  0.6508444  3
   7147   7150   7159   7160     1  0.0000000  0.6508444  3
   7147   7150   7159   7161     1  0.0000000  0.6508444  3
   7148   7147   7140   7169     1  0.0000000  0.6508444  3
   7148   7147   7150   7159     1  0.0000000  0.6508444  3
   7148   7147   7150   7151     1  0.0000000  0.6508444  3
   7148   7147   7150   7152     1  0.0000000  0.6508444  3
   7149   7147   7140   7169     1  0.0000000  0.6508444  3
   7149   7147   7150   7159     1  0.0000000  0.6508444  3
   7149   7147   7150   7151     1  0.0000000  0.6508444  3
   7149   7147   7150   7152     1  0.0000000  0.6508444  3
   7150   7147   7140   7169     1  0.0000000  0.6508444  3
   7151   7150   7159   7168     1  0.0000000  1.0460000  1
   7151   7150   7159   7168     1  0.0000000  0.0000000  3
   7151   7150   7159   7160     1  0.0000000  0.6508444  3
   7151   7150   7159   7161     1  0.0000000  0.6508444  3
   7152   7150   7159   7168     1  0.0000000  1.0460000  1
   7152   7150   7159   7168     1  0.0000000  0.0000000  3
   7152   7150   7159   7160     1  0.0000000  0.6508444  3
   7152   7150   7159   7161     1  0.0000000  0.6508444  3
   7153   7141   7140   7169     1  0.0000000  0.6508444  3
   7154   7153   7165  13701     1  0.0000000  1.0460000  1
   7154   7153   7165  13701     1  0.0000000  0.0000000  3
   7154   7153   7165   7166     1  0.0000000  0.6508444  3
   7154   7153   7165   7167     1  0.0000000  0.6508444  3
   7155   7153   7165  13701     1  0.0000000  1.0460000  1
   7155   7153   7165  13701     1  0.0000000  0.0000000  3
   7155   7153   7165   7166     1  0.0000000  0.6508444  3
   7155   7153   7165   7167     1  0.0000000  0.6508444  3
   7156   7144   7140   7169     1  0.0000000  0.6508444  3
   7157   7156   7162  13678     1  0.0000000  1.0460000  1
   7157   7156   7162  13678     1  0.0000000  0.0000000  3
   7157   7156   7162   7163     1  0.0000000  0.6508444  3
   7157   7156   7162   7164     1  0.0000000  0.6508444  3
   7158   7156   7162  13678     1  0.0000000  1.0460000  1
   7158   7156   7162  13678     1  0.0000000  0.0000000  3
   7158   7156   7162   7163     1  0.0000000  0.6508444  3
   7158   7156   7162   7164     1  0.0000000  0.6508444  3
   7162  13678  13674  13677     1  0.0000000  1.6038667  3
   7163   7162  13678  13674     1  0.0000000  1.6038667  3
   7164   7162  13678  13674     1  0.0000000  1.6038667  3
   7165  13701  13697  13700     1  0.0000000  1.6038667  3
   7166   7165  13701  13697     1  0.0000000  1.6038667  3
   7167   7165  13701  13697     1  0.0000000  1.6038667  3
   7170   7171   7183   7184     1  0.0000000  0.6508444  3
   7170   7171   7183   7185     1  0.0000000  0.6508444  3
   7170   7174   7186   7187     1  0.0000000  0.6508444  3
   7170   7174   7186   7188     1  0.0000000  0.6508444  3
   7170   7177   7180   7181     1  0.0000000  0.6508444  3
   7170   7177   7180   7182     1  0.0000000  0.6508444  3
   7171   7170   7174   7175     1  0.0000000  0.6508444  3
   7171   7170   7174   7176     1  0.0000000  0.6508444  3
   7171   7170   7177   7178     1  0.0000000  0.6508444  3
   7171   7170   7177   7179     1  0.0000000  0.6508444  3
   7171   7183   7195   7196     1  0.0000000  0.6508444  3
   7171   7183   7195   7197     1  0.0000000  0.6508444  3
   7172   7171   7170   7174     1  0.0000000  0.6508444  3
   7172   7171   7170   7177     1  0.0000000  0.6508444  3
   7172   7171   7170   7199     1  0.0000000  0.6508444  3
   7172   7171   7183   7195     1  0.0000000  0.6508444  3
   7172   7171   7183   7184     1  0.0000000  0.6508444  3
   7172   7171   7183   7185     1  0.0000000  0.6508444  3
   7173   7171   7170   7174     1  0.0000000  0.6508444  3
   7173   7171   7170   7177     1  0.0000000  0.6508444  3
   7173   7171   7170   7199     1  0.0000000  0.6508444  3
   7173   7171   7183   7195     1  0.0000000  0.6508444  3
   7173   7171   7183   7184     1  0.0000000  0.6508444  3
   7173   7171   7183   7185     1  0.0000000  0.6508444  3
   7174   7170   7177   7178     1  0.0000000  0.6508444  3
   7174   7170   7177   7179     1  0.0000000  0.6508444  3
   7174   7186   7192   7193     1  0.0000000  0.6508444  3
   7174   7186   7192   7194     1  0.0000000  0.6508444  3
   7175   7174   7170   7177     1  0.0000000  0.6508444  3
   7175   7174   7170   7199     1  0.0000000  0.6508444  3
   7175   7174   7186   7192     1  0.0000000  0.6508444  3
   7175   7174   7186   7187     1  0.0000000  0.6508444  3
   7175   7174   7186   7188     1  0.0000000  0.6508444  3
   7176   7174   7170   7177     1  0.0000000  0.6508444  3
   7176   7174   7170   7199     1  0.0000000  0.6508444  3
   7176   7174   7186   7192     1  0.0000000  0.6508444  3
   7176   7174   7186   7187     1  0.0000000  0.6508444  3
   7176   7174   7186   7188     1  0.0000000  0.6508444  3
   7177   7180   7189   7190     1  0.0000000  0.6508444  3
   7177   7180   7189   7191     1  0.0000000  0.6508444  3
   7178   7177   7170   7199     1  0.0000000  0.6508444  3
   7178   7177   7180   7189     1  0.0000000  0.6508444  3
   7178   7177   7180   7181     1  0.0000000  0.6508444  3
   7178   7177   7180   7182     1  0.0000000  0.6508444  3
   7179   7177   7170   7199     1  0.0000000  0.6508444  3
   7179   7177   7180   7189     1  0.0000000  0.6508444  3
   7179   7177   7180   7181     1  0.0000000  0.6508444  3
   7179   7177   7180   7182     1  0.0000000  0.6508444  3
   7180   7177   7170   7199     1  0.0000000  0.6508444  3
   7181   7180   7189   7198     1  0.0000000  1.0460000  1
   7181   7180   7189   7198     1  0.0000000  0.0000000  3
   7181   7180   7189   7190     1  0.0000000  0.6508444  3
   7181   7180   7189   7191     1  0.0000000  0.6508444  3
   7182   7180   7189   7198     1  0.0000000  1.0460000  1
   7182   7180   7189   7198     1  0.0000000  0.0000000  3
   7182   7180   7189   7190     1  0.0000000  0.6508444  3
   7182   7180   7189   7191     1  0.0000000  0.6508444  3
   7183   7171   7170   7199     1  0.0000000  0.6508444  3
   7184   7183   7195  13747     1  0.0000000  1.0460000  1
   7184   7183   7195  13747     1  0.0000000  0.0000000  3
   7184   7183   7195   7196     1  0.0000000  0.6508444  3
   7184   7183   7195   7197     1  0.0000000  0.6508444  3
   7185   7183   7195  13747     1  0.0000000  1.0460000  1
   7185   7183   7195  13747     1  0.0000000  0.0000000  3
   7185   7183   7195   7196     1  0.0000000  0.6508444  3
   7185   7183   7195   7197     1  0.0000000  0.6508444  3
   7186   7174   7170   7199     1  0.0000000  0.6508444  3
   7187   7186   7192  13724     1  0.0000000  1.0460000  1
   7187   7186   7192  13724     1  0.0000000  0.0000000  3
   7187   7186   7192   7193     1  0.0000000  0.6508444  3
   7187   7186   7192   7194     1  0.0000000  0.6508444  3
   7188   7186   7192  13724     1  0.0000000  1.0460000  1
   7188   7186   7192  13724     1  0.0000000  0.0000000  3
   7188   7186   7192   7193     1  0.0000000  0.6508444  3
   7188   7186   7192   7194     1  0.0000000  0.6508444  3
   7192  13724  13720  13723     1  0.0000000  1.6038667  3
   7193   7192  13724  13720     1  0.0000000  1.6038667  3
   7194   7192  13724  13720     1  0.0000000  1.6038667  3
   7195  13747  13743  13746     1  0.0000000  1.6038667  3
   7196   7195  13747  13743     1  0.0000000  1.6038667  3
   7197   7195  13747  13743     1  0.0000000  1.6038667  3
   7200   7201   7213   7214     1  0.0000000  0.6508444  3
   7200   7201   7213   7215     1  0.0000000  0.6508444  3
   7200   7204   7216   7217     1  0.0000000  0.6508444  3
   7200   7204   7216   7218     1  0.0000000  0.6508444  3
   7200   7207   7210   7211     1  0.0000000  0.6508444  3
   7200   7207   7210   7212     1  0.0000000  0.6508444  3
   7201   7200   7204   7205     1  0.0000000  0.6508444  3
   7201   7200   7204   7206     1  0.0000000  0.6508444  3
   7201   7200   7207   7208     1  0.0000000  0.6508444  3
   7201   7200   7207   7209     1  0.0000000  0.6508444  3
   7201   7213   7225   7226     1  0.0000000  0.6508444  3
   7201   7213   7225   7227     1  0.0000000  0.6508444  3
   7202   7201   7200   7204     1  0.0000000  0.6508444  3
   7202   7201   7200   7207     1  0.0000000  0.6508444  3
   7202   7201   7200   7229     1  0.0000000  0.6508444  3
   7202   7201   7213   7225     1  0.0000000  0.6508444  3
   7202   7201   7213   7214     1  0.0000000  0.6508444  3
   7202   7201   7213   7215     1  0.0000000  0.6508444  3
   7203   7201   7200   7204     1  0.0000000  0.6508444  3
   7203   7201   7200   7207     1  0.0000000  0.6508444  3
   7203   7201   7200   7229     1  0.0000000  0.6508444  3
   7203   7201   7213   7225     1  0.0000000  0.6508444  3
   7203   7201   7213   7214     1  0.0000000  0.6508444  3
   7203   7201   7213   7215     1  0.0000000  0.6508444  3
   7204   7200   7207   7208     1  0.0000000  0.6508444  3
   7204   7200   7207   7209     1  0.0000000  0.6508444  3
   7204   7216   7222   7223     1  0.0000000  0.6508444  3
   7204   7216   7222   7224     1  0.0000000  0.6508444  3
   7205   7204   7200   7207     1  0.0000000  0.6508444  3
   7205   7204   7200   7229     1  0.0000000  0.6508444  3
   7205   7204   7216   7222     1  0.0000000  0.6508444  3
   7205   7204   7216   7217     1  0.0000000  0.6508444  3
   7205   7204   7216   7218     1  0.0000000  0.6508444  3
   7206   7204   7200   7207     1  0.0000000  0.6508444  3
   7206   7204   7200   7229     1  0.0000000  0.6508444  3
   7206   7204   7216   7222     1  0.0000000  0.6508444  3
   7206   7204   7216   7217     1  0.0000000  0.6508444  3
   7206   7204   7216   7218     1  0.0000000  0.6508444  3
   7207   7210   7219   7220     1  0.0000000  0.6508444  3
   7207   7210   7219   7221     1  0.0000000  0.6508444  3
   7208   7207   7200   7229     1  0.0000000  0.6508444  3
   7208   7207   7210   7219     1  0.0000000  0.6508444  3
   7208   7207   7210   7211     1  0.0000000  0.6508444  3
   7208   7207   7210   7212     1  0.0000000  0.6508444  3
   7209   7207   7200   7229     1  0.0000000  0.6508444  3
   7209   7207   7210   7219     1  0.0000000  0.6508444  3
   7209   7207   7210   7211     1  0.0000000  0.6508444  3
   7209   7207   7210   7212     1  0.0000000  0.6508444  3
   7210   7207   7200   7229     1  0.0000000  0.6508444  3
   7211   7210   7219   7228     1  0.0000000  1.0460000  1
   7211   7210   7219   7228     1  0.0000000  0.0000000  3
   7211   7210   7219   7220     1  0.0000000  0.6508444  3
   7211   7210   7219   7221     1  0.0000000  0.6508444  3
   7212   7210   7219   7228     1  0.0000000  1.0460000  1
   7212   7210   7219   7228     1  0.0000000  0.0000000  3
   7212   7210   7219   7220     1  0.0000000  0.6508444  3
   7212   7210   7219   7221     1  0.0000000  0.6508444  3
   7213   7201   7200   7229     1  0.0000000  0.6508444  3
   7214   7213   7225  13793     1  0.0000000  1.0460000  1
   7214   7213   7225  13793     1  0.0000000  0.0000000  3
   7214   7213   7225   7226     1  0.0000000  0.6508444  3
   7214   7213   7225   7227     1  0.0000000  0.6508444  3
   7215   7213   7225  13793     1  0.0000000  1.0460000  1
   7215   7213   7225  13793     1  0.0000000  0.0000000  3
   7215   7213   7225   7226     1  0.0000000  0.6508444  3
   7215   7213   7225   7227     1  0.0000000  0.6508444  3
   7216   7204   7200   7229     1  0.0000000  0.6508444  3
   7217   7216   7222  13770     1  0.0000000  1.0460000  1
   7217   7216   7222  13770     1  0.0000000  0.0000000  3
   7217   7216   7222   7223     1  0.0000000  0.6508444  3
   7217   7216   7222   7224     1  0.0000000  0.6508444  3
   7218   7216   7222  13770     1  0.0000000  1.0460000  1
   7218   7216   7222  13770     1  0.0000000  0.0000000  3
   7218   7216   7222   7223     1  0.0000000  0.6508444  3
   7218   7216   7222   7224     1  0.0000000  0.6508444  3
   7222  13770  13766  13769     1  0.0000000  1.6038667  3
   7223   7222  13770  13766     1  0.0000000  1.6038667  3
   7224   7222  13770  13766     1  0.0000000  1.6038667  3
   7225  13793  13789  13792     1  0.0000000  1.6038667  3
   7226   7225  13793  13789     1  0.0000000  1.6038667  3
   7227   7225  13793  13789     1  0.0000000  1.6038667  3
   7230   7231   7243   7244     1  0.0000000  0.6508444  3
   7230   7231   7243   7245     1  0.0000000  0.6508444  3
   7230   7234   7246   7247     1  0.0000000  0.6508444  3
   7230   7234   7246   7248     1  0.0000000  0.6508444  3
   7230   7237   7240   7241     1  0.0000000  0.6508444  3
   7230   7237   7240   7242     1  0.0000000  0.6508444  3
   7231   7230   7234   7235     1  0.0000000  0.6508444  3
   7231   7230   7234   7236     1  0.0000000  0.6508444  3
   7231   7230   7237   7238     1  0.0000000  0.6508444  3
   7231   7230   7237   7239     1  0.0000000  0.6508444  3
   7231   7243   7255   7256     1  0.0000000  0.6508444  3
   7231   7243   7255   7257     1  0.0000000  0.6508444  3
   7232   7231   7230   7234     1  0.0000000  0.6508444  3
   7232   7231   7230   7237     1  0.0000000  0.6508444  3
   7232   7231   7230   7259     1  0.0000000  0.6508444  3
   7232   7231   7243   7255     1  0.0000000  0.6508444  3
   7232   7231   7243   7244     1  0.0000000  0.6508444  3
   7232   7231   7243   7245     1  0.0000000  0.6508444  3
   7233   7231   7230   7234     1  0.0000000  0.6508444  3
   7233   7231   7230   7237     1  0.0000000  0.6508444  3
   7233   7231   7230   7259     1  0.0000000  0.6508444  3
   7233   7231   7243   7255     1  0.0000000  0.6508444  3
   7233   7231   7243   7244     1  0.0000000  0.6508444  3
   7233   7231   7243   7245     1  0.0000000  0.6508444  3
   7234   7230   7237   7238     1  0.0000000  0.6508444  3
   7234   7230   7237   7239     1  0.0000000  0.6508444  3
   7234   7246   7252   7253     1  0.0000000  0.6508444  3
   7234   7246   7252   7254     1  0.0000000  0.6508444  3
   7235   7234   7230   7237     1  0.0000000  0.6508444  3
   7235   7234   7230   7259     1  0.0000000  0.6508444  3
   7235   7234   7246   7252     1  0.0000000  0.6508444  3
   7235   7234   7246   7247     1  0.0000000  0.6508444  3
   7235   7234   7246   7248     1  0.0000000  0.6508444  3
   7236   7234   7230   7237     1  0.0000000  0.6508444  3
   7236   7234   7230   7259     1  0.0000000  0.6508444  3
   7236   7234   7246   7252     1  0.0000000  0.6508444  3
   7236   7234   7246   7247     1  0.0000000  0.6508444  3
   7236   7234   7246   7248     1  0.0000000  0.6508444  3
   7237   7240   7249   7250     1  0.0000000  0.6508444  3
   7237   7240   7249   7251     1  0.0000000  0.6508444  3
   7238   7237   7230   7259     1  0.0000000  0.6508444  3
   7238   7237   7240   7249     1  0.0000000  0.6508444  3
   7238   7237   7240   7241     1  0.0000000  0.6508444  3
   7238   7237   7240   7242     1  0.0000000  0.6508444  3
   7239   7237   7230   7259     1  0.0000000  0.6508444  3
   7239   7237   7240   7249     1  0.0000000  0.6508444  3
   7239   7237   7240   7241     1  0.0000000  0.6508444  3
   7239   7237   7240   7242     1  0.0000000  0.6508444  3
   7240   7237   7230   7259     1  0.0000000  0.6508444  3
   7241   7240   7249   7258     1  0.0000000  1.0460000  1
   7241   7240   7249   7258     1  0.0000000  0.0000000  3
   7241   7240   7249   7250     1  0.0000000  0.6508444  3
   7241   7240   7249   7251     1  0.0000000  0.6508444  3
   7242   7240   7249   7258     1  0.0000000  1.0460000  1
   7242   7240   7249   7258     1  0.0000000  0.0000000  3
   7242   7240   7249   7250     1  0.0000000  0.6508444  3
   7242   7240   7249   7251     1  0.0000000  0.6508444  3
   7243   7231   7230   7259     1  0.0000000  0.6508444  3
   7244   7243   7255  13839     1  0.0000000  1.0460000  1
   7244   7243   7255  13839     1  0.0000000  0.0000000  3
   7244   7243   7255   7256     1  0.0000000  0.6508444  3
   7244   7243   7255   7257     1  0.0000000  0.6508444  3
   7245   7243   7255  13839     1  0.0000000  1.0460000  1
   7245   7243   7255  13839     1  0.0000000  0.0000000  3
   7245   7243   7255   7256     1  0.0000000  0.6508444  3
   7245   7243   7255   7257     1  0.0000000  0.6508444  3
   7246   7234   7230   7259     1  0.0000000  0.6508444  3
   7247   7246   7252  13816     1  0.0000000  1.0460000  1
   7247   7246   7252  13816     1  0.0000000  0.0000000  3
   7247   7246   7252   7253     1  0.0000000  0.6508444  3
   7247   7246   7252   7254     1  0.0000000  0.6508444  3
   7248   7246   7252  13816     1  0.0000000  1.0460000  1
   7248   7246   7252  13816     1  0.0000000  0.0000000  3
   7248   7246   7252   7253     1  0.0000000  0.6508444  3
   7248   7246   7252   7254     1  0.0000000  0.6508444  3
   7252  13816  13812  13815     1  0.0000000  1.6038667  3
   7253   7252  13816  13812     1  0.0000000  1.6038667  3
   7254   7252  13816  13812     1  0.0000000  1.6038667  3
   7255  13839  13835  13838     1  0.0000000  1.6038667  3
   7256   7255  13839  13835     1  0.0000000  1.6038667  3
   7257   7255  13839  13835     1  0.0000000  1.6038667  3
   7260   7261   7273   7274     1  0.0000000  0.6508444  3
   7260   7261   7273   7275     1  0.0000000  0.6508444  3
   7260   7264   7276   7277     1  0.0000000  0.6508444  3
   7260   7264   7276   7278     1  0.0000000  0.6508444  3
   7260   7267   7270   7271     1  0.0000000  0.6508444  3
   7260   7267   7270   7272     1  0.0000000  0.6508444  3
   7261   7260   7264   7265     1  0.0000000  0.6508444  3
   7261   7260   7264   7266     1  0.0000000  0.6508444  3
   7261   7260   7267   7268     1  0.0000000  0.6508444  3
   7261   7260   7267   7269     1  0.0000000  0.6508444  3
   7261   7273   7285   7286     1  0.0000000  0.6508444  3
   7261   7273   7285   7287     1  0.0000000  0.6508444  3
   7262   7261   7260   7264     1  0.0000000  0.6508444  3
   7262   7261   7260   7267     1  0.0000000  0.6508444  3
   7262   7261   7260   7289     1  0.0000000  0.6508444  3
   7262   7261   7273   7285     1  0.0000000  0.6508444  3
   7262   7261   7273   7274     1  0.0000000  0.6508444  3
   7262   7261   7273   7275     1  0.0000000  0.6508444  3
   7263   7261   7260   7264     1  0.0000000  0.6508444  3
   7263   7261   7260   7267     1  0.0000000  0.6508444  3
   7263   7261   7260   7289     1  0.0000000  0.6508444  3
   7263   7261   7273   7285     1  0.0000000  0.6508444  3
   7263   7261   7273   7274     1  0.0000000  0.6508444  3
   7263   7261   7273   7275     1  0.0000000  0.6508444  3
   7264   7260   7267   7268     1  0.0000000  0.6508444  3
   7264   7260   7267   7269     1  0.0000000  0.6508444  3
   7264   7276   7282   7283     1  0.0000000  0.6508444  3
   7264   7276   7282   7284     1  0.0000000  0.6508444  3
   7265   7264   7260   7267     1  0.0000000  0.6508444  3
   7265   7264   7260   7289     1  0.0000000  0.6508444  3
   7265   7264   7276   7282     1  0.0000000  0.6508444  3
   7265   7264   7276   7277     1  0.0000000  0.6508444  3
   7265   7264   7276   7278     1  0.0000000  0.6508444  3
   7266   7264   7260   7267     1  0.0000000  0.6508444  3
   7266   7264   7260   7289     1  0.0000000  0.6508444  3
   7266   7264   7276   7282     1  0.0000000  0.6508444  3
   7266   7264   7276   7277     1  0.0000000  0.6508444  3
   7266   7264   7276   7278     1  0.0000000  0.6508444  3
   7267   7270   7279   7280     1  0.0000000  0.6508444  3
   7267   7270   7279   7281     1  0.0000000  0.6508444  3
   7268   7267   7260   7289     1  0.0000000  0.6508444  3
   7268   7267   7270   7279     1  0.0000000  0.6508444  3
   7268   7267   7270   7271     1  0.0000000  0.6508444  3
   7268   7267   7270   7272     1  0.0000000  0.6508444  3
   7269   7267   7260   7289     1  0.0000000  0.6508444  3
   7269   7267   7270   7279     1  0.0000000  0.6508444  3
   7269   7267   7270   7271     1  0.0000000  0.6508444  3
   7269   7267   7270   7272     1  0.0000000  0.6508444  3
   7270   7267   7260   7289     1  0.0000000  0.6508444  3
   7271   7270   7279   7288     1  0.0000000  1.0460000  1
   7271   7270   7279   7288     1  0.0000000  0.0000000  3
   7271   7270   7279   7280     1  0.0000000  0.6508444  3
   7271   7270   7279   7281     1  0.0000000  0.6508444  3
   7272   7270   7279   7288     1  0.0000000  1.0460000  1
   7272   7270   7279   7288     1  0.0000000  0.0000000  3
   7272   7270   7279   7280     1  0.0000000  0.6508444  3
   7272   7270   7279   7281     1  0.0000000  0.6508444  3
   7273   7261   7260   7289     1  0.0000000  0.6508444  3
   7274   7273   7285  13885     1  0.0000000  1.0460000  1
   7274   7273   7285  13885     1  0.0000000  0.0000000  3
   7274   7273   7285   7286     1  0.0000000  0.6508444  3
   7274   7273   7285   7287     1  0.0000000  0.6508444  3
   7275   7273   7285  13885     1  0.0000000  1.0460000  1
   7275   7273   7285  13885     1  0.0000000  0.0000000  3
   7275   7273   7285   7286     1  0.0000000  0.6508444  3
   7275   7273   7285   7287     1  0.0000000  0.6508444  3
   7276   7264   7260   7289     1  0.0000000  0.6508444  3
   7277   7276   7282  13862     1  0.0000000  1.0460000  1
   7277   7276   7282  13862     1  0.0000000  0.0000000  3
   7277   7276   7282   7283     1  0.0000000  0.6508444  3
   7277   7276   7282   7284     1  0.0000000  0.6508444  3
   7278   7276   7282  13862     1  0.0000000  1.0460000  1
   7278   7276   7282  13862     1  0.0000000  0.0000000  3
   7278   7276   7282   7283     1  0.0000000  0.6508444  3
   7278   7276   7282   7284     1  0.0000000  0.6508444  3
   7282  13862  13858  13861     1  0.0000000  1.6038667  3
   7283   7282  13862  13858     1  0.0000000  1.6038667  3
   7284   7282  13862  13858     1  0.0000000  1.6038667  3
   7285  13885  13881  13884     1  0.0000000  1.6038667  3
   7286   7285  13885  13881     1  0.0000000  1.6038667  3
   7287   7285  13885  13881     1  0.0000000  1.6038667  3
   7290   7291   7303   7304     1  0.0000000  0.6508444  3
   7290   7291   7303   7305     1  0.0000000  0.6508444  3
   7290   7294   7306   7307     1  0.0000000  0.6508444  3
   7290   7294   7306   7308     1  0.0000000  0.6508444  3
   7290   7297   7300   7301     1  0.0000000  0.6508444  3
   7290   7297   7300   7302     1  0.0000000  0.6508444  3
   7291   7290   7294   7295     1  0.0000000  0.6508444  3
   7291   7290   7294   7296     1  0.0000000  0.6508444  3
   7291   7290   7297   7298     1  0.0000000  0.6508444  3
   7291   7290   7297   7299     1  0.0000000  0.6508444  3
   7291   7303   7315   7316     1  0.0000000  0.6508444  3
   7291   7303   7315   7317     1  0.0000000  0.6508444  3
   7292   7291   7290   7294     1  0.0000000  0.6508444  3
   7292   7291   7290   7297     1  0.0000000  0.6508444  3
   7292   7291   7290   7319     1  0.0000000  0.6508444  3
   7292   7291   7303   7315     1  0.0000000  0.6508444  3
   7292   7291   7303   7304     1  0.0000000  0.6508444  3
   7292   7291   7303   7305     1  0.0000000  0.6508444  3
   7293   7291   7290   7294     1  0.0000000  0.6508444  3
   7293   7291   7290   7297     1  0.0000000  0.6508444  3
   7293   7291   7290   7319     1  0.0000000  0.6508444  3
   7293   7291   7303   7315     1  0.0000000  0.6508444  3
   7293   7291   7303   7304     1  0.0000000  0.6508444  3
   7293   7291   7303   7305     1  0.0000000  0.6508444  3
   7294   7290   7297   7298     1  0.0000000  0.6508444  3
   7294   7290   7297   7299     1  0.0000000  0.6508444  3
   7294   7306   7312   7313     1  0.0000000  0.6508444  3
   7294   7306   7312   7314     1  0.0000000  0.6508444  3
   7295   7294   7290   7297     1  0.0000000  0.6508444  3
   7295   7294   7290   7319     1  0.0000000  0.6508444  3
   7295   7294   7306   7312     1  0.0000000  0.6508444  3
   7295   7294   7306   7307     1  0.0000000  0.6508444  3
   7295   7294   7306   7308     1  0.0000000  0.6508444  3
   7296   7294   7290   7297     1  0.0000000  0.6508444  3
   7296   7294   7290   7319     1  0.0000000  0.6508444  3
   7296   7294   7306   7312     1  0.0000000  0.6508444  3
   7296   7294   7306   7307     1  0.0000000  0.6508444  3
   7296   7294   7306   7308     1  0.0000000  0.6508444  3
   7297   7300   7309   7310     1  0.0000000  0.6508444  3
   7297   7300   7309   7311     1  0.0000000  0.6508444  3
   7298   7297   7290   7319     1  0.0000000  0.6508444  3
   7298   7297   7300   7309     1  0.0000000  0.6508444  3
   7298   7297   7300   7301     1  0.0000000  0.6508444  3
   7298   7297   7300   7302     1  0.0000000  0.6508444  3
   7299   7297   7290   7319     1  0.0000000  0.6508444  3
   7299   7297   7300   7309     1  0.0000000  0.6508444  3
   7299   7297   7300   7301     1  0.0000000  0.6508444  3
   7299   7297   7300   7302     1  0.0000000  0.6508444  3
   7300   7297   7290   7319     1  0.0000000  0.6508444  3
   7301   7300   7309   7318     1  0.0000000  1.0460000  1
   7301   7300   7309   7318     1  0.0000000  0.0000000  3
   7301   7300   7309   7310     1  0.0000000  0.6508444  3
   7301   7300   7309   7311     1  0.0000000  0.6508444  3
   7302   7300   7309   7318     1  0.0000000  1.0460000  1
   7302   7300   7309   7318     1  0.0000000  0.0000000  3
   7302   7300   7309   7310     1  0.0000000  0.6508444  3
   7302   7300   7309   7311     1  0.0000000  0.6508444  3
   7303   7291   7290   7319     1  0.0000000  0.6508444  3
   7304   7303   7315  13931     1  0.0000000  1.0460000  1
   7304   7303   7315  13931     1  0.0000000  0.0000000  3
   7304   7303   7315   7316     1  0.0000000  0.6508444  3
   7304   7303   7315   7317     1  0.0000000  0.6508444  3
   7305   7303   7315  13931     1  0.0000000  1.0460000  1
   7305   7303   7315  13931     1  0.0000000  0.0000000  3
   7305   7303   7315   7316     1  0.0000000  0.6508444  3
   7305   7303   7315   7317     1  0.0000000  0.6508444  3
   7306   7294   7290   7319     1  0.0000000  0.6508444  3
   7307   7306   7312  13908     1  0.0000000  1.0460000  1
   7307   7306   7312  13908     1  0.0000000  0.0000000  3
   7307   7306   7312   7313     1  0.0000000  0.6508444  3
   7307   7306   7312   7314     1  0.0000000  0.6508444  3
   7308   7306   7312  13908     1  0.0000000  1.0460000  1
   7308   7306   7312  13908     1  0.0000000  0.0000000  3
   7308   7306   7312   7313     1  0.0000000  0.6508444  3
   7308   7306   7312   7314     1  0.0000000  0.6508444  3
   7312  13908  13904  13907     1  0.0000000  1.6038667  3
   7313   7312  13908  13904     1  0.0000000  1.6038667  3
   7314   7312  13908  13904     1  0.0000000  1.6038667  3
   7315  13931  13927  13930     1  0.0000000  1.6038667  3
   7316   7315  13931  13927     1  0.0000000  1.6038667  3
   7317   7315  13931  13927     1  0.0000000  1.6038667  3
   7320   7321   7333   7334     1  0.0000000  0.6508444  3
   7320   7321   7333   7335     1  0.0000000  0.6508444  3
   7320   7324   7336   7337     1  0.0000000  0.6508444  3
   7320   7324   7336   7338     1  0.0000000  0.6508444  3
   7320   7327   7330   7331     1  0.0000000  0.6508444  3
   7320   7327   7330   7332     1  0.0000000  0.6508444  3
   7321   7320   7324   7325     1  0.0000000  0.6508444  3
   7321   7320   7324   7326     1  0.0000000  0.6508444  3
   7321   7320   7327   7328     1  0.0000000  0.6508444  3
   7321   7320   7327   7329     1  0.0000000  0.6508444  3
   7321   7333   7345   7346     1  0.0000000  0.6508444  3
   7321   7333   7345   7347     1  0.0000000  0.6508444  3
   7322   7321   7320   7324     1  0.0000000  0.6508444  3
   7322   7321   7320   7327     1  0.0000000  0.6508444  3
   7322   7321   7320   7349     1  0.0000000  0.6508444  3
   7322   7321   7333   7345     1  0.0000000  0.6508444  3
   7322   7321   7333   7334     1  0.0000000  0.6508444  3
   7322   7321   7333   7335     1  0.0000000  0.6508444  3
   7323   7321   7320   7324     1  0.0000000  0.6508444  3
   7323   7321   7320   7327     1  0.0000000  0.6508444  3
   7323   7321   7320   7349     1  0.0000000  0.6508444  3
   7323   7321   7333   7345     1  0.0000000  0.6508444  3
   7323   7321   7333   7334     1  0.0000000  0.6508444  3
   7323   7321   7333   7335     1  0.0000000  0.6508444  3
   7324   7320   7327   7328     1  0.0000000  0.6508444  3
   7324   7320   7327   7329     1  0.0000000  0.6508444  3
   7324   7336   7342   7343     1  0.0000000  0.6508444  3
   7324   7336   7342   7344     1  0.0000000  0.6508444  3
   7325   7324   7320   7327     1  0.0000000  0.6508444  3
   7325   7324   7320   7349     1  0.0000000  0.6508444  3
   7325   7324   7336   7342     1  0.0000000  0.6508444  3
   7325   7324   7336   7337     1  0.0000000  0.6508444  3
   7325   7324   7336   7338     1  0.0000000  0.6508444  3
   7326   7324   7320   7327     1  0.0000000  0.6508444  3
   7326   7324   7320   7349     1  0.0000000  0.6508444  3
   7326   7324   7336   7342     1  0.0000000  0.6508444  3
   7326   7324   7336   7337     1  0.0000000  0.6508444  3
   7326   7324   7336   7338     1  0.0000000  0.6508444  3
   7327   7330   7339   7340     1  0.0000000  0.6508444  3
   7327   7330   7339   7341     1  0.0000000  0.6508444  3
   7328   7327   7320   7349     1  0.0000000  0.6508444  3
   7328   7327   7330   7339     1  0.0000000  0.6508444  3
   7328   7327   7330   7331     1  0.0000000  0.6508444  3
   7328   7327   7330   7332     1  0.0000000  0.6508444  3
   7329   7327   7320   7349     1  0.0000000  0.6508444  3
   7329   7327   7330   7339     1  0.0000000  0.6508444  3
   7329   7327   7330   7331     1  0.0000000  0.6508444  3
   7329   7327   7330   7332     1  0.0000000  0.6508444  3
   7330   7327   7320   7349     1  0.0000000  0.6508444  3
   7331   7330   7339   7348     1  0.0000000  1.0460000  1
   7331   7330   7339   7348     1  0.0000000  0.0000000  3
   7331   7330   7339   7340     1  0.0000000  0.6508444  3
   7331   7330   7339   7341     1  0.0000000  0.6508444  3
   7332   7330   7339   7348     1  0.0000000  1.0460000  1
   7332   7330   7339   7348     1  0.0000000  0.0000000  3
   7332   7330   7339   7340     1  0.0000000  0.6508444  3
   7332   7330   7339   7341     1  0.0000000  0.6508444  3
   7333   7321   7320   7349     1  0.0000000  0.6508444  3
   7334   7333   7345  13977     1  0.0000000  1.0460000  1
   7334   7333   7345  13977     1  0.0000000  0.0000000  3
   7334   7333   7345   7346     1  0.0000000  0.6508444  3
   7334   7333   7345   7347     1  0.0000000  0.6508444  3
   7335   7333   7345  13977     1  0.0000000  1.0460000  1
   7335   7333   7345  13977     1  0.0000000  0.0000000  3
   7335   7333   7345   7346     1  0.0000000  0.6508444  3
   7335   7333   7345   7347     1  0.0000000  0.6508444  3
   7336   7324   7320   7349     1  0.0000000  0.6508444  3
   7337   7336   7342  13954     1  0.0000000  1.0460000  1
   7337   7336   7342  13954     1  0.0000000  0.0000000  3
   7337   7336   7342   7343     1  0.0000000  0.6508444  3
   7337   7336   7342   7344     1  0.0000000  0.6508444  3
   7338   7336   7342  13954     1  0.0000000  1.0460000  1
   7338   7336   7342  13954     1  0.0000000  0.0000000  3
   7338   7336   7342   7343     1  0.0000000  0.6508444  3
   7338   7336   7342   7344     1  0.0000000  0.6508444  3
   7342  13954  13950  13953     1  0.0000000  1.6038667  3
   7343   7342  13954  13950     1  0.0000000  1.6038667  3
   7344   7342  13954  13950     1  0.0000000  1.6038667  3
   7345  13977  13973  13976     1  0.0000000  1.6038667  3
   7346   7345  13977  13973     1  0.0000000  1.6038667  3
   7347   7345  13977  13973     1  0.0000000  1.6038667  3
   7350   7351   7363   7364     1  0.0000000  0.6508444  3
   7350   7351   7363   7365     1  0.0000000  0.6508444  3
   7350   7354   7366   7367     1  0.0000000  0.6508444  3
   7350   7354   7366   7368     1  0.0000000  0.6508444  3
   7350   7357   7360   7361     1  0.0000000  0.6508444  3
   7350   7357   7360   7362     1  0.0000000  0.6508444  3
   7351   7350   7354   7355     1  0.0000000  0.6508444  3
   7351   7350   7354   7356     1  0.0000000  0.6508444  3
   7351   7350   7357   7358     1  0.0000000  0.6508444  3
   7351   7350   7357   7359     1  0.0000000  0.6508444  3
   7351   7363   7375   7376     1  0.0000000  0.6508444  3
   7351   7363   7375   7377     1  0.0000000  0.6508444  3
   7352   7351   7350   7354     1  0.0000000  0.6508444  3
   7352   7351   7350   7357     1  0.0000000  0.6508444  3
   7352   7351   7350   7379     1  0.0000000  0.6508444  3
   7352   7351   7363   7375     1  0.0000000  0.6508444  3
   7352   7351   7363   7364     1  0.0000000  0.6508444  3
   7352   7351   7363   7365     1  0.0000000  0.6508444  3
   7353   7351   7350   7354     1  0.0000000  0.6508444  3
   7353   7351   7350   7357     1  0.0000000  0.6508444  3
   7353   7351   7350   7379     1  0.0000000  0.6508444  3
   7353   7351   7363   7375     1  0.0000000  0.6508444  3
   7353   7351   7363   7364     1  0.0000000  0.6508444  3
   7353   7351   7363   7365     1  0.0000000  0.6508444  3
   7354   7350   7357   7358     1  0.0000000  0.6508444  3
   7354   7350   7357   7359     1  0.0000000  0.6508444  3
   7354   7366   7372   7373     1  0.0000000  0.6508444  3
   7354   7366   7372   7374     1  0.0000000  0.6508444  3
   7355   7354   7350   7357     1  0.0000000  0.6508444  3
   7355   7354   7350   7379     1  0.0000000  0.6508444  3
   7355   7354   7366   7372     1  0.0000000  0.6508444  3
   7355   7354   7366   7367     1  0.0000000  0.6508444  3
   7355   7354   7366   7368     1  0.0000000  0.6508444  3
   7356   7354   7350   7357     1  0.0000000  0.6508444  3
   7356   7354   7350   7379     1  0.0000000  0.6508444  3
   7356   7354   7366   7372     1  0.0000000  0.6508444  3
   7356   7354   7366   7367     1  0.0000000  0.6508444  3
   7356   7354   7366   7368     1  0.0000000  0.6508444  3
   7357   7360   7369   7370     1  0.0000000  0.6508444  3
   7357   7360   7369   7371     1  0.0000000  0.6508444  3
   7358   7357   7350   7379     1  0.0000000  0.6508444  3
   7358   7357   7360   7369     1  0.0000000  0.6508444  3
   7358   7357   7360   7361     1  0.0000000  0.6508444  3
   7358   7357   7360   7362     1  0.0000000  0.6508444  3
   7359   7357   7350   7379     1  0.0000000  0.6508444  3
   7359   7357   7360   7369     1  0.0000000  0.6508444  3
   7359   7357   7360   7361     1  0.0000000  0.6508444  3
   7359   7357   7360   7362     1  0.0000000  0.6508444  3
   7360   7357   7350   7379     1  0.0000000  0.6508444  3
   7361   7360   7369   7378     1  0.0000000  1.0460000  1
   7361   7360   7369   7378     1  0.0000000  0.0000000  3
   7361   7360   7369   7370     1  0.0000000  0.6508444  3
   7361   7360   7369   7371     1  0.0000000  0.6508444  3
   7362   7360   7369   7378     1  0.0000000  1.0460000  1
   7362   7360   7369   7378     1  0.0000000  0.0000000  3
   7362   7360   7369   7370     1  0.0000000  0.6508444  3
   7362   7360   7369   7371     1  0.0000000  0.6508444  3
   7363   7351   7350   7379     1  0.0000000  0.6508444  3
   7364   7363   7375  14023     1  0.0000000  1.0460000  1
   7364   7363   7375  14023     1  0.0000000  0.0000000  3
   7364   7363   7375   7376     1  0.0000000  0.6508444  3
   7364   7363   7375   7377     1  0.0000000  0.6508444  3
   7365   7363   7375  14023     1  0.0000000  1.0460000  1
   7365   7363   7375  14023     1  0.0000000  0.0000000  3
   7365   7363   7375   7376     1  0.0000000  0.6508444  3
   7365   7363   7375   7377     1  0.0000000  0.6508444  3
   7366   7354   7350   7379     1  0.0000000  0.6508444  3
   7367   7366   7372  14000     1  0.0000000  1.0460000  1
   7367   7366   7372  14000     1  0.0000000  0.0000000  3
   7367   7366   7372   7373     1  0.0000000  0.6508444  3
   7367   7366   7372   7374     1  0.0000000  0.6508444  3
   7368   7366   7372  14000     1  0.0000000  1.0460000  1
   7368   7366   7372  14000     1  0.0000000  0.0000000  3
   7368   7366   7372   7373     1  0.0000000  0.6508444  3
   7368   7366   7372   7374     1  0.0000000  0.6508444  3
   7372  14000  13996  13999     1  0.0000000  1.6038667  3
   7373   7372  14000  13996     1  0.0000000  1.6038667  3
   7374   7372  14000  13996     1  0.0000000  1.6038667  3
   7375  14023  14019  14022     1  0.0000000  1.6038667  3
   7376   7375  14023  14019     1  0.0000000  1.6038667  3
   7377   7375  14023  14019     1  0.0000000  1.6038667  3
   7380   7381   7393   7394     1  0.0000000  0.6508444  3
   7380   7381   7393   7395     1  0.0000000  0.6508444  3
   7380   7384   7396   7397     1  0.0000000  0.6508444  3
   7380   7384   7396   7398     1  0.0000000  0.6508444  3
   7380   7387   7390   7391     1  0.0000000  0.6508444  3
   7380   7387   7390   7392     1  0.0000000  0.6508444  3
   7381   7380   7384   7385     1  0.0000000  0.6508444  3
   7381   7380   7384   7386     1  0.0000000  0.6508444  3
   7381   7380   7387   7388     1  0.0000000  0.6508444  3
   7381   7380   7387   7389     1  0.0000000  0.6508444  3
   7381   7393   7405   7406     1  0.0000000  0.6508444  3
   7381   7393   7405   7407     1  0.0000000  0.6508444  3
   7382   7381   7380   7384     1  0.0000000  0.6508444  3
   7382   7381   7380   7387     1  0.0000000  0.6508444  3
   7382   7381   7380   7409     1  0.0000000  0.6508444  3
   7382   7381   7393   7405     1  0.0000000  0.6508444  3
   7382   7381   7393   7394     1  0.0000000  0.6508444  3
   7382   7381   7393   7395     1  0.0000000  0.6508444  3
   7383   7381   7380   7384     1  0.0000000  0.6508444  3
   7383   7381   7380   7387     1  0.0000000  0.6508444  3
   7383   7381   7380   7409     1  0.0000000  0.6508444  3
   7383   7381   7393   7405     1  0.0000000  0.6508444  3
   7383   7381   7393   7394     1  0.0000000  0.6508444  3
   7383   7381   7393   7395     1  0.0000000  0.6508444  3
   7384   7380   7387   7388     1  0.0000000  0.6508444  3
   7384   7380   7387   7389     1  0.0000000  0.6508444  3
   7384   7396   7402   7403     1  0.0000000  0.6508444  3
   7384   7396   7402   7404     1  0.0000000  0.6508444  3
   7385   7384   7380   7387     1  0.0000000  0.6508444  3
   7385   7384   7380   7409     1  0.0000000  0.6508444  3
   7385   7384   7396   7402     1  0.0000000  0.6508444  3
   7385   7384   7396   7397     1  0.0000000  0.6508444  3
   7385   7384   7396   7398     1  0.0000000  0.6508444  3
   7386   7384   7380   7387     1  0.0000000  0.6508444  3
   7386   7384   7380   7409     1  0.0000000  0.6508444  3
   7386   7384   7396   7402     1  0.0000000  0.6508444  3
   7386   7384   7396   7397     1  0.0000000  0.6508444  3
   7386   7384   7396   7398     1  0.0000000  0.6508444  3
   7387   7390   7399   7400     1  0.0000000  0.6508444  3
   7387   7390   7399   7401     1  0.0000000  0.6508444  3
   7388   7387   7380   7409     1  0.0000000  0.6508444  3
   7388   7387   7390   7399     1  0.0000000  0.6508444  3
   7388   7387   7390   7391     1  0.0000000  0.6508444  3
   7388   7387   7390   7392     1  0.0000000  0.6508444  3
   7389   7387   7380   7409     1  0.0000000  0.6508444  3
   7389   7387   7390   7399     1  0.0000000  0.6508444  3
   7389   7387   7390   7391     1  0.0000000  0.6508444  3
   7389   7387   7390   7392     1  0.0000000  0.6508444  3
   7390   7387   7380   7409     1  0.0000000  0.6508444  3
   7391   7390   7399   7408     1  0.0000000  1.0460000  1
   7391   7390   7399   7408     1  0.0000000  0.0000000  3
   7391   7390   7399   7400     1  0.0000000  0.6508444  3
   7391   7390   7399   7401     1  0.0000000  0.6508444  3
   7392   7390   7399   7408     1  0.0000000  1.0460000  1
   7392   7390   7399   7408     1  0.0000000  0.0000000  3
   7392   7390   7399   7400     1  0.0000000  0.6508444  3
   7392   7390   7399   7401     1  0.0000000  0.6508444  3
   7393   7381   7380   7409     1  0.0000000  0.6508444  3
   7394   7393   7405  14069     1  0.0000000  1.0460000  1
   7394   7393   7405  14069     1  0.0000000  0.0000000  3
   7394   7393   7405   7406     1  0.0000000  0.6508444  3
   7394   7393   7405   7407     1  0.0000000  0.6508444  3
   7395   7393   7405  14069     1  0.0000000  1.0460000  1
   7395   7393   7405  14069     1  0.0000000  0.0000000  3
   7395   7393   7405   7406     1  0.0000000  0.6508444  3
   7395   7393   7405   7407     1  0.0000000  0.6508444  3
   7396   7384   7380   7409     1  0.0000000  0.6508444  3
   7397   7396   7402  14046     1  0.0000000  1.0460000  1
   7397   7396   7402  14046     1  0.0000000  0.0000000  3
   7397   7396   7402   7403     1  0.0000000  0.6508444  3
   7397   7396   7402   7404     1  0.0000000  0.6508444  3
   7398   7396   7402  14046     1  0.0000000  1.0460000  1
   7398   7396   7402  14046     1  0.0000000  0.0000000  3
   7398   7396   7402   7403     1  0.0000000  0.6508444  3
   7398   7396   7402   7404     1  0.0000000  0.6508444  3
   7402  14046  14042  14045     1  0.0000000  1.6038667  3
   7403   7402  14046  14042     1  0.0000000  1.6038667  3
   7404   7402  14046  14042     1  0.0000000  1.6038667  3
   7405  14069  14065  14068     1  0.0000000  1.6038667  3
   7406   7405  14069  14065     1  0.0000000  1.6038667  3
   7407   7405  14069  14065     1  0.0000000  1.6038667  3
   7410   7411   7423   7424     1  0.0000000  0.6508444  3
   7410   7411   7423   7425     1  0.0000000  0.6508444  3
   7410   7414   7426   7427     1  0.0000000  0.6508444  3
   7410   7414   7426   7428     1  0.0000000  0.6508444  3
   7410   7417   7420   7421     1  0.0000000  0.6508444  3
   7410   7417   7420   7422     1  0.0000000  0.6508444  3
   7411   7410   7414   7415     1  0.0000000  0.6508444  3
   7411   7410   7414   7416     1  0.0000000  0.6508444  3
   7411   7410   7417   7418     1  0.0000000  0.6508444  3
   7411   7410   7417   7419     1  0.0000000  0.6508444  3
   7411   7423   7435   7436     1  0.0000000  0.6508444  3
   7411   7423   7435   7437     1  0.0000000  0.6508444  3
   7412   7411   7410   7414     1  0.0000000  0.6508444  3
   7412   7411   7410   7417     1  0.0000000  0.6508444  3
   7412   7411   7410   7439     1  0.0000000  0.6508444  3
   7412   7411   7423   7435     1  0.0000000  0.6508444  3
   7412   7411   7423   7424     1  0.0000000  0.6508444  3
   7412   7411   7423   7425     1  0.0000000  0.6508444  3
   7413   7411   7410   7414     1  0.0000000  0.6508444  3
   7413   7411   7410   7417     1  0.0000000  0.6508444  3
   7413   7411   7410   7439     1  0.0000000  0.6508444  3
   7413   7411   7423   7435     1  0.0000000  0.6508444  3
   7413   7411   7423   7424     1  0.0000000  0.6508444  3
   7413   7411   7423   7425     1  0.0000000  0.6508444  3
   7414   7410   7417   7418     1  0.0000000  0.6508444  3
   7414   7410   7417   7419     1  0.0000000  0.6508444  3
   7414   7426   7432   7433     1  0.0000000  0.6508444  3
   7414   7426   7432   7434     1  0.0000000  0.6508444  3
   7415   7414   7410   7417     1  0.0000000  0.6508444  3
   7415   7414   7410   7439     1  0.0000000  0.6508444  3
   7415   7414   7426   7432     1  0.0000000  0.6508444  3
   7415   7414   7426   7427     1  0.0000000  0.6508444  3
   7415   7414   7426   7428     1  0.0000000  0.6508444  3
   7416   7414   7410   7417     1  0.0000000  0.6508444  3
   7416   7414   7410   7439     1  0.0000000  0.6508444  3
   7416   7414   7426   7432     1  0.0000000  0.6508444  3
   7416   7414   7426   7427     1  0.0000000  0.6508444  3
   7416   7414   7426   7428     1  0.0000000  0.6508444  3
   7417   7420   7429   7430     1  0.0000000  0.6508444  3
   7417   7420   7429   7431     1  0.0000000  0.6508444  3
   7418   7417   7410   7439     1  0.0000000  0.6508444  3
   7418   7417   7420   7429     1  0.0000000  0.6508444  3
   7418   7417   7420   7421     1  0.0000000  0.6508444  3
   7418   7417   7420   7422     1  0.0000000  0.6508444  3
   7419   7417   7410   7439     1  0.0000000  0.6508444  3
   7419   7417   7420   7429     1  0.0000000  0.6508444  3
   7419   7417   7420   7421     1  0.0000000  0.6508444  3
   7419   7417   7420   7422     1  0.0000000  0.6508444  3
   7420   7417   7410   7439     1  0.0000000  0.6508444  3
   7421   7420   7429   7438     1  0.0000000  1.0460000  1
   7421   7420   7429   7438     1  0.0000000  0.0000000  3
   7421   7420   7429   7430     1  0.0000000  0.6508444  3
   7421   7420   7429   7431     1  0.0000000  0.6508444  3
   7422   7420   7429   7438     1  0.0000000  1.0460000  1
   7422   7420   7429   7438     1  0.0000000  0.0000000  3
   7422   7420   7429   7430     1  0.0000000  0.6508444  3
   7422   7420   7429   7431     1  0.0000000  0.6508444  3
   7423   7411   7410   7439     1  0.0000000  0.6508444  3
   7424   7423   7435  14115     1  0.0000000  1.0460000  1
   7424   7423   7435  14115     1  0.0000000  0.0000000  3
   7424   7423   7435   7436     1  0.0000000  0.6508444  3
   7424   7423   7435   7437     1  0.0000000  0.6508444  3
   7425   7423   7435  14115     1  0.0000000  1.0460000  1
   7425   7423   7435  14115     1  0.0000000  0.0000000  3
   7425   7423   7435   7436     1  0.0000000  0.6508444  3
   7425   7423   7435   7437     1  0.0000000  0.6508444  3
   7426   7414   7410   7439     1  0.0000000  0.6508444  3
   7427   7426   7432  14092     1  0.0000000  1.0460000  1
   7427   7426   7432  14092     1  0.0000000  0.0000000  3
   7427   7426   7432   7433     1  0.0000000  0.6508444  3
   7427   7426   7432   7434     1  0.0000000  0.6508444  3
   7428   7426   7432  14092     1  0.0000000  1.0460000  1
   7428   7426   7432  14092     1  0.0000000  0.0000000  3
   7428   7426   7432   7433     1  0.0000000  0.6508444  3
   7428   7426   7432   7434     1  0.0000000  0.6508444  3
   7432  14092  14088  14091     1  0.0000000  1.6038667  3
   7433   7432  14092  14088     1  0.0000000  1.6038667  3
   7434   7432  14092  14088     1  0.0000000  1.6038667  3
   7435  14115  14111  14114     1  0.0000000  1.6038667  3
   7436   7435  14115  14111     1  0.0000000  1.6038667  3
   7437   7435  14115  14111     1  0.0000000  1.6038667  3
   7440   7441   7453   7454     1  0.0000000  0.6508444  3
   7440   7441   7453   7455     1  0.0000000  0.6508444  3
   7440   7444   7456   7457     1  0.0000000  0.6508444  3
   7440   7444   7456   7458     1  0.0000000  0.6508444  3
   7440   7447   7450   7451     1  0.0000000  0.6508444  3
   7440   7447   7450   7452     1  0.0000000  0.6508444  3
   7441   7440   7444   7445     1  0.0000000  0.6508444  3
   7441   7440   7444   7446     1  0.0000000  0.6508444  3
   7441   7440   7447   7448     1  0.0000000  0.6508444  3
   7441   7440   7447   7449     1  0.0000000  0.6508444  3
   7441   7453   7465   7466     1  0.0000000  0.6508444  3
   7441   7453   7465   7467     1  0.0000000  0.6508444  3
   7442   7441   7440   7444     1  0.0000000  0.6508444  3
   7442   7441   7440   7447     1  0.0000000  0.6508444  3
   7442   7441   7440   7469     1  0.0000000  0.6508444  3
   7442   7441   7453   7465     1  0.0000000  0.6508444  3
   7442   7441   7453   7454     1  0.0000000  0.6508444  3
   7442   7441   7453   7455     1  0.0000000  0.6508444  3
   7443   7441   7440   7444     1  0.0000000  0.6508444  3
   7443   7441   7440   7447     1  0.0000000  0.6508444  3
   7443   7441   7440   7469     1  0.0000000  0.6508444  3
   7443   7441   7453   7465     1  0.0000000  0.6508444  3
   7443   7441   7453   7454     1  0.0000000  0.6508444  3
   7443   7441   7453   7455     1  0.0000000  0.6508444  3
   7444   7440   7447   7448     1  0.0000000  0.6508444  3
   7444   7440   7447   7449     1  0.0000000  0.6508444  3
   7444   7456   7462   7463     1  0.0000000  0.6508444  3
   7444   7456   7462   7464     1  0.0000000  0.6508444  3
   7445   7444   7440   7447     1  0.0000000  0.6508444  3
   7445   7444   7440   7469     1  0.0000000  0.6508444  3
   7445   7444   7456   7462     1  0.0000000  0.6508444  3
   7445   7444   7456   7457     1  0.0000000  0.6508444  3
   7445   7444   7456   7458     1  0.0000000  0.6508444  3
   7446   7444   7440   7447     1  0.0000000  0.6508444  3
   7446   7444   7440   7469     1  0.0000000  0.6508444  3
   7446   7444   7456   7462     1  0.0000000  0.6508444  3
   7446   7444   7456   7457     1  0.0000000  0.6508444  3
   7446   7444   7456   7458     1  0.0000000  0.6508444  3
   7447   7450   7459   7460     1  0.0000000  0.6508444  3
   7447   7450   7459   7461     1  0.0000000  0.6508444  3
   7448   7447   7440   7469     1  0.0000000  0.6508444  3
   7448   7447   7450   7459     1  0.0000000  0.6508444  3
   7448   7447   7450   7451     1  0.0000000  0.6508444  3
   7448   7447   7450   7452     1  0.0000000  0.6508444  3
   7449   7447   7440   7469     1  0.0000000  0.6508444  3
   7449   7447   7450   7459     1  0.0000000  0.6508444  3
   7449   7447   7450   7451     1  0.0000000  0.6508444  3
   7449   7447   7450   7452     1  0.0000000  0.6508444  3
   7450   7447   7440   7469     1  0.0000000  0.6508444  3
   7451   7450   7459   7468     1  0.0000000  1.0460000  1
   7451   7450   7459   7468     1  0.0000000  0.0000000  3
   7451   7450   7459   7460     1  0.0000000  0.6508444  3
   7451   7450   7459   7461     1  0.0000000  0.6508444  3
   7452   7450   7459   7468     1  0.0000000  1.0460000  1
   7452   7450   7459   7468     1  0.0000000  0.0000000  3
   7452   7450   7459   7460     1  0.0000000  0.6508444  3
   7452   7450   7459   7461     1  0.0000000  0.6508444  3
   7453   7441   7440   7469     1  0.0000000  0.6508444  3
   7454   7453   7465  14161     1  0.0000000  1.0460000  1
   7454   7453   7465  14161     1  0.0000000  0.0000000  3
   7454   7453   7465   7466     1  0.0000000  0.6508444  3
   7454   7453   7465   7467     1  0.0000000  0.6508444  3
   7455   7453   7465  14161     1  0.0000000  1.0460000  1
   7455   7453   7465  14161     1  0.0000000  0.0000000  3
   7455   7453   7465   7466     1  0.0000000  0.6508444  3
   7455   7453   7465   7467     1  0.0000000  0.6508444  3
   7456   7444   7440   7469     1  0.0000000  0.6508444  3
   7457   7456   7462  14138     1  0.0000000  1.0460000  1
   7457   7456   7462  14138     1  0.0000000  0.0000000  3
   7457   7456   7462   7463     1  0.0000000  0.6508444  3
   7457   7456   7462   7464     1  0.0000000  0.6508444  3
   7458   7456   7462  14138     1  0.0000000  1.0460000  1
   7458   7456   7462  14138     1  0.0000000  0.0000000  3
   7458   7456   7462   7463     1  0.0000000  0.6508444  3
   7458   7456   7462   7464     1  0.0000000  0.6508444  3
   7462  14138  14134  14137     1  0.0000000  1.6038667  3
   7463   7462  14138  14134     1  0.0000000  1.6038667  3
   7464   7462  14138  14134     1  0.0000000  1.6038667  3
   7465  14161  14157  14160     1  0.0000000  1.6038667  3
   7466   7465  14161  14157     1  0.0000000  1.6038667  3
   7467   7465  14161  14157     1  0.0000000  1.6038667  3
   7470   7471   7483   7484     1  0.0000000  0.6508444  3
   7470   7471   7483   7485     1  0.0000000  0.6508444  3
   7470   7474   7486   7487     1  0.0000000  0.6508444  3
   7470   7474   7486   7488     1  0.0000000  0.6508444  3
   7470   7477   7480   7481     1  0.0000000  0.6508444  3
   7470   7477   7480   7482     1  0.0000000  0.6508444  3
   7471   7470   7474   7475     1  0.0000000  0.6508444  3
   7471   7470   7474   7476     1  0.0000000  0.6508444  3
   7471   7470   7477   7478     1  0.0000000  0.6508444  3
   7471   7470   7477   7479     1  0.0000000  0.6508444  3
   7471   7483   7495   7496     1  0.0000000  0.6508444  3
   7471   7483   7495   7497     1  0.0000000  0.6508444  3
   7472   7471   7470   7474     1  0.0000000  0.6508444  3
   7472   7471   7470   7477     1  0.0000000  0.6508444  3
   7472   7471   7470   7499     1  0.0000000  0.6508444  3
   7472   7471   7483   7495     1  0.0000000  0.6508444  3
   7472   7471   7483   7484     1  0.0000000  0.6508444  3
   7472   7471   7483   7485     1  0.0000000  0.6508444  3
   7473   7471   7470   7474     1  0.0000000  0.6508444  3
   7473   7471   7470   7477     1  0.0000000  0.6508444  3
   7473   7471   7470   7499     1  0.0000000  0.6508444  3
   7473   7471   7483   7495     1  0.0000000  0.6508444  3
   7473   7471   7483   7484     1  0.0000000  0.6508444  3
   7473   7471   7483   7485     1  0.0000000  0.6508444  3
   7474   7470   7477   7478     1  0.0000000  0.6508444  3
   7474   7470   7477   7479     1  0.0000000  0.6508444  3
   7474   7486   7492   7493     1  0.0000000  0.6508444  3
   7474   7486   7492   7494     1  0.0000000  0.6508444  3
   7475   7474   7470   7477     1  0.0000000  0.6508444  3
   7475   7474   7470   7499     1  0.0000000  0.6508444  3
   7475   7474   7486   7492     1  0.0000000  0.6508444  3
   7475   7474   7486   7487     1  0.0000000  0.6508444  3
   7475   7474   7486   7488     1  0.0000000  0.6508444  3
   7476   7474   7470   7477     1  0.0000000  0.6508444  3
   7476   7474   7470   7499     1  0.0000000  0.6508444  3
   7476   7474   7486   7492     1  0.0000000  0.6508444  3
   7476   7474   7486   7487     1  0.0000000  0.6508444  3
   7476   7474   7486   7488     1  0.0000000  0.6508444  3
   7477   7480   7489   7490     1  0.0000000  0.6508444  3
   7477   7480   7489   7491     1  0.0000000  0.6508444  3
   7478   7477   7470   7499     1  0.0000000  0.6508444  3
   7478   7477   7480   7489     1  0.0000000  0.6508444  3
   7478   7477   7480   7481     1  0.0000000  0.6508444  3
   7478   7477   7480   7482     1  0.0000000  0.6508444  3
   7479   7477   7470   7499     1  0.0000000  0.6508444  3
   7479   7477   7480   7489     1  0.0000000  0.6508444  3
   7479   7477   7480   7481     1  0.0000000  0.6508444  3
   7479   7477   7480   7482     1  0.0000000  0.6508444  3
   7480   7477   7470   7499     1  0.0000000  0.6508444  3
   7481   7480   7489   7498     1  0.0000000  1.0460000  1
   7481   7480   7489   7498     1  0.0000000  0.0000000  3
   7481   7480   7489   7490     1  0.0000000  0.6508444  3
   7481   7480   7489   7491     1  0.0000000  0.6508444  3
   7482   7480   7489   7498     1  0.0000000  1.0460000  1
   7482   7480   7489   7498     1  0.0000000  0.0000000  3
   7482   7480   7489   7490     1  0.0000000  0.6508444  3
   7482   7480   7489   7491     1  0.0000000  0.6508444  3
   7483   7471   7470   7499     1  0.0000000  0.6508444  3
   7484   7483   7495  14207     1  0.0000000  1.0460000  1
   7484   7483   7495  14207     1  0.0000000  0.0000000  3
   7484   7483   7495   7496     1  0.0000000  0.6508444  3
   7484   7483   7495   7497     1  0.0000000  0.6508444  3
   7485   7483   7495  14207     1  0.0000000  1.0460000  1
   7485   7483   7495  14207     1  0.0000000  0.0000000  3
   7485   7483   7495   7496     1  0.0000000  0.6508444  3
   7485   7483   7495   7497     1  0.0000000  0.6508444  3
   7486   7474   7470   7499     1  0.0000000  0.6508444  3
   7487   7486   7492  14184     1  0.0000000  1.0460000  1
   7487   7486   7492  14184     1  0.0000000  0.0000000  3
   7487   7486   7492   7493     1  0.0000000  0.6508444  3
   7487   7486   7492   7494     1  0.0000000  0.6508444  3
   7488   7486   7492  14184     1  0.0000000  1.0460000  1
   7488   7486   7492  14184     1  0.0000000  0.0000000  3
   7488   7486   7492   7493     1  0.0000000  0.6508444  3
   7488   7486   7492   7494     1  0.0000000  0.6508444  3
   7492  14184  14180  14183     1  0.0000000  1.6038667  3
   7493   7492  14184  14180     1  0.0000000  1.6038667  3
   7494   7492  14184  14180     1  0.0000000  1.6038667  3
   7495  14207  14203  14206     1  0.0000000  1.6038667  3
   7496   7495  14207  14203     1  0.0000000  1.6038667  3
   7497   7495  14207  14203     1  0.0000000  1.6038667  3
   7500   7501   7513   7514     1  0.0000000  0.6508444  3
   7500   7501   7513   7515     1  0.0000000  0.6508444  3
   7500   7504   7516   7517     1  0.0000000  0.6508444  3
   7500   7504   7516   7518     1  0.0000000  0.6508444  3
   7500   7507   7510   7511     1  0.0000000  0.6508444  3
   7500   7507   7510   7512     1  0.0000000  0.6508444  3
   7501   7500   7504   7505     1  0.0000000  0.6508444  3
   7501   7500   7504   7506     1  0.0000000  0.6508444  3
   7501   7500   7507   7508     1  0.0000000  0.6508444  3
   7501   7500   7507   7509     1  0.0000000  0.6508444  3
   7501   7513   7525   7526     1  0.0000000  0.6508444  3
   7501   7513   7525   7527     1  0.0000000  0.6508444  3
   7502   7501   7500   7504     1  0.0000000  0.6508444  3
   7502   7501   7500   7507     1  0.0000000  0.6508444  3
   7502   7501   7500   7529     1  0.0000000  0.6508444  3
   7502   7501   7513   7525     1  0.0000000  0.6508444  3
   7502   7501   7513   7514     1  0.0000000  0.6508444  3
   7502   7501   7513   7515     1  0.0000000  0.6508444  3
   7503   7501   7500   7504     1  0.0000000  0.6508444  3
   7503   7501   7500   7507     1  0.0000000  0.6508444  3
   7503   7501   7500   7529     1  0.0000000  0.6508444  3
   7503   7501   7513   7525     1  0.0000000  0.6508444  3
   7503   7501   7513   7514     1  0.0000000  0.6508444  3
   7503   7501   7513   7515     1  0.0000000  0.6508444  3
   7504   7500   7507   7508     1  0.0000000  0.6508444  3
   7504   7500   7507   7509     1  0.0000000  0.6508444  3
   7504   7516   7522   7523     1  0.0000000  0.6508444  3
   7504   7516   7522   7524     1  0.0000000  0.6508444  3
   7505   7504   7500   7507     1  0.0000000  0.6508444  3
   7505   7504   7500   7529     1  0.0000000  0.6508444  3
   7505   7504   7516   7522     1  0.0000000  0.6508444  3
   7505   7504   7516   7517     1  0.0000000  0.6508444  3
   7505   7504   7516   7518     1  0.0000000  0.6508444  3
   7506   7504   7500   7507     1  0.0000000  0.6508444  3
   7506   7504   7500   7529     1  0.0000000  0.6508444  3
   7506   7504   7516   7522     1  0.0000000  0.6508444  3
   7506   7504   7516   7517     1  0.0000000  0.6508444  3
   7506   7504   7516   7518     1  0.0000000  0.6508444  3
   7507   7510   7519   7520     1  0.0000000  0.6508444  3
   7507   7510   7519   7521     1  0.0000000  0.6508444  3
   7508   7507   7500   7529     1  0.0000000  0.6508444  3
   7508   7507   7510   7519     1  0.0000000  0.6508444  3
   7508   7507   7510   7511     1  0.0000000  0.6508444  3
   7508   7507   7510   7512     1  0.0000000  0.6508444  3
   7509   7507   7500   7529     1  0.0000000  0.6508444  3
   7509   7507   7510   7519     1  0.0000000  0.6508444  3
   7509   7507   7510   7511     1  0.0000000  0.6508444  3
   7509   7507   7510   7512     1  0.0000000  0.6508444  3
   7510   7507   7500   7529     1  0.0000000  0.6508444  3
   7511   7510   7519   7528     1  0.0000000  1.0460000  1
   7511   7510   7519   7528     1  0.0000000  0.0000000  3
   7511   7510   7519   7520     1  0.0000000  0.6508444  3
   7511   7510   7519   7521     1  0.0000000  0.6508444  3
   7512   7510   7519   7528     1  0.0000000  1.0460000  1
   7512   7510   7519   7528     1  0.0000000  0.0000000  3
   7512   7510   7519   7520     1  0.0000000  0.6508444  3
   7512   7510   7519   7521     1  0.0000000  0.6508444  3
   7513   7501   7500   7529     1  0.0000000  0.6508444  3
   7514   7513   7525  14253     1  0.0000000  1.0460000  1
   7514   7513   7525  14253     1  0.0000000  0.0000000  3
   7514   7513   7525   7526     1  0.0000000  0.6508444  3
   7514   7513   7525   7527     1  0.0000000  0.6508444  3
   7515   7513   7525  14253     1  0.0000000  1.0460000  1
   7515   7513   7525  14253     1  0.0000000  0.0000000  3
   7515   7513   7525   7526     1  0.0000000  0.6508444  3
   7515   7513   7525   7527     1  0.0000000  0.6508444  3
   7516   7504   7500   7529     1  0.0000000  0.6508444  3
   7517   7516   7522  14230     1  0.0000000  1.0460000  1
   7517   7516   7522  14230     1  0.0000000  0.0000000  3
   7517   7516   7522   7523     1  0.0000000  0.6508444  3
   7517   7516   7522   7524     1  0.0000000  0.6508444  3
   7518   7516   7522  14230     1  0.0000000  1.0460000  1
   7518   7516   7522  14230     1  0.0000000  0.0000000  3
   7518   7516   7522   7523     1  0.0000000  0.6508444  3
   7518   7516   7522   7524     1  0.0000000  0.6508444  3
   7522  14230  14226  14229     1  0.0000000  1.6038667  3
   7523   7522  14230  14226     1  0.0000000  1.6038667  3
   7524   7522  14230  14226     1  0.0000000  1.6038667  3
   7525  14253  14249  14252     1  0.0000000  1.6038667  3
   7526   7525  14253  14249     1  0.0000000  1.6038667  3
   7527   7525  14253  14249     1  0.0000000  1.6038667  3
   7530   7531   7543   7544     1  0.0000000  0.6508444  3
   7530   7531   7543   7545     1  0.0000000  0.6508444  3
   7530   7534   7546   7547     1  0.0000000  0.6508444  3
   7530   7534   7546   7548     1  0.0000000  0.6508444  3
   7530   7537   7540   7541     1  0.0000000  0.6508444  3
   7530   7537   7540   7542     1  0.0000000  0.6508444  3
   7531   7530   7534   7535     1  0.0000000  0.6508444  3
   7531   7530   7534   7536     1  0.0000000  0.6508444  3
   7531   7530   7537   7538     1  0.0000000  0.6508444  3
   7531   7530   7537   7539     1  0.0000000  0.6508444  3
   7531   7543   7555   7556     1  0.0000000  0.6508444  3
   7531   7543   7555   7557     1  0.0000000  0.6508444  3
   7532   7531   7530   7534     1  0.0000000  0.6508444  3
   7532   7531   7530   7537     1  0.0000000  0.6508444  3
   7532   7531   7530   7559     1  0.0000000  0.6508444  3
   7532   7531   7543   7555     1  0.0000000  0.6508444  3
   7532   7531   7543   7544     1  0.0000000  0.6508444  3
   7532   7531   7543   7545     1  0.0000000  0.6508444  3
   7533   7531   7530   7534     1  0.0000000  0.6508444  3
   7533   7531   7530   7537     1  0.0000000  0.6508444  3
   7533   7531   7530   7559     1  0.0000000  0.6508444  3
   7533   7531   7543   7555     1  0.0000000  0.6508444  3
   7533   7531   7543   7544     1  0.0000000  0.6508444  3
   7533   7531   7543   7545     1  0.0000000  0.6508444  3
   7534   7530   7537   7538     1  0.0000000  0.6508444  3
   7534   7530   7537   7539     1  0.0000000  0.6508444  3
   7534   7546   7552   7553     1  0.0000000  0.6508444  3
   7534   7546   7552   7554     1  0.0000000  0.6508444  3
   7535   7534   7530   7537     1  0.0000000  0.6508444  3
   7535   7534   7530   7559     1  0.0000000  0.6508444  3
   7535   7534   7546   7552     1  0.0000000  0.6508444  3
   7535   7534   7546   7547     1  0.0000000  0.6508444  3
   7535   7534   7546   7548     1  0.0000000  0.6508444  3
   7536   7534   7530   7537     1  0.0000000  0.6508444  3
   7536   7534   7530   7559     1  0.0000000  0.6508444  3
   7536   7534   7546   7552     1  0.0000000  0.6508444  3
   7536   7534   7546   7547     1  0.0000000  0.6508444  3
   7536   7534   7546   7548     1  0.0000000  0.6508444  3
   7537   7540   7549   7550     1  0.0000000  0.6508444  3
   7537   7540   7549   7551     1  0.0000000  0.6508444  3
   7538   7537   7530   7559     1  0.0000000  0.6508444  3
   7538   7537   7540   7549     1  0.0000000  0.6508444  3
   7538   7537   7540   7541     1  0.0000000  0.6508444  3
   7538   7537   7540   7542     1  0.0000000  0.6508444  3
   7539   7537   7530   7559     1  0.0000000  0.6508444  3
   7539   7537   7540   7549     1  0.0000000  0.6508444  3
   7539   7537   7540   7541     1  0.0000000  0.6508444  3
   7539   7537   7540   7542     1  0.0000000  0.6508444  3
   7540   7537   7530   7559     1  0.0000000  0.6508444  3
   7541   7540   7549   7558     1  0.0000000  1.0460000  1
   7541   7540   7549   7558     1  0.0000000  0.0000000  3
   7541   7540   7549   7550     1  0.0000000  0.6508444  3
   7541   7540   7549   7551     1  0.0000000  0.6508444  3
   7542   7540   7549   7558     1  0.0000000  1.0460000  1
   7542   7540   7549   7558     1  0.0000000  0.0000000  3
   7542   7540   7549   7550     1  0.0000000  0.6508444  3
   7542   7540   7549   7551     1  0.0000000  0.6508444  3
   7543   7531   7530   7559     1  0.0000000  0.6508444  3
   7544   7543   7555  14299     1  0.0000000  1.0460000  1
   7544   7543   7555  14299     1  0.0000000  0.0000000  3
   7544   7543   7555   7556     1  0.0000000  0.6508444  3
   7544   7543   7555   7557     1  0.0000000  0.6508444  3
   7545   7543   7555  14299     1  0.0000000  1.0460000  1
   7545   7543   7555  14299     1  0.0000000  0.0000000  3
   7545   7543   7555   7556     1  0.0000000  0.6508444  3
   7545   7543   7555   7557     1  0.0000000  0.6508444  3
   7546   7534   7530   7559     1  0.0000000  0.6508444  3
   7547   7546   7552  14276     1  0.0000000  1.0460000  1
   7547   7546   7552  14276     1  0.0000000  0.0000000  3
   7547   7546   7552   7553     1  0.0000000  0.6508444  3
   7547   7546   7552   7554     1  0.0000000  0.6508444  3
   7548   7546   7552  14276     1  0.0000000  1.0460000  1
   7548   7546   7552  14276     1  0.0000000  0.0000000  3
   7548   7546   7552   7553     1  0.0000000  0.6508444  3
   7548   7546   7552   7554     1  0.0000000  0.6508444  3
   7552  14276  14272  14275     1  0.0000000  1.6038667  3
   7553   7552  14276  14272     1  0.0000000  1.6038667  3
   7554   7552  14276  14272     1  0.0000000  1.6038667  3
   7555  14299  14295  14298     1  0.0000000  1.6038667  3
   7556   7555  14299  14295     1  0.0000000  1.6038667  3
   7557   7555  14299  14295     1  0.0000000  1.6038667  3
   7560   7561   7573   7574     1  0.0000000  0.6508444  3
   7560   7561   7573   7575     1  0.0000000  0.6508444  3
   7560   7564   7576   7577     1  0.0000000  0.6508444  3
   7560   7564   7576   7578     1  0.0000000  0.6508444  3
   7560   7567   7570   7571     1  0.0000000  0.6508444  3
   7560   7567   7570   7572     1  0.0000000  0.6508444  3
   7561   7560   7564   7565     1  0.0000000  0.6508444  3
   7561   7560   7564   7566     1  0.0000000  0.6508444  3
   7561   7560   7567   7568     1  0.0000000  0.6508444  3
   7561   7560   7567   7569     1  0.0000000  0.6508444  3
   7561   7573   7585   7586     1  0.0000000  0.6508444  3
   7561   7573   7585   7587     1  0.0000000  0.6508444  3
   7562   7561   7560   7564     1  0.0000000  0.6508444  3
   7562   7561   7560   7567     1  0.0000000  0.6508444  3
   7562   7561   7560   7589     1  0.0000000  0.6508444  3
   7562   7561   7573   7585     1  0.0000000  0.6508444  3
   7562   7561   7573   7574     1  0.0000000  0.6508444  3
   7562   7561   7573   7575     1  0.0000000  0.6508444  3
   7563   7561   7560   7564     1  0.0000000  0.6508444  3
   7563   7561   7560   7567     1  0.0000000  0.6508444  3
   7563   7561   7560   7589     1  0.0000000  0.6508444  3
   7563   7561   7573   7585     1  0.0000000  0.6508444  3
   7563   7561   7573   7574     1  0.0000000  0.6508444  3
   7563   7561   7573   7575     1  0.0000000  0.6508444  3
   7564   7560   7567   7568     1  0.0000000  0.6508444  3
   7564   7560   7567   7569     1  0.0000000  0.6508444  3
   7564   7576   7582   7583     1  0.0000000  0.6508444  3
   7564   7576   7582   7584     1  0.0000000  0.6508444  3
   7565   7564   7560   7567     1  0.0000000  0.6508444  3
   7565   7564   7560   7589     1  0.0000000  0.6508444  3
   7565   7564   7576   7582     1  0.0000000  0.6508444  3
   7565   7564   7576   7577     1  0.0000000  0.6508444  3
   7565   7564   7576   7578     1  0.0000000  0.6508444  3
   7566   7564   7560   7567     1  0.0000000  0.6508444  3
   7566   7564   7560   7589     1  0.0000000  0.6508444  3
   7566   7564   7576   7582     1  0.0000000  0.6508444  3
   7566   7564   7576   7577     1  0.0000000  0.6508444  3
   7566   7564   7576   7578     1  0.0000000  0.6508444  3
   7567   7570   7579   7580     1  0.0000000  0.6508444  3
   7567   7570   7579   7581     1  0.0000000  0.6508444  3
   7568   7567   7560   7589     1  0.0000000  0.6508444  3
   7568   7567   7570   7579     1  0.0000000  0.6508444  3
   7568   7567   7570   7571     1  0.0000000  0.6508444  3
   7568   7567   7570   7572     1  0.0000000  0.6508444  3
   7569   7567   7560   7589     1  0.0000000  0.6508444  3
   7569   7567   7570   7579     1  0.0000000  0.6508444  3
   7569   7567   7570   7571     1  0.0000000  0.6508444  3
   7569   7567   7570   7572     1  0.0000000  0.6508444  3
   7570   7567   7560   7589     1  0.0000000  0.6508444  3
   7571   7570   7579   7588     1  0.0000000  1.0460000  1
   7571   7570   7579   7588     1  0.0000000  0.0000000  3
   7571   7570   7579   7580     1  0.0000000  0.6508444  3
   7571   7570   7579   7581     1  0.0000000  0.6508444  3
   7572   7570   7579   7588     1  0.0000000  1.0460000  1
   7572   7570   7579   7588     1  0.0000000  0.0000000  3
   7572   7570   7579   7580     1  0.0000000  0.6508444  3
   7572   7570   7579   7581     1  0.0000000  0.6508444  3
   7573   7561   7560   7589     1  0.0000000  0.6508444  3
   7574   7573   7585  14345     1  0.0000000  1.0460000  1
   7574   7573   7585  14345     1  0.0000000  0.0000000  3
   7574   7573   7585   7586     1  0.0000000  0.6508444  3
   7574   7573   7585   7587     1  0.0000000  0.6508444  3
   7575   7573   7585  14345     1  0.0000000  1.0460000  1
   7575   7573   7585  14345     1  0.0000000  0.0000000  3
   7575   7573   7585   7586     1  0.0000000  0.6508444  3
   7575   7573   7585   7587     1  0.0000000  0.6508444  3
   7576   7564   7560   7589     1  0.0000000  0.6508444  3
   7577   7576   7582  14322     1  0.0000000  1.0460000  1
   7577   7576   7582  14322     1  0.0000000  0.0000000  3
   7577   7576   7582   7583     1  0.0000000  0.6508444  3
   7577   7576   7582   7584     1  0.0000000  0.6508444  3
   7578   7576   7582  14322     1  0.0000000  1.0460000  1
   7578   7576   7582  14322     1  0.0000000  0.0000000  3
   7578   7576   7582   7583     1  0.0000000  0.6508444  3
   7578   7576   7582   7584     1  0.0000000  0.6508444  3
   7582  14322  14318  14321     1  0.0000000  1.6038667  3
   7583   7582  14322  14318     1  0.0000000  1.6038667  3
   7584   7582  14322  14318     1  0.0000000  1.6038667  3
   7585  14345  14341  14344     1  0.0000000  1.6038667  3
   7586   7585  14345  14341     1  0.0000000  1.6038667  3
   7587   7585  14345  14341     1  0.0000000  1.6038667  3
   7590   7591   7603   7604     1  0.0000000  0.6508444  3
   7590   7591   7603   7605     1  0.0000000  0.6508444  3
   7590   7594   7606   7607     1  0.0000000  0.6508444  3
   7590   7594   7606   7608     1  0.0000000  0.6508444  3
   7590   7597   7600   7601     1  0.0000000  0.6508444  3
   7590   7597   7600   7602     1  0.0000000  0.6508444  3
   7591   7590   7594   7595     1  0.0000000  0.6508444  3
   7591   7590   7594   7596     1  0.0000000  0.6508444  3
   7591   7590   7597   7598     1  0.0000000  0.6508444  3
   7591   7590   7597   7599     1  0.0000000  0.6508444  3
   7591   7603   7615   7616     1  0.0000000  0.6508444  3
   7591   7603   7615   7617     1  0.0000000  0.6508444  3
   7592   7591   7590   7594     1  0.0000000  0.6508444  3
   7592   7591   7590   7597     1  0.0000000  0.6508444  3
   7592   7591   7590   7619     1  0.0000000  0.6508444  3
   7592   7591   7603   7615     1  0.0000000  0.6508444  3
   7592   7591   7603   7604     1  0.0000000  0.6508444  3
   7592   7591   7603   7605     1  0.0000000  0.6508444  3
   7593   7591   7590   7594     1  0.0000000  0.6508444  3
   7593   7591   7590   7597     1  0.0000000  0.6508444  3
   7593   7591   7590   7619     1  0.0000000  0.6508444  3
   7593   7591   7603   7615     1  0.0000000  0.6508444  3
   7593   7591   7603   7604     1  0.0000000  0.6508444  3
   7593   7591   7603   7605     1  0.0000000  0.6508444  3
   7594   7590   7597   7598     1  0.0000000  0.6508444  3
   7594   7590   7597   7599     1  0.0000000  0.6508444  3
   7594   7606   7612   7613     1  0.0000000  0.6508444  3
   7594   7606   7612   7614     1  0.0000000  0.6508444  3
   7595   7594   7590   7597     1  0.0000000  0.6508444  3
   7595   7594   7590   7619     1  0.0000000  0.6508444  3
   7595   7594   7606   7612     1  0.0000000  0.6508444  3
   7595   7594   7606   7607     1  0.0000000  0.6508444  3
   7595   7594   7606   7608     1  0.0000000  0.6508444  3
   7596   7594   7590   7597     1  0.0000000  0.6508444  3
   7596   7594   7590   7619     1  0.0000000  0.6508444  3
   7596   7594   7606   7612     1  0.0000000  0.6508444  3
   7596   7594   7606   7607     1  0.0000000  0.6508444  3
   7596   7594   7606   7608     1  0.0000000  0.6508444  3
   7597   7600   7609   7610     1  0.0000000  0.6508444  3
   7597   7600   7609   7611     1  0.0000000  0.6508444  3
   7598   7597   7590   7619     1  0.0000000  0.6508444  3
   7598   7597   7600   7609     1  0.0000000  0.6508444  3
   7598   7597   7600   7601     1  0.0000000  0.6508444  3
   7598   7597   7600   7602     1  0.0000000  0.6508444  3
   7599   7597   7590   7619     1  0.0000000  0.6508444  3
   7599   7597   7600   7609     1  0.0000000  0.6508444  3
   7599   7597   7600   7601     1  0.0000000  0.6508444  3
   7599   7597   7600   7602     1  0.0000000  0.6508444  3
   7600   7597   7590   7619     1  0.0000000  0.6508444  3
   7601   7600   7609   7618     1  0.0000000  1.0460000  1
   7601   7600   7609   7618     1  0.0000000  0.0000000  3
   7601   7600   7609   7610     1  0.0000000  0.6508444  3
   7601   7600   7609   7611     1  0.0000000  0.6508444  3
   7602   7600   7609   7618     1  0.0000000  1.0460000  1
   7602   7600   7609   7618     1  0.0000000  0.0000000  3
   7602   7600   7609   7610     1  0.0000000  0.6508444  3
   7602   7600   7609   7611     1  0.0000000  0.6508444  3
   7603   7591   7590   7619     1  0.0000000  0.6508444  3
   7604   7603   7615  14391     1  0.0000000  1.0460000  1
   7604   7603   7615  14391     1  0.0000000  0.0000000  3
   7604   7603   7615   7616     1  0.0000000  0.6508444  3
   7604   7603   7615   7617     1  0.0000000  0.6508444  3
   7605   7603   7615  14391     1  0.0000000  1.0460000  1
   7605   7603   7615  14391     1  0.0000000  0.0000000  3
   7605   7603   7615   7616     1  0.0000000  0.6508444  3
   7605   7603   7615   7617     1  0.0000000  0.6508444  3
   7606   7594   7590   7619     1  0.0000000  0.6508444  3
   7607   7606   7612  14368     1  0.0000000  1.0460000  1
   7607   7606   7612  14368     1  0.0000000  0.0000000  3
   7607   7606   7612   7613     1  0.0000000  0.6508444  3
   7607   7606   7612   7614     1  0.0000000  0.6508444  3
   7608   7606   7612  14368     1  0.0000000  1.0460000  1
   7608   7606   7612  14368     1  0.0000000  0.0000000  3
   7608   7606   7612   7613     1  0.0000000  0.6508444  3
   7608   7606   7612   7614     1  0.0000000  0.6508444  3
   7612  14368  14364  14367     1  0.0000000  1.6038667  3
   7613   7612  14368  14364     1  0.0000000  1.6038667  3
   7614   7612  14368  14364     1  0.0000000  1.6038667  3
   7615  14391  14387  14390     1  0.0000000  1.6038667  3
   7616   7615  14391  14387     1  0.0000000  1.6038667  3
   7617   7615  14391  14387     1  0.0000000  1.6038667  3
   7620   7621   7633   7634     1  0.0000000  0.6508444  3
   7620   7621   7633   7635     1  0.0000000  0.6508444  3
   7620   7624   7636   7637     1  0.0000000  0.6508444  3
   7620   7624   7636   7638     1  0.0000000  0.6508444  3
   7620   7627   7630   7631     1  0.0000000  0.6508444  3
   7620   7627   7630   7632     1  0.0000000  0.6508444  3
   7621   7620   7624   7625     1  0.0000000  0.6508444  3
   7621   7620   7624   7626     1  0.0000000  0.6508444  3
   7621   7620   7627   7628     1  0.0000000  0.6508444  3
   7621   7620   7627   7629     1  0.0000000  0.6508444  3
   7621   7633   7645   7646     1  0.0000000  0.6508444  3
   7621   7633   7645   7647     1  0.0000000  0.6508444  3
   7622   7621   7620   7624     1  0.0000000  0.6508444  3
   7622   7621   7620   7627     1  0.0000000  0.6508444  3
   7622   7621   7620   7649     1  0.0000000  0.6508444  3
   7622   7621   7633   7645     1  0.0000000  0.6508444  3
   7622   7621   7633   7634     1  0.0000000  0.6508444  3
   7622   7621   7633   7635     1  0.0000000  0.6508444  3
   7623   7621   7620   7624     1  0.0000000  0.6508444  3
   7623   7621   7620   7627     1  0.0000000  0.6508444  3
   7623   7621   7620   7649     1  0.0000000  0.6508444  3
   7623   7621   7633   7645     1  0.0000000  0.6508444  3
   7623   7621   7633   7634     1  0.0000000  0.6508444  3
   7623   7621   7633   7635     1  0.0000000  0.6508444  3
   7624   7620   7627   7628     1  0.0000000  0.6508444  3
   7624   7620   7627   7629     1  0.0000000  0.6508444  3
   7624   7636   7642   7643     1  0.0000000  0.6508444  3
   7624   7636   7642   7644     1  0.0000000  0.6508444  3
   7625   7624   7620   7627     1  0.0000000  0.6508444  3
   7625   7624   7620   7649     1  0.0000000  0.6508444  3
   7625   7624   7636   7642     1  0.0000000  0.6508444  3
   7625   7624   7636   7637     1  0.0000000  0.6508444  3
   7625   7624   7636   7638     1  0.0000000  0.6508444  3
   7626   7624   7620   7627     1  0.0000000  0.6508444  3
   7626   7624   7620   7649     1  0.0000000  0.6508444  3
   7626   7624   7636   7642     1  0.0000000  0.6508444  3
   7626   7624   7636   7637     1  0.0000000  0.6508444  3
   7626   7624   7636   7638     1  0.0000000  0.6508444  3
   7627   7630   7639   7640     1  0.0000000  0.6508444  3
   7627   7630   7639   7641     1  0.0000000  0.6508444  3
   7628   7627   7620   7649     1  0.0000000  0.6508444  3
   7628   7627   7630   7639     1  0.0000000  0.6508444  3
   7628   7627   7630   7631     1  0.0000000  0.6508444  3
   7628   7627   7630   7632     1  0.0000000  0.6508444  3
   7629   7627   7620   7649     1  0.0000000  0.6508444  3
   7629   7627   7630   7639     1  0.0000000  0.6508444  3
   7629   7627   7630   7631     1  0.0000000  0.6508444  3
   7629   7627   7630   7632     1  0.0000000  0.6508444  3
   7630   7627   7620   7649     1  0.0000000  0.6508444  3
   7631   7630   7639   7648     1  0.0000000  1.0460000  1
   7631   7630   7639   7648     1  0.0000000  0.0000000  3
   7631   7630   7639   7640     1  0.0000000  0.6508444  3
   7631   7630   7639   7641     1  0.0000000  0.6508444  3
   7632   7630   7639   7648     1  0.0000000  1.0460000  1
   7632   7630   7639   7648     1  0.0000000  0.0000000  3
   7632   7630   7639   7640     1  0.0000000  0.6508444  3
   7632   7630   7639   7641     1  0.0000000  0.6508444  3
   7633   7621   7620   7649     1  0.0000000  0.6508444  3
   7634   7633   7645  14437     1  0.0000000  1.0460000  1
   7634   7633   7645  14437     1  0.0000000  0.0000000  3
   7634   7633   7645   7646     1  0.0000000  0.6508444  3
   7634   7633   7645   7647     1  0.0000000  0.6508444  3
   7635   7633   7645  14437     1  0.0000000  1.0460000  1
   7635   7633   7645  14437     1  0.0000000  0.0000000  3
   7635   7633   7645   7646     1  0.0000000  0.6508444  3
   7635   7633   7645   7647     1  0.0000000  0.6508444  3
   7636   7624   7620   7649     1  0.0000000  0.6508444  3
   7637   7636   7642  14414     1  0.0000000  1.0460000  1
   7637   7636   7642  14414     1  0.0000000  0.0000000  3
   7637   7636   7642   7643     1  0.0000000  0.6508444  3
   7637   7636   7642   7644     1  0.0000000  0.6508444  3
   7638   7636   7642  14414     1  0.0000000  1.0460000  1
   7638   7636   7642  14414     1  0.0000000  0.0000000  3
   7638   7636   7642   7643     1  0.0000000  0.6508444  3
   7638   7636   7642   7644     1  0.0000000  0.6508444  3
   7642  14414  14410  14413     1  0.0000000  1.6038667  3
   7643   7642  14414  14410     1  0.0000000  1.6038667  3
   7644   7642  14414  14410     1  0.0000000  1.6038667  3
   7645  14437  14433  14436     1  0.0000000  1.6038667  3
   7646   7645  14437  14433     1  0.0000000  1.6038667  3
   7647   7645  14437  14433     1  0.0000000  1.6038667  3
   7650   7651   7663   7664     1  0.0000000  0.6508444  3
   7650   7651   7663   7665     1  0.0000000  0.6508444  3
   7650   7654   7666   7667     1  0.0000000  0.6508444  3
   7650   7654   7666   7668     1  0.0000000  0.6508444  3
   7650   7657   7660   7661     1  0.0000000  0.6508444  3
   7650   7657   7660   7662     1  0.0000000  0.6508444  3
   7651   7650   7654   7655     1  0.0000000  0.6508444  3
   7651   7650   7654   7656     1  0.0000000  0.6508444  3
   7651   7650   7657   7658     1  0.0000000  0.6508444  3
   7651   7650   7657   7659     1  0.0000000  0.6508444  3
   7651   7663   7675   7676     1  0.0000000  0.6508444  3
   7651   7663   7675   7677     1  0.0000000  0.6508444  3
   7652   7651   7650   7654     1  0.0000000  0.6508444  3
   7652   7651   7650   7657     1  0.0000000  0.6508444  3
   7652   7651   7650   7679     1  0.0000000  0.6508444  3
   7652   7651   7663   7675     1  0.0000000  0.6508444  3
   7652   7651   7663   7664     1  0.0000000  0.6508444  3
   7652   7651   7663   7665     1  0.0000000  0.6508444  3
   7653   7651   7650   7654     1  0.0000000  0.6508444  3
   7653   7651   7650   7657     1  0.0000000  0.6508444  3
   7653   7651   7650   7679     1  0.0000000  0.6508444  3
   7653   7651   7663   7675     1  0.0000000  0.6508444  3
   7653   7651   7663   7664     1  0.0000000  0.6508444  3
   7653   7651   7663   7665     1  0.0000000  0.6508444  3
   7654   7650   7657   7658     1  0.0000000  0.6508444  3
   7654   7650   7657   7659     1  0.0000000  0.6508444  3
   7654   7666   7672   7673     1  0.0000000  0.6508444  3
   7654   7666   7672   7674     1  0.0000000  0.6508444  3
   7655   7654   7650   7657     1  0.0000000  0.6508444  3
   7655   7654   7650   7679     1  0.0000000  0.6508444  3
   7655   7654   7666   7672     1  0.0000000  0.6508444  3
   7655   7654   7666   7667     1  0.0000000  0.6508444  3
   7655   7654   7666   7668     1  0.0000000  0.6508444  3
   7656   7654   7650   7657     1  0.0000000  0.6508444  3
   7656   7654   7650   7679     1  0.0000000  0.6508444  3
   7656   7654   7666   7672     1  0.0000000  0.6508444  3
   7656   7654   7666   7667     1  0.0000000  0.6508444  3
   7656   7654   7666   7668     1  0.0000000  0.6508444  3
   7657   7660   7669   7670     1  0.0000000  0.6508444  3
   7657   7660   7669   7671     1  0.0000000  0.6508444  3
   7658   7657   7650   7679     1  0.0000000  0.6508444  3
   7658   7657   7660   7669     1  0.0000000  0.6508444  3
   7658   7657   7660   7661     1  0.0000000  0.6508444  3
   7658   7657   7660   7662     1  0.0000000  0.6508444  3
   7659   7657   7650   7679     1  0.0000000  0.6508444  3
   7659   7657   7660   7669     1  0.0000000  0.6508444  3
   7659   7657   7660   7661     1  0.0000000  0.6508444  3
   7659   7657   7660   7662     1  0.0000000  0.6508444  3
   7660   7657   7650   7679     1  0.0000000  0.6508444  3
   7661   7660   7669   7678     1  0.0000000  1.0460000  1
   7661   7660   7669   7678     1  0.0000000  0.0000000  3
   7661   7660   7669   7670     1  0.0000000  0.6508444  3
   7661   7660   7669   7671     1  0.0000000  0.6508444  3
   7662   7660   7669   7678     1  0.0000000  1.0460000  1
   7662   7660   7669   7678     1  0.0000000  0.0000000  3
   7662   7660   7669   7670     1  0.0000000  0.6508444  3
   7662   7660   7669   7671     1  0.0000000  0.6508444  3
   7663   7651   7650   7679     1  0.0000000  0.6508444  3
   7664   7663   7675  14483     1  0.0000000  1.0460000  1
   7664   7663   7675  14483     1  0.0000000  0.0000000  3
   7664   7663   7675   7676     1  0.0000000  0.6508444  3
   7664   7663   7675   7677     1  0.0000000  0.6508444  3
   7665   7663   7675  14483     1  0.0000000  1.0460000  1
   7665   7663   7675  14483     1  0.0000000  0.0000000  3
   7665   7663   7675   7676     1  0.0000000  0.6508444  3
   7665   7663   7675   7677     1  0.0000000  0.6508444  3
   7666   7654   7650   7679     1  0.0000000  0.6508444  3
   7667   7666   7672  14460     1  0.0000000  1.0460000  1
   7667   7666   7672  14460     1  0.0000000  0.0000000  3
   7667   7666   7672   7673     1  0.0000000  0.6508444  3
   7667   7666   7672   7674     1  0.0000000  0.6508444  3
   7668   7666   7672  14460     1  0.0000000  1.0460000  1
   7668   7666   7672  14460     1  0.0000000  0.0000000  3
   7668   7666   7672   7673     1  0.0000000  0.6508444  3
   7668   7666   7672   7674     1  0.0000000  0.6508444  3
   7672  14460  14456  14459     1  0.0000000  1.6038667  3
   7673   7672  14460  14456     1  0.0000000  1.6038667  3
   7674   7672  14460  14456     1  0.0000000  1.6038667  3
   7675  14483  14479  14482     1  0.0000000  1.6038667  3
   7676   7675  14483  14479     1  0.0000000  1.6038667  3
   7677   7675  14483  14479     1  0.0000000  1.6038667  3
   7680   7681   7693   7694     1  0.0000000  0.6508444  3
   7680   7681   7693   7695     1  0.0000000  0.6508444  3
   7680   7684   7696   7697     1  0.0000000  0.6508444  3
   7680   7684   7696   7698     1  0.0000000  0.6508444  3
   7680   7687   7690   7691     1  0.0000000  0.6508444  3
   7680   7687   7690   7692     1  0.0000000  0.6508444  3
   7681   7680   7684   7685     1  0.0000000  0.6508444  3
   7681   7680   7684   7686     1  0.0000000  0.6508444  3
   7681   7680   7687   7688     1  0.0000000  0.6508444  3
   7681   7680   7687   7689     1  0.0000000  0.6508444  3
   7681   7693   7705   7706     1  0.0000000  0.6508444  3
   7681   7693   7705   7707     1  0.0000000  0.6508444  3
   7682   7681   7680   7684     1  0.0000000  0.6508444  3
   7682   7681   7680   7687     1  0.0000000  0.6508444  3
   7682   7681   7680   7709     1  0.0000000  0.6508444  3
   7682   7681   7693   7705     1  0.0000000  0.6508444  3
   7682   7681   7693   7694     1  0.0000000  0.6508444  3
   7682   7681   7693   7695     1  0.0000000  0.6508444  3
   7683   7681   7680   7684     1  0.0000000  0.6508444  3
   7683   7681   7680   7687     1  0.0000000  0.6508444  3
   7683   7681   7680   7709     1  0.0000000  0.6508444  3
   7683   7681   7693   7705     1  0.0000000  0.6508444  3
   7683   7681   7693   7694     1  0.0000000  0.6508444  3
   7683   7681   7693   7695     1  0.0000000  0.6508444  3
   7684   7680   7687   7688     1  0.0000000  0.6508444  3
   7684   7680   7687   7689     1  0.0000000  0.6508444  3
   7684   7696   7702   7703     1  0.0000000  0.6508444  3
   7684   7696   7702   7704     1  0.0000000  0.6508444  3
   7685   7684   7680   7687     1  0.0000000  0.6508444  3
   7685   7684   7680   7709     1  0.0000000  0.6508444  3
   7685   7684   7696   7702     1  0.0000000  0.6508444  3
   7685   7684   7696   7697     1  0.0000000  0.6508444  3
   7685   7684   7696   7698     1  0.0000000  0.6508444  3
   7686   7684   7680   7687     1  0.0000000  0.6508444  3
   7686   7684   7680   7709     1  0.0000000  0.6508444  3
   7686   7684   7696   7702     1  0.0000000  0.6508444  3
   7686   7684   7696   7697     1  0.0000000  0.6508444  3
   7686   7684   7696   7698     1  0.0000000  0.6508444  3
   7687   7690   7699   7700     1  0.0000000  0.6508444  3
   7687   7690   7699   7701     1  0.0000000  0.6508444  3
   7688   7687   7680   7709     1  0.0000000  0.6508444  3
   7688   7687   7690   7699     1  0.0000000  0.6508444  3
   7688   7687   7690   7691     1  0.0000000  0.6508444  3
   7688   7687   7690   7692     1  0.0000000  0.6508444  3
   7689   7687   7680   7709     1  0.0000000  0.6508444  3
   7689   7687   7690   7699     1  0.0000000  0.6508444  3
   7689   7687   7690   7691     1  0.0000000  0.6508444  3
   7689   7687   7690   7692     1  0.0000000  0.6508444  3
   7690   7687   7680   7709     1  0.0000000  0.6508444  3
   7691   7690   7699   7708     1  0.0000000  1.0460000  1
   7691   7690   7699   7708     1  0.0000000  0.0000000  3
   7691   7690   7699   7700     1  0.0000000  0.6508444  3
   7691   7690   7699   7701     1  0.0000000  0.6508444  3
   7692   7690   7699   7708     1  0.0000000  1.0460000  1
   7692   7690   7699   7708     1  0.0000000  0.0000000  3
   7692   7690   7699   7700     1  0.0000000  0.6508444  3
   7692   7690   7699   7701     1  0.0000000  0.6508444  3
   7693   7681   7680   7709     1  0.0000000  0.6508444  3
   7694   7693   7705  14529     1  0.0000000  1.0460000  1
   7694   7693   7705  14529     1  0.0000000  0.0000000  3
   7694   7693   7705   7706     1  0.0000000  0.6508444  3
   7694   7693   7705   7707     1  0.0000000  0.6508444  3
   7695   7693   7705  14529     1  0.0000000  1.0460000  1
   7695   7693   7705  14529     1  0.0000000  0.0000000  3
   7695   7693   7705   7706     1  0.0000000  0.6508444  3
   7695   7693   7705   7707     1  0.0000000  0.6508444  3
   7696   7684   7680   7709     1  0.0000000  0.6508444  3
   7697   7696   7702  14506     1  0.0000000  1.0460000  1
   7697   7696   7702  14506     1  0.0000000  0.0000000  3
   7697   7696   7702   7703     1  0.0000000  0.6508444  3
   7697   7696   7702   7704     1  0.0000000  0.6508444  3
   7698   7696   7702  14506     1  0.0000000  1.0460000  1
   7698   7696   7702  14506     1  0.0000000  0.0000000  3
   7698   7696   7702   7703     1  0.0000000  0.6508444  3
   7698   7696   7702   7704     1  0.0000000  0.6508444  3
   7702  14506  14502  14505     1  0.0000000  1.6038667  3
   7703   7702  14506  14502     1  0.0000000  1.6038667  3
   7704   7702  14506  14502     1  0.0000000  1.6038667  3
   7705  14529  14525  14528     1  0.0000000  1.6038667  3
   7706   7705  14529  14525     1  0.0000000  1.6038667  3
   7707   7705  14529  14525     1  0.0000000  1.6038667  3
   7710   7711   7723   7724     1  0.0000000  0.6508444  3
   7710   7711   7723   7725     1  0.0000000  0.6508444  3
   7710   7714   7726   7727     1  0.0000000  0.6508444  3
   7710   7714   7726   7728     1  0.0000000  0.6508444  3
   7710   7717   7720   7721     1  0.0000000  0.6508444  3
   7710   7717   7720   7722     1  0.0000000  0.6508444  3
   7711   7710   7714   7715     1  0.0000000  0.6508444  3
   7711   7710   7714   7716     1  0.0000000  0.6508444  3
   7711   7710   7717   7718     1  0.0000000  0.6508444  3
   7711   7710   7717   7719     1  0.0000000  0.6508444  3
   7711   7723   7735   7736     1  0.0000000  0.6508444  3
   7711   7723   7735   7737     1  0.0000000  0.6508444  3
   7712   7711   7710   7714     1  0.0000000  0.6508444  3
   7712   7711   7710   7717     1  0.0000000  0.6508444  3
   7712   7711   7710   7739     1  0.0000000  0.6508444  3
   7712   7711   7723   7735     1  0.0000000  0.6508444  3
   7712   7711   7723   7724     1  0.0000000  0.6508444  3
   7712   7711   7723   7725     1  0.0000000  0.6508444  3
   7713   7711   7710   7714     1  0.0000000  0.6508444  3
   7713   7711   7710   7717     1  0.0000000  0.6508444  3
   7713   7711   7710   7739     1  0.0000000  0.6508444  3
   7713   7711   7723   7735     1  0.0000000  0.6508444  3
   7713   7711   7723   7724     1  0.0000000  0.6508444  3
   7713   7711   7723   7725     1  0.0000000  0.6508444  3
   7714   7710   7717   7718     1  0.0000000  0.6508444  3
   7714   7710   7717   7719     1  0.0000000  0.6508444  3
   7714   7726   7732   7733     1  0.0000000  0.6508444  3
   7714   7726   7732   7734     1  0.0000000  0.6508444  3
   7715   7714   7710   7717     1  0.0000000  0.6508444  3
   7715   7714   7710   7739     1  0.0000000  0.6508444  3
   7715   7714   7726   7732     1  0.0000000  0.6508444  3
   7715   7714   7726   7727     1  0.0000000  0.6508444  3
   7715   7714   7726   7728     1  0.0000000  0.6508444  3
   7716   7714   7710   7717     1  0.0000000  0.6508444  3
   7716   7714   7710   7739     1  0.0000000  0.6508444  3
   7716   7714   7726   7732     1  0.0000000  0.6508444  3
   7716   7714   7726   7727     1  0.0000000  0.6508444  3
   7716   7714   7726   7728     1  0.0000000  0.6508444  3
   7717   7720   7729   7730     1  0.0000000  0.6508444  3
   7717   7720   7729   7731     1  0.0000000  0.6508444  3
   7718   7717   7710   7739     1  0.0000000  0.6508444  3
   7718   7717   7720   7729     1  0.0000000  0.6508444  3
   7718   7717   7720   7721     1  0.0000000  0.6508444  3
   7718   7717   7720   7722     1  0.0000000  0.6508444  3
   7719   7717   7710   7739     1  0.0000000  0.6508444  3
   7719   7717   7720   7729     1  0.0000000  0.6508444  3
   7719   7717   7720   7721     1  0.0000000  0.6508444  3
   7719   7717   7720   7722     1  0.0000000  0.6508444  3
   7720   7717   7710   7739     1  0.0000000  0.6508444  3
   7721   7720   7729   7738     1  0.0000000  1.0460000  1
   7721   7720   7729   7738     1  0.0000000  0.0000000  3
   7721   7720   7729   7730     1  0.0000000  0.6508444  3
   7721   7720   7729   7731     1  0.0000000  0.6508444  3
   7722   7720   7729   7738     1  0.0000000  1.0460000  1
   7722   7720   7729   7738     1  0.0000000  0.0000000  3
   7722   7720   7729   7730     1  0.0000000  0.6508444  3
   7722   7720   7729   7731     1  0.0000000  0.6508444  3
   7723   7711   7710   7739     1  0.0000000  0.6508444  3
   7724   7723   7735  14575     1  0.0000000  1.0460000  1
   7724   7723   7735  14575     1  0.0000000  0.0000000  3
   7724   7723   7735   7736     1  0.0000000  0.6508444  3
   7724   7723   7735   7737     1  0.0000000  0.6508444  3
   7725   7723   7735  14575     1  0.0000000  1.0460000  1
   7725   7723   7735  14575     1  0.0000000  0.0000000  3
   7725   7723   7735   7736     1  0.0000000  0.6508444  3
   7725   7723   7735   7737     1  0.0000000  0.6508444  3
   7726   7714   7710   7739     1  0.0000000  0.6508444  3
   7727   7726   7732  14552     1  0.0000000  1.0460000  1
   7727   7726   7732  14552     1  0.0000000  0.0000000  3
   7727   7726   7732   7733     1  0.0000000  0.6508444  3
   7727   7726   7732   7734     1  0.0000000  0.6508444  3
   7728   7726   7732  14552     1  0.0000000  1.0460000  1
   7728   7726   7732  14552     1  0.0000000  0.0000000  3
   7728   7726   7732   7733     1  0.0000000  0.6508444  3
   7728   7726   7732   7734     1  0.0000000  0.6508444  3
   7732  14552  14548  14551     1  0.0000000  1.6038667  3
   7733   7732  14552  14548     1  0.0000000  1.6038667  3
   7734   7732  14552  14548     1  0.0000000  1.6038667  3
   7735  14575  14571  14574     1  0.0000000  1.6038667  3
   7736   7735  14575  14571     1  0.0000000  1.6038667  3
   7737   7735  14575  14571     1  0.0000000  1.6038667  3
   7740   7741   7753   7754     1  0.0000000  0.6508444  3
   7740   7741   7753   7755     1  0.0000000  0.6508444  3
   7740   7744   7756   7757     1  0.0000000  0.6508444  3
   7740   7744   7756   7758     1  0.0000000  0.6508444  3
   7740   7747   7750   7751     1  0.0000000  0.6508444  3
   7740   7747   7750   7752     1  0.0000000  0.6508444  3
   7741   7740   7744   7745     1  0.0000000  0.6508444  3
   7741   7740   7744   7746     1  0.0000000  0.6508444  3
   7741   7740   7747   7748     1  0.0000000  0.6508444  3
   7741   7740   7747   7749     1  0.0000000  0.6508444  3
   7741   7753   7765   7766     1  0.0000000  0.6508444  3
   7741   7753   7765   7767     1  0.0000000  0.6508444  3
   7742   7741   7740   7744     1  0.0000000  0.6508444  3
   7742   7741   7740   7747     1  0.0000000  0.6508444  3
   7742   7741   7740   7769     1  0.0000000  0.6508444  3
   7742   7741   7753   7765     1  0.0000000  0.6508444  3
   7742   7741   7753   7754     1  0.0000000  0.6508444  3
   7742   7741   7753   7755     1  0.0000000  0.6508444  3
   7743   7741   7740   7744     1  0.0000000  0.6508444  3
   7743   7741   7740   7747     1  0.0000000  0.6508444  3
   7743   7741   7740   7769     1  0.0000000  0.6508444  3
   7743   7741   7753   7765     1  0.0000000  0.6508444  3
   7743   7741   7753   7754     1  0.0000000  0.6508444  3
   7743   7741   7753   7755     1  0.0000000  0.6508444  3
   7744   7740   7747   7748     1  0.0000000  0.6508444  3
   7744   7740   7747   7749     1  0.0000000  0.6508444  3
   7744   7756   7762   7763     1  0.0000000  0.6508444  3
   7744   7756   7762   7764     1  0.0000000  0.6508444  3
   7745   7744   7740   7747     1  0.0000000  0.6508444  3
   7745   7744   7740   7769     1  0.0000000  0.6508444  3
   7745   7744   7756   7762     1  0.0000000  0.6508444  3
   7745   7744   7756   7757     1  0.0000000  0.6508444  3
   7745   7744   7756   7758     1  0.0000000  0.6508444  3
   7746   7744   7740   7747     1  0.0000000  0.6508444  3
   7746   7744   7740   7769     1  0.0000000  0.6508444  3
   7746   7744   7756   7762     1  0.0000000  0.6508444  3
   7746   7744   7756   7757     1  0.0000000  0.6508444  3
   7746   7744   7756   7758     1  0.0000000  0.6508444  3
   7747   7750   7759   7760     1  0.0000000  0.6508444  3
   7747   7750   7759   7761     1  0.0000000  0.6508444  3
   7748   7747   7740   7769     1  0.0000000  0.6508444  3
   7748   7747   7750   7759     1  0.0000000  0.6508444  3
   7748   7747   7750   7751     1  0.0000000  0.6508444  3
   7748   7747   7750   7752     1  0.0000000  0.6508444  3
   7749   7747   7740   7769     1  0.0000000  0.6508444  3
   7749   7747   7750   7759     1  0.0000000  0.6508444  3
   7749   7747   7750   7751     1  0.0000000  0.6508444  3
   7749   7747   7750   7752     1  0.0000000  0.6508444  3
   7750   7747   7740   7769     1  0.0000000  0.6508444  3
   7751   7750   7759   7768     1  0.0000000  1.0460000  1
   7751   7750   7759   7768     1  0.0000000  0.0000000  3
   7751   7750   7759   7760     1  0.0000000  0.6508444  3
   7751   7750   7759   7761     1  0.0000000  0.6508444  3
   7752   7750   7759   7768     1  0.0000000  1.0460000  1
   7752   7750   7759   7768     1  0.0000000  0.0000000  3
   7752   7750   7759   7760     1  0.0000000  0.6508444  3
   7752   7750   7759   7761     1  0.0000000  0.6508444  3
   7753   7741   7740   7769     1  0.0000000  0.6508444  3
   7754   7753   7765  14621     1  0.0000000  1.0460000  1
   7754   7753   7765  14621     1  0.0000000  0.0000000  3
   7754   7753   7765   7766     1  0.0000000  0.6508444  3
   7754   7753   7765   7767     1  0.0000000  0.6508444  3
   7755   7753   7765  14621     1  0.0000000  1.0460000  1
   7755   7753   7765  14621     1  0.0000000  0.0000000  3
   7755   7753   7765   7766     1  0.0000000  0.6508444  3
   7755   7753   7765   7767     1  0.0000000  0.6508444  3
   7756   7744   7740   7769     1  0.0000000  0.6508444  3
   7757   7756   7762  14598     1  0.0000000  1.0460000  1
   7757   7756   7762  14598     1  0.0000000  0.0000000  3
   7757   7756   7762   7763     1  0.0000000  0.6508444  3
   7757   7756   7762   7764     1  0.0000000  0.6508444  3
   7758   7756   7762  14598     1  0.0000000  1.0460000  1
   7758   7756   7762  14598     1  0.0000000  0.0000000  3
   7758   7756   7762   7763     1  0.0000000  0.6508444  3
   7758   7756   7762   7764     1  0.0000000  0.6508444  3
   7762  14598  14594  14597     1  0.0000000  1.6038667  3
   7763   7762  14598  14594     1  0.0000000  1.6038667  3
   7764   7762  14598  14594     1  0.0000000  1.6038667  3
   7765  14621  14617  14620     1  0.0000000  1.6038667  3
   7766   7765  14621  14617     1  0.0000000  1.6038667  3
   7767   7765  14621  14617     1  0.0000000  1.6038667  3
   7770   7771   7783   7784     1  0.0000000  0.6508444  3
   7770   7771   7783   7785     1  0.0000000  0.6508444  3
   7770   7774   7786   7787     1  0.0000000  0.6508444  3
   7770   7774   7786   7788     1  0.0000000  0.6508444  3
   7770   7777   7780   7781     1  0.0000000  0.6508444  3
   7770   7777   7780   7782     1  0.0000000  0.6508444  3
   7771   7770   7774   7775     1  0.0000000  0.6508444  3
   7771   7770   7774   7776     1  0.0000000  0.6508444  3
   7771   7770   7777   7778     1  0.0000000  0.6508444  3
   7771   7770   7777   7779     1  0.0000000  0.6508444  3
   7771   7783   7795   7796     1  0.0000000  0.6508444  3
   7771   7783   7795   7797     1  0.0000000  0.6508444  3
   7772   7771   7770   7774     1  0.0000000  0.6508444  3
   7772   7771   7770   7777     1  0.0000000  0.6508444  3
   7772   7771   7770   7799     1  0.0000000  0.6508444  3
   7772   7771   7783   7795     1  0.0000000  0.6508444  3
   7772   7771   7783   7784     1  0.0000000  0.6508444  3
   7772   7771   7783   7785     1  0.0000000  0.6508444  3
   7773   7771   7770   7774     1  0.0000000  0.6508444  3
   7773   7771   7770   7777     1  0.0000000  0.6508444  3
   7773   7771   7770   7799     1  0.0000000  0.6508444  3
   7773   7771   7783   7795     1  0.0000000  0.6508444  3
   7773   7771   7783   7784     1  0.0000000  0.6508444  3
   7773   7771   7783   7785     1  0.0000000  0.6508444  3
   7774   7770   7777   7778     1  0.0000000  0.6508444  3
   7774   7770   7777   7779     1  0.0000000  0.6508444  3
   7774   7786   7792   7793     1  0.0000000  0.6508444  3
   7774   7786   7792   7794     1  0.0000000  0.6508444  3
   7775   7774   7770   7777     1  0.0000000  0.6508444  3
   7775   7774   7770   7799     1  0.0000000  0.6508444  3
   7775   7774   7786   7792     1  0.0000000  0.6508444  3
   7775   7774   7786   7787     1  0.0000000  0.6508444  3
   7775   7774   7786   7788     1  0.0000000  0.6508444  3
   7776   7774   7770   7777     1  0.0000000  0.6508444  3
   7776   7774   7770   7799     1  0.0000000  0.6508444  3
   7776   7774   7786   7792     1  0.0000000  0.6508444  3
   7776   7774   7786   7787     1  0.0000000  0.6508444  3
   7776   7774   7786   7788     1  0.0000000  0.6508444  3
   7777   7780   7789   7790     1  0.0000000  0.6508444  3
   7777   7780   7789   7791     1  0.0000000  0.6508444  3
   7778   7777   7770   7799     1  0.0000000  0.6508444  3
   7778   7777   7780   7789     1  0.0000000  0.6508444  3
   7778   7777   7780   7781     1  0.0000000  0.6508444  3
   7778   7777   7780   7782     1  0.0000000  0.6508444  3
   7779   7777   7770   7799     1  0.0000000  0.6508444  3
   7779   7777   7780   7789     1  0.0000000  0.6508444  3
   7779   7777   7780   7781     1  0.0000000  0.6508444  3
   7779   7777   7780   7782     1  0.0000000  0.6508444  3
   7780   7777   7770   7799     1  0.0000000  0.6508444  3
   7781   7780   7789   7798     1  0.0000000  1.0460000  1
   7781   7780   7789   7798     1  0.0000000  0.0000000  3
   7781   7780   7789   7790     1  0.0000000  0.6508444  3
   7781   7780   7789   7791     1  0.0000000  0.6508444  3
   7782   7780   7789   7798     1  0.0000000  1.0460000  1
   7782   7780   7789   7798     1  0.0000000  0.0000000  3
   7782   7780   7789   7790     1  0.0000000  0.6508444  3
   7782   7780   7789   7791     1  0.0000000  0.6508444  3
   7783   7771   7770   7799     1  0.0000000  0.6508444  3
   7784   7783   7795  14667     1  0.0000000  1.0460000  1
   7784   7783   7795  14667     1  0.0000000  0.0000000  3
   7784   7783   7795   7796     1  0.0000000  0.6508444  3
   7784   7783   7795   7797     1  0.0000000  0.6508444  3
   7785   7783   7795  14667     1  0.0000000  1.0460000  1
   7785   7783   7795  14667     1  0.0000000  0.0000000  3
   7785   7783   7795   7796     1  0.0000000  0.6508444  3
   7785   7783   7795   7797     1  0.0000000  0.6508444  3
   7786   7774   7770   7799     1  0.0000000  0.6508444  3
   7787   7786   7792  14644     1  0.0000000  1.0460000  1
   7787   7786   7792  14644     1  0.0000000  0.0000000  3
   7787   7786   7792   7793     1  0.0000000  0.6508444  3
   7787   7786   7792   7794     1  0.0000000  0.6508444  3
   7788   7786   7792  14644     1  0.0000000  1.0460000  1
   7788   7786   7792  14644     1  0.0000000  0.0000000  3
   7788   7786   7792   7793     1  0.0000000  0.6508444  3
   7788   7786   7792   7794     1  0.0000000  0.6508444  3
   7792  14644  14640  14643     1  0.0000000  1.6038667  3
   7793   7792  14644  14640     1  0.0000000  1.6038667  3
   7794   7792  14644  14640     1  0.0000000  1.6038667  3
   7795  14667  14663  14666     1  0.0000000  1.6038667  3
   7796   7795  14667  14663     1  0.0000000  1.6038667  3
   7797   7795  14667  14663     1  0.0000000  1.6038667  3
   7800   7801   7813   7814     1  0.0000000  0.6508444  3
   7800   7801   7813   7815     1  0.0000000  0.6508444  3
   7800   7804   7816   7817     1  0.0000000  0.6508444  3
   7800   7804   7816   7818     1  0.0000000  0.6508444  3
   7800   7807   7810   7811     1  0.0000000  0.6508444  3
   7800   7807   7810   7812     1  0.0000000  0.6508444  3
   7801   7800   7804   7805     1  0.0000000  0.6508444  3
   7801   7800   7804   7806     1  0.0000000  0.6508444  3
   7801   7800   7807   7808     1  0.0000000  0.6508444  3
   7801   7800   7807   7809     1  0.0000000  0.6508444  3
   7801   7813   7825   7826     1  0.0000000  0.6508444  3
   7801   7813   7825   7827     1  0.0000000  0.6508444  3
   7802   7801   7800   7804     1  0.0000000  0.6508444  3
   7802   7801   7800   7807     1  0.0000000  0.6508444  3
   7802   7801   7800   7829     1  0.0000000  0.6508444  3
   7802   7801   7813   7825     1  0.0000000  0.6508444  3
   7802   7801   7813   7814     1  0.0000000  0.6508444  3
   7802   7801   7813   7815     1  0.0000000  0.6508444  3
   7803   7801   7800   7804     1  0.0000000  0.6508444  3
   7803   7801   7800   7807     1  0.0000000  0.6508444  3
   7803   7801   7800   7829     1  0.0000000  0.6508444  3
   7803   7801   7813   7825     1  0.0000000  0.6508444  3
   7803   7801   7813   7814     1  0.0000000  0.6508444  3
   7803   7801   7813   7815     1  0.0000000  0.6508444  3
   7804   7800   7807   7808     1  0.0000000  0.6508444  3
   7804   7800   7807   7809     1  0.0000000  0.6508444  3
   7804   7816   7822   7823     1  0.0000000  0.6508444  3
   7804   7816   7822   7824     1  0.0000000  0.6508444  3
   7805   7804   7800   7807     1  0.0000000  0.6508444  3
   7805   7804   7800   7829     1  0.0000000  0.6508444  3
   7805   7804   7816   7822     1  0.0000000  0.6508444  3
   7805   7804   7816   7817     1  0.0000000  0.6508444  3
   7805   7804   7816   7818     1  0.0000000  0.6508444  3
   7806   7804   7800   7807     1  0.0000000  0.6508444  3
   7806   7804   7800   7829     1  0.0000000  0.6508444  3
   7806   7804   7816   7822     1  0.0000000  0.6508444  3
   7806   7804   7816   7817     1  0.0000000  0.6508444  3
   7806   7804   7816   7818     1  0.0000000  0.6508444  3
   7807   7810   7819   7820     1  0.0000000  0.6508444  3
   7807   7810   7819   7821     1  0.0000000  0.6508444  3
   7808   7807   7800   7829     1  0.0000000  0.6508444  3
   7808   7807   7810   7819     1  0.0000000  0.6508444  3
   7808   7807   7810   7811     1  0.0000000  0.6508444  3
   7808   7807   7810   7812     1  0.0000000  0.6508444  3
   7809   7807   7800   7829     1  0.0000000  0.6508444  3
   7809   7807   7810   7819     1  0.0000000  0.6508444  3
   7809   7807   7810   7811     1  0.0000000  0.6508444  3
   7809   7807   7810   7812     1  0.0000000  0.6508444  3
   7810   7807   7800   7829     1  0.0000000  0.6508444  3
   7811   7810   7819   7828     1  0.0000000  1.0460000  1
   7811   7810   7819   7828     1  0.0000000  0.0000000  3
   7811   7810   7819   7820     1  0.0000000  0.6508444  3
   7811   7810   7819   7821     1  0.0000000  0.6508444  3
   7812   7810   7819   7828     1  0.0000000  1.0460000  1
   7812   7810   7819   7828     1  0.0000000  0.0000000  3
   7812   7810   7819   7820     1  0.0000000  0.6508444  3
   7812   7810   7819   7821     1  0.0000000  0.6508444  3
   7813   7801   7800   7829     1  0.0000000  0.6508444  3
   7814   7813   7825  14713     1  0.0000000  1.0460000  1
   7814   7813   7825  14713     1  0.0000000  0.0000000  3
   7814   7813   7825   7826     1  0.0000000  0.6508444  3
   7814   7813   7825   7827     1  0.0000000  0.6508444  3
   7815   7813   7825  14713     1  0.0000000  1.0460000  1
   7815   7813   7825  14713     1  0.0000000  0.0000000  3
   7815   7813   7825   7826     1  0.0000000  0.6508444  3
   7815   7813   7825   7827     1  0.0000000  0.6508444  3
   7816   7804   7800   7829     1  0.0000000  0.6508444  3
   7817   7816   7822  14690     1  0.0000000  1.0460000  1
   7817   7816   7822  14690     1  0.0000000  0.0000000  3
   7817   7816   7822   7823     1  0.0000000  0.6508444  3
   7817   7816   7822   7824     1  0.0000000  0.6508444  3
   7818   7816   7822  14690     1  0.0000000  1.0460000  1
   7818   7816   7822  14690     1  0.0000000  0.0000000  3
   7818   7816   7822   7823     1  0.0000000  0.6508444  3
   7818   7816   7822   7824     1  0.0000000  0.6508444  3
   7822  14690  14686  14689     1  0.0000000  1.6038667  3
   7823   7822  14690  14686     1  0.0000000  1.6038667  3
   7824   7822  14690  14686     1  0.0000000  1.6038667  3
   7825  14713  14709  14712     1  0.0000000  1.6038667  3
   7826   7825  14713  14709     1  0.0000000  1.6038667  3
   7827   7825  14713  14709     1  0.0000000  1.6038667  3
   7830   7831   7843   7844     1  0.0000000  0.6508444  3
   7830   7831   7843   7845     1  0.0000000  0.6508444  3
   7830   7834   7846   7847     1  0.0000000  0.6508444  3
   7830   7834   7846   7848     1  0.0000000  0.6508444  3
   7830   7837   7840   7841     1  0.0000000  0.6508444  3
   7830   7837   7840   7842     1  0.0000000  0.6508444  3
   7831   7830   7834   7835     1  0.0000000  0.6508444  3
   7831   7830   7834   7836     1  0.0000000  0.6508444  3
   7831   7830   7837   7838     1  0.0000000  0.6508444  3
   7831   7830   7837   7839     1  0.0000000  0.6508444  3
   7831   7843   7855   7856     1  0.0000000  0.6508444  3
   7831   7843   7855   7857     1  0.0000000  0.6508444  3
   7832   7831   7830   7834     1  0.0000000  0.6508444  3
   7832   7831   7830   7837     1  0.0000000  0.6508444  3
   7832   7831   7830   7859     1  0.0000000  0.6508444  3
   7832   7831   7843   7855     1  0.0000000  0.6508444  3
   7832   7831   7843   7844     1  0.0000000  0.6508444  3
   7832   7831   7843   7845     1  0.0000000  0.6508444  3
   7833   7831   7830   7834     1  0.0000000  0.6508444  3
   7833   7831   7830   7837     1  0.0000000  0.6508444  3
   7833   7831   7830   7859     1  0.0000000  0.6508444  3
   7833   7831   7843   7855     1  0.0000000  0.6508444  3
   7833   7831   7843   7844     1  0.0000000  0.6508444  3
   7833   7831   7843   7845     1  0.0000000  0.6508444  3
   7834   7830   7837   7838     1  0.0000000  0.6508444  3
   7834   7830   7837   7839     1  0.0000000  0.6508444  3
   7834   7846   7852   7853     1  0.0000000  0.6508444  3
   7834   7846   7852   7854     1  0.0000000  0.6508444  3
   7835   7834   7830   7837     1  0.0000000  0.6508444  3
   7835   7834   7830   7859     1  0.0000000  0.6508444  3
   7835   7834   7846   7852     1  0.0000000  0.6508444  3
   7835   7834   7846   7847     1  0.0000000  0.6508444  3
   7835   7834   7846   7848     1  0.0000000  0.6508444  3
   7836   7834   7830   7837     1  0.0000000  0.6508444  3
   7836   7834   7830   7859     1  0.0000000  0.6508444  3
   7836   7834   7846   7852     1  0.0000000  0.6508444  3
   7836   7834   7846   7847     1  0.0000000  0.6508444  3
   7836   7834   7846   7848     1  0.0000000  0.6508444  3
   7837   7840   7849   7850     1  0.0000000  0.6508444  3
   7837   7840   7849   7851     1  0.0000000  0.6508444  3
   7838   7837   7830   7859     1  0.0000000  0.6508444  3
   7838   7837   7840   7849     1  0.0000000  0.6508444  3
   7838   7837   7840   7841     1  0.0000000  0.6508444  3
   7838   7837   7840   7842     1  0.0000000  0.6508444  3
   7839   7837   7830   7859     1  0.0000000  0.6508444  3
   7839   7837   7840   7849     1  0.0000000  0.6508444  3
   7839   7837   7840   7841     1  0.0000000  0.6508444  3
   7839   7837   7840   7842     1  0.0000000  0.6508444  3
   7840   7837   7830   7859     1  0.0000000  0.6508444  3
   7841   7840   7849   7858     1  0.0000000  1.0460000  1
   7841   7840   7849   7858     1  0.0000000  0.0000000  3
   7841   7840   7849   7850     1  0.0000000  0.6508444  3
   7841   7840   7849   7851     1  0.0000000  0.6508444  3
   7842   7840   7849   7858     1  0.0000000  1.0460000  1
   7842   7840   7849   7858     1  0.0000000  0.0000000  3
   7842   7840   7849   7850     1  0.0000000  0.6508444  3
   7842   7840   7849   7851     1  0.0000000  0.6508444  3
   7843   7831   7830   7859     1  0.0000000  0.6508444  3
   7844   7843   7855  14759     1  0.0000000  1.0460000  1
   7844   7843   7855  14759     1  0.0000000  0.0000000  3
   7844   7843   7855   7856     1  0.0000000  0.6508444  3
   7844   7843   7855   7857     1  0.0000000  0.6508444  3
   7845   7843   7855  14759     1  0.0000000  1.0460000  1
   7845   7843   7855  14759     1  0.0000000  0.0000000  3
   7845   7843   7855   7856     1  0.0000000  0.6508444  3
   7845   7843   7855   7857     1  0.0000000  0.6508444  3
   7846   7834   7830   7859     1  0.0000000  0.6508444  3
   7847   7846   7852  14736     1  0.0000000  1.0460000  1
   7847   7846   7852  14736     1  0.0000000  0.0000000  3
   7847   7846   7852   7853     1  0.0000000  0.6508444  3
   7847   7846   7852   7854     1  0.0000000  0.6508444  3
   7848   7846   7852  14736     1  0.0000000  1.0460000  1
   7848   7846   7852  14736     1  0.0000000  0.0000000  3
   7848   7846   7852   7853     1  0.0000000  0.6508444  3
   7848   7846   7852   7854     1  0.0000000  0.6508444  3
   7852  14736  14732  14735     1  0.0000000  1.6038667  3
   7853   7852  14736  14732     1  0.0000000  1.6038667  3
   7854   7852  14736  14732     1  0.0000000  1.6038667  3
   7855  14759  14755  14758     1  0.0000000  1.6038667  3
   7856   7855  14759  14755     1  0.0000000  1.6038667  3
   7857   7855  14759  14755     1  0.0000000  1.6038667  3
   7860   7861   7873   7874     1  0.0000000  0.6508444  3
   7860   7861   7873   7875     1  0.0000000  0.6508444  3
   7860   7864   7876   7877     1  0.0000000  0.6508444  3
   7860   7864   7876   7878     1  0.0000000  0.6508444  3
   7860   7867   7870   7871     1  0.0000000  0.6508444  3
   7860   7867   7870   7872     1  0.0000000  0.6508444  3
   7861   7860   7864   7865     1  0.0000000  0.6508444  3
   7861   7860   7864   7866     1  0.0000000  0.6508444  3
   7861   7860   7867   7868     1  0.0000000  0.6508444  3
   7861   7860   7867   7869     1  0.0000000  0.6508444  3
   7861   7873   7885   7886     1  0.0000000  0.6508444  3
   7861   7873   7885   7887     1  0.0000000  0.6508444  3
   7862   7861   7860   7864     1  0.0000000  0.6508444  3
   7862   7861   7860   7867     1  0.0000000  0.6508444  3
   7862   7861   7860   7889     1  0.0000000  0.6508444  3
   7862   7861   7873   7885     1  0.0000000  0.6508444  3
   7862   7861   7873   7874     1  0.0000000  0.6508444  3
   7862   7861   7873   7875     1  0.0000000  0.6508444  3
   7863   7861   7860   7864     1  0.0000000  0.6508444  3
   7863   7861   7860   7867     1  0.0000000  0.6508444  3
   7863   7861   7860   7889     1  0.0000000  0.6508444  3
   7863   7861   7873   7885     1  0.0000000  0.6508444  3
   7863   7861   7873   7874     1  0.0000000  0.6508444  3
   7863   7861   7873   7875     1  0.0000000  0.6508444  3
   7864   7860   7867   7868     1  0.0000000  0.6508444  3
   7864   7860   7867   7869     1  0.0000000  0.6508444  3
   7864   7876   7882   7883     1  0.0000000  0.6508444  3
   7864   7876   7882   7884     1  0.0000000  0.6508444  3
   7865   7864   7860   7867     1  0.0000000  0.6508444  3
   7865   7864   7860   7889     1  0.0000000  0.6508444  3
   7865   7864   7876   7882     1  0.0000000  0.6508444  3
   7865   7864   7876   7877     1  0.0000000  0.6508444  3
   7865   7864   7876   7878     1  0.0000000  0.6508444  3
   7866   7864   7860   7867     1  0.0000000  0.6508444  3
   7866   7864   7860   7889     1  0.0000000  0.6508444  3
   7866   7864   7876   7882     1  0.0000000  0.6508444  3
   7866   7864   7876   7877     1  0.0000000  0.6508444  3
   7866   7864   7876   7878     1  0.0000000  0.6508444  3
   7867   7870   7879   7880     1  0.0000000  0.6508444  3
   7867   7870   7879   7881     1  0.0000000  0.6508444  3
   7868   7867   7860   7889     1  0.0000000  0.6508444  3
   7868   7867   7870   7879     1  0.0000000  0.6508444  3
   7868   7867   7870   7871     1  0.0000000  0.6508444  3
   7868   7867   7870   7872     1  0.0000000  0.6508444  3
   7869   7867   7860   7889     1  0.0000000  0.6508444  3
   7869   7867   7870   7879     1  0.0000000  0.6508444  3
   7869   7867   7870   7871     1  0.0000000  0.6508444  3
   7869   7867   7870   7872     1  0.0000000  0.6508444  3
   7870   7867   7860   7889     1  0.0000000  0.6508444  3
   7871   7870   7879   7888     1  0.0000000  1.0460000  1
   7871   7870   7879   7888     1  0.0000000  0.0000000  3
   7871   7870   7879   7880     1  0.0000000  0.6508444  3
   7871   7870   7879   7881     1  0.0000000  0.6508444  3
   7872   7870   7879   7888     1  0.0000000  1.0460000  1
   7872   7870   7879   7888     1  0.0000000  0.0000000  3
   7872   7870   7879   7880     1  0.0000000  0.6508444  3
   7872   7870   7879   7881     1  0.0000000  0.6508444  3
   7873   7861   7860   7889     1  0.0000000  0.6508444  3
   7874   7873   7885  14805     1  0.0000000  1.0460000  1
   7874   7873   7885  14805     1  0.0000000  0.0000000  3
   7874   7873   7885   7886     1  0.0000000  0.6508444  3
   7874   7873   7885   7887     1  0.0000000  0.6508444  3
   7875   7873   7885  14805     1  0.0000000  1.0460000  1
   7875   7873   7885  14805     1  0.0000000  0.0000000  3
   7875   7873   7885   7886     1  0.0000000  0.6508444  3
   7875   7873   7885   7887     1  0.0000000  0.6508444  3
   7876   7864   7860   7889     1  0.0000000  0.6508444  3
   7877   7876   7882  14782     1  0.0000000  1.0460000  1
   7877   7876   7882  14782     1  0.0000000  0.0000000  3
   7877   7876   7882   7883     1  0.0000000  0.6508444  3
   7877   7876   7882   7884     1  0.0000000  0.6508444  3
   7878   7876   7882  14782     1  0.0000000  1.0460000  1
   7878   7876   7882  14782     1  0.0000000  0.0000000  3
   7878   7876   7882   7883     1  0.0000000  0.6508444  3
   7878   7876   7882   7884     1  0.0000000  0.6508444  3
   7882  14782  14778  14781     1  0.0000000  1.6038667  3
   7883   7882  14782  14778     1  0.0000000  1.6038667  3
   7884   7882  14782  14778     1  0.0000000  1.6038667  3
   7885  14805  14801  14804     1  0.0000000  1.6038667  3
   7886   7885  14805  14801     1  0.0000000  1.6038667  3
   7887   7885  14805  14801     1  0.0000000  1.6038667  3
   7890   7891   7903   7904     1  0.0000000  0.6508444  3
   7890   7891   7903   7905     1  0.0000000  0.6508444  3
   7890   7894   7906   7907     1  0.0000000  0.6508444  3
   7890   7894   7906   7908     1  0.0000000  0.6508444  3
   7890   7897   7900   7901     1  0.0000000  0.6508444  3
   7890   7897   7900   7902     1  0.0000000  0.6508444  3
   7891   7890   7894   7895     1  0.0000000  0.6508444  3
   7891   7890   7894   7896     1  0.0000000  0.6508444  3
   7891   7890   7897   7898     1  0.0000000  0.6508444  3
   7891   7890   7897   7899     1  0.0000000  0.6508444  3
   7891   7903   7915   7916     1  0.0000000  0.6508444  3
   7891   7903   7915   7917     1  0.0000000  0.6508444  3
   7892   7891   7890   7894     1  0.0000000  0.6508444  3
   7892   7891   7890   7897     1  0.0000000  0.6508444  3
   7892   7891   7890   7919     1  0.0000000  0.6508444  3
   7892   7891   7903   7915     1  0.0000000  0.6508444  3
   7892   7891   7903   7904     1  0.0000000  0.6508444  3
   7892   7891   7903   7905     1  0.0000000  0.6508444  3
   7893   7891   7890   7894     1  0.0000000  0.6508444  3
   7893   7891   7890   7897     1  0.0000000  0.6508444  3
   7893   7891   7890   7919     1  0.0000000  0.6508444  3
   7893   7891   7903   7915     1  0.0000000  0.6508444  3
   7893   7891   7903   7904     1  0.0000000  0.6508444  3
   7893   7891   7903   7905     1  0.0000000  0.6508444  3
   7894   7890   7897   7898     1  0.0000000  0.6508444  3
   7894   7890   7897   7899     1  0.0000000  0.6508444  3
   7894   7906   7912   7913     1  0.0000000  0.6508444  3
   7894   7906   7912   7914     1  0.0000000  0.6508444  3
   7895   7894   7890   7897     1  0.0000000  0.6508444  3
   7895   7894   7890   7919     1  0.0000000  0.6508444  3
   7895   7894   7906   7912     1  0.0000000  0.6508444  3
   7895   7894   7906   7907     1  0.0000000  0.6508444  3
   7895   7894   7906   7908     1  0.0000000  0.6508444  3
   7896   7894   7890   7897     1  0.0000000  0.6508444  3
   7896   7894   7890   7919     1  0.0000000  0.6508444  3
   7896   7894   7906   7912     1  0.0000000  0.6508444  3
   7896   7894   7906   7907     1  0.0000000  0.6508444  3
   7896   7894   7906   7908     1  0.0000000  0.6508444  3
   7897   7900   7909   7910     1  0.0000000  0.6508444  3
   7897   7900   7909   7911     1  0.0000000  0.6508444  3
   7898   7897   7890   7919     1  0.0000000  0.6508444  3
   7898   7897   7900   7909     1  0.0000000  0.6508444  3
   7898   7897   7900   7901     1  0.0000000  0.6508444  3
   7898   7897   7900   7902     1  0.0000000  0.6508444  3
   7899   7897   7890   7919     1  0.0000000  0.6508444  3
   7899   7897   7900   7909     1  0.0000000  0.6508444  3
   7899   7897   7900   7901     1  0.0000000  0.6508444  3
   7899   7897   7900   7902     1  0.0000000  0.6508444  3
   7900   7897   7890   7919     1  0.0000000  0.6508444  3
   7901   7900   7909   7918     1  0.0000000  1.0460000  1
   7901   7900   7909   7918     1  0.0000000  0.0000000  3
   7901   7900   7909   7910     1  0.0000000  0.6508444  3
   7901   7900   7909   7911     1  0.0000000  0.6508444  3
   7902   7900   7909   7918     1  0.0000000  1.0460000  1
   7902   7900   7909   7918     1  0.0000000  0.0000000  3
   7902   7900   7909   7910     1  0.0000000  0.6508444  3
   7902   7900   7909   7911     1  0.0000000  0.6508444  3
   7903   7891   7890   7919     1  0.0000000  0.6508444  3
   7904   7903   7915  14851     1  0.0000000  1.0460000  1
   7904   7903   7915  14851     1  0.0000000  0.0000000  3
   7904   7903   7915   7916     1  0.0000000  0.6508444  3
   7904   7903   7915   7917     1  0.0000000  0.6508444  3
   7905   7903   7915  14851     1  0.0000000  1.0460000  1
   7905   7903   7915  14851     1  0.0000000  0.0000000  3
   7905   7903   7915   7916     1  0.0000000  0.6508444  3
   7905   7903   7915   7917     1  0.0000000  0.6508444  3
   7906   7894   7890   7919     1  0.0000000  0.6508444  3
   7907   7906   7912  14828     1  0.0000000  1.0460000  1
   7907   7906   7912  14828     1  0.0000000  0.0000000  3
   7907   7906   7912   7913     1  0.0000000  0.6508444  3
   7907   7906   7912   7914     1  0.0000000  0.6508444  3
   7908   7906   7912  14828     1  0.0000000  1.0460000  1
   7908   7906   7912  14828     1  0.0000000  0.0000000  3
   7908   7906   7912   7913     1  0.0000000  0.6508444  3
   7908   7906   7912   7914     1  0.0000000  0.6508444  3
   7912  14828  14824  14827     1  0.0000000  1.6038667  3
   7913   7912  14828  14824     1  0.0000000  1.6038667  3
   7914   7912  14828  14824     1  0.0000000  1.6038667  3
   7915  14851  14847  14850     1  0.0000000  1.6038667  3
   7916   7915  14851  14847     1  0.0000000  1.6038667  3
   7917   7915  14851  14847     1  0.0000000  1.6038667  3
   7920   7921   7933   7934     1  0.0000000  0.6508444  3
   7920   7921   7933   7935     1  0.0000000  0.6508444  3
   7920   7924   7936   7937     1  0.0000000  0.6508444  3
   7920   7924   7936   7938     1  0.0000000  0.6508444  3
   7920   7927   7930   7931     1  0.0000000  0.6508444  3
   7920   7927   7930   7932     1  0.0000000  0.6508444  3
   7921   7920   7924   7925     1  0.0000000  0.6508444  3
   7921   7920   7924   7926     1  0.0000000  0.6508444  3
   7921   7920   7927   7928     1  0.0000000  0.6508444  3
   7921   7920   7927   7929     1  0.0000000  0.6508444  3
   7921   7933   7945   7946     1  0.0000000  0.6508444  3
   7921   7933   7945   7947     1  0.0000000  0.6508444  3
   7922   7921   7920   7924     1  0.0000000  0.6508444  3
   7922   7921   7920   7927     1  0.0000000  0.6508444  3
   7922   7921   7920   7949     1  0.0000000  0.6508444  3
   7922   7921   7933   7945     1  0.0000000  0.6508444  3
   7922   7921   7933   7934     1  0.0000000  0.6508444  3
   7922   7921   7933   7935     1  0.0000000  0.6508444  3
   7923   7921   7920   7924     1  0.0000000  0.6508444  3
   7923   7921   7920   7927     1  0.0000000  0.6508444  3
   7923   7921   7920   7949     1  0.0000000  0.6508444  3
   7923   7921   7933   7945     1  0.0000000  0.6508444  3
   7923   7921   7933   7934     1  0.0000000  0.6508444  3
   7923   7921   7933   7935     1  0.0000000  0.6508444  3
   7924   7920   7927   7928     1  0.0000000  0.6508444  3
   7924   7920   7927   7929     1  0.0000000  0.6508444  3
   7924   7936   7942   7943     1  0.0000000  0.6508444  3
   7924   7936   7942   7944     1  0.0000000  0.6508444  3
   7925   7924   7920   7927     1  0.0000000  0.6508444  3
   7925   7924   7920   7949     1  0.0000000  0.6508444  3
   7925   7924   7936   7942     1  0.0000000  0.6508444  3
   7925   7924   7936   7937     1  0.0000000  0.6508444  3
   7925   7924   7936   7938     1  0.0000000  0.6508444  3
   7926   7924   7920   7927     1  0.0000000  0.6508444  3
   7926   7924   7920   7949     1  0.0000000  0.6508444  3
   7926   7924   7936   7942     1  0.0000000  0.6508444  3
   7926   7924   7936   7937     1  0.0000000  0.6508444  3
   7926   7924   7936   7938     1  0.0000000  0.6508444  3
   7927   7930   7939   7940     1  0.0000000  0.6508444  3
   7927   7930   7939   7941     1  0.0000000  0.6508444  3
   7928   7927   7920   7949     1  0.0000000  0.6508444  3
   7928   7927   7930   7939     1  0.0000000  0.6508444  3
   7928   7927   7930   7931     1  0.0000000  0.6508444  3
   7928   7927   7930   7932     1  0.0000000  0.6508444  3
   7929   7927   7920   7949     1  0.0000000  0.6508444  3
   7929   7927   7930   7939     1  0.0000000  0.6508444  3
   7929   7927   7930   7931     1  0.0000000  0.6508444  3
   7929   7927   7930   7932     1  0.0000000  0.6508444  3
   7930   7927   7920   7949     1  0.0000000  0.6508444  3
   7931   7930   7939   7948     1  0.0000000  1.0460000  1
   7931   7930   7939   7948     1  0.0000000  0.0000000  3
   7931   7930   7939   7940     1  0.0000000  0.6508444  3
   7931   7930   7939   7941     1  0.0000000  0.6508444  3
   7932   7930   7939   7948     1  0.0000000  1.0460000  1
   7932   7930   7939   7948     1  0.0000000  0.0000000  3
   7932   7930   7939   7940     1  0.0000000  0.6508444  3
   7932   7930   7939   7941     1  0.0000000  0.6508444  3
   7933   7921   7920   7949     1  0.0000000  0.6508444  3
   7934   7933   7945  14897     1  0.0000000  1.0460000  1
   7934   7933   7945  14897     1  0.0000000  0.0000000  3
   7934   7933   7945   7946     1  0.0000000  0.6508444  3
   7934   7933   7945   7947     1  0.0000000  0.6508444  3
   7935   7933   7945  14897     1  0.0000000  1.0460000  1
   7935   7933   7945  14897     1  0.0000000  0.0000000  3
   7935   7933   7945   7946     1  0.0000000  0.6508444  3
   7935   7933   7945   7947     1  0.0000000  0.6508444  3
   7936   7924   7920   7949     1  0.0000000  0.6508444  3
   7937   7936   7942  14874     1  0.0000000  1.0460000  1
   7937   7936   7942  14874     1  0.0000000  0.0000000  3
   7937   7936   7942   7943     1  0.0000000  0.6508444  3
   7937   7936   7942   7944     1  0.0000000  0.6508444  3
   7938   7936   7942  14874     1  0.0000000  1.0460000  1
   7938   7936   7942  14874     1  0.0000000  0.0000000  3
   7938   7936   7942   7943     1  0.0000000  0.6508444  3
   7938   7936   7942   7944     1  0.0000000  0.6508444  3
   7942  14874  14870  14873     1  0.0000000  1.6038667  3
   7943   7942  14874  14870     1  0.0000000  1.6038667  3
   7944   7942  14874  14870     1  0.0000000  1.6038667  3
   7945  14897  14893  14896     1  0.0000000  1.6038667  3
   7946   7945  14897  14893     1  0.0000000  1.6038667  3
   7947   7945  14897  14893     1  0.0000000  1.6038667  3
   7950   7951   7963   7964     1  0.0000000  0.6508444  3
   7950   7951   7963   7965     1  0.0000000  0.6508444  3
   7950   7954   7966   7967     1  0.0000000  0.6508444  3
   7950   7954   7966   7968     1  0.0000000  0.6508444  3
   7950   7957   7960   7961     1  0.0000000  0.6508444  3
   7950   7957   7960   7962     1  0.0000000  0.6508444  3
   7951   7950   7954   7955     1  0.0000000  0.6508444  3
   7951   7950   7954   7956     1  0.0000000  0.6508444  3
   7951   7950   7957   7958     1  0.0000000  0.6508444  3
   7951   7950   7957   7959     1  0.0000000  0.6508444  3
   7951   7963   7975   7976     1  0.0000000  0.6508444  3
   7951   7963   7975   7977     1  0.0000000  0.6508444  3
   7952   7951   7950   7954     1  0.0000000  0.6508444  3
   7952   7951   7950   7957     1  0.0000000  0.6508444  3
   7952   7951   7950   7979     1  0.0000000  0.6508444  3
   7952   7951   7963   7975     1  0.0000000  0.6508444  3
   7952   7951   7963   7964     1  0.0000000  0.6508444  3
   7952   7951   7963   7965     1  0.0000000  0.6508444  3
   7953   7951   7950   7954     1  0.0000000  0.6508444  3
   7953   7951   7950   7957     1  0.0000000  0.6508444  3
   7953   7951   7950   7979     1  0.0000000  0.6508444  3
   7953   7951   7963   7975     1  0.0000000  0.6508444  3
   7953   7951   7963   7964     1  0.0000000  0.6508444  3
   7953   7951   7963   7965     1  0.0000000  0.6508444  3
   7954   7950   7957   7958     1  0.0000000  0.6508444  3
   7954   7950   7957   7959     1  0.0000000  0.6508444  3
   7954   7966   7972   7973     1  0.0000000  0.6508444  3
   7954   7966   7972   7974     1  0.0000000  0.6508444  3
   7955   7954   7950   7957     1  0.0000000  0.6508444  3
   7955   7954   7950   7979     1  0.0000000  0.6508444  3
   7955   7954   7966   7972     1  0.0000000  0.6508444  3
   7955   7954   7966   7967     1  0.0000000  0.6508444  3
   7955   7954   7966   7968     1  0.0000000  0.6508444  3
   7956   7954   7950   7957     1  0.0000000  0.6508444  3
   7956   7954   7950   7979     1  0.0000000  0.6508444  3
   7956   7954   7966   7972     1  0.0000000  0.6508444  3
   7956   7954   7966   7967     1  0.0000000  0.6508444  3
   7956   7954   7966   7968     1  0.0000000  0.6508444  3
   7957   7960   7969   7970     1  0.0000000  0.6508444  3
   7957   7960   7969   7971     1  0.0000000  0.6508444  3
   7958   7957   7950   7979     1  0.0000000  0.6508444  3
   7958   7957   7960   7969     1  0.0000000  0.6508444  3
   7958   7957   7960   7961     1  0.0000000  0.6508444  3
   7958   7957   7960   7962     1  0.0000000  0.6508444  3
   7959   7957   7950   7979     1  0.0000000  0.6508444  3
   7959   7957   7960   7969     1  0.0000000  0.6508444  3
   7959   7957   7960   7961     1  0.0000000  0.6508444  3
   7959   7957   7960   7962     1  0.0000000  0.6508444  3
   7960   7957   7950   7979     1  0.0000000  0.6508444  3
   7961   7960   7969   7978     1  0.0000000  1.0460000  1
   7961   7960   7969   7978     1  0.0000000  0.0000000  3
   7961   7960   7969   7970     1  0.0000000  0.6508444  3
   7961   7960   7969   7971     1  0.0000000  0.6508444  3
   7962   7960   7969   7978     1  0.0000000  1.0460000  1
   7962   7960   7969   7978     1  0.0000000  0.0000000  3
   7962   7960   7969   7970     1  0.0000000  0.6508444  3
   7962   7960   7969   7971     1  0.0000000  0.6508444  3
   7963   7951   7950   7979     1  0.0000000  0.6508444  3
   7964   7963   7975  14943     1  0.0000000  1.0460000  1
   7964   7963   7975  14943     1  0.0000000  0.0000000  3
   7964   7963   7975   7976     1  0.0000000  0.6508444  3
   7964   7963   7975   7977     1  0.0000000  0.6508444  3
   7965   7963   7975  14943     1  0.0000000  1.0460000  1
   7965   7963   7975  14943     1  0.0000000  0.0000000  3
   7965   7963   7975   7976     1  0.0000000  0.6508444  3
   7965   7963   7975   7977     1  0.0000000  0.6508444  3
   7966   7954   7950   7979     1  0.0000000  0.6508444  3
   7967   7966   7972  14920     1  0.0000000  1.0460000  1
   7967   7966   7972  14920     1  0.0000000  0.0000000  3
   7967   7966   7972   7973     1  0.0000000  0.6508444  3
   7967   7966   7972   7974     1  0.0000000  0.6508444  3
   7968   7966   7972  14920     1  0.0000000  1.0460000  1
   7968   7966   7972  14920     1  0.0000000  0.0000000  3
   7968   7966   7972   7973     1  0.0000000  0.6508444  3
   7968   7966   7972   7974     1  0.0000000  0.6508444  3
   7972  14920  14916  14919     1  0.0000000  1.6038667  3
   7973   7972  14920  14916     1  0.0000000  1.6038667  3
   7974   7972  14920  14916     1  0.0000000  1.6038667  3
   7975  14943  14939  14942     1  0.0000000  1.6038667  3
   7976   7975  14943  14939     1  0.0000000  1.6038667  3
   7977   7975  14943  14939     1  0.0000000  1.6038667  3
   7980   7981   7993   7994     1  0.0000000  0.6508444  3
   7980   7981   7993   7995     1  0.0000000  0.6508444  3
   7980   7984   7996   7997     1  0.0000000  0.6508444  3
   7980   7984   7996   7998     1  0.0000000  0.6508444  3
   7980   7987   7990   7991     1  0.0000000  0.6508444  3
   7980   7987   7990   7992     1  0.0000000  0.6508444  3
   7981   7980   7984   7985     1  0.0000000  0.6508444  3
   7981   7980   7984   7986     1  0.0000000  0.6508444  3
   7981   7980   7987   7988     1  0.0000000  0.6508444  3
   7981   7980   7987   7989     1  0.0000000  0.6508444  3
   7981   7993   8005   8006     1  0.0000000  0.6508444  3
   7981   7993   8005   8007     1  0.0000000  0.6508444  3
   7982   7981   7980   7984     1  0.0000000  0.6508444  3
   7982   7981   7980   7987     1  0.0000000  0.6508444  3
   7982   7981   7980   8009     1  0.0000000  0.6508444  3
   7982   7981   7993   8005     1  0.0000000  0.6508444  3
   7982   7981   7993   7994     1  0.0000000  0.6508444  3
   7982   7981   7993   7995     1  0.0000000  0.6508444  3
   7983   7981   7980   7984     1  0.0000000  0.6508444  3
   7983   7981   7980   7987     1  0.0000000  0.6508444  3
   7983   7981   7980   8009     1  0.0000000  0.6508444  3
   7983   7981   7993   8005     1  0.0000000  0.6508444  3
   7983   7981   7993   7994     1  0.0000000  0.6508444  3
   7983   7981   7993   7995     1  0.0000000  0.6508444  3
   7984   7980   7987   7988     1  0.0000000  0.6508444  3
   7984   7980   7987   7989     1  0.0000000  0.6508444  3
   7984   7996   8002   8003     1  0.0000000  0.6508444  3
   7984   7996   8002   8004     1  0.0000000  0.6508444  3
   7985   7984   7980   7987     1  0.0000000  0.6508444  3
   7985   7984   7980   8009     1  0.0000000  0.6508444  3
   7985   7984   7996   8002     1  0.0000000  0.6508444  3
   7985   7984   7996   7997     1  0.0000000  0.6508444  3
   7985   7984   7996   7998     1  0.0000000  0.6508444  3
   7986   7984   7980   7987     1  0.0000000  0.6508444  3
   7986   7984   7980   8009     1  0.0000000  0.6508444  3
   7986   7984   7996   8002     1  0.0000000  0.6508444  3
   7986   7984   7996   7997     1  0.0000000  0.6508444  3
   7986   7984   7996   7998     1  0.0000000  0.6508444  3
   7987   7990   7999   8000     1  0.0000000  0.6508444  3
   7987   7990   7999   8001     1  0.0000000  0.6508444  3
   7988   7987   7980   8009     1  0.0000000  0.6508444  3
   7988   7987   7990   7999     1  0.0000000  0.6508444  3
   7988   7987   7990   7991     1  0.0000000  0.6508444  3
   7988   7987   7990   7992     1  0.0000000  0.6508444  3
   7989   7987   7980   8009     1  0.0000000  0.6508444  3
   7989   7987   7990   7999     1  0.0000000  0.6508444  3
   7989   7987   7990   7991     1  0.0000000  0.6508444  3
   7989   7987   7990   7992     1  0.0000000  0.6508444  3
   7990   7987   7980   8009     1  0.0000000  0.6508444  3
   7991   7990   7999   8008     1  0.0000000  1.0460000  1
   7991   7990   7999   8008     1  0.0000000  0.0000000  3
   7991   7990   7999   8000     1  0.0000000  0.6508444  3
   7991   7990   7999   8001     1  0.0000000  0.6508444  3
   7992   7990   7999   8008     1  0.0000000  1.0460000  1
   7992   7990   7999   8008     1  0.0000000  0.0000000  3
   7992   7990   7999   8000     1  0.0000000  0.6508444  3
   7992   7990   7999   8001     1  0.0000000  0.6508444  3
   7993   7981   7980   8009     1  0.0000000  0.6508444  3
   7994   7993   8005  14989     1  0.0000000  1.0460000  1
   7994   7993   8005  14989     1  0.0000000  0.0000000  3
   7994   7993   8005   8006     1  0.0000000  0.6508444  3
   7994   7993   8005   8007     1  0.0000000  0.6508444  3
   7995   7993   8005  14989     1  0.0000000  1.0460000  1
   7995   7993   8005  14989     1  0.0000000  0.0000000  3
   7995   7993   8005   8006     1  0.0000000  0.6508444  3
   7995   7993   8005   8007     1  0.0000000  0.6508444  3
   7996   7984   7980   8009     1  0.0000000  0.6508444  3
   7997   7996   8002  14966     1  0.0000000  1.0460000  1
   7997   7996   8002  14966     1  0.0000000  0.0000000  3
   7997   7996   8002   8003     1  0.0000000  0.6508444  3
   7997   7996   8002   8004     1  0.0000000  0.6508444  3
   7998   7996   8002  14966     1  0.0000000  1.0460000  1
   7998   7996   8002  14966     1  0.0000000  0.0000000  3
   7998   7996   8002   8003     1  0.0000000  0.6508444  3
   7998   7996   8002   8004     1  0.0000000  0.6508444  3
   8002  14966  14962  14965     1  0.0000000  1.6038667  3
   8003   8002  14966  14962     1  0.0000000  1.6038667  3
   8004   8002  14966  14962     1  0.0000000  1.6038667  3
   8005  14989  14985  14988     1  0.0000000  1.6038667  3
   8006   8005  14989  14985     1  0.0000000  1.6038667  3
   8007   8005  14989  14985     1  0.0000000  1.6038667  3
   8010   8011   8023   8024     1  0.0000000  0.6508444  3
   8010   8011   8023   8025     1  0.0000000  0.6508444  3
   8010   8014   8026   8027     1  0.0000000  0.6508444  3
   8010   8014   8026   8028     1  0.0000000  0.6508444  3
   8010   8017   8020   8021     1  0.0000000  0.6508444  3
   8010   8017   8020   8022     1  0.0000000  0.6508444  3
   8011   8010   8014   8015     1  0.0000000  0.6508444  3
   8011   8010   8014   8016     1  0.0000000  0.6508444  3
   8011   8010   8017   8018     1  0.0000000  0.6508444  3
   8011   8010   8017   8019     1  0.0000000  0.6508444  3
   8011   8023   8035   8036     1  0.0000000  0.6508444  3
   8011   8023   8035   8037     1  0.0000000  0.6508444  3
   8012   8011   8010   8014     1  0.0000000  0.6508444  3
   8012   8011   8010   8017     1  0.0000000  0.6508444  3
   8012   8011   8010   8039     1  0.0000000  0.6508444  3
   8012   8011   8023   8035     1  0.0000000  0.6508444  3
   8012   8011   8023   8024     1  0.0000000  0.6508444  3
   8012   8011   8023   8025     1  0.0000000  0.6508444  3
   8013   8011   8010   8014     1  0.0000000  0.6508444  3
   8013   8011   8010   8017     1  0.0000000  0.6508444  3
   8013   8011   8010   8039     1  0.0000000  0.6508444  3
   8013   8011   8023   8035     1  0.0000000  0.6508444  3
   8013   8011   8023   8024     1  0.0000000  0.6508444  3
   8013   8011   8023   8025     1  0.0000000  0.6508444  3
   8014   8010   8017   8018     1  0.0000000  0.6508444  3
   8014   8010   8017   8019     1  0.0000000  0.6508444  3
   8014   8026   8032   8033     1  0.0000000  0.6508444  3
   8014   8026   8032   8034     1  0.0000000  0.6508444  3
   8015   8014   8010   8017     1  0.0000000  0.6508444  3
   8015   8014   8010   8039     1  0.0000000  0.6508444  3
   8015   8014   8026   8032     1  0.0000000  0.6508444  3
   8015   8014   8026   8027     1  0.0000000  0.6508444  3
   8015   8014   8026   8028     1  0.0000000  0.6508444  3
   8016   8014   8010   8017     1  0.0000000  0.6508444  3
   8016   8014   8010   8039     1  0.0000000  0.6508444  3
   8016   8014   8026   8032     1  0.0000000  0.6508444  3
   8016   8014   8026   8027     1  0.0000000  0.6508444  3
   8016   8014   8026   8028     1  0.0000000  0.6508444  3
   8017   8020   8029   8030     1  0.0000000  0.6508444  3
   8017   8020   8029   8031     1  0.0000000  0.6508444  3
   8018   8017   8010   8039     1  0.0000000  0.6508444  3
   8018   8017   8020   8029     1  0.0000000  0.6508444  3
   8018   8017   8020   8021     1  0.0000000  0.6508444  3
   8018   8017   8020   8022     1  0.0000000  0.6508444  3
   8019   8017   8010   8039     1  0.0000000  0.6508444  3
   8019   8017   8020   8029     1  0.0000000  0.6508444  3
   8019   8017   8020   8021     1  0.0000000  0.6508444  3
   8019   8017   8020   8022     1  0.0000000  0.6508444  3
   8020   8017   8010   8039     1  0.0000000  0.6508444  3
   8021   8020   8029   8038     1  0.0000000  1.0460000  1
   8021   8020   8029   8038     1  0.0000000  0.0000000  3
   8021   8020   8029   8030     1  0.0000000  0.6508444  3
   8021   8020   8029   8031     1  0.0000000  0.6508444  3
   8022   8020   8029   8038     1  0.0000000  1.0460000  1
   8022   8020   8029   8038     1  0.0000000  0.0000000  3
   8022   8020   8029   8030     1  0.0000000  0.6508444  3
   8022   8020   8029   8031     1  0.0000000  0.6508444  3
   8023   8011   8010   8039     1  0.0000000  0.6508444  3
   8024   8023   8035  15035     1  0.0000000  1.0460000  1
   8024   8023   8035  15035     1  0.0000000  0.0000000  3
   8024   8023   8035   8036     1  0.0000000  0.6508444  3
   8024   8023   8035   8037     1  0.0000000  0.6508444  3
   8025   8023   8035  15035     1  0.0000000  1.0460000  1
   8025   8023   8035  15035     1  0.0000000  0.0000000  3
   8025   8023   8035   8036     1  0.0000000  0.6508444  3
   8025   8023   8035   8037     1  0.0000000  0.6508444  3
   8026   8014   8010   8039     1  0.0000000  0.6508444  3
   8027   8026   8032  15012     1  0.0000000  1.0460000  1
   8027   8026   8032  15012     1  0.0000000  0.0000000  3
   8027   8026   8032   8033     1  0.0000000  0.6508444  3
   8027   8026   8032   8034     1  0.0000000  0.6508444  3
   8028   8026   8032  15012     1  0.0000000  1.0460000  1
   8028   8026   8032  15012     1  0.0000000  0.0000000  3
   8028   8026   8032   8033     1  0.0000000  0.6508444  3
   8028   8026   8032   8034     1  0.0000000  0.6508444  3
   8032  15012  15008  15011     1  0.0000000  1.6038667  3
   8033   8032  15012  15008     1  0.0000000  1.6038667  3
   8034   8032  15012  15008     1  0.0000000  1.6038667  3
   8035  15035  15031  15034     1  0.0000000  1.6038667  3
   8036   8035  15035  15031     1  0.0000000  1.6038667  3
   8037   8035  15035  15031     1  0.0000000  1.6038667  3
   8040   8041   8053   8054     1  0.0000000  0.6508444  3
   8040   8041   8053   8055     1  0.0000000  0.6508444  3
   8040   8044   8056   8057     1  0.0000000  0.6508444  3
   8040   8044   8056   8058     1  0.0000000  0.6508444  3
   8040   8047   8050   8051     1  0.0000000  0.6508444  3
   8040   8047   8050   8052     1  0.0000000  0.6508444  3
   8041   8040   8044   8045     1  0.0000000  0.6508444  3
   8041   8040   8044   8046     1  0.0000000  0.6508444  3
   8041   8040   8047   8048     1  0.0000000  0.6508444  3
   8041   8040   8047   8049     1  0.0000000  0.6508444  3
   8041   8053   8065   8066     1  0.0000000  0.6508444  3
   8041   8053   8065   8067     1  0.0000000  0.6508444  3
   8042   8041   8040   8044     1  0.0000000  0.6508444  3
   8042   8041   8040   8047     1  0.0000000  0.6508444  3
   8042   8041   8040   8069     1  0.0000000  0.6508444  3
   8042   8041   8053   8065     1  0.0000000  0.6508444  3
   8042   8041   8053   8054     1  0.0000000  0.6508444  3
   8042   8041   8053   8055     1  0.0000000  0.6508444  3
   8043   8041   8040   8044     1  0.0000000  0.6508444  3
   8043   8041   8040   8047     1  0.0000000  0.6508444  3
   8043   8041   8040   8069     1  0.0000000  0.6508444  3
   8043   8041   8053   8065     1  0.0000000  0.6508444  3
   8043   8041   8053   8054     1  0.0000000  0.6508444  3
   8043   8041   8053   8055     1  0.0000000  0.6508444  3
   8044   8040   8047   8048     1  0.0000000  0.6508444  3
   8044   8040   8047   8049     1  0.0000000  0.6508444  3
   8044   8056   8062   8063     1  0.0000000  0.6508444  3
   8044   8056   8062   8064     1  0.0000000  0.6508444  3
   8045   8044   8040   8047     1  0.0000000  0.6508444  3
   8045   8044   8040   8069     1  0.0000000  0.6508444  3
   8045   8044   8056   8062     1  0.0000000  0.6508444  3
   8045   8044   8056   8057     1  0.0000000  0.6508444  3
   8045   8044   8056   8058     1  0.0000000  0.6508444  3
   8046   8044   8040   8047     1  0.0000000  0.6508444  3
   8046   8044   8040   8069     1  0.0000000  0.6508444  3
   8046   8044   8056   8062     1  0.0000000  0.6508444  3
   8046   8044   8056   8057     1  0.0000000  0.6508444  3
   8046   8044   8056   8058     1  0.0000000  0.6508444  3
   8047   8050   8059   8060     1  0.0000000  0.6508444  3
   8047   8050   8059   8061     1  0.0000000  0.6508444  3
   8048   8047   8040   8069     1  0.0000000  0.6508444  3
   8048   8047   8050   8059     1  0.0000000  0.6508444  3
   8048   8047   8050   8051     1  0.0000000  0.6508444  3
   8048   8047   8050   8052     1  0.0000000  0.6508444  3
   8049   8047   8040   8069     1  0.0000000  0.6508444  3
   8049   8047   8050   8059     1  0.0000000  0.6508444  3
   8049   8047   8050   8051     1  0.0000000  0.6508444  3
   8049   8047   8050   8052     1  0.0000000  0.6508444  3
   8050   8047   8040   8069     1  0.0000000  0.6508444  3
   8051   8050   8059   8068     1  0.0000000  1.0460000  1
   8051   8050   8059   8068     1  0.0000000  0.0000000  3
   8051   8050   8059   8060     1  0.0000000  0.6508444  3
   8051   8050   8059   8061     1  0.0000000  0.6508444  3
   8052   8050   8059   8068     1  0.0000000  1.0460000  1
   8052   8050   8059   8068     1  0.0000000  0.0000000  3
   8052   8050   8059   8060     1  0.0000000  0.6508444  3
   8052   8050   8059   8061     1  0.0000000  0.6508444  3
   8053   8041   8040   8069     1  0.0000000  0.6508444  3
   8054   8053   8065  15081     1  0.0000000  1.0460000  1
   8054   8053   8065  15081     1  0.0000000  0.0000000  3
   8054   8053   8065   8066     1  0.0000000  0.6508444  3
   8054   8053   8065   8067     1  0.0000000  0.6508444  3
   8055   8053   8065  15081     1  0.0000000  1.0460000  1
   8055   8053   8065  15081     1  0.0000000  0.0000000  3
   8055   8053   8065   8066     1  0.0000000  0.6508444  3
   8055   8053   8065   8067     1  0.0000000  0.6508444  3
   8056   8044   8040   8069     1  0.0000000  0.6508444  3
   8057   8056   8062  15058     1  0.0000000  1.0460000  1
   8057   8056   8062  15058     1  0.0000000  0.0000000  3
   8057   8056   8062   8063     1  0.0000000  0.6508444  3
   8057   8056   8062   8064     1  0.0000000  0.6508444  3
   8058   8056   8062  15058     1  0.0000000  1.0460000  1
   8058   8056   8062  15058     1  0.0000000  0.0000000  3
   8058   8056   8062   8063     1  0.0000000  0.6508444  3
   8058   8056   8062   8064     1  0.0000000  0.6508444  3
   8062  15058  15054  15057     1  0.0000000  1.6038667  3
   8063   8062  15058  15054     1  0.0000000  1.6038667  3
   8064   8062  15058  15054     1  0.0000000  1.6038667  3
   8065  15081  15077  15080     1  0.0000000  1.6038667  3
   8066   8065  15081  15077     1  0.0000000  1.6038667  3
   8067   8065  15081  15077     1  0.0000000  1.6038667  3
   8070   8071   8083   8084     1  0.0000000  0.6508444  3
   8070   8071   8083   8085     1  0.0000000  0.6508444  3
   8070   8074   8086   8087     1  0.0000000  0.6508444  3
   8070   8074   8086   8088     1  0.0000000  0.6508444  3
   8070   8077   8080   8081     1  0.0000000  0.6508444  3
   8070   8077   8080   8082     1  0.0000000  0.6508444  3
   8071   8070   8074   8075     1  0.0000000  0.6508444  3
   8071   8070   8074   8076     1  0.0000000  0.6508444  3
   8071   8070   8077   8078     1  0.0000000  0.6508444  3
   8071   8070   8077   8079     1  0.0000000  0.6508444  3
   8071   8083   8095   8096     1  0.0000000  0.6508444  3
   8071   8083   8095   8097     1  0.0000000  0.6508444  3
   8072   8071   8070   8074     1  0.0000000  0.6508444  3
   8072   8071   8070   8077     1  0.0000000  0.6508444  3
   8072   8071   8070   8099     1  0.0000000  0.6508444  3
   8072   8071   8083   8095     1  0.0000000  0.6508444  3
   8072   8071   8083   8084     1  0.0000000  0.6508444  3
   8072   8071   8083   8085     1  0.0000000  0.6508444  3
   8073   8071   8070   8074     1  0.0000000  0.6508444  3
   8073   8071   8070   8077     1  0.0000000  0.6508444  3
   8073   8071   8070   8099     1  0.0000000  0.6508444  3
   8073   8071   8083   8095     1  0.0000000  0.6508444  3
   8073   8071   8083   8084     1  0.0000000  0.6508444  3
   8073   8071   8083   8085     1  0.0000000  0.6508444  3
   8074   8070   8077   8078     1  0.0000000  0.6508444  3
   8074   8070   8077   8079     1  0.0000000  0.6508444  3
   8074   8086   8092   8093     1  0.0000000  0.6508444  3
   8074   8086   8092   8094     1  0.0000000  0.6508444  3
   8075   8074   8070   8077     1  0.0000000  0.6508444  3
   8075   8074   8070   8099     1  0.0000000  0.6508444  3
   8075   8074   8086   8092     1  0.0000000  0.6508444  3
   8075   8074   8086   8087     1  0.0000000  0.6508444  3
   8075   8074   8086   8088     1  0.0000000  0.6508444  3
   8076   8074   8070   8077     1  0.0000000  0.6508444  3
   8076   8074   8070   8099     1  0.0000000  0.6508444  3
   8076   8074   8086   8092     1  0.0000000  0.6508444  3
   8076   8074   8086   8087     1  0.0000000  0.6508444  3
   8076   8074   8086   8088     1  0.0000000  0.6508444  3
   8077   8080   8089   8090     1  0.0000000  0.6508444  3
   8077   8080   8089   8091     1  0.0000000  0.6508444  3
   8078   8077   8070   8099     1  0.0000000  0.6508444  3
   8078   8077   8080   8089     1  0.0000000  0.6508444  3
   8078   8077   8080   8081     1  0.0000000  0.6508444  3
   8078   8077   8080   8082     1  0.0000000  0.6508444  3
   8079   8077   8070   8099     1  0.0000000  0.6508444  3
   8079   8077   8080   8089     1  0.0000000  0.6508444  3
   8079   8077   8080   8081     1  0.0000000  0.6508444  3
   8079   8077   8080   8082     1  0.0000000  0.6508444  3
   8080   8077   8070   8099     1  0.0000000  0.6508444  3
   8081   8080   8089   8098     1  0.0000000  1.0460000  1
   8081   8080   8089   8098     1  0.0000000  0.0000000  3
   8081   8080   8089   8090     1  0.0000000  0.6508444  3
   8081   8080   8089   8091     1  0.0000000  0.6508444  3
   8082   8080   8089   8098     1  0.0000000  1.0460000  1
   8082   8080   8089   8098     1  0.0000000  0.0000000  3
   8082   8080   8089   8090     1  0.0000000  0.6508444  3
   8082   8080   8089   8091     1  0.0000000  0.6508444  3
   8083   8071   8070   8099     1  0.0000000  0.6508444  3
   8084   8083   8095  15127     1  0.0000000  1.0460000  1
   8084   8083   8095  15127     1  0.0000000  0.0000000  3
   8084   8083   8095   8096     1  0.0000000  0.6508444  3
   8084   8083   8095   8097     1  0.0000000  0.6508444  3
   8085   8083   8095  15127     1  0.0000000  1.0460000  1
   8085   8083   8095  15127     1  0.0000000  0.0000000  3
   8085   8083   8095   8096     1  0.0000000  0.6508444  3
   8085   8083   8095   8097     1  0.0000000  0.6508444  3
   8086   8074   8070   8099     1  0.0000000  0.6508444  3
   8087   8086   8092  15104     1  0.0000000  1.0460000  1
   8087   8086   8092  15104     1  0.0000000  0.0000000  3
   8087   8086   8092   8093     1  0.0000000  0.6508444  3
   8087   8086   8092   8094     1  0.0000000  0.6508444  3
   8088   8086   8092  15104     1  0.0000000  1.0460000  1
   8088   8086   8092  15104     1  0.0000000  0.0000000  3
   8088   8086   8092   8093     1  0.0000000  0.6508444  3
   8088   8086   8092   8094     1  0.0000000  0.6508444  3
   8092  15104  15100  15103     1  0.0000000  1.6038667  3
   8093   8092  15104  15100     1  0.0000000  1.6038667  3
   8094   8092  15104  15100     1  0.0000000  1.6038667  3
   8095  15127  15123  15126     1  0.0000000  1.6038667  3
   8096   8095  15127  15123     1  0.0000000  1.6038667  3
   8097   8095  15127  15123     1  0.0000000  1.6038667  3
   8100   8101   8113   8114     1  0.0000000  0.6508444  3
   8100   8101   8113   8115     1  0.0000000  0.6508444  3
   8100   8104   8116   8117     1  0.0000000  0.6508444  3
   8100   8104   8116   8118     1  0.0000000  0.6508444  3
   8100   8107   8110   8111     1  0.0000000  0.6508444  3
   8100   8107   8110   8112     1  0.0000000  0.6508444  3
   8101   8100   8104   8105     1  0.0000000  0.6508444  3
   8101   8100   8104   8106     1  0.0000000  0.6508444  3
   8101   8100   8107   8108     1  0.0000000  0.6508444  3
   8101   8100   8107   8109     1  0.0000000  0.6508444  3
   8101   8113   8125   8126     1  0.0000000  0.6508444  3
   8101   8113   8125   8127     1  0.0000000  0.6508444  3
   8102   8101   8100   8104     1  0.0000000  0.6508444  3
   8102   8101   8100   8107     1  0.0000000  0.6508444  3
   8102   8101   8100   8129     1  0.0000000  0.6508444  3
   8102   8101   8113   8125     1  0.0000000  0.6508444  3
   8102   8101   8113   8114     1  0.0000000  0.6508444  3
   8102   8101   8113   8115     1  0.0000000  0.6508444  3
   8103   8101   8100   8104     1  0.0000000  0.6508444  3
   8103   8101   8100   8107     1  0.0000000  0.6508444  3
   8103   8101   8100   8129     1  0.0000000  0.6508444  3
   8103   8101   8113   8125     1  0.0000000  0.6508444  3
   8103   8101   8113   8114     1  0.0000000  0.6508444  3
   8103   8101   8113   8115     1  0.0000000  0.6508444  3
   8104   8100   8107   8108     1  0.0000000  0.6508444  3
   8104   8100   8107   8109     1  0.0000000  0.6508444  3
   8104   8116   8122   8123     1  0.0000000  0.6508444  3
   8104   8116   8122   8124     1  0.0000000  0.6508444  3
   8105   8104   8100   8107     1  0.0000000  0.6508444  3
   8105   8104   8100   8129     1  0.0000000  0.6508444  3
   8105   8104   8116   8122     1  0.0000000  0.6508444  3
   8105   8104   8116   8117     1  0.0000000  0.6508444  3
   8105   8104   8116   8118     1  0.0000000  0.6508444  3
   8106   8104   8100   8107     1  0.0000000  0.6508444  3
   8106   8104   8100   8129     1  0.0000000  0.6508444  3
   8106   8104   8116   8122     1  0.0000000  0.6508444  3
   8106   8104   8116   8117     1  0.0000000  0.6508444  3
   8106   8104   8116   8118     1  0.0000000  0.6508444  3
   8107   8110   8119   8120     1  0.0000000  0.6508444  3
   8107   8110   8119   8121     1  0.0000000  0.6508444  3
   8108   8107   8100   8129     1  0.0000000  0.6508444  3
   8108   8107   8110   8119     1  0.0000000  0.6508444  3
   8108   8107   8110   8111     1  0.0000000  0.6508444  3
   8108   8107   8110   8112     1  0.0000000  0.6508444  3
   8109   8107   8100   8129     1  0.0000000  0.6508444  3
   8109   8107   8110   8119     1  0.0000000  0.6508444  3
   8109   8107   8110   8111     1  0.0000000  0.6508444  3
   8109   8107   8110   8112     1  0.0000000  0.6508444  3
   8110   8107   8100   8129     1  0.0000000  0.6508444  3
   8111   8110   8119   8128     1  0.0000000  1.0460000  1
   8111   8110   8119   8128     1  0.0000000  0.0000000  3
   8111   8110   8119   8120     1  0.0000000  0.6508444  3
   8111   8110   8119   8121     1  0.0000000  0.6508444  3
   8112   8110   8119   8128     1  0.0000000  1.0460000  1
   8112   8110   8119   8128     1  0.0000000  0.0000000  3
   8112   8110   8119   8120     1  0.0000000  0.6508444  3
   8112   8110   8119   8121     1  0.0000000  0.6508444  3
   8113   8101   8100   8129     1  0.0000000  0.6508444  3
   8114   8113   8125  15173     1  0.0000000  1.0460000  1
   8114   8113   8125  15173     1  0.0000000  0.0000000  3
   8114   8113   8125   8126     1  0.0000000  0.6508444  3
   8114   8113   8125   8127     1  0.0000000  0.6508444  3
   8115   8113   8125  15173     1  0.0000000  1.0460000  1
   8115   8113   8125  15173     1  0.0000000  0.0000000  3
   8115   8113   8125   8126     1  0.0000000  0.6508444  3
   8115   8113   8125   8127     1  0.0000000  0.6508444  3
   8116   8104   8100   8129     1  0.0000000  0.6508444  3
   8117   8116   8122  15150     1  0.0000000  1.0460000  1
   8117   8116   8122  15150     1  0.0000000  0.0000000  3
   8117   8116   8122   8123     1  0.0000000  0.6508444  3
   8117   8116   8122   8124     1  0.0000000  0.6508444  3
   8118   8116   8122  15150     1  0.0000000  1.0460000  1
   8118   8116   8122  15150     1  0.0000000  0.0000000  3
   8118   8116   8122   8123     1  0.0000000  0.6508444  3
   8118   8116   8122   8124     1  0.0000000  0.6508444  3
   8122  15150  15146  15149     1  0.0000000  1.6038667  3
   8123   8122  15150  15146     1  0.0000000  1.6038667  3
   8124   8122  15150  15146     1  0.0000000  1.6038667  3
   8125  15173  15169  15172     1  0.0000000  1.6038667  3
   8126   8125  15173  15169     1  0.0000000  1.6038667  3
   8127   8125  15173  15169     1  0.0000000  1.6038667  3
   8130   8131   8143   8144     1  0.0000000  0.6508444  3
   8130   8131   8143   8145     1  0.0000000  0.6508444  3
   8130   8134   8146   8147     1  0.0000000  0.6508444  3
   8130   8134   8146   8148     1  0.0000000  0.6508444  3
   8130   8137   8140   8141     1  0.0000000  0.6508444  3
   8130   8137   8140   8142     1  0.0000000  0.6508444  3
   8131   8130   8134   8135     1  0.0000000  0.6508444  3
   8131   8130   8134   8136     1  0.0000000  0.6508444  3
   8131   8130   8137   8138     1  0.0000000  0.6508444  3
   8131   8130   8137   8139     1  0.0000000  0.6508444  3
   8131   8143   8155   8156     1  0.0000000  0.6508444  3
   8131   8143   8155   8157     1  0.0000000  0.6508444  3
   8132   8131   8130   8134     1  0.0000000  0.6508444  3
   8132   8131   8130   8137     1  0.0000000  0.6508444  3
   8132   8131   8130   8159     1  0.0000000  0.6508444  3
   8132   8131   8143   8155     1  0.0000000  0.6508444  3
   8132   8131   8143   8144     1  0.0000000  0.6508444  3
   8132   8131   8143   8145     1  0.0000000  0.6508444  3
   8133   8131   8130   8134     1  0.0000000  0.6508444  3
   8133   8131   8130   8137     1  0.0000000  0.6508444  3
   8133   8131   8130   8159     1  0.0000000  0.6508444  3
   8133   8131   8143   8155     1  0.0000000  0.6508444  3
   8133   8131   8143   8144     1  0.0000000  0.6508444  3
   8133   8131   8143   8145     1  0.0000000  0.6508444  3
   8134   8130   8137   8138     1  0.0000000  0.6508444  3
   8134   8130   8137   8139     1  0.0000000  0.6508444  3
   8134   8146   8152   8153     1  0.0000000  0.6508444  3
   8134   8146   8152   8154     1  0.0000000  0.6508444  3
   8135   8134   8130   8137     1  0.0000000  0.6508444  3
   8135   8134   8130   8159     1  0.0000000  0.6508444  3
   8135   8134   8146   8152     1  0.0000000  0.6508444  3
   8135   8134   8146   8147     1  0.0000000  0.6508444  3
   8135   8134   8146   8148     1  0.0000000  0.6508444  3
   8136   8134   8130   8137     1  0.0000000  0.6508444  3
   8136   8134   8130   8159     1  0.0000000  0.6508444  3
   8136   8134   8146   8152     1  0.0000000  0.6508444  3
   8136   8134   8146   8147     1  0.0000000  0.6508444  3
   8136   8134   8146   8148     1  0.0000000  0.6508444  3
   8137   8140   8149   8150     1  0.0000000  0.6508444  3
   8137   8140   8149   8151     1  0.0000000  0.6508444  3
   8138   8137   8130   8159     1  0.0000000  0.6508444  3
   8138   8137   8140   8149     1  0.0000000  0.6508444  3
   8138   8137   8140   8141     1  0.0000000  0.6508444  3
   8138   8137   8140   8142     1  0.0000000  0.6508444  3
   8139   8137   8130   8159     1  0.0000000  0.6508444  3
   8139   8137   8140   8149     1  0.0000000  0.6508444  3
   8139   8137   8140   8141     1  0.0000000  0.6508444  3
   8139   8137   8140   8142     1  0.0000000  0.6508444  3
   8140   8137   8130   8159     1  0.0000000  0.6508444  3
   8141   8140   8149   8158     1  0.0000000  1.0460000  1
   8141   8140   8149   8158     1  0.0000000  0.0000000  3
   8141   8140   8149   8150     1  0.0000000  0.6508444  3
   8141   8140   8149   8151     1  0.0000000  0.6508444  3
   8142   8140   8149   8158     1  0.0000000  1.0460000  1
   8142   8140   8149   8158     1  0.0000000  0.0000000  3
   8142   8140   8149   8150     1  0.0000000  0.6508444  3
   8142   8140   8149   8151     1  0.0000000  0.6508444  3
   8143   8131   8130   8159     1  0.0000000  0.6508444  3
   8144   8143   8155  15219     1  0.0000000  1.0460000  1
   8144   8143   8155  15219     1  0.0000000  0.0000000  3
   8144   8143   8155   8156     1  0.0000000  0.6508444  3
   8144   8143   8155   8157     1  0.0000000  0.6508444  3
   8145   8143   8155  15219     1  0.0000000  1.0460000  1
   8145   8143   8155  15219     1  0.0000000  0.0000000  3
   8145   8143   8155   8156     1  0.0000000  0.6508444  3
   8145   8143   8155   8157     1  0.0000000  0.6508444  3
   8146   8134   8130   8159     1  0.0000000  0.6508444  3
   8147   8146   8152  15196     1  0.0000000  1.0460000  1
   8147   8146   8152  15196     1  0.0000000  0.0000000  3
   8147   8146   8152   8153     1  0.0000000  0.6508444  3
   8147   8146   8152   8154     1  0.0000000  0.6508444  3
   8148   8146   8152  15196     1  0.0000000  1.0460000  1
   8148   8146   8152  15196     1  0.0000000  0.0000000  3
   8148   8146   8152   8153     1  0.0000000  0.6508444  3
   8148   8146   8152   8154     1  0.0000000  0.6508444  3
   8152  15196  15192  15195     1  0.0000000  1.6038667  3
   8153   8152  15196  15192     1  0.0000000  1.6038667  3
   8154   8152  15196  15192     1  0.0000000  1.6038667  3
   8155  15219  15215  15218     1  0.0000000  1.6038667  3
   8156   8155  15219  15215     1  0.0000000  1.6038667  3
   8157   8155  15219  15215     1  0.0000000  1.6038667  3
   8160   8161   8173   8174     1  0.0000000  0.6508444  3
   8160   8161   8173   8175     1  0.0000000  0.6508444  3
   8160   8164   8176   8177     1  0.0000000  0.6508444  3
   8160   8164   8176   8178     1  0.0000000  0.6508444  3
   8160   8167   8170   8171     1  0.0000000  0.6508444  3
   8160   8167   8170   8172     1  0.0000000  0.6508444  3
   8161   8160   8164   8165     1  0.0000000  0.6508444  3
   8161   8160   8164   8166     1  0.0000000  0.6508444  3
   8161   8160   8167   8168     1  0.0000000  0.6508444  3
   8161   8160   8167   8169     1  0.0000000  0.6508444  3
   8161   8173   8185   8186     1  0.0000000  0.6508444  3
   8161   8173   8185   8187     1  0.0000000  0.6508444  3
   8162   8161   8160   8164     1  0.0000000  0.6508444  3
   8162   8161   8160   8167     1  0.0000000  0.6508444  3
   8162   8161   8160   8189     1  0.0000000  0.6508444  3
   8162   8161   8173   8185     1  0.0000000  0.6508444  3
   8162   8161   8173   8174     1  0.0000000  0.6508444  3
   8162   8161   8173   8175     1  0.0000000  0.6508444  3
   8163   8161   8160   8164     1  0.0000000  0.6508444  3
   8163   8161   8160   8167     1  0.0000000  0.6508444  3
   8163   8161   8160   8189     1  0.0000000  0.6508444  3
   8163   8161   8173   8185     1  0.0000000  0.6508444  3
   8163   8161   8173   8174     1  0.0000000  0.6508444  3
   8163   8161   8173   8175     1  0.0000000  0.6508444  3
   8164   8160   8167   8168     1  0.0000000  0.6508444  3
   8164   8160   8167   8169     1  0.0000000  0.6508444  3
   8164   8176   8182   8183     1  0.0000000  0.6508444  3
   8164   8176   8182   8184     1  0.0000000  0.6508444  3
   8165   8164   8160   8167     1  0.0000000  0.6508444  3
   8165   8164   8160   8189     1  0.0000000  0.6508444  3
   8165   8164   8176   8182     1  0.0000000  0.6508444  3
   8165   8164   8176   8177     1  0.0000000  0.6508444  3
   8165   8164   8176   8178     1  0.0000000  0.6508444  3
   8166   8164   8160   8167     1  0.0000000  0.6508444  3
   8166   8164   8160   8189     1  0.0000000  0.6508444  3
   8166   8164   8176   8182     1  0.0000000  0.6508444  3
   8166   8164   8176   8177     1  0.0000000  0.6508444  3
   8166   8164   8176   8178     1  0.0000000  0.6508444  3
   8167   8170   8179   8180     1  0.0000000  0.6508444  3
   8167   8170   8179   8181     1  0.0000000  0.6508444  3
   8168   8167   8160   8189     1  0.0000000  0.6508444  3
   8168   8167   8170   8179     1  0.0000000  0.6508444  3
   8168   8167   8170   8171     1  0.0000000  0.6508444  3
   8168   8167   8170   8172     1  0.0000000  0.6508444  3
   8169   8167   8160   8189     1  0.0000000  0.6508444  3
   8169   8167   8170   8179     1  0.0000000  0.6508444  3
   8169   8167   8170   8171     1  0.0000000  0.6508444  3
   8169   8167   8170   8172     1  0.0000000  0.6508444  3
   8170   8167   8160   8189     1  0.0000000  0.6508444  3
   8171   8170   8179   8188     1  0.0000000  1.0460000  1
   8171   8170   8179   8188     1  0.0000000  0.0000000  3
   8171   8170   8179   8180     1  0.0000000  0.6508444  3
   8171   8170   8179   8181     1  0.0000000  0.6508444  3
   8172   8170   8179   8188     1  0.0000000  1.0460000  1
   8172   8170   8179   8188     1  0.0000000  0.0000000  3
   8172   8170   8179   8180     1  0.0000000  0.6508444  3
   8172   8170   8179   8181     1  0.0000000  0.6508444  3
   8173   8161   8160   8189     1  0.0000000  0.6508444  3
   8174   8173   8185  15265     1  0.0000000  1.0460000  1
   8174   8173   8185  15265     1  0.0000000  0.0000000  3
   8174   8173   8185   8186     1  0.0000000  0.6508444  3
   8174   8173   8185   8187     1  0.0000000  0.6508444  3
   8175   8173   8185  15265     1  0.0000000  1.0460000  1
   8175   8173   8185  15265     1  0.0000000  0.0000000  3
   8175   8173   8185   8186     1  0.0000000  0.6508444  3
   8175   8173   8185   8187     1  0.0000000  0.6508444  3
   8176   8164   8160   8189     1  0.0000000  0.6508444  3
   8177   8176   8182  15242     1  0.0000000  1.0460000  1
   8177   8176   8182  15242     1  0.0000000  0.0000000  3
   8177   8176   8182   8183     1  0.0000000  0.6508444  3
   8177   8176   8182   8184     1  0.0000000  0.6508444  3
   8178   8176   8182  15242     1  0.0000000  1.0460000  1
   8178   8176   8182  15242     1  0.0000000  0.0000000  3
   8178   8176   8182   8183     1  0.0000000  0.6508444  3
   8178   8176   8182   8184     1  0.0000000  0.6508444  3
   8182  15242  15238  15241     1  0.0000000  1.6038667  3
   8183   8182  15242  15238     1  0.0000000  1.6038667  3
   8184   8182  15242  15238     1  0.0000000  1.6038667  3
   8185  15265  15261  15264     1  0.0000000  1.6038667  3
   8186   8185  15265  15261     1  0.0000000  1.6038667  3
   8187   8185  15265  15261     1  0.0000000  1.6038667  3
   8190   8191   8203   8204     1  0.0000000  0.6508444  3
   8190   8191   8203   8205     1  0.0000000  0.6508444  3
   8190   8194   8206   8207     1  0.0000000  0.6508444  3
   8190   8194   8206   8208     1  0.0000000  0.6508444  3
   8190   8197   8200   8201     1  0.0000000  0.6508444  3
   8190   8197   8200   8202     1  0.0000000  0.6508444  3
   8191   8190   8194   8195     1  0.0000000  0.6508444  3
   8191   8190   8194   8196     1  0.0000000  0.6508444  3
   8191   8190   8197   8198     1  0.0000000  0.6508444  3
   8191   8190   8197   8199     1  0.0000000  0.6508444  3
   8191   8203   8215   8216     1  0.0000000  0.6508444  3
   8191   8203   8215   8217     1  0.0000000  0.6508444  3
   8192   8191   8190   8194     1  0.0000000  0.6508444  3
   8192   8191   8190   8197     1  0.0000000  0.6508444  3
   8192   8191   8190   8219     1  0.0000000  0.6508444  3
   8192   8191   8203   8215     1  0.0000000  0.6508444  3
   8192   8191   8203   8204     1  0.0000000  0.6508444  3
   8192   8191   8203   8205     1  0.0000000  0.6508444  3
   8193   8191   8190   8194     1  0.0000000  0.6508444  3
   8193   8191   8190   8197     1  0.0000000  0.6508444  3
   8193   8191   8190   8219     1  0.0000000  0.6508444  3
   8193   8191   8203   8215     1  0.0000000  0.6508444  3
   8193   8191   8203   8204     1  0.0000000  0.6508444  3
   8193   8191   8203   8205     1  0.0000000  0.6508444  3
   8194   8190   8197   8198     1  0.0000000  0.6508444  3
   8194   8190   8197   8199     1  0.0000000  0.6508444  3
   8194   8206   8212   8213     1  0.0000000  0.6508444  3
   8194   8206   8212   8214     1  0.0000000  0.6508444  3
   8195   8194   8190   8197     1  0.0000000  0.6508444  3
   8195   8194   8190   8219     1  0.0000000  0.6508444  3
   8195   8194   8206   8212     1  0.0000000  0.6508444  3
   8195   8194   8206   8207     1  0.0000000  0.6508444  3
   8195   8194   8206   8208     1  0.0000000  0.6508444  3
   8196   8194   8190   8197     1  0.0000000  0.6508444  3
   8196   8194   8190   8219     1  0.0000000  0.6508444  3
   8196   8194   8206   8212     1  0.0000000  0.6508444  3
   8196   8194   8206   8207     1  0.0000000  0.6508444  3
   8196   8194   8206   8208     1  0.0000000  0.6508444  3
   8197   8200   8209   8210     1  0.0000000  0.6508444  3
   8197   8200   8209   8211     1  0.0000000  0.6508444  3
   8198   8197   8190   8219     1  0.0000000  0.6508444  3
   8198   8197   8200   8209     1  0.0000000  0.6508444  3
   8198   8197   8200   8201     1  0.0000000  0.6508444  3
   8198   8197   8200   8202     1  0.0000000  0.6508444  3
   8199   8197   8190   8219     1  0.0000000  0.6508444  3
   8199   8197   8200   8209     1  0.0000000  0.6508444  3
   8199   8197   8200   8201     1  0.0000000  0.6508444  3
   8199   8197   8200   8202     1  0.0000000  0.6508444  3
   8200   8197   8190   8219     1  0.0000000  0.6508444  3
   8201   8200   8209   8218     1  0.0000000  1.0460000  1
   8201   8200   8209   8218     1  0.0000000  0.0000000  3
   8201   8200   8209   8210     1  0.0000000  0.6508444  3
   8201   8200   8209   8211     1  0.0000000  0.6508444  3
   8202   8200   8209   8218     1  0.0000000  1.0460000  1
   8202   8200   8209   8218     1  0.0000000  0.0000000  3
   8202   8200   8209   8210     1  0.0000000  0.6508444  3
   8202   8200   8209   8211     1  0.0000000  0.6508444  3
   8203   8191   8190   8219     1  0.0000000  0.6508444  3
   8204   8203   8215  15311     1  0.0000000  1.0460000  1
   8204   8203   8215  15311     1  0.0000000  0.0000000  3
   8204   8203   8215   8216     1  0.0000000  0.6508444  3
   8204   8203   8215   8217     1  0.0000000  0.6508444  3
   8205   8203   8215  15311     1  0.0000000  1.0460000  1
   8205   8203   8215  15311     1  0.0000000  0.0000000  3
   8205   8203   8215   8216     1  0.0000000  0.6508444  3
   8205   8203   8215   8217     1  0.0000000  0.6508444  3
   8206   8194   8190   8219     1  0.0000000  0.6508444  3
   8207   8206   8212  15288     1  0.0000000  1.0460000  1
   8207   8206   8212  15288     1  0.0000000  0.0000000  3
   8207   8206   8212   8213     1  0.0000000  0.6508444  3
   8207   8206   8212   8214     1  0.0000000  0.6508444  3
   8208   8206   8212  15288     1  0.0000000  1.0460000  1
   8208   8206   8212  15288     1  0.0000000  0.0000000  3
   8208   8206   8212   8213     1  0.0000000  0.6508444  3
   8208   8206   8212   8214     1  0.0000000  0.6508444  3
   8212  15288  15284  15287     1  0.0000000  1.6038667  3
   8213   8212  15288  15284     1  0.0000000  1.6038667  3
   8214   8212  15288  15284     1  0.0000000  1.6038667  3
   8215  15311  15307  15310     1  0.0000000  1.6038667  3
   8216   8215  15311  15307     1  0.0000000  1.6038667  3
   8217   8215  15311  15307     1  0.0000000  1.6038667  3
   8220   8221   8233   8234     1  0.0000000  0.6508444  3
   8220   8221   8233   8235     1  0.0000000  0.6508444  3
   8220   8224   8236   8237     1  0.0000000  0.6508444  3
   8220   8224   8236   8238     1  0.0000000  0.6508444  3
   8220   8227   8230   8231     1  0.0000000  0.6508444  3
   8220   8227   8230   8232     1  0.0000000  0.6508444  3
   8221   8220   8224   8225     1  0.0000000  0.6508444  3
   8221   8220   8224   8226     1  0.0000000  0.6508444  3
   8221   8220   8227   8228     1  0.0000000  0.6508444  3
   8221   8220   8227   8229     1  0.0000000  0.6508444  3
   8221   8233   8245   8246     1  0.0000000  0.6508444  3
   8221   8233   8245   8247     1  0.0000000  0.6508444  3
   8222   8221   8220   8224     1  0.0000000  0.6508444  3
   8222   8221   8220   8227     1  0.0000000  0.6508444  3
   8222   8221   8220   8249     1  0.0000000  0.6508444  3
   8222   8221   8233   8245     1  0.0000000  0.6508444  3
   8222   8221   8233   8234     1  0.0000000  0.6508444  3
   8222   8221   8233   8235     1  0.0000000  0.6508444  3
   8223   8221   8220   8224     1  0.0000000  0.6508444  3
   8223   8221   8220   8227     1  0.0000000  0.6508444  3
   8223   8221   8220   8249     1  0.0000000  0.6508444  3
   8223   8221   8233   8245     1  0.0000000  0.6508444  3
   8223   8221   8233   8234     1  0.0000000  0.6508444  3
   8223   8221   8233   8235     1  0.0000000  0.6508444  3
   8224   8220   8227   8228     1  0.0000000  0.6508444  3
   8224   8220   8227   8229     1  0.0000000  0.6508444  3
   8224   8236   8242   8243     1  0.0000000  0.6508444  3
   8224   8236   8242   8244     1  0.0000000  0.6508444  3
   8225   8224   8220   8227     1  0.0000000  0.6508444  3
   8225   8224   8220   8249     1  0.0000000  0.6508444  3
   8225   8224   8236   8242     1  0.0000000  0.6508444  3
   8225   8224   8236   8237     1  0.0000000  0.6508444  3
   8225   8224   8236   8238     1  0.0000000  0.6508444  3
   8226   8224   8220   8227     1  0.0000000  0.6508444  3
   8226   8224   8220   8249     1  0.0000000  0.6508444  3
   8226   8224   8236   8242     1  0.0000000  0.6508444  3
   8226   8224   8236   8237     1  0.0000000  0.6508444  3
   8226   8224   8236   8238     1  0.0000000  0.6508444  3
   8227   8230   8239   8240     1  0.0000000  0.6508444  3
   8227   8230   8239   8241     1  0.0000000  0.6508444  3
   8228   8227   8220   8249     1  0.0000000  0.6508444  3
   8228   8227   8230   8239     1  0.0000000  0.6508444  3
   8228   8227   8230   8231     1  0.0000000  0.6508444  3
   8228   8227   8230   8232     1  0.0000000  0.6508444  3
   8229   8227   8220   8249     1  0.0000000  0.6508444  3
   8229   8227   8230   8239     1  0.0000000  0.6508444  3
   8229   8227   8230   8231     1  0.0000000  0.6508444  3
   8229   8227   8230   8232     1  0.0000000  0.6508444  3
   8230   8227   8220   8249     1  0.0000000  0.6508444  3
   8231   8230   8239   8248     1  0.0000000  1.0460000  1
   8231   8230   8239   8248     1  0.0000000  0.0000000  3
   8231   8230   8239   8240     1  0.0000000  0.6508444  3
   8231   8230   8239   8241     1  0.0000000  0.6508444  3
   8232   8230   8239   8248     1  0.0000000  1.0460000  1
   8232   8230   8239   8248     1  0.0000000  0.0000000  3
   8232   8230   8239   8240     1  0.0000000  0.6508444  3
   8232   8230   8239   8241     1  0.0000000  0.6508444  3
   8233   8221   8220   8249     1  0.0000000  0.6508444  3
   8234   8233   8245  15357     1  0.0000000  1.0460000  1
   8234   8233   8245  15357     1  0.0000000  0.0000000  3
   8234   8233   8245   8246     1  0.0000000  0.6508444  3
   8234   8233   8245   8247     1  0.0000000  0.6508444  3
   8235   8233   8245  15357     1  0.0000000  1.0460000  1
   8235   8233   8245  15357     1  0.0000000  0.0000000  3
   8235   8233   8245   8246     1  0.0000000  0.6508444  3
   8235   8233   8245   8247     1  0.0000000  0.6508444  3
   8236   8224   8220   8249     1  0.0000000  0.6508444  3
   8237   8236   8242  15334     1  0.0000000  1.0460000  1
   8237   8236   8242  15334     1  0.0000000  0.0000000  3
   8237   8236   8242   8243     1  0.0000000  0.6508444  3
   8237   8236   8242   8244     1  0.0000000  0.6508444  3
   8238   8236   8242  15334     1  0.0000000  1.0460000  1
   8238   8236   8242  15334     1  0.0000000  0.0000000  3
   8238   8236   8242   8243     1  0.0000000  0.6508444  3
   8238   8236   8242   8244     1  0.0000000  0.6508444  3
   8242  15334  15330  15333     1  0.0000000  1.6038667  3
   8243   8242  15334  15330     1  0.0000000  1.6038667  3
   8244   8242  15334  15330     1  0.0000000  1.6038667  3
   8245  15357  15353  15356     1  0.0000000  1.6038667  3
   8246   8245  15357  15353     1  0.0000000  1.6038667  3
   8247   8245  15357  15353     1  0.0000000  1.6038667  3
   8250   8251   8263   8264     1  0.0000000  0.6508444  3
   8250   8251   8263   8265     1  0.0000000  0.6508444  3
   8250   8254   8266   8267     1  0.0000000  0.6508444  3
   8250   8254   8266   8268     1  0.0000000  0.6508444  3
   8250   8257   8260   8261     1  0.0000000  0.6508444  3
   8250   8257   8260   8262     1  0.0000000  0.6508444  3
   8251   8250   8254   8255     1  0.0000000  0.6508444  3
   8251   8250   8254   8256     1  0.0000000  0.6508444  3
   8251   8250   8257   8258     1  0.0000000  0.6508444  3
   8251   8250   8257   8259     1  0.0000000  0.6508444  3
   8251   8263   8275   8276     1  0.0000000  0.6508444  3
   8251   8263   8275   8277     1  0.0000000  0.6508444  3
   8252   8251   8250   8254     1  0.0000000  0.6508444  3
   8252   8251   8250   8257     1  0.0000000  0.6508444  3
   8252   8251   8250   8279     1  0.0000000  0.6508444  3
   8252   8251   8263   8275     1  0.0000000  0.6508444  3
   8252   8251   8263   8264     1  0.0000000  0.6508444  3
   8252   8251   8263   8265     1  0.0000000  0.6508444  3
   8253   8251   8250   8254     1  0.0000000  0.6508444  3
   8253   8251   8250   8257     1  0.0000000  0.6508444  3
   8253   8251   8250   8279     1  0.0000000  0.6508444  3
   8253   8251   8263   8275     1  0.0000000  0.6508444  3
   8253   8251   8263   8264     1  0.0000000  0.6508444  3
   8253   8251   8263   8265     1  0.0000000  0.6508444  3
   8254   8250   8257   8258     1  0.0000000  0.6508444  3
   8254   8250   8257   8259     1  0.0000000  0.6508444  3
   8254   8266   8272   8273     1  0.0000000  0.6508444  3
   8254   8266   8272   8274     1  0.0000000  0.6508444  3
   8255   8254   8250   8257     1  0.0000000  0.6508444  3
   8255   8254   8250   8279     1  0.0000000  0.6508444  3
   8255   8254   8266   8272     1  0.0000000  0.6508444  3
   8255   8254   8266   8267     1  0.0000000  0.6508444  3
   8255   8254   8266   8268     1  0.0000000  0.6508444  3
   8256   8254   8250   8257     1  0.0000000  0.6508444  3
   8256   8254   8250   8279     1  0.0000000  0.6508444  3
   8256   8254   8266   8272     1  0.0000000  0.6508444  3
   8256   8254   8266   8267     1  0.0000000  0.6508444  3
   8256   8254   8266   8268     1  0.0000000  0.6508444  3
   8257   8260   8269   8270     1  0.0000000  0.6508444  3
   8257   8260   8269   8271     1  0.0000000  0.6508444  3
   8258   8257   8250   8279     1  0.0000000  0.6508444  3
   8258   8257   8260   8269     1  0.0000000  0.6508444  3
   8258   8257   8260   8261     1  0.0000000  0.6508444  3
   8258   8257   8260   8262     1  0.0000000  0.6508444  3
   8259   8257   8250   8279     1  0.0000000  0.6508444  3
   8259   8257   8260   8269     1  0.0000000  0.6508444  3
   8259   8257   8260   8261     1  0.0000000  0.6508444  3
   8259   8257   8260   8262     1  0.0000000  0.6508444  3
   8260   8257   8250   8279     1  0.0000000  0.6508444  3
   8261   8260   8269   8278     1  0.0000000  1.0460000  1
   8261   8260   8269   8278     1  0.0000000  0.0000000  3
   8261   8260   8269   8270     1  0.0000000  0.6508444  3
   8261   8260   8269   8271     1  0.0000000  0.6508444  3
   8262   8260   8269   8278     1  0.0000000  1.0460000  1
   8262   8260   8269   8278     1  0.0000000  0.0000000  3
   8262   8260   8269   8270     1  0.0000000  0.6508444  3
   8262   8260   8269   8271     1  0.0000000  0.6508444  3
   8263   8251   8250   8279     1  0.0000000  0.6508444  3
   8264   8263   8275  15403     1  0.0000000  1.0460000  1
   8264   8263   8275  15403     1  0.0000000  0.0000000  3
   8264   8263   8275   8276     1  0.0000000  0.6508444  3
   8264   8263   8275   8277     1  0.0000000  0.6508444  3
   8265   8263   8275  15403     1  0.0000000  1.0460000  1
   8265   8263   8275  15403     1  0.0000000  0.0000000  3
   8265   8263   8275   8276     1  0.0000000  0.6508444  3
   8265   8263   8275   8277     1  0.0000000  0.6508444  3
   8266   8254   8250   8279     1  0.0000000  0.6508444  3
   8267   8266   8272  15380     1  0.0000000  1.0460000  1
   8267   8266   8272  15380     1  0.0000000  0.0000000  3
   8267   8266   8272   8273     1  0.0000000  0.6508444  3
   8267   8266   8272   8274     1  0.0000000  0.6508444  3
   8268   8266   8272  15380     1  0.0000000  1.0460000  1
   8268   8266   8272  15380     1  0.0000000  0.0000000  3
   8268   8266   8272   8273     1  0.0000000  0.6508444  3
   8268   8266   8272   8274     1  0.0000000  0.6508444  3
   8272  15380  15376  15379     1  0.0000000  1.6038667  3
   8273   8272  15380  15376     1  0.0000000  1.6038667  3
   8274   8272  15380  15376     1  0.0000000  1.6038667  3
   8275  15403  15399  15402     1  0.0000000  1.6038667  3
   8276   8275  15403  15399     1  0.0000000  1.6038667  3
   8277   8275  15403  15399     1  0.0000000  1.6038667  3
   8280   8281   8293   8294     1  0.0000000  0.6508444  3
   8280   8281   8293   8295     1  0.0000000  0.6508444  3
   8280   8284   8296   8297     1  0.0000000  0.6508444  3
   8280   8284   8296   8298     1  0.0000000  0.6508444  3
   8280   8287   8290   8291     1  0.0000000  0.6508444  3
   8280   8287   8290   8292     1  0.0000000  0.6508444  3
   8281   8280   8284   8285     1  0.0000000  0.6508444  3
   8281   8280   8284   8286     1  0.0000000  0.6508444  3
   8281   8280   8287   8288     1  0.0000000  0.6508444  3
   8281   8280   8287   8289     1  0.0000000  0.6508444  3
   8281   8293   8305   8306     1  0.0000000  0.6508444  3
   8281   8293   8305   8307     1  0.0000000  0.6508444  3
   8282   8281   8280   8284     1  0.0000000  0.6508444  3
   8282   8281   8280   8287     1  0.0000000  0.6508444  3
   8282   8281   8280   8309     1  0.0000000  0.6508444  3
   8282   8281   8293   8305     1  0.0000000  0.6508444  3
   8282   8281   8293   8294     1  0.0000000  0.6508444  3
   8282   8281   8293   8295     1  0.0000000  0.6508444  3
   8283   8281   8280   8284     1  0.0000000  0.6508444  3
   8283   8281   8280   8287     1  0.0000000  0.6508444  3
   8283   8281   8280   8309     1  0.0000000  0.6508444  3
   8283   8281   8293   8305     1  0.0000000  0.6508444  3
   8283   8281   8293   8294     1  0.0000000  0.6508444  3
   8283   8281   8293   8295     1  0.0000000  0.6508444  3
   8284   8280   8287   8288     1  0.0000000  0.6508444  3
   8284   8280   8287   8289     1  0.0000000  0.6508444  3
   8284   8296   8302   8303     1  0.0000000  0.6508444  3
   8284   8296   8302   8304     1  0.0000000  0.6508444  3
   8285   8284   8280   8287     1  0.0000000  0.6508444  3
   8285   8284   8280   8309     1  0.0000000  0.6508444  3
   8285   8284   8296   8302     1  0.0000000  0.6508444  3
   8285   8284   8296   8297     1  0.0000000  0.6508444  3
   8285   8284   8296   8298     1  0.0000000  0.6508444  3
   8286   8284   8280   8287     1  0.0000000  0.6508444  3
   8286   8284   8280   8309     1  0.0000000  0.6508444  3
   8286   8284   8296   8302     1  0.0000000  0.6508444  3
   8286   8284   8296   8297     1  0.0000000  0.6508444  3
   8286   8284   8296   8298     1  0.0000000  0.6508444  3
   8287   8290   8299   8300     1  0.0000000  0.6508444  3
   8287   8290   8299   8301     1  0.0000000  0.6508444  3
   8288   8287   8280   8309     1  0.0000000  0.6508444  3
   8288   8287   8290   8299     1  0.0000000  0.6508444  3
   8288   8287   8290   8291     1  0.0000000  0.6508444  3
   8288   8287   8290   8292     1  0.0000000  0.6508444  3
   8289   8287   8280   8309     1  0.0000000  0.6508444  3
   8289   8287   8290   8299     1  0.0000000  0.6508444  3
   8289   8287   8290   8291     1  0.0000000  0.6508444  3
   8289   8287   8290   8292     1  0.0000000  0.6508444  3
   8290   8287   8280   8309     1  0.0000000  0.6508444  3
   8291   8290   8299   8308     1  0.0000000  1.0460000  1
   8291   8290   8299   8308     1  0.0000000  0.0000000  3
   8291   8290   8299   8300     1  0.0000000  0.6508444  3
   8291   8290   8299   8301     1  0.0000000  0.6508444  3
   8292   8290   8299   8308     1  0.0000000  1.0460000  1
   8292   8290   8299   8308     1  0.0000000  0.0000000  3
   8292   8290   8299   8300     1  0.0000000  0.6508444  3
   8292   8290   8299   8301     1  0.0000000  0.6508444  3
   8293   8281   8280   8309     1  0.0000000  0.6508444  3
   8294   8293   8305  15449     1  0.0000000  1.0460000  1
   8294   8293   8305  15449     1  0.0000000  0.0000000  3
   8294   8293   8305   8306     1  0.0000000  0.6508444  3
   8294   8293   8305   8307     1  0.0000000  0.6508444  3
   8295   8293   8305  15449     1  0.0000000  1.0460000  1
   8295   8293   8305  15449     1  0.0000000  0.0000000  3
   8295   8293   8305   8306     1  0.0000000  0.6508444  3
   8295   8293   8305   8307     1  0.0000000  0.6508444  3
   8296   8284   8280   8309     1  0.0000000  0.6508444  3
   8297   8296   8302  15426     1  0.0000000  1.0460000  1
   8297   8296   8302  15426     1  0.0000000  0.0000000  3
   8297   8296   8302   8303     1  0.0000000  0.6508444  3
   8297   8296   8302   8304     1  0.0000000  0.6508444  3
   8298   8296   8302  15426     1  0.0000000  1.0460000  1
   8298   8296   8302  15426     1  0.0000000  0.0000000  3
   8298   8296   8302   8303     1  0.0000000  0.6508444  3
   8298   8296   8302   8304     1  0.0000000  0.6508444  3
   8302  15426  15422  15425     1  0.0000000  1.6038667  3
   8303   8302  15426  15422     1  0.0000000  1.6038667  3
   8304   8302  15426  15422     1  0.0000000  1.6038667  3
   8305  15449  15445  15448     1  0.0000000  1.6038667  3
   8306   8305  15449  15445     1  0.0000000  1.6038667  3
   8307   8305  15449  15445     1  0.0000000  1.6038667  3
   8310   8311   8323   8324     1  0.0000000  0.6508444  3
   8310   8311   8323   8325     1  0.0000000  0.6508444  3
   8310   8314   8326   8327     1  0.0000000  0.6508444  3
   8310   8314   8326   8328     1  0.0000000  0.6508444  3
   8310   8317   8320   8321     1  0.0000000  0.6508444  3
   8310   8317   8320   8322     1  0.0000000  0.6508444  3
   8311   8310   8314   8315     1  0.0000000  0.6508444  3
   8311   8310   8314   8316     1  0.0000000  0.6508444  3
   8311   8310   8317   8318     1  0.0000000  0.6508444  3
   8311   8310   8317   8319     1  0.0000000  0.6508444  3
   8311   8323   8335   8336     1  0.0000000  0.6508444  3
   8311   8323   8335   8337     1  0.0000000  0.6508444  3
   8312   8311   8310   8314     1  0.0000000  0.6508444  3
   8312   8311   8310   8317     1  0.0000000  0.6508444  3
   8312   8311   8310   8339     1  0.0000000  0.6508444  3
   8312   8311   8323   8335     1  0.0000000  0.6508444  3
   8312   8311   8323   8324     1  0.0000000  0.6508444  3
   8312   8311   8323   8325     1  0.0000000  0.6508444  3
   8313   8311   8310   8314     1  0.0000000  0.6508444  3
   8313   8311   8310   8317     1  0.0000000  0.6508444  3
   8313   8311   8310   8339     1  0.0000000  0.6508444  3
   8313   8311   8323   8335     1  0.0000000  0.6508444  3
   8313   8311   8323   8324     1  0.0000000  0.6508444  3
   8313   8311   8323   8325     1  0.0000000  0.6508444  3
   8314   8310   8317   8318     1  0.0000000  0.6508444  3
   8314   8310   8317   8319     1  0.0000000  0.6508444  3
   8314   8326   8332   8333     1  0.0000000  0.6508444  3
   8314   8326   8332   8334     1  0.0000000  0.6508444  3
   8315   8314   8310   8317     1  0.0000000  0.6508444  3
   8315   8314   8310   8339     1  0.0000000  0.6508444  3
   8315   8314   8326   8332     1  0.0000000  0.6508444  3
   8315   8314   8326   8327     1  0.0000000  0.6508444  3
   8315   8314   8326   8328     1  0.0000000  0.6508444  3
   8316   8314   8310   8317     1  0.0000000  0.6508444  3
   8316   8314   8310   8339     1  0.0000000  0.6508444  3
   8316   8314   8326   8332     1  0.0000000  0.6508444  3
   8316   8314   8326   8327     1  0.0000000  0.6508444  3
   8316   8314   8326   8328     1  0.0000000  0.6508444  3
   8317   8320   8329   8330     1  0.0000000  0.6508444  3
   8317   8320   8329   8331     1  0.0000000  0.6508444  3
   8318   8317   8310   8339     1  0.0000000  0.6508444  3
   8318   8317   8320   8329     1  0.0000000  0.6508444  3
   8318   8317   8320   8321     1  0.0000000  0.6508444  3
   8318   8317   8320   8322     1  0.0000000  0.6508444  3
   8319   8317   8310   8339     1  0.0000000  0.6508444  3
   8319   8317   8320   8329     1  0.0000000  0.6508444  3
   8319   8317   8320   8321     1  0.0000000  0.6508444  3
   8319   8317   8320   8322     1  0.0000000  0.6508444  3
   8320   8317   8310   8339     1  0.0000000  0.6508444  3
   8321   8320   8329   8338     1  0.0000000  1.0460000  1
   8321   8320   8329   8338     1  0.0000000  0.0000000  3
   8321   8320   8329   8330     1  0.0000000  0.6508444  3
   8321   8320   8329   8331     1  0.0000000  0.6508444  3
   8322   8320   8329   8338     1  0.0000000  1.0460000  1
   8322   8320   8329   8338     1  0.0000000  0.0000000  3
   8322   8320   8329   8330     1  0.0000000  0.6508444  3
   8322   8320   8329   8331     1  0.0000000  0.6508444  3
   8323   8311   8310   8339     1  0.0000000  0.6508444  3
   8324   8323   8335  15495     1  0.0000000  1.0460000  1
   8324   8323   8335  15495     1  0.0000000  0.0000000  3
   8324   8323   8335   8336     1  0.0000000  0.6508444  3
   8324   8323   8335   8337     1  0.0000000  0.6508444  3
   8325   8323   8335  15495     1  0.0000000  1.0460000  1
   8325   8323   8335  15495     1  0.0000000  0.0000000  3
   8325   8323   8335   8336     1  0.0000000  0.6508444  3
   8325   8323   8335   8337     1  0.0000000  0.6508444  3
   8326   8314   8310   8339     1  0.0000000  0.6508444  3
   8327   8326   8332  15472     1  0.0000000  1.0460000  1
   8327   8326   8332  15472     1  0.0000000  0.0000000  3
   8327   8326   8332   8333     1  0.0000000  0.6508444  3
   8327   8326   8332   8334     1  0.0000000  0.6508444  3
   8328   8326   8332  15472     1  0.0000000  1.0460000  1
   8328   8326   8332  15472     1  0.0000000  0.0000000  3
   8328   8326   8332   8333     1  0.0000000  0.6508444  3
   8328   8326   8332   8334     1  0.0000000  0.6508444  3
   8332  15472  15468  15471     1  0.0000000  1.6038667  3
   8333   8332  15472  15468     1  0.0000000  1.6038667  3
   8334   8332  15472  15468     1  0.0000000  1.6038667  3
   8335  15495  15491  15494     1  0.0000000  1.6038667  3
   8336   8335  15495  15491     1  0.0000000  1.6038667  3
   8337   8335  15495  15491     1  0.0000000  1.6038667  3
   8340   8341   8353   8354     1  0.0000000  0.6508444  3
   8340   8341   8353   8355     1  0.0000000  0.6508444  3
   8340   8344   8356   8357     1  0.0000000  0.6508444  3
   8340   8344   8356   8358     1  0.0000000  0.6508444  3
   8340   8347   8350   8351     1  0.0000000  0.6508444  3
   8340   8347   8350   8352     1  0.0000000  0.6508444  3
   8341   8340   8344   8345     1  0.0000000  0.6508444  3
   8341   8340   8344   8346     1  0.0000000  0.6508444  3
   8341   8340   8347   8348     1  0.0000000  0.6508444  3
   8341   8340   8347   8349     1  0.0000000  0.6508444  3
   8341   8353   8365   8366     1  0.0000000  0.6508444  3
   8341   8353   8365   8367     1  0.0000000  0.6508444  3
   8342   8341   8340   8344     1  0.0000000  0.6508444  3
   8342   8341   8340   8347     1  0.0000000  0.6508444  3
   8342   8341   8340   8369     1  0.0000000  0.6508444  3
   8342   8341   8353   8365     1  0.0000000  0.6508444  3
   8342   8341   8353   8354     1  0.0000000  0.6508444  3
   8342   8341   8353   8355     1  0.0000000  0.6508444  3
   8343   8341   8340   8344     1  0.0000000  0.6508444  3
   8343   8341   8340   8347     1  0.0000000  0.6508444  3
   8343   8341   8340   8369     1  0.0000000  0.6508444  3
   8343   8341   8353   8365     1  0.0000000  0.6508444  3
   8343   8341   8353   8354     1  0.0000000  0.6508444  3
   8343   8341   8353   8355     1  0.0000000  0.6508444  3
   8344   8340   8347   8348     1  0.0000000  0.6508444  3
   8344   8340   8347   8349     1  0.0000000  0.6508444  3
   8344   8356   8362   8363     1  0.0000000  0.6508444  3
   8344   8356   8362   8364     1  0.0000000  0.6508444  3
   8345   8344   8340   8347     1  0.0000000  0.6508444  3
   8345   8344   8340   8369     1  0.0000000  0.6508444  3
   8345   8344   8356   8362     1  0.0000000  0.6508444  3
   8345   8344   8356   8357     1  0.0000000  0.6508444  3
   8345   8344   8356   8358     1  0.0000000  0.6508444  3
   8346   8344   8340   8347     1  0.0000000  0.6508444  3
   8346   8344   8340   8369     1  0.0000000  0.6508444  3
   8346   8344   8356   8362     1  0.0000000  0.6508444  3
   8346   8344   8356   8357     1  0.0000000  0.6508444  3
   8346   8344   8356   8358     1  0.0000000  0.6508444  3
   8347   8350   8359   8360     1  0.0000000  0.6508444  3
   8347   8350   8359   8361     1  0.0000000  0.6508444  3
   8348   8347   8340   8369     1  0.0000000  0.6508444  3
   8348   8347   8350   8359     1  0.0000000  0.6508444  3
   8348   8347   8350   8351     1  0.0000000  0.6508444  3
   8348   8347   8350   8352     1  0.0000000  0.6508444  3
   8349   8347   8340   8369     1  0.0000000  0.6508444  3
   8349   8347   8350   8359     1  0.0000000  0.6508444  3
   8349   8347   8350   8351     1  0.0000000  0.6508444  3
   8349   8347   8350   8352     1  0.0000000  0.6508444  3
   8350   8347   8340   8369     1  0.0000000  0.6508444  3
   8351   8350   8359   8368     1  0.0000000  1.0460000  1
   8351   8350   8359   8368     1  0.0000000  0.0000000  3
   8351   8350   8359   8360     1  0.0000000  0.6508444  3
   8351   8350   8359   8361     1  0.0000000  0.6508444  3
   8352   8350   8359   8368     1  0.0000000  1.0460000  1
   8352   8350   8359   8368     1  0.0000000  0.0000000  3
   8352   8350   8359   8360     1  0.0000000  0.6508444  3
   8352   8350   8359   8361     1  0.0000000  0.6508444  3
   8353   8341   8340   8369     1  0.0000000  0.6508444  3
   8354   8353   8365  15541     1  0.0000000  1.0460000  1
   8354   8353   8365  15541     1  0.0000000  0.0000000  3
   8354   8353   8365   8366     1  0.0000000  0.6508444  3
   8354   8353   8365   8367     1  0.0000000  0.6508444  3
   8355   8353   8365  15541     1  0.0000000  1.0460000  1
   8355   8353   8365  15541     1  0.0000000  0.0000000  3
   8355   8353   8365   8366     1  0.0000000  0.6508444  3
   8355   8353   8365   8367     1  0.0000000  0.6508444  3
   8356   8344   8340   8369     1  0.0000000  0.6508444  3
   8357   8356   8362  15518     1  0.0000000  1.0460000  1
   8357   8356   8362  15518     1  0.0000000  0.0000000  3
   8357   8356   8362   8363     1  0.0000000  0.6508444  3
   8357   8356   8362   8364     1  0.0000000  0.6508444  3
   8358   8356   8362  15518     1  0.0000000  1.0460000  1
   8358   8356   8362  15518     1  0.0000000  0.0000000  3
   8358   8356   8362   8363     1  0.0000000  0.6508444  3
   8358   8356   8362   8364     1  0.0000000  0.6508444  3
   8362  15518  15514  15517     1  0.0000000  1.6038667  3
   8363   8362  15518  15514     1  0.0000000  1.6038667  3
   8364   8362  15518  15514     1  0.0000000  1.6038667  3
   8365  15541  15537  15540     1  0.0000000  1.6038667  3
   8366   8365  15541  15537     1  0.0000000  1.6038667  3
   8367   8365  15541  15537     1  0.0000000  1.6038667  3
   8370   8371   8383   8384     1  0.0000000  0.6508444  3
   8370   8371   8383   8385     1  0.0000000  0.6508444  3
   8370   8374   8386   8387     1  0.0000000  0.6508444  3
   8370   8374   8386   8388     1  0.0000000  0.6508444  3
   8370   8377   8380   8381     1  0.0000000  0.6508444  3
   8370   8377   8380   8382     1  0.0000000  0.6508444  3
   8371   8370   8374   8375     1  0.0000000  0.6508444  3
   8371   8370   8374   8376     1  0.0000000  0.6508444  3
   8371   8370   8377   8378     1  0.0000000  0.6508444  3
   8371   8370   8377   8379     1  0.0000000  0.6508444  3
   8371   8383   8395   8396     1  0.0000000  0.6508444  3
   8371   8383   8395   8397     1  0.0000000  0.6508444  3
   8372   8371   8370   8374     1  0.0000000  0.6508444  3
   8372   8371   8370   8377     1  0.0000000  0.6508444  3
   8372   8371   8370   8399     1  0.0000000  0.6508444  3
   8372   8371   8383   8395     1  0.0000000  0.6508444  3
   8372   8371   8383   8384     1  0.0000000  0.6508444  3
   8372   8371   8383   8385     1  0.0000000  0.6508444  3
   8373   8371   8370   8374     1  0.0000000  0.6508444  3
   8373   8371   8370   8377     1  0.0000000  0.6508444  3
   8373   8371   8370   8399     1  0.0000000  0.6508444  3
   8373   8371   8383   8395     1  0.0000000  0.6508444  3
   8373   8371   8383   8384     1  0.0000000  0.6508444  3
   8373   8371   8383   8385     1  0.0000000  0.6508444  3
   8374   8370   8377   8378     1  0.0000000  0.6508444  3
   8374   8370   8377   8379     1  0.0000000  0.6508444  3
   8374   8386   8392   8393     1  0.0000000  0.6508444  3
   8374   8386   8392   8394     1  0.0000000  0.6508444  3
   8375   8374   8370   8377     1  0.0000000  0.6508444  3
   8375   8374   8370   8399     1  0.0000000  0.6508444  3
   8375   8374   8386   8392     1  0.0000000  0.6508444  3
   8375   8374   8386   8387     1  0.0000000  0.6508444  3
   8375   8374   8386   8388     1  0.0000000  0.6508444  3
   8376   8374   8370   8377     1  0.0000000  0.6508444  3
   8376   8374   8370   8399     1  0.0000000  0.6508444  3
   8376   8374   8386   8392     1  0.0000000  0.6508444  3
   8376   8374   8386   8387     1  0.0000000  0.6508444  3
   8376   8374   8386   8388     1  0.0000000  0.6508444  3
   8377   8380   8389   8390     1  0.0000000  0.6508444  3
   8377   8380   8389   8391     1  0.0000000  0.6508444  3
   8378   8377   8370   8399     1  0.0000000  0.6508444  3
   8378   8377   8380   8389     1  0.0000000  0.6508444  3
   8378   8377   8380   8381     1  0.0000000  0.6508444  3
   8378   8377   8380   8382     1  0.0000000  0.6508444  3
   8379   8377   8370   8399     1  0.0000000  0.6508444  3
   8379   8377   8380   8389     1  0.0000000  0.6508444  3
   8379   8377   8380   8381     1  0.0000000  0.6508444  3
   8379   8377   8380   8382     1  0.0000000  0.6508444  3
   8380   8377   8370   8399     1  0.0000000  0.6508444  3
   8381   8380   8389   8398     1  0.0000000  1.0460000  1
   8381   8380   8389   8398     1  0.0000000  0.0000000  3
   8381   8380   8389   8390     1  0.0000000  0.6508444  3
   8381   8380   8389   8391     1  0.0000000  0.6508444  3
   8382   8380   8389   8398     1  0.0000000  1.0460000  1
   8382   8380   8389   8398     1  0.0000000  0.0000000  3
   8382   8380   8389   8390     1  0.0000000  0.6508444  3
   8382   8380   8389   8391     1  0.0000000  0.6508444  3
   8383   8371   8370   8399     1  0.0000000  0.6508444  3
   8384   8383   8395  15587     1  0.0000000  1.0460000  1
   8384   8383   8395  15587     1  0.0000000  0.0000000  3
   8384   8383   8395   8396     1  0.0000000  0.6508444  3
   8384   8383   8395   8397     1  0.0000000  0.6508444  3
   8385   8383   8395  15587     1  0.0000000  1.0460000  1
   8385   8383   8395  15587     1  0.0000000  0.0000000  3
   8385   8383   8395   8396     1  0.0000000  0.6508444  3
   8385   8383   8395   8397     1  0.0000000  0.6508444  3
   8386   8374   8370   8399     1  0.0000000  0.6508444  3
   8387   8386   8392  15564     1  0.0000000  1.0460000  1
   8387   8386   8392  15564     1  0.0000000  0.0000000  3
   8387   8386   8392   8393     1  0.0000000  0.6508444  3
   8387   8386   8392   8394     1  0.0000000  0.6508444  3
   8388   8386   8392  15564     1  0.0000000  1.0460000  1
   8388   8386   8392  15564     1  0.0000000  0.0000000  3
   8388   8386   8392   8393     1  0.0000000  0.6508444  3
   8388   8386   8392   8394     1  0.0000000  0.6508444  3
   8392  15564  15560  15563     1  0.0000000  1.6038667  3
   8393   8392  15564  15560     1  0.0000000  1.6038667  3
   8394   8392  15564  15560     1  0.0000000  1.6038667  3
   8395  15587  15583  15586     1  0.0000000  1.6038667  3
   8396   8395  15587  15583     1  0.0000000  1.6038667  3
   8397   8395  15587  15583     1  0.0000000  1.6038667  3
   8400   8401   8413   8414     1  0.0000000  0.6508444  3
   8400   8401   8413   8415     1  0.0000000  0.6508444  3
   8400   8404   8416   8417     1  0.0000000  0.6508444  3
   8400   8404   8416   8418     1  0.0000000  0.6508444  3
   8400   8407   8410   8411     1  0.0000000  0.6508444  3
   8400   8407   8410   8412     1  0.0000000  0.6508444  3
   8401   8400   8404   8405     1  0.0000000  0.6508444  3
   8401   8400   8404   8406     1  0.0000000  0.6508444  3
   8401   8400   8407   8408     1  0.0000000  0.6508444  3
   8401   8400   8407   8409     1  0.0000000  0.6508444  3
   8401   8413   8425   8426     1  0.0000000  0.6508444  3
   8401   8413   8425   8427     1  0.0000000  0.6508444  3
   8402   8401   8400   8404     1  0.0000000  0.6508444  3
   8402   8401   8400   8407     1  0.0000000  0.6508444  3
   8402   8401   8400   8429     1  0.0000000  0.6508444  3
   8402   8401   8413   8425     1  0.0000000  0.6508444  3
   8402   8401   8413   8414     1  0.0000000  0.6508444  3
   8402   8401   8413   8415     1  0.0000000  0.6508444  3
   8403   8401   8400   8404     1  0.0000000  0.6508444  3
   8403   8401   8400   8407     1  0.0000000  0.6508444  3
   8403   8401   8400   8429     1  0.0000000  0.6508444  3
   8403   8401   8413   8425     1  0.0000000  0.6508444  3
   8403   8401   8413   8414     1  0.0000000  0.6508444  3
   8403   8401   8413   8415     1  0.0000000  0.6508444  3
   8404   8400   8407   8408     1  0.0000000  0.6508444  3
   8404   8400   8407   8409     1  0.0000000  0.6508444  3
   8404   8416   8422   8423     1  0.0000000  0.6508444  3
   8404   8416   8422   8424     1  0.0000000  0.6508444  3
   8405   8404   8400   8407     1  0.0000000  0.6508444  3
   8405   8404   8400   8429     1  0.0000000  0.6508444  3
   8405   8404   8416   8422     1  0.0000000  0.6508444  3
   8405   8404   8416   8417     1  0.0000000  0.6508444  3
   8405   8404   8416   8418     1  0.0000000  0.6508444  3
   8406   8404   8400   8407     1  0.0000000  0.6508444  3
   8406   8404   8400   8429     1  0.0000000  0.6508444  3
   8406   8404   8416   8422     1  0.0000000  0.6508444  3
   8406   8404   8416   8417     1  0.0000000  0.6508444  3
   8406   8404   8416   8418     1  0.0000000  0.6508444  3
   8407   8410   8419   8420     1  0.0000000  0.6508444  3
   8407   8410   8419   8421     1  0.0000000  0.6508444  3
   8408   8407   8400   8429     1  0.0000000  0.6508444  3
   8408   8407   8410   8419     1  0.0000000  0.6508444  3
   8408   8407   8410   8411     1  0.0000000  0.6508444  3
   8408   8407   8410   8412     1  0.0000000  0.6508444  3
   8409   8407   8400   8429     1  0.0000000  0.6508444  3
   8409   8407   8410   8419     1  0.0000000  0.6508444  3
   8409   8407   8410   8411     1  0.0000000  0.6508444  3
   8409   8407   8410   8412     1  0.0000000  0.6508444  3
   8410   8407   8400   8429     1  0.0000000  0.6508444  3
   8411   8410   8419   8428     1  0.0000000  1.0460000  1
   8411   8410   8419   8428     1  0.0000000  0.0000000  3
   8411   8410   8419   8420     1  0.0000000  0.6508444  3
   8411   8410   8419   8421     1  0.0000000  0.6508444  3
   8412   8410   8419   8428     1  0.0000000  1.0460000  1
   8412   8410   8419   8428     1  0.0000000  0.0000000  3
   8412   8410   8419   8420     1  0.0000000  0.6508444  3
   8412   8410   8419   8421     1  0.0000000  0.6508444  3
   8413   8401   8400   8429     1  0.0000000  0.6508444  3
   8414   8413   8425  15633     1  0.0000000  1.0460000  1
   8414   8413   8425  15633     1  0.0000000  0.0000000  3
   8414   8413   8425   8426     1  0.0000000  0.6508444  3
   8414   8413   8425   8427     1  0.0000000  0.6508444  3
   8415   8413   8425  15633     1  0.0000000  1.0460000  1
   8415   8413   8425  15633     1  0.0000000  0.0000000  3
   8415   8413   8425   8426     1  0.0000000  0.6508444  3
   8415   8413   8425   8427     1  0.0000000  0.6508444  3
   8416   8404   8400   8429     1  0.0000000  0.6508444  3
   8417   8416   8422  15610     1  0.0000000  1.0460000  1
   8417   8416   8422  15610     1  0.0000000  0.0000000  3
   8417   8416   8422   8423     1  0.0000000  0.6508444  3
   8417   8416   8422   8424     1  0.0000000  0.6508444  3
   8418   8416   8422  15610     1  0.0000000  1.0460000  1
   8418   8416   8422  15610     1  0.0000000  0.0000000  3
   8418   8416   8422   8423     1  0.0000000  0.6508444  3
   8418   8416   8422   8424     1  0.0000000  0.6508444  3
   8422  15610  15606  15609     1  0.0000000  1.6038667  3
   8423   8422  15610  15606     1  0.0000000  1.6038667  3
   8424   8422  15610  15606     1  0.0000000  1.6038667  3
   8425  15633  15629  15632     1  0.0000000  1.6038667  3
   8426   8425  15633  15629     1  0.0000000  1.6038667  3
   8427   8425  15633  15629     1  0.0000000  1.6038667  3
   8430   8431   8443   8444     1  0.0000000  0.6508444  3
   8430   8431   8443   8445     1  0.0000000  0.6508444  3
   8430   8434   8446   8447     1  0.0000000  0.6508444  3
   8430   8434   8446   8448     1  0.0000000  0.6508444  3
   8430   8437   8440   8441     1  0.0000000  0.6508444  3
   8430   8437   8440   8442     1  0.0000000  0.6508444  3
   8431   8430   8434   8435     1  0.0000000  0.6508444  3
   8431   8430   8434   8436     1  0.0000000  0.6508444  3
   8431   8430   8437   8438     1  0.0000000  0.6508444  3
   8431   8430   8437   8439     1  0.0000000  0.6508444  3
   8431   8443   8455   8456     1  0.0000000  0.6508444  3
   8431   8443   8455   8457     1  0.0000000  0.6508444  3
   8432   8431   8430   8434     1  0.0000000  0.6508444  3
   8432   8431   8430   8437     1  0.0000000  0.6508444  3
   8432   8431   8430   8459     1  0.0000000  0.6508444  3
   8432   8431   8443   8455     1  0.0000000  0.6508444  3
   8432   8431   8443   8444     1  0.0000000  0.6508444  3
   8432   8431   8443   8445     1  0.0000000  0.6508444  3
   8433   8431   8430   8434     1  0.0000000  0.6508444  3
   8433   8431   8430   8437     1  0.0000000  0.6508444  3
   8433   8431   8430   8459     1  0.0000000  0.6508444  3
   8433   8431   8443   8455     1  0.0000000  0.6508444  3
   8433   8431   8443   8444     1  0.0000000  0.6508444  3
   8433   8431   8443   8445     1  0.0000000  0.6508444  3
   8434   8430   8437   8438     1  0.0000000  0.6508444  3
   8434   8430   8437   8439     1  0.0000000  0.6508444  3
   8434   8446   8452   8453     1  0.0000000  0.6508444  3
   8434   8446   8452   8454     1  0.0000000  0.6508444  3
   8435   8434   8430   8437     1  0.0000000  0.6508444  3
   8435   8434   8430   8459     1  0.0000000  0.6508444  3
   8435   8434   8446   8452     1  0.0000000  0.6508444  3
   8435   8434   8446   8447     1  0.0000000  0.6508444  3
   8435   8434   8446   8448     1  0.0000000  0.6508444  3
   8436   8434   8430   8437     1  0.0000000  0.6508444  3
   8436   8434   8430   8459     1  0.0000000  0.6508444  3
   8436   8434   8446   8452     1  0.0000000  0.6508444  3
   8436   8434   8446   8447     1  0.0000000  0.6508444  3
   8436   8434   8446   8448     1  0.0000000  0.6508444  3
   8437   8440   8449   8450     1  0.0000000  0.6508444  3
   8437   8440   8449   8451     1  0.0000000  0.6508444  3
   8438   8437   8430   8459     1  0.0000000  0.6508444  3
   8438   8437   8440   8449     1  0.0000000  0.6508444  3
   8438   8437   8440   8441     1  0.0000000  0.6508444  3
   8438   8437   8440   8442     1  0.0000000  0.6508444  3
   8439   8437   8430   8459     1  0.0000000  0.6508444  3
   8439   8437   8440   8449     1  0.0000000  0.6508444  3
   8439   8437   8440   8441     1  0.0000000  0.6508444  3
   8439   8437   8440   8442     1  0.0000000  0.6508444  3
   8440   8437   8430   8459     1  0.0000000  0.6508444  3
   8441   8440   8449   8458     1  0.0000000  1.0460000  1
   8441   8440   8449   8458     1  0.0000000  0.0000000  3
   8441   8440   8449   8450     1  0.0000000  0.6508444  3
   8441   8440   8449   8451     1  0.0000000  0.6508444  3
   8442   8440   8449   8458     1  0.0000000  1.0460000  1
   8442   8440   8449   8458     1  0.0000000  0.0000000  3
   8442   8440   8449   8450     1  0.0000000  0.6508444  3
   8442   8440   8449   8451     1  0.0000000  0.6508444  3
   8443   8431   8430   8459     1  0.0000000  0.6508444  3
   8444   8443   8455  15679     1  0.0000000  1.0460000  1
   8444   8443   8455  15679     1  0.0000000  0.0000000  3
   8444   8443   8455   8456     1  0.0000000  0.6508444  3
   8444   8443   8455   8457     1  0.0000000  0.6508444  3
   8445   8443   8455  15679     1  0.0000000  1.0460000  1
   8445   8443   8455  15679     1  0.0000000  0.0000000  3
   8445   8443   8455   8456     1  0.0000000  0.6508444  3
   8445   8443   8455   8457     1  0.0000000  0.6508444  3
   8446   8434   8430   8459     1  0.0000000  0.6508444  3
   8447   8446   8452  15656     1  0.0000000  1.0460000  1
   8447   8446   8452  15656     1  0.0000000  0.0000000  3
   8447   8446   8452   8453     1  0.0000000  0.6508444  3
   8447   8446   8452   8454     1  0.0000000  0.6508444  3
   8448   8446   8452  15656     1  0.0000000  1.0460000  1
   8448   8446   8452  15656     1  0.0000000  0.0000000  3
   8448   8446   8452   8453     1  0.0000000  0.6508444  3
   8448   8446   8452   8454     1  0.0000000  0.6508444  3
   8452  15656  15652  15655     1  0.0000000  1.6038667  3
   8453   8452  15656  15652     1  0.0000000  1.6038667  3
   8454   8452  15656  15652     1  0.0000000  1.6038667  3
   8455  15679  15675  15678     1  0.0000000  1.6038667  3
   8456   8455  15679  15675     1  0.0000000  1.6038667  3
   8457   8455  15679  15675     1  0.0000000  1.6038667  3
   8460   8461   8473   8474     1  0.0000000  0.6508444  3
   8460   8461   8473   8475     1  0.0000000  0.6508444  3
   8460   8464   8476   8477     1  0.0000000  0.6508444  3
   8460   8464   8476   8478     1  0.0000000  0.6508444  3
   8460   8467   8470   8471     1  0.0000000  0.6508444  3
   8460   8467   8470   8472     1  0.0000000  0.6508444  3
   8461   8460   8464   8465     1  0.0000000  0.6508444  3
   8461   8460   8464   8466     1  0.0000000  0.6508444  3
   8461   8460   8467   8468     1  0.0000000  0.6508444  3
   8461   8460   8467   8469     1  0.0000000  0.6508444  3
   8461   8473   8485   8486     1  0.0000000  0.6508444  3
   8461   8473   8485   8487     1  0.0000000  0.6508444  3
   8462   8461   8460   8464     1  0.0000000  0.6508444  3
   8462   8461   8460   8467     1  0.0000000  0.6508444  3
   8462   8461   8460   8489     1  0.0000000  0.6508444  3
   8462   8461   8473   8485     1  0.0000000  0.6508444  3
   8462   8461   8473   8474     1  0.0000000  0.6508444  3
   8462   8461   8473   8475     1  0.0000000  0.6508444  3
   8463   8461   8460   8464     1  0.0000000  0.6508444  3
   8463   8461   8460   8467     1  0.0000000  0.6508444  3
   8463   8461   8460   8489     1  0.0000000  0.6508444  3
   8463   8461   8473   8485     1  0.0000000  0.6508444  3
   8463   8461   8473   8474     1  0.0000000  0.6508444  3
   8463   8461   8473   8475     1  0.0000000  0.6508444  3
   8464   8460   8467   8468     1  0.0000000  0.6508444  3
   8464   8460   8467   8469     1  0.0000000  0.6508444  3
   8464   8476   8482   8483     1  0.0000000  0.6508444  3
   8464   8476   8482   8484     1  0.0000000  0.6508444  3
   8465   8464   8460   8467     1  0.0000000  0.6508444  3
   8465   8464   8460   8489     1  0.0000000  0.6508444  3
   8465   8464   8476   8482     1  0.0000000  0.6508444  3
   8465   8464   8476   8477     1  0.0000000  0.6508444  3
   8465   8464   8476   8478     1  0.0000000  0.6508444  3
   8466   8464   8460   8467     1  0.0000000  0.6508444  3
   8466   8464   8460   8489     1  0.0000000  0.6508444  3
   8466   8464   8476   8482     1  0.0000000  0.6508444  3
   8466   8464   8476   8477     1  0.0000000  0.6508444  3
   8466   8464   8476   8478     1  0.0000000  0.6508444  3
   8467   8470   8479   8480     1  0.0000000  0.6508444  3
   8467   8470   8479   8481     1  0.0000000  0.6508444  3
   8468   8467   8460   8489     1  0.0000000  0.6508444  3
   8468   8467   8470   8479     1  0.0000000  0.6508444  3
   8468   8467   8470   8471     1  0.0000000  0.6508444  3
   8468   8467   8470   8472     1  0.0000000  0.6508444  3
   8469   8467   8460   8489     1  0.0000000  0.6508444  3
   8469   8467   8470   8479     1  0.0000000  0.6508444  3
   8469   8467   8470   8471     1  0.0000000  0.6508444  3
   8469   8467   8470   8472     1  0.0000000  0.6508444  3
   8470   8467   8460   8489     1  0.0000000  0.6508444  3
   8471   8470   8479   8488     1  0.0000000  1.0460000  1
   8471   8470   8479   8488     1  0.0000000  0.0000000  3
   8471   8470   8479   8480     1  0.0000000  0.6508444  3
   8471   8470   8479   8481     1  0.0000000  0.6508444  3
   8472   8470   8479   8488     1  0.0000000  1.0460000  1
   8472   8470   8479   8488     1  0.0000000  0.0000000  3
   8472   8470   8479   8480     1  0.0000000  0.6508444  3
   8472   8470   8479   8481     1  0.0000000  0.6508444  3
   8473   8461   8460   8489     1  0.0000000  0.6508444  3
   8474   8473   8485  15725     1  0.0000000  1.0460000  1
   8474   8473   8485  15725     1  0.0000000  0.0000000  3
   8474   8473   8485   8486     1  0.0000000  0.6508444  3
   8474   8473   8485   8487     1  0.0000000  0.6508444  3
   8475   8473   8485  15725     1  0.0000000  1.0460000  1
   8475   8473   8485  15725     1  0.0000000  0.0000000  3
   8475   8473   8485   8486     1  0.0000000  0.6508444  3
   8475   8473   8485   8487     1  0.0000000  0.6508444  3
   8476   8464   8460   8489     1  0.0000000  0.6508444  3
   8477   8476   8482  15702     1  0.0000000  1.0460000  1
   8477   8476   8482  15702     1  0.0000000  0.0000000  3
   8477   8476   8482   8483     1  0.0000000  0.6508444  3
   8477   8476   8482   8484     1  0.0000000  0.6508444  3
   8478   8476   8482  15702     1  0.0000000  1.0460000  1
   8478   8476   8482  15702     1  0.0000000  0.0000000  3
   8478   8476   8482   8483     1  0.0000000  0.6508444  3
   8478   8476   8482   8484     1  0.0000000  0.6508444  3
   8482  15702  15698  15701     1  0.0000000  1.6038667  3
   8483   8482  15702  15698     1  0.0000000  1.6038667  3
   8484   8482  15702  15698     1  0.0000000  1.6038667  3
   8485  15725  15721  15724     1  0.0000000  1.6038667  3
   8486   8485  15725  15721     1  0.0000000  1.6038667  3
   8487   8485  15725  15721     1  0.0000000  1.6038667  3
   8490   8491   8503   8504     1  0.0000000  0.6508444  3
   8490   8491   8503   8505     1  0.0000000  0.6508444  3
   8490   8494   8506   8507     1  0.0000000  0.6508444  3
   8490   8494   8506   8508     1  0.0000000  0.6508444  3
   8490   8497   8500   8501     1  0.0000000  0.6508444  3
   8490   8497   8500   8502     1  0.0000000  0.6508444  3
   8491   8490   8494   8495     1  0.0000000  0.6508444  3
   8491   8490   8494   8496     1  0.0000000  0.6508444  3
   8491   8490   8497   8498     1  0.0000000  0.6508444  3
   8491   8490   8497   8499     1  0.0000000  0.6508444  3
   8491   8503   8515   8516     1  0.0000000  0.6508444  3
   8491   8503   8515   8517     1  0.0000000  0.6508444  3
   8492   8491   8490   8494     1  0.0000000  0.6508444  3
   8492   8491   8490   8497     1  0.0000000  0.6508444  3
   8492   8491   8490   8519     1  0.0000000  0.6508444  3
   8492   8491   8503   8515     1  0.0000000  0.6508444  3
   8492   8491   8503   8504     1  0.0000000  0.6508444  3
   8492   8491   8503   8505     1  0.0000000  0.6508444  3
   8493   8491   8490   8494     1  0.0000000  0.6508444  3
   8493   8491   8490   8497     1  0.0000000  0.6508444  3
   8493   8491   8490   8519     1  0.0000000  0.6508444  3
   8493   8491   8503   8515     1  0.0000000  0.6508444  3
   8493   8491   8503   8504     1  0.0000000  0.6508444  3
   8493   8491   8503   8505     1  0.0000000  0.6508444  3
   8494   8490   8497   8498     1  0.0000000  0.6508444  3
   8494   8490   8497   8499     1  0.0000000  0.6508444  3
   8494   8506   8512   8513     1  0.0000000  0.6508444  3
   8494   8506   8512   8514     1  0.0000000  0.6508444  3
   8495   8494   8490   8497     1  0.0000000  0.6508444  3
   8495   8494   8490   8519     1  0.0000000  0.6508444  3
   8495   8494   8506   8512     1  0.0000000  0.6508444  3
   8495   8494   8506   8507     1  0.0000000  0.6508444  3
   8495   8494   8506   8508     1  0.0000000  0.6508444  3
   8496   8494   8490   8497     1  0.0000000  0.6508444  3
   8496   8494   8490   8519     1  0.0000000  0.6508444  3
   8496   8494   8506   8512     1  0.0000000  0.6508444  3
   8496   8494   8506   8507     1  0.0000000  0.6508444  3
   8496   8494   8506   8508     1  0.0000000  0.6508444  3
   8497   8500   8509   8510     1  0.0000000  0.6508444  3
   8497   8500   8509   8511     1  0.0000000  0.6508444  3
   8498   8497   8490   8519     1  0.0000000  0.6508444  3
   8498   8497   8500   8509     1  0.0000000  0.6508444  3
   8498   8497   8500   8501     1  0.0000000  0.6508444  3
   8498   8497   8500   8502     1  0.0000000  0.6508444  3
   8499   8497   8490   8519     1  0.0000000  0.6508444  3
   8499   8497   8500   8509     1  0.0000000  0.6508444  3
   8499   8497   8500   8501     1  0.0000000  0.6508444  3
   8499   8497   8500   8502     1  0.0000000  0.6508444  3
   8500   8497   8490   8519     1  0.0000000  0.6508444  3
   8501   8500   8509   8518     1  0.0000000  1.0460000  1
   8501   8500   8509   8518     1  0.0000000  0.0000000  3
   8501   8500   8509   8510     1  0.0000000  0.6508444  3
   8501   8500   8509   8511     1  0.0000000  0.6508444  3
   8502   8500   8509   8518     1  0.0000000  1.0460000  1
   8502   8500   8509   8518     1  0.0000000  0.0000000  3
   8502   8500   8509   8510     1  0.0000000  0.6508444  3
   8502   8500   8509   8511     1  0.0000000  0.6508444  3
   8503   8491   8490   8519     1  0.0000000  0.6508444  3
   8504   8503   8515  15771     1  0.0000000  1.0460000  1
   8504   8503   8515  15771     1  0.0000000  0.0000000  3
   8504   8503   8515   8516     1  0.0000000  0.6508444  3
   8504   8503   8515   8517     1  0.0000000  0.6508444  3
   8505   8503   8515  15771     1  0.0000000  1.0460000  1
   8505   8503   8515  15771     1  0.0000000  0.0000000  3
   8505   8503   8515   8516     1  0.0000000  0.6508444  3
   8505   8503   8515   8517     1  0.0000000  0.6508444  3
   8506   8494   8490   8519     1  0.0000000  0.6508444  3
   8507   8506   8512  15748     1  0.0000000  1.0460000  1
   8507   8506   8512  15748     1  0.0000000  0.0000000  3
   8507   8506   8512   8513     1  0.0000000  0.6508444  3
   8507   8506   8512   8514     1  0.0000000  0.6508444  3
   8508   8506   8512  15748     1  0.0000000  1.0460000  1
   8508   8506   8512  15748     1  0.0000000  0.0000000  3
   8508   8506   8512   8513     1  0.0000000  0.6508444  3
   8508   8506   8512   8514     1  0.0000000  0.6508444  3
   8512  15748  15744  15747     1  0.0000000  1.6038667  3
   8513   8512  15748  15744     1  0.0000000  1.6038667  3
   8514   8512  15748  15744     1  0.0000000  1.6038667  3
   8515  15771  15767  15770     1  0.0000000  1.6038667  3
   8516   8515  15771  15767     1  0.0000000  1.6038667  3
   8517   8515  15771  15767     1  0.0000000  1.6038667  3
   8520   8521   8533   8534     1  0.0000000  0.6508444  3
   8520   8521   8533   8535     1  0.0000000  0.6508444  3
   8520   8524   8536   8537     1  0.0000000  0.6508444  3
   8520   8524   8536   8538     1  0.0000000  0.6508444  3
   8520   8527   8530   8531     1  0.0000000  0.6508444  3
   8520   8527   8530   8532     1  0.0000000  0.6508444  3
   8521   8520   8524   8525     1  0.0000000  0.6508444  3
   8521   8520   8524   8526     1  0.0000000  0.6508444  3
   8521   8520   8527   8528     1  0.0000000  0.6508444  3
   8521   8520   8527   8529     1  0.0000000  0.6508444  3
   8521   8533   8545   8546     1  0.0000000  0.6508444  3
   8521   8533   8545   8547     1  0.0000000  0.6508444  3
   8522   8521   8520   8524     1  0.0000000  0.6508444  3
   8522   8521   8520   8527     1  0.0000000  0.6508444  3
   8522   8521   8520   8549     1  0.0000000  0.6508444  3
   8522   8521   8533   8545     1  0.0000000  0.6508444  3
   8522   8521   8533   8534     1  0.0000000  0.6508444  3
   8522   8521   8533   8535     1  0.0000000  0.6508444  3
   8523   8521   8520   8524     1  0.0000000  0.6508444  3
   8523   8521   8520   8527     1  0.0000000  0.6508444  3
   8523   8521   8520   8549     1  0.0000000  0.6508444  3
   8523   8521   8533   8545     1  0.0000000  0.6508444  3
   8523   8521   8533   8534     1  0.0000000  0.6508444  3
   8523   8521   8533   8535     1  0.0000000  0.6508444  3
   8524   8520   8527   8528     1  0.0000000  0.6508444  3
   8524   8520   8527   8529     1  0.0000000  0.6508444  3
   8524   8536   8542   8543     1  0.0000000  0.6508444  3
   8524   8536   8542   8544     1  0.0000000  0.6508444  3
   8525   8524   8520   8527     1  0.0000000  0.6508444  3
   8525   8524   8520   8549     1  0.0000000  0.6508444  3
   8525   8524   8536   8542     1  0.0000000  0.6508444  3
   8525   8524   8536   8537     1  0.0000000  0.6508444  3
   8525   8524   8536   8538     1  0.0000000  0.6508444  3
   8526   8524   8520   8527     1  0.0000000  0.6508444  3
   8526   8524   8520   8549     1  0.0000000  0.6508444  3
   8526   8524   8536   8542     1  0.0000000  0.6508444  3
   8526   8524   8536   8537     1  0.0000000  0.6508444  3
   8526   8524   8536   8538     1  0.0000000  0.6508444  3
   8527   8530   8539   8540     1  0.0000000  0.6508444  3
   8527   8530   8539   8541     1  0.0000000  0.6508444  3
   8528   8527   8520   8549     1  0.0000000  0.6508444  3
   8528   8527   8530   8539     1  0.0000000  0.6508444  3
   8528   8527   8530   8531     1  0.0000000  0.6508444  3
   8528   8527   8530   8532     1  0.0000000  0.6508444  3
   8529   8527   8520   8549     1  0.0000000  0.6508444  3
   8529   8527   8530   8539     1  0.0000000  0.6508444  3
   8529   8527   8530   8531     1  0.0000000  0.6508444  3
   8529   8527   8530   8532     1  0.0000000  0.6508444  3
   8530   8527   8520   8549     1  0.0000000  0.6508444  3
   8531   8530   8539   8548     1  0.0000000  1.0460000  1
   8531   8530   8539   8548     1  0.0000000  0.0000000  3
   8531   8530   8539   8540     1  0.0000000  0.6508444  3
   8531   8530   8539   8541     1  0.0000000  0.6508444  3
   8532   8530   8539   8548     1  0.0000000  1.0460000  1
   8532   8530   8539   8548     1  0.0000000  0.0000000  3
   8532   8530   8539   8540     1  0.0000000  0.6508444  3
   8532   8530   8539   8541     1  0.0000000  0.6508444  3
   8533   8521   8520   8549     1  0.0000000  0.6508444  3
   8534   8533   8545  15817     1  0.0000000  1.0460000  1
   8534   8533   8545  15817     1  0.0000000  0.0000000  3
   8534   8533   8545   8546     1  0.0000000  0.6508444  3
   8534   8533   8545   8547     1  0.0000000  0.6508444  3
   8535   8533   8545  15817     1  0.0000000  1.0460000  1
   8535   8533   8545  15817     1  0.0000000  0.0000000  3
   8535   8533   8545   8546     1  0.0000000  0.6508444  3
   8535   8533   8545   8547     1  0.0000000  0.6508444  3
   8536   8524   8520   8549     1  0.0000000  0.6508444  3
   8537   8536   8542  15794     1  0.0000000  1.0460000  1
   8537   8536   8542  15794     1  0.0000000  0.0000000  3
   8537   8536   8542   8543     1  0.0000000  0.6508444  3
   8537   8536   8542   8544     1  0.0000000  0.6508444  3
   8538   8536   8542  15794     1  0.0000000  1.0460000  1
   8538   8536   8542  15794     1  0.0000000  0.0000000  3
   8538   8536   8542   8543     1  0.0000000  0.6508444  3
   8538   8536   8542   8544     1  0.0000000  0.6508444  3
   8542  15794  15790  15793     1  0.0000000  1.6038667  3
   8543   8542  15794  15790     1  0.0000000  1.6038667  3
   8544   8542  15794  15790     1  0.0000000  1.6038667  3
   8545  15817  15813  15816     1  0.0000000  1.6038667  3
   8546   8545  15817  15813     1  0.0000000  1.6038667  3
   8547   8545  15817  15813     1  0.0000000  1.6038667  3
   8550   8551   8563   8564     1  0.0000000  0.6508444  3
   8550   8551   8563   8565     1  0.0000000  0.6508444  3
   8550   8554   8566   8567     1  0.0000000  0.6508444  3
   8550   8554   8566   8568     1  0.0000000  0.6508444  3
   8550   8557   8560   8561     1  0.0000000  0.6508444  3
   8550   8557   8560   8562     1  0.0000000  0.6508444  3
   8551   8550   8554   8555     1  0.0000000  0.6508444  3
   8551   8550   8554   8556     1  0.0000000  0.6508444  3
   8551   8550   8557   8558     1  0.0000000  0.6508444  3
   8551   8550   8557   8559     1  0.0000000  0.6508444  3
   8551   8563   8575   8576     1  0.0000000  0.6508444  3
   8551   8563   8575   8577     1  0.0000000  0.6508444  3
   8552   8551   8550   8554     1  0.0000000  0.6508444  3
   8552   8551   8550   8557     1  0.0000000  0.6508444  3
   8552   8551   8550   8579     1  0.0000000  0.6508444  3
   8552   8551   8563   8575     1  0.0000000  0.6508444  3
   8552   8551   8563   8564     1  0.0000000  0.6508444  3
   8552   8551   8563   8565     1  0.0000000  0.6508444  3
   8553   8551   8550   8554     1  0.0000000  0.6508444  3
   8553   8551   8550   8557     1  0.0000000  0.6508444  3
   8553   8551   8550   8579     1  0.0000000  0.6508444  3
   8553   8551   8563   8575     1  0.0000000  0.6508444  3
   8553   8551   8563   8564     1  0.0000000  0.6508444  3
   8553   8551   8563   8565     1  0.0000000  0.6508444  3
   8554   8550   8557   8558     1  0.0000000  0.6508444  3
   8554   8550   8557   8559     1  0.0000000  0.6508444  3
   8554   8566   8572   8573     1  0.0000000  0.6508444  3
   8554   8566   8572   8574     1  0.0000000  0.6508444  3
   8555   8554   8550   8557     1  0.0000000  0.6508444  3
   8555   8554   8550   8579     1  0.0000000  0.6508444  3
   8555   8554   8566   8572     1  0.0000000  0.6508444  3
   8555   8554   8566   8567     1  0.0000000  0.6508444  3
   8555   8554   8566   8568     1  0.0000000  0.6508444  3
   8556   8554   8550   8557     1  0.0000000  0.6508444  3
   8556   8554   8550   8579     1  0.0000000  0.6508444  3
   8556   8554   8566   8572     1  0.0000000  0.6508444  3
   8556   8554   8566   8567     1  0.0000000  0.6508444  3
   8556   8554   8566   8568     1  0.0000000  0.6508444  3
   8557   8560   8569   8570     1  0.0000000  0.6508444  3
   8557   8560   8569   8571     1  0.0000000  0.6508444  3
   8558   8557   8550   8579     1  0.0000000  0.6508444  3
   8558   8557   8560   8569     1  0.0000000  0.6508444  3
   8558   8557   8560   8561     1  0.0000000  0.6508444  3
   8558   8557   8560   8562     1  0.0000000  0.6508444  3
   8559   8557   8550   8579     1  0.0000000  0.6508444  3
   8559   8557   8560   8569     1  0.0000000  0.6508444  3
   8559   8557   8560   8561     1  0.0000000  0.6508444  3
   8559   8557   8560   8562     1  0.0000000  0.6508444  3
   8560   8557   8550   8579     1  0.0000000  0.6508444  3
   8561   8560   8569   8578     1  0.0000000  1.0460000  1
   8561   8560   8569   8578     1  0.0000000  0.0000000  3
   8561   8560   8569   8570     1  0.0000000  0.6508444  3
   8561   8560   8569   8571     1  0.0000000  0.6508444  3
   8562   8560   8569   8578     1  0.0000000  1.0460000  1
   8562   8560   8569   8578     1  0.0000000  0.0000000  3
   8562   8560   8569   8570     1  0.0000000  0.6508444  3
   8562   8560   8569   8571     1  0.0000000  0.6508444  3
   8563   8551   8550   8579     1  0.0000000  0.6508444  3
   8564   8563   8575  15863     1  0.0000000  1.0460000  1
   8564   8563   8575  15863     1  0.0000000  0.0000000  3
   8564   8563   8575   8576     1  0.0000000  0.6508444  3
   8564   8563   8575   8577     1  0.0000000  0.6508444  3
   8565   8563   8575  15863     1  0.0000000  1.0460000  1
   8565   8563   8575  15863     1  0.0000000  0.0000000  3
   8565   8563   8575   8576     1  0.0000000  0.6508444  3
   8565   8563   8575   8577     1  0.0000000  0.6508444  3
   8566   8554   8550   8579     1  0.0000000  0.6508444  3
   8567   8566   8572  15840     1  0.0000000  1.0460000  1
   8567   8566   8572  15840     1  0.0000000  0.0000000  3
   8567   8566   8572   8573     1  0.0000000  0.6508444  3
   8567   8566   8572   8574     1  0.0000000  0.6508444  3
   8568   8566   8572  15840     1  0.0000000  1.0460000  1
   8568   8566   8572  15840     1  0.0000000  0.0000000  3
   8568   8566   8572   8573     1  0.0000000  0.6508444  3
   8568   8566   8572   8574     1  0.0000000  0.6508444  3
   8572  15840  15836  15839     1  0.0000000  1.6038667  3
   8573   8572  15840  15836     1  0.0000000  1.6038667  3
   8574   8572  15840  15836     1  0.0000000  1.6038667  3
   8575  15863  15859  15862     1  0.0000000  1.6038667  3
   8576   8575  15863  15859     1  0.0000000  1.6038667  3
   8577   8575  15863  15859     1  0.0000000  1.6038667  3
   8580   8581   8593   8594     1  0.0000000  0.6508444  3
   8580   8581   8593   8595     1  0.0000000  0.6508444  3
   8580   8584   8596   8597     1  0.0000000  0.6508444  3
   8580   8584   8596   8598     1  0.0000000  0.6508444  3
   8580   8587   8590   8591     1  0.0000000  0.6508444  3
   8580   8587   8590   8592     1  0.0000000  0.6508444  3
   8581   8580   8584   8585     1  0.0000000  0.6508444  3
   8581   8580   8584   8586     1  0.0000000  0.6508444  3
   8581   8580   8587   8588     1  0.0000000  0.6508444  3
   8581   8580   8587   8589     1  0.0000000  0.6508444  3
   8581   8593   8605   8606     1  0.0000000  0.6508444  3
   8581   8593   8605   8607     1  0.0000000  0.6508444  3
   8582   8581   8580   8584     1  0.0000000  0.6508444  3
   8582   8581   8580   8587     1  0.0000000  0.6508444  3
   8582   8581   8580   8609     1  0.0000000  0.6508444  3
   8582   8581   8593   8605     1  0.0000000  0.6508444  3
   8582   8581   8593   8594     1  0.0000000  0.6508444  3
   8582   8581   8593   8595     1  0.0000000  0.6508444  3
   8583   8581   8580   8584     1  0.0000000  0.6508444  3
   8583   8581   8580   8587     1  0.0000000  0.6508444  3
   8583   8581   8580   8609     1  0.0000000  0.6508444  3
   8583   8581   8593   8605     1  0.0000000  0.6508444  3
   8583   8581   8593   8594     1  0.0000000  0.6508444  3
   8583   8581   8593   8595     1  0.0000000  0.6508444  3
   8584   8580   8587   8588     1  0.0000000  0.6508444  3
   8584   8580   8587   8589     1  0.0000000  0.6508444  3
   8584   8596   8602   8603     1  0.0000000  0.6508444  3
   8584   8596   8602   8604     1  0.0000000  0.6508444  3
   8585   8584   8580   8587     1  0.0000000  0.6508444  3
   8585   8584   8580   8609     1  0.0000000  0.6508444  3
   8585   8584   8596   8602     1  0.0000000  0.6508444  3
   8585   8584   8596   8597     1  0.0000000  0.6508444  3
   8585   8584   8596   8598     1  0.0000000  0.6508444  3
   8586   8584   8580   8587     1  0.0000000  0.6508444  3
   8586   8584   8580   8609     1  0.0000000  0.6508444  3
   8586   8584   8596   8602     1  0.0000000  0.6508444  3
   8586   8584   8596   8597     1  0.0000000  0.6508444  3
   8586   8584   8596   8598     1  0.0000000  0.6508444  3
   8587   8590   8599   8600     1  0.0000000  0.6508444  3
   8587   8590   8599   8601     1  0.0000000  0.6508444  3
   8588   8587   8580   8609     1  0.0000000  0.6508444  3
   8588   8587   8590   8599     1  0.0000000  0.6508444  3
   8588   8587   8590   8591     1  0.0000000  0.6508444  3
   8588   8587   8590   8592     1  0.0000000  0.6508444  3
   8589   8587   8580   8609     1  0.0000000  0.6508444  3
   8589   8587   8590   8599     1  0.0000000  0.6508444  3
   8589   8587   8590   8591     1  0.0000000  0.6508444  3
   8589   8587   8590   8592     1  0.0000000  0.6508444  3
   8590   8587   8580   8609     1  0.0000000  0.6508444  3
   8591   8590   8599   8608     1  0.0000000  1.0460000  1
   8591   8590   8599   8608     1  0.0000000  0.0000000  3
   8591   8590   8599   8600     1  0.0000000  0.6508444  3
   8591   8590   8599   8601     1  0.0000000  0.6508444  3
   8592   8590   8599   8608     1  0.0000000  1.0460000  1
   8592   8590   8599   8608     1  0.0000000  0.0000000  3
   8592   8590   8599   8600     1  0.0000000  0.6508444  3
   8592   8590   8599   8601     1  0.0000000  0.6508444  3
   8593   8581   8580   8609     1  0.0000000  0.6508444  3
   8594   8593   8605  15909     1  0.0000000  1.0460000  1
   8594   8593   8605  15909     1  0.0000000  0.0000000  3
   8594   8593   8605   8606     1  0.0000000  0.6508444  3
   8594   8593   8605   8607     1  0.0000000  0.6508444  3
   8595   8593   8605  15909     1  0.0000000  1.0460000  1
   8595   8593   8605  15909     1  0.0000000  0.0000000  3
   8595   8593   8605   8606     1  0.0000000  0.6508444  3
   8595   8593   8605   8607     1  0.0000000  0.6508444  3
   8596   8584   8580   8609     1  0.0000000  0.6508444  3
   8597   8596   8602  15886     1  0.0000000  1.0460000  1
   8597   8596   8602  15886     1  0.0000000  0.0000000  3
   8597   8596   8602   8603     1  0.0000000  0.6508444  3
   8597   8596   8602   8604     1  0.0000000  0.6508444  3
   8598   8596   8602  15886     1  0.0000000  1.0460000  1
   8598   8596   8602  15886     1  0.0000000  0.0000000  3
   8598   8596   8602   8603     1  0.0000000  0.6508444  3
   8598   8596   8602   8604     1  0.0000000  0.6508444  3
   8602  15886  15882  15885     1  0.0000000  1.6038667  3
   8603   8602  15886  15882     1  0.0000000  1.6038667  3
   8604   8602  15886  15882     1  0.0000000  1.6038667  3
   8605  15909  15905  15908     1  0.0000000  1.6038667  3
   8606   8605  15909  15905     1  0.0000000  1.6038667  3
   8607   8605  15909  15905     1  0.0000000  1.6038667  3
   8610   8611   8623   8624     1  0.0000000  0.6508444  3
   8610   8611   8623   8625     1  0.0000000  0.6508444  3
   8610   8614   8626   8627     1  0.0000000  0.6508444  3
   8610   8614   8626   8628     1  0.0000000  0.6508444  3
   8610   8617   8620   8621     1  0.0000000  0.6508444  3
   8610   8617   8620   8622     1  0.0000000  0.6508444  3
   8611   8610   8614   8615     1  0.0000000  0.6508444  3
   8611   8610   8614   8616     1  0.0000000  0.6508444  3
   8611   8610   8617   8618     1  0.0000000  0.6508444  3
   8611   8610   8617   8619     1  0.0000000  0.6508444  3
   8611   8623   8635   8636     1  0.0000000  0.6508444  3
   8611   8623   8635   8637     1  0.0000000  0.6508444  3
   8612   8611   8610   8614     1  0.0000000  0.6508444  3
   8612   8611   8610   8617     1  0.0000000  0.6508444  3
   8612   8611   8610   8639     1  0.0000000  0.6508444  3
   8612   8611   8623   8635     1  0.0000000  0.6508444  3
   8612   8611   8623   8624     1  0.0000000  0.6508444  3
   8612   8611   8623   8625     1  0.0000000  0.6508444  3
   8613   8611   8610   8614     1  0.0000000  0.6508444  3
   8613   8611   8610   8617     1  0.0000000  0.6508444  3
   8613   8611   8610   8639     1  0.0000000  0.6508444  3
   8613   8611   8623   8635     1  0.0000000  0.6508444  3
   8613   8611   8623   8624     1  0.0000000  0.6508444  3
   8613   8611   8623   8625     1  0.0000000  0.6508444  3
   8614   8610   8617   8618     1  0.0000000  0.6508444  3
   8614   8610   8617   8619     1  0.0000000  0.6508444  3
   8614   8626   8632   8633     1  0.0000000  0.6508444  3
   8614   8626   8632   8634     1  0.0000000  0.6508444  3
   8615   8614   8610   8617     1  0.0000000  0.6508444  3
   8615   8614   8610   8639     1  0.0000000  0.6508444  3
   8615   8614   8626   8632     1  0.0000000  0.6508444  3
   8615   8614   8626   8627     1  0.0000000  0.6508444  3
   8615   8614   8626   8628     1  0.0000000  0.6508444  3
   8616   8614   8610   8617     1  0.0000000  0.6508444  3
   8616   8614   8610   8639     1  0.0000000  0.6508444  3
   8616   8614   8626   8632     1  0.0000000  0.6508444  3
   8616   8614   8626   8627     1  0.0000000  0.6508444  3
   8616   8614   8626   8628     1  0.0000000  0.6508444  3
   8617   8620   8629   8630     1  0.0000000  0.6508444  3
   8617   8620   8629   8631     1  0.0000000  0.6508444  3
   8618   8617   8610   8639     1  0.0000000  0.6508444  3
   8618   8617   8620   8629     1  0.0000000  0.6508444  3
   8618   8617   8620   8621     1  0.0000000  0.6508444  3
   8618   8617   8620   8622     1  0.0000000  0.6508444  3
   8619   8617   8610   8639     1  0.0000000  0.6508444  3
   8619   8617   8620   8629     1  0.0000000  0.6508444  3
   8619   8617   8620   8621     1  0.0000000  0.6508444  3
   8619   8617   8620   8622     1  0.0000000  0.6508444  3
   8620   8617   8610   8639     1  0.0000000  0.6508444  3
   8621   8620   8629   8638     1  0.0000000  1.0460000  1
   8621   8620   8629   8638     1  0.0000000  0.0000000  3
   8621   8620   8629   8630     1  0.0000000  0.6508444  3
   8621   8620   8629   8631     1  0.0000000  0.6508444  3
   8622   8620   8629   8638     1  0.0000000  1.0460000  1
   8622   8620   8629   8638     1  0.0000000  0.0000000  3
   8622   8620   8629   8630     1  0.0000000  0.6508444  3
   8622   8620   8629   8631     1  0.0000000  0.6508444  3
   8623   8611   8610   8639     1  0.0000000  0.6508444  3
   8624   8623   8635  15955     1  0.0000000  1.0460000  1
   8624   8623   8635  15955     1  0.0000000  0.0000000  3
   8624   8623   8635   8636     1  0.0000000  0.6508444  3
   8624   8623   8635   8637     1  0.0000000  0.6508444  3
   8625   8623   8635  15955     1  0.0000000  1.0460000  1
   8625   8623   8635  15955     1  0.0000000  0.0000000  3
   8625   8623   8635   8636     1  0.0000000  0.6508444  3
   8625   8623   8635   8637     1  0.0000000  0.6508444  3
   8626   8614   8610   8639     1  0.0000000  0.6508444  3
   8627   8626   8632  15932     1  0.0000000  1.0460000  1
   8627   8626   8632  15932     1  0.0000000  0.0000000  3
   8627   8626   8632   8633     1  0.0000000  0.6508444  3
   8627   8626   8632   8634     1  0.0000000  0.6508444  3
   8628   8626   8632  15932     1  0.0000000  1.0460000  1
   8628   8626   8632  15932     1  0.0000000  0.0000000  3
   8628   8626   8632   8633     1  0.0000000  0.6508444  3
   8628   8626   8632   8634     1  0.0000000  0.6508444  3
   8632  15932  15928  15931     1  0.0000000  1.6038667  3
   8633   8632  15932  15928     1  0.0000000  1.6038667  3
   8634   8632  15932  15928     1  0.0000000  1.6038667  3
   8635  15955  15951  15954     1  0.0000000  1.6038667  3
   8636   8635  15955  15951     1  0.0000000  1.6038667  3
   8637   8635  15955  15951     1  0.0000000  1.6038667  3
   8640   8641   8653   8654     1  0.0000000  0.6508444  3
   8640   8641   8653   8655     1  0.0000000  0.6508444  3
   8640   8644   8656   8657     1  0.0000000  0.6508444  3
   8640   8644   8656   8658     1  0.0000000  0.6508444  3
   8640   8647   8650   8651     1  0.0000000  0.6508444  3
   8640   8647   8650   8652     1  0.0000000  0.6508444  3
   8641   8640   8644   8645     1  0.0000000  0.6508444  3
   8641   8640   8644   8646     1  0.0000000  0.6508444  3
   8641   8640   8647   8648     1  0.0000000  0.6508444  3
   8641   8640   8647   8649     1  0.0000000  0.6508444  3
   8641   8653   8665   8666     1  0.0000000  0.6508444  3
   8641   8653   8665   8667     1  0.0000000  0.6508444  3
   8642   8641   8640   8644     1  0.0000000  0.6508444  3
   8642   8641   8640   8647     1  0.0000000  0.6508444  3
   8642   8641   8640   8669     1  0.0000000  0.6508444  3
   8642   8641   8653   8665     1  0.0000000  0.6508444  3
   8642   8641   8653   8654     1  0.0000000  0.6508444  3
   8642   8641   8653   8655     1  0.0000000  0.6508444  3
   8643   8641   8640   8644     1  0.0000000  0.6508444  3
   8643   8641   8640   8647     1  0.0000000  0.6508444  3
   8643   8641   8640   8669     1  0.0000000  0.6508444  3
   8643   8641   8653   8665     1  0.0000000  0.6508444  3
   8643   8641   8653   8654     1  0.0000000  0.6508444  3
   8643   8641   8653   8655     1  0.0000000  0.6508444  3
   8644   8640   8647   8648     1  0.0000000  0.6508444  3
   8644   8640   8647   8649     1  0.0000000  0.6508444  3
   8644   8656   8662   8663     1  0.0000000  0.6508444  3
   8644   8656   8662   8664     1  0.0000000  0.6508444  3
   8645   8644   8640   8647     1  0.0000000  0.6508444  3
   8645   8644   8640   8669     1  0.0000000  0.6508444  3
   8645   8644   8656   8662     1  0.0000000  0.6508444  3
   8645   8644   8656   8657     1  0.0000000  0.6508444  3
   8645   8644   8656   8658     1  0.0000000  0.6508444  3
   8646   8644   8640   8647     1  0.0000000  0.6508444  3
   8646   8644   8640   8669     1  0.0000000  0.6508444  3
   8646   8644   8656   8662     1  0.0000000  0.6508444  3
   8646   8644   8656   8657     1  0.0000000  0.6508444  3
   8646   8644   8656   8658     1  0.0000000  0.6508444  3
   8647   8650   8659   8660     1  0.0000000  0.6508444  3
   8647   8650   8659   8661     1  0.0000000  0.6508444  3
   8648   8647   8640   8669     1  0.0000000  0.6508444  3
   8648   8647   8650   8659     1  0.0000000  0.6508444  3
   8648   8647   8650   8651     1  0.0000000  0.6508444  3
   8648   8647   8650   8652     1  0.0000000  0.6508444  3
   8649   8647   8640   8669     1  0.0000000  0.6508444  3
   8649   8647   8650   8659     1  0.0000000  0.6508444  3
   8649   8647   8650   8651     1  0.0000000  0.6508444  3
   8649   8647   8650   8652     1  0.0000000  0.6508444  3
   8650   8647   8640   8669     1  0.0000000  0.6508444  3
   8651   8650   8659   8668     1  0.0000000  1.0460000  1
   8651   8650   8659   8668     1  0.0000000  0.0000000  3
   8651   8650   8659   8660     1  0.0000000  0.6508444  3
   8651   8650   8659   8661     1  0.0000000  0.6508444  3
   8652   8650   8659   8668     1  0.0000000  1.0460000  1
   8652   8650   8659   8668     1  0.0000000  0.0000000  3
   8652   8650   8659   8660     1  0.0000000  0.6508444  3
   8652   8650   8659   8661     1  0.0000000  0.6508444  3
   8653   8641   8640   8669     1  0.0000000  0.6508444  3
   8654   8653   8665  16001     1  0.0000000  1.0460000  1
   8654   8653   8665  16001     1  0.0000000  0.0000000  3
   8654   8653   8665   8666     1  0.0000000  0.6508444  3
   8654   8653   8665   8667     1  0.0000000  0.6508444  3
   8655   8653   8665  16001     1  0.0000000  1.0460000  1
   8655   8653   8665  16001     1  0.0000000  0.0000000  3
   8655   8653   8665   8666     1  0.0000000  0.6508444  3
   8655   8653   8665   8667     1  0.0000000  0.6508444  3
   8656   8644   8640   8669     1  0.0000000  0.6508444  3
   8657   8656   8662  15978     1  0.0000000  1.0460000  1
   8657   8656   8662  15978     1  0.0000000  0.0000000  3
   8657   8656   8662   8663     1  0.0000000  0.6508444  3
   8657   8656   8662   8664     1  0.0000000  0.6508444  3
   8658   8656   8662  15978     1  0.0000000  1.0460000  1
   8658   8656   8662  15978     1  0.0000000  0.0000000  3
   8658   8656   8662   8663     1  0.0000000  0.6508444  3
   8658   8656   8662   8664     1  0.0000000  0.6508444  3
   8662  15978  15974  15977     1  0.0000000  1.6038667  3
   8663   8662  15978  15974     1  0.0000000  1.6038667  3
   8664   8662  15978  15974     1  0.0000000  1.6038667  3
   8665  16001  15997  16000     1  0.0000000  1.6038667  3
   8666   8665  16001  15997     1  0.0000000  1.6038667  3
   8667   8665  16001  15997     1  0.0000000  1.6038667  3
   8670   8671   8683   8684     1  0.0000000  0.6508444  3
   8670   8671   8683   8685     1  0.0000000  0.6508444  3
   8670   8674   8686   8687     1  0.0000000  0.6508444  3
   8670   8674   8686   8688     1  0.0000000  0.6508444  3
   8670   8677   8680   8681     1  0.0000000  0.6508444  3
   8670   8677   8680   8682     1  0.0000000  0.6508444  3
   8671   8670   8674   8675     1  0.0000000  0.6508444  3
   8671   8670   8674   8676     1  0.0000000  0.6508444  3
   8671   8670   8677   8678     1  0.0000000  0.6508444  3
   8671   8670   8677   8679     1  0.0000000  0.6508444  3
   8671   8683   8695   8696     1  0.0000000  0.6508444  3
   8671   8683   8695   8697     1  0.0000000  0.6508444  3
   8672   8671   8670   8674     1  0.0000000  0.6508444  3
   8672   8671   8670   8677     1  0.0000000  0.6508444  3
   8672   8671   8670   8699     1  0.0000000  0.6508444  3
   8672   8671   8683   8695     1  0.0000000  0.6508444  3
   8672   8671   8683   8684     1  0.0000000  0.6508444  3
   8672   8671   8683   8685     1  0.0000000  0.6508444  3
   8673   8671   8670   8674     1  0.0000000  0.6508444  3
   8673   8671   8670   8677     1  0.0000000  0.6508444  3
   8673   8671   8670   8699     1  0.0000000  0.6508444  3
   8673   8671   8683   8695     1  0.0000000  0.6508444  3
   8673   8671   8683   8684     1  0.0000000  0.6508444  3
   8673   8671   8683   8685     1  0.0000000  0.6508444  3
   8674   8670   8677   8678     1  0.0000000  0.6508444  3
   8674   8670   8677   8679     1  0.0000000  0.6508444  3
   8674   8686   8692   8693     1  0.0000000  0.6508444  3
   8674   8686   8692   8694     1  0.0000000  0.6508444  3
   8675   8674   8670   8677     1  0.0000000  0.6508444  3
   8675   8674   8670   8699     1  0.0000000  0.6508444  3
   8675   8674   8686   8692     1  0.0000000  0.6508444  3
   8675   8674   8686   8687     1  0.0000000  0.6508444  3
   8675   8674   8686   8688     1  0.0000000  0.6508444  3
   8676   8674   8670   8677     1  0.0000000  0.6508444  3
   8676   8674   8670   8699     1  0.0000000  0.6508444  3
   8676   8674   8686   8692     1  0.0000000  0.6508444  3
   8676   8674   8686   8687     1  0.0000000  0.6508444  3
   8676   8674   8686   8688     1  0.0000000  0.6508444  3
   8677   8680   8689   8690     1  0.0000000  0.6508444  3
   8677   8680   8689   8691     1  0.0000000  0.6508444  3
   8678   8677   8670   8699     1  0.0000000  0.6508444  3
   8678   8677   8680   8689     1  0.0000000  0.6508444  3
   8678   8677   8680   8681     1  0.0000000  0.6508444  3
   8678   8677   8680   8682     1  0.0000000  0.6508444  3
   8679   8677   8670   8699     1  0.0000000  0.6508444  3
   8679   8677   8680   8689     1  0.0000000  0.6508444  3
   8679   8677   8680   8681     1  0.0000000  0.6508444  3
   8679   8677   8680   8682     1  0.0000000  0.6508444  3
   8680   8677   8670   8699     1  0.0000000  0.6508444  3
   8681   8680   8689   8698     1  0.0000000  1.0460000  1
   8681   8680   8689   8698     1  0.0000000  0.0000000  3
   8681   8680   8689   8690     1  0.0000000  0.6508444  3
   8681   8680   8689   8691     1  0.0000000  0.6508444  3
   8682   8680   8689   8698     1  0.0000000  1.0460000  1
   8682   8680   8689   8698     1  0.0000000  0.0000000  3
   8682   8680   8689   8690     1  0.0000000  0.6508444  3
   8682   8680   8689   8691     1  0.0000000  0.6508444  3
   8683   8671   8670   8699     1  0.0000000  0.6508444  3
   8684   8683   8695  16047     1  0.0000000  1.0460000  1
   8684   8683   8695  16047     1  0.0000000  0.0000000  3
   8684   8683   8695   8696     1  0.0000000  0.6508444  3
   8684   8683   8695   8697     1  0.0000000  0.6508444  3
   8685   8683   8695  16047     1  0.0000000  1.0460000  1
   8685   8683   8695  16047     1  0.0000000  0.0000000  3
   8685   8683   8695   8696     1  0.0000000  0.6508444  3
   8685   8683   8695   8697     1  0.0000000  0.6508444  3
   8686   8674   8670   8699     1  0.0000000  0.6508444  3
   8687   8686   8692  16024     1  0.0000000  1.0460000  1
   8687   8686   8692  16024     1  0.0000000  0.0000000  3
   8687   8686   8692   8693     1  0.0000000  0.6508444  3
   8687   8686   8692   8694     1  0.0000000  0.6508444  3
   8688   8686   8692  16024     1  0.0000000  1.0460000  1
   8688   8686   8692  16024     1  0.0000000  0.0000000  3
   8688   8686   8692   8693     1  0.0000000  0.6508444  3
   8688   8686   8692   8694     1  0.0000000  0.6508444  3
   8692  16024  16020  16023     1  0.0000000  1.6038667  3
   8693   8692  16024  16020     1  0.0000000  1.6038667  3
   8694   8692  16024  16020     1  0.0000000  1.6038667  3
   8695  16047  16043  16046     1  0.0000000  1.6038667  3
   8696   8695  16047  16043     1  0.0000000  1.6038667  3
   8697   8695  16047  16043     1  0.0000000  1.6038667  3
   8700   8701   8713   8714     1  0.0000000  0.6508444  3
   8700   8701   8713   8715     1  0.0000000  0.6508444  3
   8700   8704   8716   8717     1  0.0000000  0.6508444  3
   8700   8704   8716   8718     1  0.0000000  0.6508444  3
   8700   8707   8710   8711     1  0.0000000  0.6508444  3
   8700   8707   8710   8712     1  0.0000000  0.6508444  3
   8701   8700   8704   8705     1  0.0000000  0.6508444  3
   8701   8700   8704   8706     1  0.0000000  0.6508444  3
   8701   8700   8707   8708     1  0.0000000  0.6508444  3
   8701   8700   8707   8709     1  0.0000000  0.6508444  3
   8701   8713   8725   8726     1  0.0000000  0.6508444  3
   8701   8713   8725   8727     1  0.0000000  0.6508444  3
   8702   8701   8700   8704     1  0.0000000  0.6508444  3
   8702   8701   8700   8707     1  0.0000000  0.6508444  3
   8702   8701   8700   8729     1  0.0000000  0.6508444  3
   8702   8701   8713   8725     1  0.0000000  0.6508444  3
   8702   8701   8713   8714     1  0.0000000  0.6508444  3
   8702   8701   8713   8715     1  0.0000000  0.6508444  3
   8703   8701   8700   8704     1  0.0000000  0.6508444  3
   8703   8701   8700   8707     1  0.0000000  0.6508444  3
   8703   8701   8700   8729     1  0.0000000  0.6508444  3
   8703   8701   8713   8725     1  0.0000000  0.6508444  3
   8703   8701   8713   8714     1  0.0000000  0.6508444  3
   8703   8701   8713   8715     1  0.0000000  0.6508444  3
   8704   8700   8707   8708     1  0.0000000  0.6508444  3
   8704   8700   8707   8709     1  0.0000000  0.6508444  3
   8704   8716   8722   8723     1  0.0000000  0.6508444  3
   8704   8716   8722   8724     1  0.0000000  0.6508444  3
   8705   8704   8700   8707     1  0.0000000  0.6508444  3
   8705   8704   8700   8729     1  0.0000000  0.6508444  3
   8705   8704   8716   8722     1  0.0000000  0.6508444  3
   8705   8704   8716   8717     1  0.0000000  0.6508444  3
   8705   8704   8716   8718     1  0.0000000  0.6508444  3
   8706   8704   8700   8707     1  0.0000000  0.6508444  3
   8706   8704   8700   8729     1  0.0000000  0.6508444  3
   8706   8704   8716   8722     1  0.0000000  0.6508444  3
   8706   8704   8716   8717     1  0.0000000  0.6508444  3
   8706   8704   8716   8718     1  0.0000000  0.6508444  3
   8707   8710   8719   8720     1  0.0000000  0.6508444  3
   8707   8710   8719   8721     1  0.0000000  0.6508444  3
   8708   8707   8700   8729     1  0.0000000  0.6508444  3
   8708   8707   8710   8719     1  0.0000000  0.6508444  3
   8708   8707   8710   8711     1  0.0000000  0.6508444  3
   8708   8707   8710   8712     1  0.0000000  0.6508444  3
   8709   8707   8700   8729     1  0.0000000  0.6508444  3
   8709   8707   8710   8719     1  0.0000000  0.6508444  3
   8709   8707   8710   8711     1  0.0000000  0.6508444  3
   8709   8707   8710   8712     1  0.0000000  0.6508444  3
   8710   8707   8700   8729     1  0.0000000  0.6508444  3
   8711   8710   8719   8728     1  0.0000000  1.0460000  1
   8711   8710   8719   8728     1  0.0000000  0.0000000  3
   8711   8710   8719   8720     1  0.0000000  0.6508444  3
   8711   8710   8719   8721     1  0.0000000  0.6508444  3
   8712   8710   8719   8728     1  0.0000000  1.0460000  1
   8712   8710   8719   8728     1  0.0000000  0.0000000  3
   8712   8710   8719   8720     1  0.0000000  0.6508444  3
   8712   8710   8719   8721     1  0.0000000  0.6508444  3
   8713   8701   8700   8729     1  0.0000000  0.6508444  3
   8714   8713   8725  16093     1  0.0000000  1.0460000  1
   8714   8713   8725  16093     1  0.0000000  0.0000000  3
   8714   8713   8725   8726     1  0.0000000  0.6508444  3
   8714   8713   8725   8727     1  0.0000000  0.6508444  3
   8715   8713   8725  16093     1  0.0000000  1.0460000  1
   8715   8713   8725  16093     1  0.0000000  0.0000000  3
   8715   8713   8725   8726     1  0.0000000  0.6508444  3
   8715   8713   8725   8727     1  0.0000000  0.6508444  3
   8716   8704   8700   8729     1  0.0000000  0.6508444  3
   8717   8716   8722  16070     1  0.0000000  1.0460000  1
   8717   8716   8722  16070     1  0.0000000  0.0000000  3
   8717   8716   8722   8723     1  0.0000000  0.6508444  3
   8717   8716   8722   8724     1  0.0000000  0.6508444  3
   8718   8716   8722  16070     1  0.0000000  1.0460000  1
   8718   8716   8722  16070     1  0.0000000  0.0000000  3
   8718   8716   8722   8723     1  0.0000000  0.6508444  3
   8718   8716   8722   8724     1  0.0000000  0.6508444  3
   8722  16070  16066  16069     1  0.0000000  1.6038667  3
   8723   8722  16070  16066     1  0.0000000  1.6038667  3
   8724   8722  16070  16066     1  0.0000000  1.6038667  3
   8725  16093  16089  16092     1  0.0000000  1.6038667  3
   8726   8725  16093  16089     1  0.0000000  1.6038667  3
   8727   8725  16093  16089     1  0.0000000  1.6038667  3
   8730   8731   8743   8744     1  0.0000000  0.6508444  3
   8730   8731   8743   8745     1  0.0000000  0.6508444  3
   8730   8734   8746   8747     1  0.0000000  0.6508444  3
   8730   8734   8746   8748     1  0.0000000  0.6508444  3
   8730   8737   8740   8741     1  0.0000000  0.6508444  3
   8730   8737   8740   8742     1  0.0000000  0.6508444  3
   8731   8730   8734   8735     1  0.0000000  0.6508444  3
   8731   8730   8734   8736     1  0.0000000  0.6508444  3
   8731   8730   8737   8738     1  0.0000000  0.6508444  3
   8731   8730   8737   8739     1  0.0000000  0.6508444  3
   8731   8743   8755   8756     1  0.0000000  0.6508444  3
   8731   8743   8755   8757     1  0.0000000  0.6508444  3
   8732   8731   8730   8734     1  0.0000000  0.6508444  3
   8732   8731   8730   8737     1  0.0000000  0.6508444  3
   8732   8731   8730   8759     1  0.0000000  0.6508444  3
   8732   8731   8743   8755     1  0.0000000  0.6508444  3
   8732   8731   8743   8744     1  0.0000000  0.6508444  3
   8732   8731   8743   8745     1  0.0000000  0.6508444  3
   8733   8731   8730   8734     1  0.0000000  0.6508444  3
   8733   8731   8730   8737     1  0.0000000  0.6508444  3
   8733   8731   8730   8759     1  0.0000000  0.6508444  3
   8733   8731   8743   8755     1  0.0000000  0.6508444  3
   8733   8731   8743   8744     1  0.0000000  0.6508444  3
   8733   8731   8743   8745     1  0.0000000  0.6508444  3
   8734   8730   8737   8738     1  0.0000000  0.6508444  3
   8734   8730   8737   8739     1  0.0000000  0.6508444  3
   8734   8746   8752   8753     1  0.0000000  0.6508444  3
   8734   8746   8752   8754     1  0.0000000  0.6508444  3
   8735   8734   8730   8737     1  0.0000000  0.6508444  3
   8735   8734   8730   8759     1  0.0000000  0.6508444  3
   8735   8734   8746   8752     1  0.0000000  0.6508444  3
   8735   8734   8746   8747     1  0.0000000  0.6508444  3
   8735   8734   8746   8748     1  0.0000000  0.6508444  3
   8736   8734   8730   8737     1  0.0000000  0.6508444  3
   8736   8734   8730   8759     1  0.0000000  0.6508444  3
   8736   8734   8746   8752     1  0.0000000  0.6508444  3
   8736   8734   8746   8747     1  0.0000000  0.6508444  3
   8736   8734   8746   8748     1  0.0000000  0.6508444  3
   8737   8740   8749   8750     1  0.0000000  0.6508444  3
   8737   8740   8749   8751     1  0.0000000  0.6508444  3
   8738   8737   8730   8759     1  0.0000000  0.6508444  3
   8738   8737   8740   8749     1  0.0000000  0.6508444  3
   8738   8737   8740   8741     1  0.0000000  0.6508444  3
   8738   8737   8740   8742     1  0.0000000  0.6508444  3
   8739   8737   8730   8759     1  0.0000000  0.6508444  3
   8739   8737   8740   8749     1  0.0000000  0.6508444  3
   8739   8737   8740   8741     1  0.0000000  0.6508444  3
   8739   8737   8740   8742     1  0.0000000  0.6508444  3
   8740   8737   8730   8759     1  0.0000000  0.6508444  3
   8741   8740   8749   8758     1  0.0000000  1.0460000  1
   8741   8740   8749   8758     1  0.0000000  0.0000000  3
   8741   8740   8749   8750     1  0.0000000  0.6508444  3
   8741   8740   8749   8751     1  0.0000000  0.6508444  3
   8742   8740   8749   8758     1  0.0000000  1.0460000  1
   8742   8740   8749   8758     1  0.0000000  0.0000000  3
   8742   8740   8749   8750     1  0.0000000  0.6508444  3
   8742   8740   8749   8751     1  0.0000000  0.6508444  3
   8743   8731   8730   8759     1  0.0000000  0.6508444  3
   8744   8743   8755  16139     1  0.0000000  1.0460000  1
   8744   8743   8755  16139     1  0.0000000  0.0000000  3
   8744   8743   8755   8756     1  0.0000000  0.6508444  3
   8744   8743   8755   8757     1  0.0000000  0.6508444  3
   8745   8743   8755  16139     1  0.0000000  1.0460000  1
   8745   8743   8755  16139     1  0.0000000  0.0000000  3
   8745   8743   8755   8756     1  0.0000000  0.6508444  3
   8745   8743   8755   8757     1  0.0000000  0.6508444  3
   8746   8734   8730   8759     1  0.0000000  0.6508444  3
   8747   8746   8752  16116     1  0.0000000  1.0460000  1
   8747   8746   8752  16116     1  0.0000000  0.0000000  3
   8747   8746   8752   8753     1  0.0000000  0.6508444  3
   8747   8746   8752   8754     1  0.0000000  0.6508444  3
   8748   8746   8752  16116     1  0.0000000  1.0460000  1
   8748   8746   8752  16116     1  0.0000000  0.0000000  3
   8748   8746   8752   8753     1  0.0000000  0.6508444  3
   8748   8746   8752   8754     1  0.0000000  0.6508444  3
   8752  16116  16112  16115     1  0.0000000  1.6038667  3
   8753   8752  16116  16112     1  0.0000000  1.6038667  3
   8754   8752  16116  16112     1  0.0000000  1.6038667  3
   8755  16139  16135  16138     1  0.0000000  1.6038667  3
   8756   8755  16139  16135     1  0.0000000  1.6038667  3
   8757   8755  16139  16135     1  0.0000000  1.6038667  3
   8760   8761   8773   8774     1  0.0000000  0.6508444  3
   8760   8761   8773   8775     1  0.0000000  0.6508444  3
   8760   8764   8776   8777     1  0.0000000  0.6508444  3
   8760   8764   8776   8778     1  0.0000000  0.6508444  3
   8760   8767   8770   8771     1  0.0000000  0.6508444  3
   8760   8767   8770   8772     1  0.0000000  0.6508444  3
   8761   8760   8764   8765     1  0.0000000  0.6508444  3
   8761   8760   8764   8766     1  0.0000000  0.6508444  3
   8761   8760   8767   8768     1  0.0000000  0.6508444  3
   8761   8760   8767   8769     1  0.0000000  0.6508444  3
   8761   8773   8785   8786     1  0.0000000  0.6508444  3
   8761   8773   8785   8787     1  0.0000000  0.6508444  3
   8762   8761   8760   8764     1  0.0000000  0.6508444  3
   8762   8761   8760   8767     1  0.0000000  0.6508444  3
   8762   8761   8760   8789     1  0.0000000  0.6508444  3
   8762   8761   8773   8785     1  0.0000000  0.6508444  3
   8762   8761   8773   8774     1  0.0000000  0.6508444  3
   8762   8761   8773   8775     1  0.0000000  0.6508444  3
   8763   8761   8760   8764     1  0.0000000  0.6508444  3
   8763   8761   8760   8767     1  0.0000000  0.6508444  3
   8763   8761   8760   8789     1  0.0000000  0.6508444  3
   8763   8761   8773   8785     1  0.0000000  0.6508444  3
   8763   8761   8773   8774     1  0.0000000  0.6508444  3
   8763   8761   8773   8775     1  0.0000000  0.6508444  3
   8764   8760   8767   8768     1  0.0000000  0.6508444  3
   8764   8760   8767   8769     1  0.0000000  0.6508444  3
   8764   8776   8782   8783     1  0.0000000  0.6508444  3
   8764   8776   8782   8784     1  0.0000000  0.6508444  3
   8765   8764   8760   8767     1  0.0000000  0.6508444  3
   8765   8764   8760   8789     1  0.0000000  0.6508444  3
   8765   8764   8776   8782     1  0.0000000  0.6508444  3
   8765   8764   8776   8777     1  0.0000000  0.6508444  3
   8765   8764   8776   8778     1  0.0000000  0.6508444  3
   8766   8764   8760   8767     1  0.0000000  0.6508444  3
   8766   8764   8760   8789     1  0.0000000  0.6508444  3
   8766   8764   8776   8782     1  0.0000000  0.6508444  3
   8766   8764   8776   8777     1  0.0000000  0.6508444  3
   8766   8764   8776   8778     1  0.0000000  0.6508444  3
   8767   8770   8779   8780     1  0.0000000  0.6508444  3
   8767   8770   8779   8781     1  0.0000000  0.6508444  3
   8768   8767   8760   8789     1  0.0000000  0.6508444  3
   8768   8767   8770   8779     1  0.0000000  0.6508444  3
   8768   8767   8770   8771     1  0.0000000  0.6508444  3
   8768   8767   8770   8772     1  0.0000000  0.6508444  3
   8769   8767   8760   8789     1  0.0000000  0.6508444  3
   8769   8767   8770   8779     1  0.0000000  0.6508444  3
   8769   8767   8770   8771     1  0.0000000  0.6508444  3
   8769   8767   8770   8772     1  0.0000000  0.6508444  3
   8770   8767   8760   8789     1  0.0000000  0.6508444  3
   8771   8770   8779   8788     1  0.0000000  1.0460000  1
   8771   8770   8779   8788     1  0.0000000  0.0000000  3
   8771   8770   8779   8780     1  0.0000000  0.6508444  3
   8771   8770   8779   8781     1  0.0000000  0.6508444  3
   8772   8770   8779   8788     1  0.0000000  1.0460000  1
   8772   8770   8779   8788     1  0.0000000  0.0000000  3
   8772   8770   8779   8780     1  0.0000000  0.6508444  3
   8772   8770   8779   8781     1  0.0000000  0.6508444  3
   8773   8761   8760   8789     1  0.0000000  0.6508444  3
   8774   8773   8785  16185     1  0.0000000  1.0460000  1
   8774   8773   8785  16185     1  0.0000000  0.0000000  3
   8774   8773   8785   8786     1  0.0000000  0.6508444  3
   8774   8773   8785   8787     1  0.0000000  0.6508444  3
   8775   8773   8785  16185     1  0.0000000  1.0460000  1
   8775   8773   8785  16185     1  0.0000000  0.0000000  3
   8775   8773   8785   8786     1  0.0000000  0.6508444  3
   8775   8773   8785   8787     1  0.0000000  0.6508444  3
   8776   8764   8760   8789     1  0.0000000  0.6508444  3
   8777   8776   8782  16162     1  0.0000000  1.0460000  1
   8777   8776   8782  16162     1  0.0000000  0.0000000  3
   8777   8776   8782   8783     1  0.0000000  0.6508444  3
   8777   8776   8782   8784     1  0.0000000  0.6508444  3
   8778   8776   8782  16162     1  0.0000000  1.0460000  1
   8778   8776   8782  16162     1  0.0000000  0.0000000  3
   8778   8776   8782   8783     1  0.0000000  0.6508444  3
   8778   8776   8782   8784     1  0.0000000  0.6508444  3
   8782  16162  16158  16161     1  0.0000000  1.6038667  3
   8783   8782  16162  16158     1  0.0000000  1.6038667  3
   8784   8782  16162  16158     1  0.0000000  1.6038667  3
   8785  16185  16181  16184     1  0.0000000  1.6038667  3
   8786   8785  16185  16181     1  0.0000000  1.6038667  3
   8787   8785  16185  16181     1  0.0000000  1.6038667  3
   8790   8791   8803   8804     1  0.0000000  0.6508444  3
   8790   8791   8803   8805     1  0.0000000  0.6508444  3
   8790   8794   8806   8807     1  0.0000000  0.6508444  3
   8790   8794   8806   8808     1  0.0000000  0.6508444  3
   8790   8797   8800   8801     1  0.0000000  0.6508444  3
   8790   8797   8800   8802     1  0.0000000  0.6508444  3
   8791   8790   8794   8795     1  0.0000000  0.6508444  3
   8791   8790   8794   8796     1  0.0000000  0.6508444  3
   8791   8790   8797   8798     1  0.0000000  0.6508444  3
   8791   8790   8797   8799     1  0.0000000  0.6508444  3
   8791   8803   8815   8816     1  0.0000000  0.6508444  3
   8791   8803   8815   8817     1  0.0000000  0.6508444  3
   8792   8791   8790   8794     1  0.0000000  0.6508444  3
   8792   8791   8790   8797     1  0.0000000  0.6508444  3
   8792   8791   8790   8819     1  0.0000000  0.6508444  3
   8792   8791   8803   8815     1  0.0000000  0.6508444  3
   8792   8791   8803   8804     1  0.0000000  0.6508444  3
   8792   8791   8803   8805     1  0.0000000  0.6508444  3
   8793   8791   8790   8794     1  0.0000000  0.6508444  3
   8793   8791   8790   8797     1  0.0000000  0.6508444  3
   8793   8791   8790   8819     1  0.0000000  0.6508444  3
   8793   8791   8803   8815     1  0.0000000  0.6508444  3
   8793   8791   8803   8804     1  0.0000000  0.6508444  3
   8793   8791   8803   8805     1  0.0000000  0.6508444  3
   8794   8790   8797   8798     1  0.0000000  0.6508444  3
   8794   8790   8797   8799     1  0.0000000  0.6508444  3
   8794   8806   8812   8813     1  0.0000000  0.6508444  3
   8794   8806   8812   8814     1  0.0000000  0.6508444  3
   8795   8794   8790   8797     1  0.0000000  0.6508444  3
   8795   8794   8790   8819     1  0.0000000  0.6508444  3
   8795   8794   8806   8812     1  0.0000000  0.6508444  3
   8795   8794   8806   8807     1  0.0000000  0.6508444  3
   8795   8794   8806   8808     1  0.0000000  0.6508444  3
   8796   8794   8790   8797     1  0.0000000  0.6508444  3
   8796   8794   8790   8819     1  0.0000000  0.6508444  3
   8796   8794   8806   8812     1  0.0000000  0.6508444  3
   8796   8794   8806   8807     1  0.0000000  0.6508444  3
   8796   8794   8806   8808     1  0.0000000  0.6508444  3
   8797   8800   8809   8810     1  0.0000000  0.6508444  3
   8797   8800   8809   8811     1  0.0000000  0.6508444  3
   8798   8797   8790   8819     1  0.0000000  0.6508444  3
   8798   8797   8800   8809     1  0.0000000  0.6508444  3
   8798   8797   8800   8801     1  0.0000000  0.6508444  3
   8798   8797   8800   8802     1  0.0000000  0.6508444  3
   8799   8797   8790   8819     1  0.0000000  0.6508444  3
   8799   8797   8800   8809     1  0.0000000  0.6508444  3
   8799   8797   8800   8801     1  0.0000000  0.6508444  3
   8799   8797   8800   8802     1  0.0000000  0.6508444  3
   8800   8797   8790   8819     1  0.0000000  0.6508444  3
   8801   8800   8809   8818     1  0.0000000  1.0460000  1
   8801   8800   8809   8818     1  0.0000000  0.0000000  3
   8801   8800   8809   8810     1  0.0000000  0.6508444  3
   8801   8800   8809   8811     1  0.0000000  0.6508444  3
   8802   8800   8809   8818     1  0.0000000  1.0460000  1
   8802   8800   8809   8818     1  0.0000000  0.0000000  3
   8802   8800   8809   8810     1  0.0000000  0.6508444  3
   8802   8800   8809   8811     1  0.0000000  0.6508444  3
   8803   8791   8790   8819     1  0.0000000  0.6508444  3
   8804   8803   8815  16231     1  0.0000000  1.0460000  1
   8804   8803   8815  16231     1  0.0000000  0.0000000  3
   8804   8803   8815   8816     1  0.0000000  0.6508444  3
   8804   8803   8815   8817     1  0.0000000  0.6508444  3
   8805   8803   8815  16231     1  0.0000000  1.0460000  1
   8805   8803   8815  16231     1  0.0000000  0.0000000  3
   8805   8803   8815   8816     1  0.0000000  0.6508444  3
   8805   8803   8815   8817     1  0.0000000  0.6508444  3
   8806   8794   8790   8819     1  0.0000000  0.6508444  3
   8807   8806   8812  16208     1  0.0000000  1.0460000  1
   8807   8806   8812  16208     1  0.0000000  0.0000000  3
   8807   8806   8812   8813     1  0.0000000  0.6508444  3
   8807   8806   8812   8814     1  0.0000000  0.6508444  3
   8808   8806   8812  16208     1  0.0000000  1.0460000  1
   8808   8806   8812  16208     1  0.0000000  0.0000000  3
   8808   8806   8812   8813     1  0.0000000  0.6508444  3
   8808   8806   8812   8814     1  0.0000000  0.6508444  3
   8812  16208  16204  16207     1  0.0000000  1.6038667  3
   8813   8812  16208  16204     1  0.0000000  1.6038667  3
   8814   8812  16208  16204     1  0.0000000  1.6038667  3
   8815  16231  16227  16230     1  0.0000000  1.6038667  3
   8816   8815  16231  16227     1  0.0000000  1.6038667  3
   8817   8815  16231  16227     1  0.0000000  1.6038667  3
   8820   8821   8833   8834     1  0.0000000  0.6508444  3
   8820   8821   8833   8835     1  0.0000000  0.6508444  3
   8820   8824   8836   8837     1  0.0000000  0.6508444  3
   8820   8824   8836   8838     1  0.0000000  0.6508444  3
   8820   8827   8830   8831     1  0.0000000  0.6508444  3
   8820   8827   8830   8832     1  0.0000000  0.6508444  3
   8821   8820   8824   8825     1  0.0000000  0.6508444  3
   8821   8820   8824   8826     1  0.0000000  0.6508444  3
   8821   8820   8827   8828     1  0.0000000  0.6508444  3
   8821   8820   8827   8829     1  0.0000000  0.6508444  3
   8821   8833   8845   8846     1  0.0000000  0.6508444  3
   8821   8833   8845   8847     1  0.0000000  0.6508444  3
   8822   8821   8820   8824     1  0.0000000  0.6508444  3
   8822   8821   8820   8827     1  0.0000000  0.6508444  3
   8822   8821   8820   8849     1  0.0000000  0.6508444  3
   8822   8821   8833   8845     1  0.0000000  0.6508444  3
   8822   8821   8833   8834     1  0.0000000  0.6508444  3
   8822   8821   8833   8835     1  0.0000000  0.6508444  3
   8823   8821   8820   8824     1  0.0000000  0.6508444  3
   8823   8821   8820   8827     1  0.0000000  0.6508444  3
   8823   8821   8820   8849     1  0.0000000  0.6508444  3
   8823   8821   8833   8845     1  0.0000000  0.6508444  3
   8823   8821   8833   8834     1  0.0000000  0.6508444  3
   8823   8821   8833   8835     1  0.0000000  0.6508444  3
   8824   8820   8827   8828     1  0.0000000  0.6508444  3
   8824   8820   8827   8829     1  0.0000000  0.6508444  3
   8824   8836   8842   8843     1  0.0000000  0.6508444  3
   8824   8836   8842   8844     1  0.0000000  0.6508444  3
   8825   8824   8820   8827     1  0.0000000  0.6508444  3
   8825   8824   8820   8849     1  0.0000000  0.6508444  3
   8825   8824   8836   8842     1  0.0000000  0.6508444  3
   8825   8824   8836   8837     1  0.0000000  0.6508444  3
   8825   8824   8836   8838     1  0.0000000  0.6508444  3
   8826   8824   8820   8827     1  0.0000000  0.6508444  3
   8826   8824   8820   8849     1  0.0000000  0.6508444  3
   8826   8824   8836   8842     1  0.0000000  0.6508444  3
   8826   8824   8836   8837     1  0.0000000  0.6508444  3
   8826   8824   8836   8838     1  0.0000000  0.6508444  3
   8827   8830   8839   8840     1  0.0000000  0.6508444  3
   8827   8830   8839   8841     1  0.0000000  0.6508444  3
   8828   8827   8820   8849     1  0.0000000  0.6508444  3
   8828   8827   8830   8839     1  0.0000000  0.6508444  3
   8828   8827   8830   8831     1  0.0000000  0.6508444  3
   8828   8827   8830   8832     1  0.0000000  0.6508444  3
   8829   8827   8820   8849     1  0.0000000  0.6508444  3
   8829   8827   8830   8839     1  0.0000000  0.6508444  3
   8829   8827   8830   8831     1  0.0000000  0.6508444  3
   8829   8827   8830   8832     1  0.0000000  0.6508444  3
   8830   8827   8820   8849     1  0.0000000  0.6508444  3
   8831   8830   8839   8848     1  0.0000000  1.0460000  1
   8831   8830   8839   8848     1  0.0000000  0.0000000  3
   8831   8830   8839   8840     1  0.0000000  0.6508444  3
   8831   8830   8839   8841     1  0.0000000  0.6508444  3
   8832   8830   8839   8848     1  0.0000000  1.0460000  1
   8832   8830   8839   8848     1  0.0000000  0.0000000  3
   8832   8830   8839   8840     1  0.0000000  0.6508444  3
   8832   8830   8839   8841     1  0.0000000  0.6508444  3
   8833   8821   8820   8849     1  0.0000000  0.6508444  3
   8834   8833   8845  16277     1  0.0000000  1.0460000  1
   8834   8833   8845  16277     1  0.0000000  0.0000000  3
   8834   8833   8845   8846     1  0.0000000  0.6508444  3
   8834   8833   8845   8847     1  0.0000000  0.6508444  3
   8835   8833   8845  16277     1  0.0000000  1.0460000  1
   8835   8833   8845  16277     1  0.0000000  0.0000000  3
   8835   8833   8845   8846     1  0.0000000  0.6508444  3
   8835   8833   8845   8847     1  0.0000000  0.6508444  3
   8836   8824   8820   8849     1  0.0000000  0.6508444  3
   8837   8836   8842  16254     1  0.0000000  1.0460000  1
   8837   8836   8842  16254     1  0.0000000  0.0000000  3
   8837   8836   8842   8843     1  0.0000000  0.6508444  3
   8837   8836   8842   8844     1  0.0000000  0.6508444  3
   8838   8836   8842  16254     1  0.0000000  1.0460000  1
   8838   8836   8842  16254     1  0.0000000  0.0000000  3
   8838   8836   8842   8843     1  0.0000000  0.6508444  3
   8838   8836   8842   8844     1  0.0000000  0.6508444  3
   8842  16254  16250  16253     1  0.0000000  1.6038667  3
   8843   8842  16254  16250     1  0.0000000  1.6038667  3
   8844   8842  16254  16250     1  0.0000000  1.6038667  3
   8845  16277  16273  16276     1  0.0000000  1.6038667  3
   8846   8845  16277  16273     1  0.0000000  1.6038667  3
   8847   8845  16277  16273     1  0.0000000  1.6038667  3
   8850   8851   8863   8864     1  0.0000000  0.6508444  3
   8850   8851   8863   8865     1  0.0000000  0.6508444  3
   8850   8854   8866   8867     1  0.0000000  0.6508444  3
   8850   8854   8866   8868     1  0.0000000  0.6508444  3
   8850   8857   8860   8861     1  0.0000000  0.6508444  3
   8850   8857   8860   8862     1  0.0000000  0.6508444  3
   8851   8850   8854   8855     1  0.0000000  0.6508444  3
   8851   8850   8854   8856     1  0.0000000  0.6508444  3
   8851   8850   8857   8858     1  0.0000000  0.6508444  3
   8851   8850   8857   8859     1  0.0000000  0.6508444  3
   8851   8863   8875   8876     1  0.0000000  0.6508444  3
   8851   8863   8875   8877     1  0.0000000  0.6508444  3
   8852   8851   8850   8854     1  0.0000000  0.6508444  3
   8852   8851   8850   8857     1  0.0000000  0.6508444  3
   8852   8851   8850   8879     1  0.0000000  0.6508444  3
   8852   8851   8863   8875     1  0.0000000  0.6508444  3
   8852   8851   8863   8864     1  0.0000000  0.6508444  3
   8852   8851   8863   8865     1  0.0000000  0.6508444  3
   8853   8851   8850   8854     1  0.0000000  0.6508444  3
   8853   8851   8850   8857     1  0.0000000  0.6508444  3
   8853   8851   8850   8879     1  0.0000000  0.6508444  3
   8853   8851   8863   8875     1  0.0000000  0.6508444  3
   8853   8851   8863   8864     1  0.0000000  0.6508444  3
   8853   8851   8863   8865     1  0.0000000  0.6508444  3
   8854   8850   8857   8858     1  0.0000000  0.6508444  3
   8854   8850   8857   8859     1  0.0000000  0.6508444  3
   8854   8866   8872   8873     1  0.0000000  0.6508444  3
   8854   8866   8872   8874     1  0.0000000  0.6508444  3
   8855   8854   8850   8857     1  0.0000000  0.6508444  3
   8855   8854   8850   8879     1  0.0000000  0.6508444  3
   8855   8854   8866   8872     1  0.0000000  0.6508444  3
   8855   8854   8866   8867     1  0.0000000  0.6508444  3
   8855   8854   8866   8868     1  0.0000000  0.6508444  3
   8856   8854   8850   8857     1  0.0000000  0.6508444  3
   8856   8854   8850   8879     1  0.0000000  0.6508444  3
   8856   8854   8866   8872     1  0.0000000  0.6508444  3
   8856   8854   8866   8867     1  0.0000000  0.6508444  3
   8856   8854   8866   8868     1  0.0000000  0.6508444  3
   8857   8860   8869   8870     1  0.0000000  0.6508444  3
   8857   8860   8869   8871     1  0.0000000  0.6508444  3
   8858   8857   8850   8879     1  0.0000000  0.6508444  3
   8858   8857   8860   8869     1  0.0000000  0.6508444  3
   8858   8857   8860   8861     1  0.0000000  0.6508444  3
   8858   8857   8860   8862     1  0.0000000  0.6508444  3
   8859   8857   8850   8879     1  0.0000000  0.6508444  3
   8859   8857   8860   8869     1  0.0000000  0.6508444  3
   8859   8857   8860   8861     1  0.0000000  0.6508444  3
   8859   8857   8860   8862     1  0.0000000  0.6508444  3
   8860   8857   8850   8879     1  0.0000000  0.6508444  3
   8861   8860   8869   8878     1  0.0000000  1.0460000  1
   8861   8860   8869   8878     1  0.0000000  0.0000000  3
   8861   8860   8869   8870     1  0.0000000  0.6508444  3
   8861   8860   8869   8871     1  0.0000000  0.6508444  3
   8862   8860   8869   8878     1  0.0000000  1.0460000  1
   8862   8860   8869   8878     1  0.0000000  0.0000000  3
   8862   8860   8869   8870     1  0.0000000  0.6508444  3
   8862   8860   8869   8871     1  0.0000000  0.6508444  3
   8863   8851   8850   8879     1  0.0000000  0.6508444  3
   8864   8863   8875  16323     1  0.0000000  1.0460000  1
   8864   8863   8875  16323     1  0.0000000  0.0000000  3
   8864   8863   8875   8876     1  0.0000000  0.6508444  3
   8864   8863   8875   8877     1  0.0000000  0.6508444  3
   8865   8863   8875  16323     1  0.0000000  1.0460000  1
   8865   8863   8875  16323     1  0.0000000  0.0000000  3
   8865   8863   8875   8876     1  0.0000000  0.6508444  3
   8865   8863   8875   8877     1  0.0000000  0.6508444  3
   8866   8854   8850   8879     1  0.0000000  0.6508444  3
   8867   8866   8872  16300     1  0.0000000  1.0460000  1
   8867   8866   8872  16300     1  0.0000000  0.0000000  3
   8867   8866   8872   8873     1  0.0000000  0.6508444  3
   8867   8866   8872   8874     1  0.0000000  0.6508444  3
   8868   8866   8872  16300     1  0.0000000  1.0460000  1
   8868   8866   8872  16300     1  0.0000000  0.0000000  3
   8868   8866   8872   8873     1  0.0000000  0.6508444  3
   8868   8866   8872   8874     1  0.0000000  0.6508444  3
   8872  16300  16296  16299     1  0.0000000  1.6038667  3
   8873   8872  16300  16296     1  0.0000000  1.6038667  3
   8874   8872  16300  16296     1  0.0000000  1.6038667  3
   8875  16323  16319  16322     1  0.0000000  1.6038667  3
   8876   8875  16323  16319     1  0.0000000  1.6038667  3
   8877   8875  16323  16319     1  0.0000000  1.6038667  3
   8880   8881   8893   8894     1  0.0000000  0.6508444  3
   8880   8881   8893   8895     1  0.0000000  0.6508444  3
   8880   8884   8896   8897     1  0.0000000  0.6508444  3
   8880   8884   8896   8898     1  0.0000000  0.6508444  3
   8880   8887   8890   8891     1  0.0000000  0.6508444  3
   8880   8887   8890   8892     1  0.0000000  0.6508444  3
   8881   8880   8884   8885     1  0.0000000  0.6508444  3
   8881   8880   8884   8886     1  0.0000000  0.6508444  3
   8881   8880   8887   8888     1  0.0000000  0.6508444  3
   8881   8880   8887   8889     1  0.0000000  0.6508444  3
   8881   8893   8905   8906     1  0.0000000  0.6508444  3
   8881   8893   8905   8907     1  0.0000000  0.6508444  3
   8882   8881   8880   8884     1  0.0000000  0.6508444  3
   8882   8881   8880   8887     1  0.0000000  0.6508444  3
   8882   8881   8880   8909     1  0.0000000  0.6508444  3
   8882   8881   8893   8905     1  0.0000000  0.6508444  3
   8882   8881   8893   8894     1  0.0000000  0.6508444  3
   8882   8881   8893   8895     1  0.0000000  0.6508444  3
   8883   8881   8880   8884     1  0.0000000  0.6508444  3
   8883   8881   8880   8887     1  0.0000000  0.6508444  3
   8883   8881   8880   8909     1  0.0000000  0.6508444  3
   8883   8881   8893   8905     1  0.0000000  0.6508444  3
   8883   8881   8893   8894     1  0.0000000  0.6508444  3
   8883   8881   8893   8895     1  0.0000000  0.6508444  3
   8884   8880   8887   8888     1  0.0000000  0.6508444  3
   8884   8880   8887   8889     1  0.0000000  0.6508444  3
   8884   8896   8902   8903     1  0.0000000  0.6508444  3
   8884   8896   8902   8904     1  0.0000000  0.6508444  3
   8885   8884   8880   8887     1  0.0000000  0.6508444  3
   8885   8884   8880   8909     1  0.0000000  0.6508444  3
   8885   8884   8896   8902     1  0.0000000  0.6508444  3
   8885   8884   8896   8897     1  0.0000000  0.6508444  3
   8885   8884   8896   8898     1  0.0000000  0.6508444  3
   8886   8884   8880   8887     1  0.0000000  0.6508444  3
   8886   8884   8880   8909     1  0.0000000  0.6508444  3
   8886   8884   8896   8902     1  0.0000000  0.6508444  3
   8886   8884   8896   8897     1  0.0000000  0.6508444  3
   8886   8884   8896   8898     1  0.0000000  0.6508444  3
   8887   8890   8899   8900     1  0.0000000  0.6508444  3
   8887   8890   8899   8901     1  0.0000000  0.6508444  3
   8888   8887   8880   8909     1  0.0000000  0.6508444  3
   8888   8887   8890   8899     1  0.0000000  0.6508444  3
   8888   8887   8890   8891     1  0.0000000  0.6508444  3
   8888   8887   8890   8892     1  0.0000000  0.6508444  3
   8889   8887   8880   8909     1  0.0000000  0.6508444  3
   8889   8887   8890   8899     1  0.0000000  0.6508444  3
   8889   8887   8890   8891     1  0.0000000  0.6508444  3
   8889   8887   8890   8892     1  0.0000000  0.6508444  3
   8890   8887   8880   8909     1  0.0000000  0.6508444  3
   8891   8890   8899   8908     1  0.0000000  1.0460000  1
   8891   8890   8899   8908     1  0.0000000  0.0000000  3
   8891   8890   8899   8900     1  0.0000000  0.6508444  3
   8891   8890   8899   8901     1  0.0000000  0.6508444  3
   8892   8890   8899   8908     1  0.0000000  1.0460000  1
   8892   8890   8899   8908     1  0.0000000  0.0000000  3
   8892   8890   8899   8900     1  0.0000000  0.6508444  3
   8892   8890   8899   8901     1  0.0000000  0.6508444  3
   8893   8881   8880   8909     1  0.0000000  0.6508444  3
   8894   8893   8905  16369     1  0.0000000  1.0460000  1
   8894   8893   8905  16369     1  0.0000000  0.0000000  3
   8894   8893   8905   8906     1  0.0000000  0.6508444  3
   8894   8893   8905   8907     1  0.0000000  0.6508444  3
   8895   8893   8905  16369     1  0.0000000  1.0460000  1
   8895   8893   8905  16369     1  0.0000000  0.0000000  3
   8895   8893   8905   8906     1  0.0000000  0.6508444  3
   8895   8893   8905   8907     1  0.0000000  0.6508444  3
   8896   8884   8880   8909     1  0.0000000  0.6508444  3
   8897   8896   8902  16346     1  0.0000000  1.0460000  1
   8897   8896   8902  16346     1  0.0000000  0.0000000  3
   8897   8896   8902   8903     1  0.0000000  0.6508444  3
   8897   8896   8902   8904     1  0.0000000  0.6508444  3
   8898   8896   8902  16346     1  0.0000000  1.0460000  1
   8898   8896   8902  16346     1  0.0000000  0.0000000  3
   8898   8896   8902   8903     1  0.0000000  0.6508444  3
   8898   8896   8902   8904     1  0.0000000  0.6508444  3
   8902  16346  16342  16345     1  0.0000000  1.6038667  3
   8903   8902  16346  16342     1  0.0000000  1.6038667  3
   8904   8902  16346  16342     1  0.0000000  1.6038667  3
   8905  16369  16365  16368     1  0.0000000  1.6038667  3
   8906   8905  16369  16365     1  0.0000000  1.6038667  3
   8907   8905  16369  16365     1  0.0000000  1.6038667  3
   8910   8911   8923   8924     1  0.0000000  0.6508444  3
   8910   8911   8923   8925     1  0.0000000  0.6508444  3
   8910   8914   8926   8927     1  0.0000000  0.6508444  3
   8910   8914   8926   8928     1  0.0000000  0.6508444  3
   8910   8917   8920   8921     1  0.0000000  0.6508444  3
   8910   8917   8920   8922     1  0.0000000  0.6508444  3
   8911   8910   8914   8915     1  0.0000000  0.6508444  3
   8911   8910   8914   8916     1  0.0000000  0.6508444  3
   8911   8910   8917   8918     1  0.0000000  0.6508444  3
   8911   8910   8917   8919     1  0.0000000  0.6508444  3
   8911   8923   8935   8936     1  0.0000000  0.6508444  3
   8911   8923   8935   8937     1  0.0000000  0.6508444  3
   8912   8911   8910   8914     1  0.0000000  0.6508444  3
   8912   8911   8910   8917     1  0.0000000  0.6508444  3
   8912   8911   8910   8939     1  0.0000000  0.6508444  3
   8912   8911   8923   8935     1  0.0000000  0.6508444  3
   8912   8911   8923   8924     1  0.0000000  0.6508444  3
   8912   8911   8923   8925     1  0.0000000  0.6508444  3
   8913   8911   8910   8914     1  0.0000000  0.6508444  3
   8913   8911   8910   8917     1  0.0000000  0.6508444  3
   8913   8911   8910   8939     1  0.0000000  0.6508444  3
   8913   8911   8923   8935     1  0.0000000  0.6508444  3
   8913   8911   8923   8924     1  0.0000000  0.6508444  3
   8913   8911   8923   8925     1  0.0000000  0.6508444  3
   8914   8910   8917   8918     1  0.0000000  0.6508444  3
   8914   8910   8917   8919     1  0.0000000  0.6508444  3
   8914   8926   8932   8933     1  0.0000000  0.6508444  3
   8914   8926   8932   8934     1  0.0000000  0.6508444  3
   8915   8914   8910   8917     1  0.0000000  0.6508444  3
   8915   8914   8910   8939     1  0.0000000  0.6508444  3
   8915   8914   8926   8932     1  0.0000000  0.6508444  3
   8915   8914   8926   8927     1  0.0000000  0.6508444  3
   8915   8914   8926   8928     1  0.0000000  0.6508444  3
   8916   8914   8910   8917     1  0.0000000  0.6508444  3
   8916   8914   8910   8939     1  0.0000000  0.6508444  3
   8916   8914   8926   8932     1  0.0000000  0.6508444  3
   8916   8914   8926   8927     1  0.0000000  0.6508444  3
   8916   8914   8926   8928     1  0.0000000  0.6508444  3
   8917   8920   8929   8930     1  0.0000000  0.6508444  3
   8917   8920   8929   8931     1  0.0000000  0.6508444  3
   8918   8917   8910   8939     1  0.0000000  0.6508444  3
   8918   8917   8920   8929     1  0.0000000  0.6508444  3
   8918   8917   8920   8921     1  0.0000000  0.6508444  3
   8918   8917   8920   8922     1  0.0000000  0.6508444  3
   8919   8917   8910   8939     1  0.0000000  0.6508444  3
   8919   8917   8920   8929     1  0.0000000  0.6508444  3
   8919   8917   8920   8921     1  0.0000000  0.6508444  3
   8919   8917   8920   8922     1  0.0000000  0.6508444  3
   8920   8917   8910   8939     1  0.0000000  0.6508444  3
   8921   8920   8929   8938     1  0.0000000  1.0460000  1
   8921   8920   8929   8938     1  0.0000000  0.0000000  3
   8921   8920   8929   8930     1  0.0000000  0.6508444  3
   8921   8920   8929   8931     1  0.0000000  0.6508444  3
   8922   8920   8929   8938     1  0.0000000  1.0460000  1
   8922   8920   8929   8938     1  0.0000000  0.0000000  3
   8922   8920   8929   8930     1  0.0000000  0.6508444  3
   8922   8920   8929   8931     1  0.0000000  0.6508444  3
   8923   8911   8910   8939     1  0.0000000  0.6508444  3
   8924   8923   8935  16415     1  0.0000000  1.0460000  1
   8924   8923   8935  16415     1  0.0000000  0.0000000  3
   8924   8923   8935   8936     1  0.0000000  0.6508444  3
   8924   8923   8935   8937     1  0.0000000  0.6508444  3
   8925   8923   8935  16415     1  0.0000000  1.0460000  1
   8925   8923   8935  16415     1  0.0000000  0.0000000  3
   8925   8923   8935   8936     1  0.0000000  0.6508444  3
   8925   8923   8935   8937     1  0.0000000  0.6508444  3
   8926   8914   8910   8939     1  0.0000000  0.6508444  3
   8927   8926   8932  16392     1  0.0000000  1.0460000  1
   8927   8926   8932  16392     1  0.0000000  0.0000000  3
   8927   8926   8932   8933     1  0.0000000  0.6508444  3
   8927   8926   8932   8934     1  0.0000000  0.6508444  3
   8928   8926   8932  16392     1  0.0000000  1.0460000  1
   8928   8926   8932  16392     1  0.0000000  0.0000000  3
   8928   8926   8932   8933     1  0.0000000  0.6508444  3
   8928   8926   8932   8934     1  0.0000000  0.6508444  3
   8932  16392  16388  16391     1  0.0000000  1.6038667  3
   8933   8932  16392  16388     1  0.0000000  1.6038667  3
   8934   8932  16392  16388     1  0.0000000  1.6038667  3
   8935  16415  16411  16414     1  0.0000000  1.6038667  3
   8936   8935  16415  16411     1  0.0000000  1.6038667  3
   8937   8935  16415  16411     1  0.0000000  1.6038667  3
   8940   8941   8953   8954     1  0.0000000  0.6508444  3
   8940   8941   8953   8955     1  0.0000000  0.6508444  3
   8940   8944   8956   8957     1  0.0000000  0.6508444  3
   8940   8944   8956   8958     1  0.0000000  0.6508444  3
   8940   8947   8950   8951     1  0.0000000  0.6508444  3
   8940   8947   8950   8952     1  0.0000000  0.6508444  3
   8941   8940   8944   8945     1  0.0000000  0.6508444  3
   8941   8940   8944   8946     1  0.0000000  0.6508444  3
   8941   8940   8947   8948     1  0.0000000  0.6508444  3
   8941   8940   8947   8949     1  0.0000000  0.6508444  3
   8941   8953   8965   8966     1  0.0000000  0.6508444  3
   8941   8953   8965   8967     1  0.0000000  0.6508444  3
   8942   8941   8940   8944     1  0.0000000  0.6508444  3
   8942   8941   8940   8947     1  0.0000000  0.6508444  3
   8942   8941   8940   8969     1  0.0000000  0.6508444  3
   8942   8941   8953   8965     1  0.0000000  0.6508444  3
   8942   8941   8953   8954     1  0.0000000  0.6508444  3
   8942   8941   8953   8955     1  0.0000000  0.6508444  3
   8943   8941   8940   8944     1  0.0000000  0.6508444  3
   8943   8941   8940   8947     1  0.0000000  0.6508444  3
   8943   8941   8940   8969     1  0.0000000  0.6508444  3
   8943   8941   8953   8965     1  0.0000000  0.6508444  3
   8943   8941   8953   8954     1  0.0000000  0.6508444  3
   8943   8941   8953   8955     1  0.0000000  0.6508444  3
   8944   8940   8947   8948     1  0.0000000  0.6508444  3
   8944   8940   8947   8949     1  0.0000000  0.6508444  3
   8944   8956   8962   8963     1  0.0000000  0.6508444  3
   8944   8956   8962   8964     1  0.0000000  0.6508444  3
   8945   8944   8940   8947     1  0.0000000  0.6508444  3
   8945   8944   8940   8969     1  0.0000000  0.6508444  3
   8945   8944   8956   8962     1  0.0000000  0.6508444  3
   8945   8944   8956   8957     1  0.0000000  0.6508444  3
   8945   8944   8956   8958     1  0.0000000  0.6508444  3
   8946   8944   8940   8947     1  0.0000000  0.6508444  3
   8946   8944   8940   8969     1  0.0000000  0.6508444  3
   8946   8944   8956   8962     1  0.0000000  0.6508444  3
   8946   8944   8956   8957     1  0.0000000  0.6508444  3
   8946   8944   8956   8958     1  0.0000000  0.6508444  3
   8947   8950   8959   8960     1  0.0000000  0.6508444  3
   8947   8950   8959   8961     1  0.0000000  0.6508444  3
   8948   8947   8940   8969     1  0.0000000  0.6508444  3
   8948   8947   8950   8959     1  0.0000000  0.6508444  3
   8948   8947   8950   8951     1  0.0000000  0.6508444  3
   8948   8947   8950   8952     1  0.0000000  0.6508444  3
   8949   8947   8940   8969     1  0.0000000  0.6508444  3
   8949   8947   8950   8959     1  0.0000000  0.6508444  3
   8949   8947   8950   8951     1  0.0000000  0.6508444  3
   8949   8947   8950   8952     1  0.0000000  0.6508444  3
   8950   8947   8940   8969     1  0.0000000  0.6508444  3
   8951   8950   8959   8968     1  0.0000000  1.0460000  1
   8951   8950   8959   8968     1  0.0000000  0.0000000  3
   8951   8950   8959   8960     1  0.0000000  0.6508444  3
   8951   8950   8959   8961     1  0.0000000  0.6508444  3
   8952   8950   8959   8968     1  0.0000000  1.0460000  1
   8952   8950   8959   8968     1  0.0000000  0.0000000  3
   8952   8950   8959   8960     1  0.0000000  0.6508444  3
   8952   8950   8959   8961     1  0.0000000  0.6508444  3
   8953   8941   8940   8969     1  0.0000000  0.6508444  3
   8954   8953   8965  16461     1  0.0000000  1.0460000  1
   8954   8953   8965  16461     1  0.0000000  0.0000000  3
   8954   8953   8965   8966     1  0.0000000  0.6508444  3
   8954   8953   8965   8967     1  0.0000000  0.6508444  3
   8955   8953   8965  16461     1  0.0000000  1.0460000  1
   8955   8953   8965  16461     1  0.0000000  0.0000000  3
   8955   8953   8965   8966     1  0.0000000  0.6508444  3
   8955   8953   8965   8967     1  0.0000000  0.6508444  3
   8956   8944   8940   8969     1  0.0000000  0.6508444  3
   8957   8956   8962  16438     1  0.0000000  1.0460000  1
   8957   8956   8962  16438     1  0.0000000  0.0000000  3
   8957   8956   8962   8963     1  0.0000000  0.6508444  3
   8957   8956   8962   8964     1  0.0000000  0.6508444  3
   8958   8956   8962  16438     1  0.0000000  1.0460000  1
   8958   8956   8962  16438     1  0.0000000  0.0000000  3
   8958   8956   8962   8963     1  0.0000000  0.6508444  3
   8958   8956   8962   8964     1  0.0000000  0.6508444  3
   8962  16438  16434  16437     1  0.0000000  1.6038667  3
   8963   8962  16438  16434     1  0.0000000  1.6038667  3
   8964   8962  16438  16434     1  0.0000000  1.6038667  3
   8965  16461  16457  16460     1  0.0000000  1.6038667  3
   8966   8965  16461  16457     1  0.0000000  1.6038667  3
   8967   8965  16461  16457     1  0.0000000  1.6038667  3
   8970   8971   8983   8984     1  0.0000000  0.6508444  3
   8970   8971   8983   8985     1  0.0000000  0.6508444  3
   8970   8974   8986   8987     1  0.0000000  0.6508444  3
   8970   8974   8986   8988     1  0.0000000  0.6508444  3
   8970   8977   8980   8981     1  0.0000000  0.6508444  3
   8970   8977   8980   8982     1  0.0000000  0.6508444  3
   8971   8970   8974   8975     1  0.0000000  0.6508444  3
   8971   8970   8974   8976     1  0.0000000  0.6508444  3
   8971   8970   8977   8978     1  0.0000000  0.6508444  3
   8971   8970   8977   8979     1  0.0000000  0.6508444  3
   8971   8983   8995   8996     1  0.0000000  0.6508444  3
   8971   8983   8995   8997     1  0.0000000  0.6508444  3
   8972   8971   8970   8974     1  0.0000000  0.6508444  3
   8972   8971   8970   8977     1  0.0000000  0.6508444  3
   8972   8971   8970   8999     1  0.0000000  0.6508444  3
   8972   8971   8983   8995     1  0.0000000  0.6508444  3
   8972   8971   8983   8984     1  0.0000000  0.6508444  3
   8972   8971   8983   8985     1  0.0000000  0.6508444  3
   8973   8971   8970   8974     1  0.0000000  0.6508444  3
   8973   8971   8970   8977     1  0.0000000  0.6508444  3
   8973   8971   8970   8999     1  0.0000000  0.6508444  3
   8973   8971   8983   8995     1  0.0000000  0.6508444  3
   8973   8971   8983   8984     1  0.0000000  0.6508444  3
   8973   8971   8983   8985     1  0.0000000  0.6508444  3
   8974   8970   8977   8978     1  0.0000000  0.6508444  3
   8974   8970   8977   8979     1  0.0000000  0.6508444  3
   8974   8986   8992   8993     1  0.0000000  0.6508444  3
   8974   8986   8992   8994     1  0.0000000  0.6508444  3
   8975   8974   8970   8977     1  0.0000000  0.6508444  3
   8975   8974   8970   8999     1  0.0000000  0.6508444  3
   8975   8974   8986   8992     1  0.0000000  0.6508444  3
   8975   8974   8986   8987     1  0.0000000  0.6508444  3
   8975   8974   8986   8988     1  0.0000000  0.6508444  3
   8976   8974   8970   8977     1  0.0000000  0.6508444  3
   8976   8974   8970   8999     1  0.0000000  0.6508444  3
   8976   8974   8986   8992     1  0.0000000  0.6508444  3
   8976   8974   8986   8987     1  0.0000000  0.6508444  3
   8976   8974   8986   8988     1  0.0000000  0.6508444  3
   8977   8980   8989   8990     1  0.0000000  0.6508444  3
   8977   8980   8989   8991     1  0.0000000  0.6508444  3
   8978   8977   8970   8999     1  0.0000000  0.6508444  3
   8978   8977   8980   8989     1  0.0000000  0.6508444  3
   8978   8977   8980   8981     1  0.0000000  0.6508444  3
   8978   8977   8980   8982     1  0.0000000  0.6508444  3
   8979   8977   8970   8999     1  0.0000000  0.6508444  3
   8979   8977   8980   8989     1  0.0000000  0.6508444  3
   8979   8977   8980   8981     1  0.0000000  0.6508444  3
   8979   8977   8980   8982     1  0.0000000  0.6508444  3
   8980   8977   8970   8999     1  0.0000000  0.6508444  3
   8981   8980   8989   8998     1  0.0000000  1.0460000  1
   8981   8980   8989   8998     1  0.0000000  0.0000000  3
   8981   8980   8989   8990     1  0.0000000  0.6508444  3
   8981   8980   8989   8991     1  0.0000000  0.6508444  3
   8982   8980   8989   8998     1  0.0000000  1.0460000  1
   8982   8980   8989   8998     1  0.0000000  0.0000000  3
   8982   8980   8989   8990     1  0.0000000  0.6508444  3
   8982   8980   8989   8991     1  0.0000000  0.6508444  3
   8983   8971   8970   8999     1  0.0000000  0.6508444  3
   8984   8983   8995  16507     1  0.0000000  1.0460000  1
   8984   8983   8995  16507     1  0.0000000  0.0000000  3
   8984   8983   8995   8996     1  0.0000000  0.6508444  3
   8984   8983   8995   8997     1  0.0000000  0.6508444  3
   8985   8983   8995  16507     1  0.0000000  1.0460000  1
   8985   8983   8995  16507     1  0.0000000  0.0000000  3
   8985   8983   8995   8996     1  0.0000000  0.6508444  3
   8985   8983   8995   8997     1  0.0000000  0.6508444  3
   8986   8974   8970   8999     1  0.0000000  0.6508444  3
   8987   8986   8992  16484     1  0.0000000  1.0460000  1
   8987   8986   8992  16484     1  0.0000000  0.0000000  3
   8987   8986   8992   8993     1  0.0000000  0.6508444  3
   8987   8986   8992   8994     1  0.0000000  0.6508444  3
   8988   8986   8992  16484     1  0.0000000  1.0460000  1
   8988   8986   8992  16484     1  0.0000000  0.0000000  3
   8988   8986   8992   8993     1  0.0000000  0.6508444  3
   8988   8986   8992   8994     1  0.0000000  0.6508444  3
   8992  16484  16480  16483     1  0.0000000  1.6038667  3
   8993   8992  16484  16480     1  0.0000000  1.6038667  3
   8994   8992  16484  16480     1  0.0000000  1.6038667  3
   8995  16507  16503  16506     1  0.0000000  1.6038667  3
   8996   8995  16507  16503     1  0.0000000  1.6038667  3
   8997   8995  16507  16503     1  0.0000000  1.6038667  3
   9000   9001   9013   9014     1  0.0000000  0.6508444  3
   9000   9001   9013   9015     1  0.0000000  0.6508444  3
   9000   9004   9016   9017     1  0.0000000  0.6508444  3
   9000   9004   9016   9018     1  0.0000000  0.6508444  3
   9000   9007   9010   9011     1  0.0000000  0.6508444  3
   9000   9007   9010   9012     1  0.0000000  0.6508444  3
   9001   9000   9004   9005     1  0.0000000  0.6508444  3
   9001   9000   9004   9006     1  0.0000000  0.6508444  3
   9001   9000   9007   9008     1  0.0000000  0.6508444  3
   9001   9000   9007   9009     1  0.0000000  0.6508444  3
   9001   9013   9025   9026     1  0.0000000  0.6508444  3
   9001   9013   9025   9027     1  0.0000000  0.6508444  3
   9002   9001   9000   9004     1  0.0000000  0.6508444  3
   9002   9001   9000   9007     1  0.0000000  0.6508444  3
   9002   9001   9000   9029     1  0.0000000  0.6508444  3
   9002   9001   9013   9025     1  0.0000000  0.6508444  3
   9002   9001   9013   9014     1  0.0000000  0.6508444  3
   9002   9001   9013   9015     1  0.0000000  0.6508444  3
   9003   9001   9000   9004     1  0.0000000  0.6508444  3
   9003   9001   9000   9007     1  0.0000000  0.6508444  3
   9003   9001   9000   9029     1  0.0000000  0.6508444  3
   9003   9001   9013   9025     1  0.0000000  0.6508444  3
   9003   9001   9013   9014     1  0.0000000  0.6508444  3
   9003   9001   9013   9015     1  0.0000000  0.6508444  3
   9004   9000   9007   9008     1  0.0000000  0.6508444  3
   9004   9000   9007   9009     1  0.0000000  0.6508444  3
   9004   9016   9022   9023     1  0.0000000  0.6508444  3
   9004   9016   9022   9024     1  0.0000000  0.6508444  3
   9005   9004   9000   9007     1  0.0000000  0.6508444  3
   9005   9004   9000   9029     1  0.0000000  0.6508444  3
   9005   9004   9016   9022     1  0.0000000  0.6508444  3
   9005   9004   9016   9017     1  0.0000000  0.6508444  3
   9005   9004   9016   9018     1  0.0000000  0.6508444  3
   9006   9004   9000   9007     1  0.0000000  0.6508444  3
   9006   9004   9000   9029     1  0.0000000  0.6508444  3
   9006   9004   9016   9022     1  0.0000000  0.6508444  3
   9006   9004   9016   9017     1  0.0000000  0.6508444  3
   9006   9004   9016   9018     1  0.0000000  0.6508444  3
   9007   9010   9019   9020     1  0.0000000  0.6508444  3
   9007   9010   9019   9021     1  0.0000000  0.6508444  3
   9008   9007   9000   9029     1  0.0000000  0.6508444  3
   9008   9007   9010   9019     1  0.0000000  0.6508444  3
   9008   9007   9010   9011     1  0.0000000  0.6508444  3
   9008   9007   9010   9012     1  0.0000000  0.6508444  3
   9009   9007   9000   9029     1  0.0000000  0.6508444  3
   9009   9007   9010   9019     1  0.0000000  0.6508444  3
   9009   9007   9010   9011     1  0.0000000  0.6508444  3
   9009   9007   9010   9012     1  0.0000000  0.6508444  3
   9010   9007   9000   9029     1  0.0000000  0.6508444  3
   9011   9010   9019   9028     1  0.0000000  1.0460000  1
   9011   9010   9019   9028     1  0.0000000  0.0000000  3
   9011   9010   9019   9020     1  0.0000000  0.6508444  3
   9011   9010   9019   9021     1  0.0000000  0.6508444  3
   9012   9010   9019   9028     1  0.0000000  1.0460000  1
   9012   9010   9019   9028     1  0.0000000  0.0000000  3
   9012   9010   9019   9020     1  0.0000000  0.6508444  3
   9012   9010   9019   9021     1  0.0000000  0.6508444  3
   9013   9001   9000   9029     1  0.0000000  0.6508444  3
   9014   9013   9025  16553     1  0.0000000  1.0460000  1
   9014   9013   9025  16553     1  0.0000000  0.0000000  3
   9014   9013   9025   9026     1  0.0000000  0.6508444  3
   9014   9013   9025   9027     1  0.0000000  0.6508444  3
   9015   9013   9025  16553     1  0.0000000  1.0460000  1
   9015   9013   9025  16553     1  0.0000000  0.0000000  3
   9015   9013   9025   9026     1  0.0000000  0.6508444  3
   9015   9013   9025   9027     1  0.0000000  0.6508444  3
   9016   9004   9000   9029     1  0.0000000  0.6508444  3
   9017   9016   9022  16530     1  0.0000000  1.0460000  1
   9017   9016   9022  16530     1  0.0000000  0.0000000  3
   9017   9016   9022   9023     1  0.0000000  0.6508444  3
   9017   9016   9022   9024     1  0.0000000  0.6508444  3
   9018   9016   9022  16530     1  0.0000000  1.0460000  1
   9018   9016   9022  16530     1  0.0000000  0.0000000  3
   9018   9016   9022   9023     1  0.0000000  0.6508444  3
   9018   9016   9022   9024     1  0.0000000  0.6508444  3
   9022  16530  16526  16529     1  0.0000000  1.6038667  3
   9023   9022  16530  16526     1  0.0000000  1.6038667  3
   9024   9022  16530  16526     1  0.0000000  1.6038667  3
   9025  16553  16549  16552     1  0.0000000  1.6038667  3
   9026   9025  16553  16549     1  0.0000000  1.6038667  3
   9027   9025  16553  16549     1  0.0000000  1.6038667  3
   9030   9031   9043   9044     1  0.0000000  0.6508444  3
   9030   9031   9043   9045     1  0.0000000  0.6508444  3
   9030   9034   9046   9047     1  0.0000000  0.6508444  3
   9030   9034   9046   9048     1  0.0000000  0.6508444  3
   9030   9037   9040   9041     1  0.0000000  0.6508444  3
   9030   9037   9040   9042     1  0.0000000  0.6508444  3
   9031   9030   9034   9035     1  0.0000000  0.6508444  3
   9031   9030   9034   9036     1  0.0000000  0.6508444  3
   9031   9030   9037   9038     1  0.0000000  0.6508444  3
   9031   9030   9037   9039     1  0.0000000  0.6508444  3
   9031   9043   9055   9056     1  0.0000000  0.6508444  3
   9031   9043   9055   9057     1  0.0000000  0.6508444  3
   9032   9031   9030   9034     1  0.0000000  0.6508444  3
   9032   9031   9030   9037     1  0.0000000  0.6508444  3
   9032   9031   9030   9059     1  0.0000000  0.6508444  3
   9032   9031   9043   9055     1  0.0000000  0.6508444  3
   9032   9031   9043   9044     1  0.0000000  0.6508444  3
   9032   9031   9043   9045     1  0.0000000  0.6508444  3
   9033   9031   9030   9034     1  0.0000000  0.6508444  3
   9033   9031   9030   9037     1  0.0000000  0.6508444  3
   9033   9031   9030   9059     1  0.0000000  0.6508444  3
   9033   9031   9043   9055     1  0.0000000  0.6508444  3
   9033   9031   9043   9044     1  0.0000000  0.6508444  3
   9033   9031   9043   9045     1  0.0000000  0.6508444  3
   9034   9030   9037   9038     1  0.0000000  0.6508444  3
   9034   9030   9037   9039     1  0.0000000  0.6508444  3
   9034   9046   9052   9053     1  0.0000000  0.6508444  3
   9034   9046   9052   9054     1  0.0000000  0.6508444  3
   9035   9034   9030   9037     1  0.0000000  0.6508444  3
   9035   9034   9030   9059     1  0.0000000  0.6508444  3
   9035   9034   9046   9052     1  0.0000000  0.6508444  3
   9035   9034   9046   9047     1  0.0000000  0.6508444  3
   9035   9034   9046   9048     1  0.0000000  0.6508444  3
   9036   9034   9030   9037     1  0.0000000  0.6508444  3
   9036   9034   9030   9059     1  0.0000000  0.6508444  3
   9036   9034   9046   9052     1  0.0000000  0.6508444  3
   9036   9034   9046   9047     1  0.0000000  0.6508444  3
   9036   9034   9046   9048     1  0.0000000  0.6508444  3
   9037   9040   9049   9050     1  0.0000000  0.6508444  3
   9037   9040   9049   9051     1  0.0000000  0.6508444  3
   9038   9037   9030   9059     1  0.0000000  0.6508444  3
   9038   9037   9040   9049     1  0.0000000  0.6508444  3
   9038   9037   9040   9041     1  0.0000000  0.6508444  3
   9038   9037   9040   9042     1  0.0000000  0.6508444  3
   9039   9037   9030   9059     1  0.0000000  0.6508444  3
   9039   9037   9040   9049     1  0.0000000  0.6508444  3
   9039   9037   9040   9041     1  0.0000000  0.6508444  3
   9039   9037   9040   9042     1  0.0000000  0.6508444  3
   9040   9037   9030   9059     1  0.0000000  0.6508444  3
   9041   9040   9049   9058     1  0.0000000  1.0460000  1
   9041   9040   9049   9058     1  0.0000000  0.0000000  3
   9041   9040   9049   9050     1  0.0000000  0.6508444  3
   9041   9040   9049   9051     1  0.0000000  0.6508444  3
   9042   9040   9049   9058     1  0.0000000  1.0460000  1
   9042   9040   9049   9058     1  0.0000000  0.0000000  3
   9042   9040   9049   9050     1  0.0000000  0.6508444  3
   9042   9040   9049   9051     1  0.0000000  0.6508444  3
   9043   9031   9030   9059     1  0.0000000  0.6508444  3
   9044   9043   9055  16599     1  0.0000000  1.0460000  1
   9044   9043   9055  16599     1  0.0000000  0.0000000  3
   9044   9043   9055   9056     1  0.0000000  0.6508444  3
   9044   9043   9055   9057     1  0.0000000  0.6508444  3
   9045   9043   9055  16599     1  0.0000000  1.0460000  1
   9045   9043   9055  16599     1  0.0000000  0.0000000  3
   9045   9043   9055   9056     1  0.0000000  0.6508444  3
   9045   9043   9055   9057     1  0.0000000  0.6508444  3
   9046   9034   9030   9059     1  0.0000000  0.6508444  3
   9047   9046   9052  16576     1  0.0000000  1.0460000  1
   9047   9046   9052  16576     1  0.0000000  0.0000000  3
   9047   9046   9052   9053     1  0.0000000  0.6508444  3
   9047   9046   9052   9054     1  0.0000000  0.6508444  3
   9048   9046   9052  16576     1  0.0000000  1.0460000  1
   9048   9046   9052  16576     1  0.0000000  0.0000000  3
   9048   9046   9052   9053     1  0.0000000  0.6508444  3
   9048   9046   9052   9054     1  0.0000000  0.6508444  3
   9052  16576  16572  16575     1  0.0000000  1.6038667  3
   9053   9052  16576  16572     1  0.0000000  1.6038667  3
   9054   9052  16576  16572     1  0.0000000  1.6038667  3
   9055  16599  16595  16598     1  0.0000000  1.6038667  3
   9056   9055  16599  16595     1  0.0000000  1.6038667  3
   9057   9055  16599  16595     1  0.0000000  1.6038667  3
   9060   9061   9073   9074     1  0.0000000  0.6508444  3
   9060   9061   9073   9075     1  0.0000000  0.6508444  3
   9060   9064   9076   9077     1  0.0000000  0.6508444  3
   9060   9064   9076   9078     1  0.0000000  0.6508444  3
   9060   9067   9070   9071     1  0.0000000  0.6508444  3
   9060   9067   9070   9072     1  0.0000000  0.6508444  3
   9061   9060   9064   9065     1  0.0000000  0.6508444  3
   9061   9060   9064   9066     1  0.0000000  0.6508444  3
   9061   9060   9067   9068     1  0.0000000  0.6508444  3
   9061   9060   9067   9069     1  0.0000000  0.6508444  3
   9061   9073   9085   9086     1  0.0000000  0.6508444  3
   9061   9073   9085   9087     1  0.0000000  0.6508444  3
   9062   9061   9060   9064     1  0.0000000  0.6508444  3
   9062   9061   9060   9067     1  0.0000000  0.6508444  3
   9062   9061   9060   9089     1  0.0000000  0.6508444  3
   9062   9061   9073   9085     1  0.0000000  0.6508444  3
   9062   9061   9073   9074     1  0.0000000  0.6508444  3
   9062   9061   9073   9075     1  0.0000000  0.6508444  3
   9063   9061   9060   9064     1  0.0000000  0.6508444  3
   9063   9061   9060   9067     1  0.0000000  0.6508444  3
   9063   9061   9060   9089     1  0.0000000  0.6508444  3
   9063   9061   9073   9085     1  0.0000000  0.6508444  3
   9063   9061   9073   9074     1  0.0000000  0.6508444  3
   9063   9061   9073   9075     1  0.0000000  0.6508444  3
   9064   9060   9067   9068     1  0.0000000  0.6508444  3
   9064   9060   9067   9069     1  0.0000000  0.6508444  3
   9064   9076   9082   9083     1  0.0000000  0.6508444  3
   9064   9076   9082   9084     1  0.0000000  0.6508444  3
   9065   9064   9060   9067     1  0.0000000  0.6508444  3
   9065   9064   9060   9089     1  0.0000000  0.6508444  3
   9065   9064   9076   9082     1  0.0000000  0.6508444  3
   9065   9064   9076   9077     1  0.0000000  0.6508444  3
   9065   9064   9076   9078     1  0.0000000  0.6508444  3
   9066   9064   9060   9067     1  0.0000000  0.6508444  3
   9066   9064   9060   9089     1  0.0000000  0.6508444  3
   9066   9064   9076   9082     1  0.0000000  0.6508444  3
   9066   9064   9076   9077     1  0.0000000  0.6508444  3
   9066   9064   9076   9078     1  0.0000000  0.6508444  3
   9067   9070   9079   9080     1  0.0000000  0.6508444  3
   9067   9070   9079   9081     1  0.0000000  0.6508444  3
   9068   9067   9060   9089     1  0.0000000  0.6508444  3
   9068   9067   9070   9079     1  0.0000000  0.6508444  3
   9068   9067   9070   9071     1  0.0000000  0.6508444  3
   9068   9067   9070   9072     1  0.0000000  0.6508444  3
   9069   9067   9060   9089     1  0.0000000  0.6508444  3
   9069   9067   9070   9079     1  0.0000000  0.6508444  3
   9069   9067   9070   9071     1  0.0000000  0.6508444  3
   9069   9067   9070   9072     1  0.0000000  0.6508444  3
   9070   9067   9060   9089     1  0.0000000  0.6508444  3
   9071   9070   9079   9088     1  0.0000000  1.0460000  1
   9071   9070   9079   9088     1  0.0000000  0.0000000  3
   9071   9070   9079   9080     1  0.0000000  0.6508444  3
   9071   9070   9079   9081     1  0.0000000  0.6508444  3
   9072   9070   9079   9088     1  0.0000000  1.0460000  1
   9072   9070   9079   9088     1  0.0000000  0.0000000  3
   9072   9070   9079   9080     1  0.0000000  0.6508444  3
   9072   9070   9079   9081     1  0.0000000  0.6508444  3
   9073   9061   9060   9089     1  0.0000000  0.6508444  3
   9074   9073   9085  16645     1  0.0000000  1.0460000  1
   9074   9073   9085  16645     1  0.0000000  0.0000000  3
   9074   9073   9085   9086     1  0.0000000  0.6508444  3
   9074   9073   9085   9087     1  0.0000000  0.6508444  3
   9075   9073   9085  16645     1  0.0000000  1.0460000  1
   9075   9073   9085  16645     1  0.0000000  0.0000000  3
   9075   9073   9085   9086     1  0.0000000  0.6508444  3
   9075   9073   9085   9087     1  0.0000000  0.6508444  3
   9076   9064   9060   9089     1  0.0000000  0.6508444  3
   9077   9076   9082  16622     1  0.0000000  1.0460000  1
   9077   9076   9082  16622     1  0.0000000  0.0000000  3
   9077   9076   9082   9083     1  0.0000000  0.6508444  3
   9077   9076   9082   9084     1  0.0000000  0.6508444  3
   9078   9076   9082  16622     1  0.0000000  1.0460000  1
   9078   9076   9082  16622     1  0.0000000  0.0000000  3
   9078   9076   9082   9083     1  0.0000000  0.6508444  3
   9078   9076   9082   9084     1  0.0000000  0.6508444  3
   9082  16622  16618  16621     1  0.0000000  1.6038667  3
   9083   9082  16622  16618     1  0.0000000  1.6038667  3
   9084   9082  16622  16618     1  0.0000000  1.6038667  3
   9085  16645  16641  16644     1  0.0000000  1.6038667  3
   9086   9085  16645  16641     1  0.0000000  1.6038667  3
   9087   9085  16645  16641     1  0.0000000  1.6038667  3
   9090   9091   9103   9104     1  0.0000000  0.6508444  3
   9090   9091   9103   9105     1  0.0000000  0.6508444  3
   9090   9094   9106   9107     1  0.0000000  0.6508444  3
   9090   9094   9106   9108     1  0.0000000  0.6508444  3
   9090   9097   9100   9101     1  0.0000000  0.6508444  3
   9090   9097   9100   9102     1  0.0000000  0.6508444  3
   9091   9090   9094   9095     1  0.0000000  0.6508444  3
   9091   9090   9094   9096     1  0.0000000  0.6508444  3
   9091   9090   9097   9098     1  0.0000000  0.6508444  3
   9091   9090   9097   9099     1  0.0000000  0.6508444  3
   9091   9103   9115   9116     1  0.0000000  0.6508444  3
   9091   9103   9115   9117     1  0.0000000  0.6508444  3
   9092   9091   9090   9094     1  0.0000000  0.6508444  3
   9092   9091   9090   9097     1  0.0000000  0.6508444  3
   9092   9091   9090   9119     1  0.0000000  0.6508444  3
   9092   9091   9103   9115     1  0.0000000  0.6508444  3
   9092   9091   9103   9104     1  0.0000000  0.6508444  3
   9092   9091   9103   9105     1  0.0000000  0.6508444  3
   9093   9091   9090   9094     1  0.0000000  0.6508444  3
   9093   9091   9090   9097     1  0.0000000  0.6508444  3
   9093   9091   9090   9119     1  0.0000000  0.6508444  3
   9093   9091   9103   9115     1  0.0000000  0.6508444  3
   9093   9091   9103   9104     1  0.0000000  0.6508444  3
   9093   9091   9103   9105     1  0.0000000  0.6508444  3
   9094   9090   9097   9098     1  0.0000000  0.6508444  3
   9094   9090   9097   9099     1  0.0000000  0.6508444  3
   9094   9106   9112   9113     1  0.0000000  0.6508444  3
   9094   9106   9112   9114     1  0.0000000  0.6508444  3
   9095   9094   9090   9097     1  0.0000000  0.6508444  3
   9095   9094   9090   9119     1  0.0000000  0.6508444  3
   9095   9094   9106   9112     1  0.0000000  0.6508444  3
   9095   9094   9106   9107     1  0.0000000  0.6508444  3
   9095   9094   9106   9108     1  0.0000000  0.6508444  3
   9096   9094   9090   9097     1  0.0000000  0.6508444  3
   9096   9094   9090   9119     1  0.0000000  0.6508444  3
   9096   9094   9106   9112     1  0.0000000  0.6508444  3
   9096   9094   9106   9107     1  0.0000000  0.6508444  3
   9096   9094   9106   9108     1  0.0000000  0.6508444  3
   9097   9100   9109   9110     1  0.0000000  0.6508444  3
   9097   9100   9109   9111     1  0.0000000  0.6508444  3
   9098   9097   9090   9119     1  0.0000000  0.6508444  3
   9098   9097   9100   9109     1  0.0000000  0.6508444  3
   9098   9097   9100   9101     1  0.0000000  0.6508444  3
   9098   9097   9100   9102     1  0.0000000  0.6508444  3
   9099   9097   9090   9119     1  0.0000000  0.6508444  3
   9099   9097   9100   9109     1  0.0000000  0.6508444  3
   9099   9097   9100   9101     1  0.0000000  0.6508444  3
   9099   9097   9100   9102     1  0.0000000  0.6508444  3
   9100   9097   9090   9119     1  0.0000000  0.6508444  3
   9101   9100   9109   9118     1  0.0000000  1.0460000  1
   9101   9100   9109   9118     1  0.0000000  0.0000000  3
   9101   9100   9109   9110     1  0.0000000  0.6508444  3
   9101   9100   9109   9111     1  0.0000000  0.6508444  3
   9102   9100   9109   9118     1  0.0000000  1.0460000  1
   9102   9100   9109   9118     1  0.0000000  0.0000000  3
   9102   9100   9109   9110     1  0.0000000  0.6508444  3
   9102   9100   9109   9111     1  0.0000000  0.6508444  3
   9103   9091   9090   9119     1  0.0000000  0.6508444  3
   9104   9103   9115  16691     1  0.0000000  1.0460000  1
   9104   9103   9115  16691     1  0.0000000  0.0000000  3
   9104   9103   9115   9116     1  0.0000000  0.6508444  3
   9104   9103   9115   9117     1  0.0000000  0.6508444  3
   9105   9103   9115  16691     1  0.0000000  1.0460000  1
   9105   9103   9115  16691     1  0.0000000  0.0000000  3
   9105   9103   9115   9116     1  0.0000000  0.6508444  3
   9105   9103   9115   9117     1  0.0000000  0.6508444  3
   9106   9094   9090   9119     1  0.0000000  0.6508444  3
   9107   9106   9112  16668     1  0.0000000  1.0460000  1
   9107   9106   9112  16668     1  0.0000000  0.0000000  3
   9107   9106   9112   9113     1  0.0000000  0.6508444  3
   9107   9106   9112   9114     1  0.0000000  0.6508444  3
   9108   9106   9112  16668     1  0.0000000  1.0460000  1
   9108   9106   9112  16668     1  0.0000000  0.0000000  3
   9108   9106   9112   9113     1  0.0000000  0.6508444  3
   9108   9106   9112   9114     1  0.0000000  0.6508444  3
   9112  16668  16664  16667     1  0.0000000  1.6038667  3
   9113   9112  16668  16664     1  0.0000000  1.6038667  3
   9114   9112  16668  16664     1  0.0000000  1.6038667  3
   9115  16691  16687  16690     1  0.0000000  1.6038667  3
   9116   9115  16691  16687     1  0.0000000  1.6038667  3
   9117   9115  16691  16687     1  0.0000000  1.6038667  3
   9120   9121   9133   9134     1  0.0000000  0.6508444  3
   9120   9121   9133   9135     1  0.0000000  0.6508444  3
   9120   9124   9136   9137     1  0.0000000  0.6508444  3
   9120   9124   9136   9138     1  0.0000000  0.6508444  3
   9120   9127   9130   9131     1  0.0000000  0.6508444  3
   9120   9127   9130   9132     1  0.0000000  0.6508444  3
   9121   9120   9124   9125     1  0.0000000  0.6508444  3
   9121   9120   9124   9126     1  0.0000000  0.6508444  3
   9121   9120   9127   9128     1  0.0000000  0.6508444  3
   9121   9120   9127   9129     1  0.0000000  0.6508444  3
   9121   9133   9145   9146     1  0.0000000  0.6508444  3
   9121   9133   9145   9147     1  0.0000000  0.6508444  3
   9122   9121   9120   9124     1  0.0000000  0.6508444  3
   9122   9121   9120   9127     1  0.0000000  0.6508444  3
   9122   9121   9120   9149     1  0.0000000  0.6508444  3
   9122   9121   9133   9145     1  0.0000000  0.6508444  3
   9122   9121   9133   9134     1  0.0000000  0.6508444  3
   9122   9121   9133   9135     1  0.0000000  0.6508444  3
   9123   9121   9120   9124     1  0.0000000  0.6508444  3
   9123   9121   9120   9127     1  0.0000000  0.6508444  3
   9123   9121   9120   9149     1  0.0000000  0.6508444  3
   9123   9121   9133   9145     1  0.0000000  0.6508444  3
   9123   9121   9133   9134     1  0.0000000  0.6508444  3
   9123   9121   9133   9135     1  0.0000000  0.6508444  3
   9124   9120   9127   9128     1  0.0000000  0.6508444  3
   9124   9120   9127   9129     1  0.0000000  0.6508444  3
   9124   9136   9142   9143     1  0.0000000  0.6508444  3
   9124   9136   9142   9144     1  0.0000000  0.6508444  3
   9125   9124   9120   9127     1  0.0000000  0.6508444  3
   9125   9124   9120   9149     1  0.0000000  0.6508444  3
   9125   9124   9136   9142     1  0.0000000  0.6508444  3
   9125   9124   9136   9137     1  0.0000000  0.6508444  3
   9125   9124   9136   9138     1  0.0000000  0.6508444  3
   9126   9124   9120   9127     1  0.0000000  0.6508444  3
   9126   9124   9120   9149     1  0.0000000  0.6508444  3
   9126   9124   9136   9142     1  0.0000000  0.6508444  3
   9126   9124   9136   9137     1  0.0000000  0.6508444  3
   9126   9124   9136   9138     1  0.0000000  0.6508444  3
   9127   9130   9139   9140     1  0.0000000  0.6508444  3
   9127   9130   9139   9141     1  0.0000000  0.6508444  3
   9128   9127   9120   9149     1  0.0000000  0.6508444  3
   9128   9127   9130   9139     1  0.0000000  0.6508444  3
   9128   9127   9130   9131     1  0.0000000  0.6508444  3
   9128   9127   9130   9132     1  0.0000000  0.6508444  3
   9129   9127   9120   9149     1  0.0000000  0.6508444  3
   9129   9127   9130   9139     1  0.0000000  0.6508444  3
   9129   9127   9130   9131     1  0.0000000  0.6508444  3
   9129   9127   9130   9132     1  0.0000000  0.6508444  3
   9130   9127   9120   9149     1  0.0000000  0.6508444  3
   9131   9130   9139   9148     1  0.0000000  1.0460000  1
   9131   9130   9139   9148     1  0.0000000  0.0000000  3
   9131   9130   9139   9140     1  0.0000000  0.6508444  3
   9131   9130   9139   9141     1  0.0000000  0.6508444  3
   9132   9130   9139   9148     1  0.0000000  1.0460000  1
   9132   9130   9139   9148     1  0.0000000  0.0000000  3
   9132   9130   9139   9140     1  0.0000000  0.6508444  3
   9132   9130   9139   9141     1  0.0000000  0.6508444  3
   9133   9121   9120   9149     1  0.0000000  0.6508444  3
   9134   9133   9145  16737     1  0.0000000  1.0460000  1
   9134   9133   9145  16737     1  0.0000000  0.0000000  3
   9134   9133   9145   9146     1  0.0000000  0.6508444  3
   9134   9133   9145   9147     1  0.0000000  0.6508444  3
   9135   9133   9145  16737     1  0.0000000  1.0460000  1
   9135   9133   9145  16737     1  0.0000000  0.0000000  3
   9135   9133   9145   9146     1  0.0000000  0.6508444  3
   9135   9133   9145   9147     1  0.0000000  0.6508444  3
   9136   9124   9120   9149     1  0.0000000  0.6508444  3
   9137   9136   9142  16714     1  0.0000000  1.0460000  1
   9137   9136   9142  16714     1  0.0000000  0.0000000  3
   9137   9136   9142   9143     1  0.0000000  0.6508444  3
   9137   9136   9142   9144     1  0.0000000  0.6508444  3
   9138   9136   9142  16714     1  0.0000000  1.0460000  1
   9138   9136   9142  16714     1  0.0000000  0.0000000  3
   9138   9136   9142   9143     1  0.0000000  0.6508444  3
   9138   9136   9142   9144     1  0.0000000  0.6508444  3
   9142  16714  16710  16713     1  0.0000000  1.6038667  3
   9143   9142  16714  16710     1  0.0000000  1.6038667  3
   9144   9142  16714  16710     1  0.0000000  1.6038667  3
   9145  16737  16733  16736     1  0.0000000  1.6038667  3
   9146   9145  16737  16733     1  0.0000000  1.6038667  3
   9147   9145  16737  16733     1  0.0000000  1.6038667  3
   9150   9151   9163   9164     1  0.0000000  0.6508444  3
   9150   9151   9163   9165     1  0.0000000  0.6508444  3
   9150   9154   9166   9167     1  0.0000000  0.6508444  3
   9150   9154   9166   9168     1  0.0000000  0.6508444  3
   9150   9157   9160   9161     1  0.0000000  0.6508444  3
   9150   9157   9160   9162     1  0.0000000  0.6508444  3
   9151   9150   9154   9155     1  0.0000000  0.6508444  3
   9151   9150   9154   9156     1  0.0000000  0.6508444  3
   9151   9150   9157   9158     1  0.0000000  0.6508444  3
   9151   9150   9157   9159     1  0.0000000  0.6508444  3
   9151   9163   9175   9176     1  0.0000000  0.6508444  3
   9151   9163   9175   9177     1  0.0000000  0.6508444  3
   9152   9151   9150   9154     1  0.0000000  0.6508444  3
   9152   9151   9150   9157     1  0.0000000  0.6508444  3
   9152   9151   9150   9179     1  0.0000000  0.6508444  3
   9152   9151   9163   9175     1  0.0000000  0.6508444  3
   9152   9151   9163   9164     1  0.0000000  0.6508444  3
   9152   9151   9163   9165     1  0.0000000  0.6508444  3
   9153   9151   9150   9154     1  0.0000000  0.6508444  3
   9153   9151   9150   9157     1  0.0000000  0.6508444  3
   9153   9151   9150   9179     1  0.0000000  0.6508444  3
   9153   9151   9163   9175     1  0.0000000  0.6508444  3
   9153   9151   9163   9164     1  0.0000000  0.6508444  3
   9153   9151   9163   9165     1  0.0000000  0.6508444  3
   9154   9150   9157   9158     1  0.0000000  0.6508444  3
   9154   9150   9157   9159     1  0.0000000  0.6508444  3
   9154   9166   9172   9173     1  0.0000000  0.6508444  3
   9154   9166   9172   9174     1  0.0000000  0.6508444  3
   9155   9154   9150   9157     1  0.0000000  0.6508444  3
   9155   9154   9150   9179     1  0.0000000  0.6508444  3
   9155   9154   9166   9172     1  0.0000000  0.6508444  3
   9155   9154   9166   9167     1  0.0000000  0.6508444  3
   9155   9154   9166   9168     1  0.0000000  0.6508444  3
   9156   9154   9150   9157     1  0.0000000  0.6508444  3
   9156   9154   9150   9179     1  0.0000000  0.6508444  3
   9156   9154   9166   9172     1  0.0000000  0.6508444  3
   9156   9154   9166   9167     1  0.0000000  0.6508444  3
   9156   9154   9166   9168     1  0.0000000  0.6508444  3
   9157   9160   9169   9170     1  0.0000000  0.6508444  3
   9157   9160   9169   9171     1  0.0000000  0.6508444  3
   9158   9157   9150   9179     1  0.0000000  0.6508444  3
   9158   9157   9160   9169     1  0.0000000  0.6508444  3
   9158   9157   9160   9161     1  0.0000000  0.6508444  3
   9158   9157   9160   9162     1  0.0000000  0.6508444  3
   9159   9157   9150   9179     1  0.0000000  0.6508444  3
   9159   9157   9160   9169     1  0.0000000  0.6508444  3
   9159   9157   9160   9161     1  0.0000000  0.6508444  3
   9159   9157   9160   9162     1  0.0000000  0.6508444  3
   9160   9157   9150   9179     1  0.0000000  0.6508444  3
   9161   9160   9169   9178     1  0.0000000  1.0460000  1
   9161   9160   9169   9178     1  0.0000000  0.0000000  3
   9161   9160   9169   9170     1  0.0000000  0.6508444  3
   9161   9160   9169   9171     1  0.0000000  0.6508444  3
   9162   9160   9169   9178     1  0.0000000  1.0460000  1
   9162   9160   9169   9178     1  0.0000000  0.0000000  3
   9162   9160   9169   9170     1  0.0000000  0.6508444  3
   9162   9160   9169   9171     1  0.0000000  0.6508444  3
   9163   9151   9150   9179     1  0.0000000  0.6508444  3
   9164   9163   9175  16783     1  0.0000000  1.0460000  1
   9164   9163   9175  16783     1  0.0000000  0.0000000  3
   9164   9163   9175   9176     1  0.0000000  0.6508444  3
   9164   9163   9175   9177     1  0.0000000  0.6508444  3
   9165   9163   9175  16783     1  0.0000000  1.0460000  1
   9165   9163   9175  16783     1  0.0000000  0.0000000  3
   9165   9163   9175   9176     1  0.0000000  0.6508444  3
   9165   9163   9175   9177     1  0.0000000  0.6508444  3
   9166   9154   9150   9179     1  0.0000000  0.6508444  3
   9167   9166   9172  16760     1  0.0000000  1.0460000  1
   9167   9166   9172  16760     1  0.0000000  0.0000000  3
   9167   9166   9172   9173     1  0.0000000  0.6508444  3
   9167   9166   9172   9174     1  0.0000000  0.6508444  3
   9168   9166   9172  16760     1  0.0000000  1.0460000  1
   9168   9166   9172  16760     1  0.0000000  0.0000000  3
   9168   9166   9172   9173     1  0.0000000  0.6508444  3
   9168   9166   9172   9174     1  0.0000000  0.6508444  3
   9172  16760  16756  16759     1  0.0000000  1.6038667  3
   9173   9172  16760  16756     1  0.0000000  1.6038667  3
   9174   9172  16760  16756     1  0.0000000  1.6038667  3
   9175  16783  16779  16782     1  0.0000000  1.6038667  3
   9176   9175  16783  16779     1  0.0000000  1.6038667  3
   9177   9175  16783  16779     1  0.0000000  1.6038667  3
   9180   9181   9193   9194     1  0.0000000  0.6508444  3
   9180   9181   9193   9195     1  0.0000000  0.6508444  3
   9180   9184   9196   9197     1  0.0000000  0.6508444  3
   9180   9184   9196   9198     1  0.0000000  0.6508444  3
   9180   9187   9190   9191     1  0.0000000  0.6508444  3
   9180   9187   9190   9192     1  0.0000000  0.6508444  3
   9181   9180   9184   9185     1  0.0000000  0.6508444  3
   9181   9180   9184   9186     1  0.0000000  0.6508444  3
   9181   9180   9187   9188     1  0.0000000  0.6508444  3
   9181   9180   9187   9189     1  0.0000000  0.6508444  3
   9181   9193   9205   9206     1  0.0000000  0.6508444  3
   9181   9193   9205   9207     1  0.0000000  0.6508444  3
   9182   9181   9180   9184     1  0.0000000  0.6508444  3
   9182   9181   9180   9187     1  0.0000000  0.6508444  3
   9182   9181   9180   9209     1  0.0000000  0.6508444  3
   9182   9181   9193   9205     1  0.0000000  0.6508444  3
   9182   9181   9193   9194     1  0.0000000  0.6508444  3
   9182   9181   9193   9195     1  0.0000000  0.6508444  3
   9183   9181   9180   9184     1  0.0000000  0.6508444  3
   9183   9181   9180   9187     1  0.0000000  0.6508444  3
   9183   9181   9180   9209     1  0.0000000  0.6508444  3
   9183   9181   9193   9205     1  0.0000000  0.6508444  3
   9183   9181   9193   9194     1  0.0000000  0.6508444  3
   9183   9181   9193   9195     1  0.0000000  0.6508444  3
   9184   9180   9187   9188     1  0.0000000  0.6508444  3
   9184   9180   9187   9189     1  0.0000000  0.6508444  3
   9184   9196   9202   9203     1  0.0000000  0.6508444  3
   9184   9196   9202   9204     1  0.0000000  0.6508444  3
   9185   9184   9180   9187     1  0.0000000  0.6508444  3
   9185   9184   9180   9209     1  0.0000000  0.6508444  3
   9185   9184   9196   9202     1  0.0000000  0.6508444  3
   9185   9184   9196   9197     1  0.0000000  0.6508444  3
   9185   9184   9196   9198     1  0.0000000  0.6508444  3
   9186   9184   9180   9187     1  0.0000000  0.6508444  3
   9186   9184   9180   9209     1  0.0000000  0.6508444  3
   9186   9184   9196   9202     1  0.0000000  0.6508444  3
   9186   9184   9196   9197     1  0.0000000  0.6508444  3
   9186   9184   9196   9198     1  0.0000000  0.6508444  3
   9187   9190   9199   9200     1  0.0000000  0.6508444  3
   9187   9190   9199   9201     1  0.0000000  0.6508444  3
   9188   9187   9180   9209     1  0.0000000  0.6508444  3
   9188   9187   9190   9199     1  0.0000000  0.6508444  3
   9188   9187   9190   9191     1  0.0000000  0.6508444  3
   9188   9187   9190   9192     1  0.0000000  0.6508444  3
   9189   9187   9180   9209     1  0.0000000  0.6508444  3
   9189   9187   9190   9199     1  0.0000000  0.6508444  3
   9189   9187   9190   9191     1  0.0000000  0.6508444  3
   9189   9187   9190   9192     1  0.0000000  0.6508444  3
   9190   9187   9180   9209     1  0.0000000  0.6508444  3
   9191   9190   9199   9208     1  0.0000000  1.0460000  1
   9191   9190   9199   9208     1  0.0000000  0.0000000  3
   9191   9190   9199   9200     1  0.0000000  0.6508444  3
   9191   9190   9199   9201     1  0.0000000  0.6508444  3
   9192   9190   9199   9208     1  0.0000000  1.0460000  1
   9192   9190   9199   9208     1  0.0000000  0.0000000  3
   9192   9190   9199   9200     1  0.0000000  0.6508444  3
   9192   9190   9199   9201     1  0.0000000  0.6508444  3
   9193   9181   9180   9209     1  0.0000000  0.6508444  3
   9194   9193   9205  16829     1  0.0000000  1.0460000  1
   9194   9193   9205  16829     1  0.0000000  0.0000000  3
   9194   9193   9205   9206     1  0.0000000  0.6508444  3
   9194   9193   9205   9207     1  0.0000000  0.6508444  3
   9195   9193   9205  16829     1  0.0000000  1.0460000  1
   9195   9193   9205  16829     1  0.0000000  0.0000000  3
   9195   9193   9205   9206     1  0.0000000  0.6508444  3
   9195   9193   9205   9207     1  0.0000000  0.6508444  3
   9196   9184   9180   9209     1  0.0000000  0.6508444  3
   9197   9196   9202  16806     1  0.0000000  1.0460000  1
   9197   9196   9202  16806     1  0.0000000  0.0000000  3
   9197   9196   9202   9203     1  0.0000000  0.6508444  3
   9197   9196   9202   9204     1  0.0000000  0.6508444  3
   9198   9196   9202  16806     1  0.0000000  1.0460000  1
   9198   9196   9202  16806     1  0.0000000  0.0000000  3
   9198   9196   9202   9203     1  0.0000000  0.6508444  3
   9198   9196   9202   9204     1  0.0000000  0.6508444  3
   9202  16806  16802  16805     1  0.0000000  1.6038667  3
   9203   9202  16806  16802     1  0.0000000  1.6038667  3
   9204   9202  16806  16802     1  0.0000000  1.6038667  3
   9205  16829  16825  16828     1  0.0000000  1.6038667  3
   9206   9205  16829  16825     1  0.0000000  1.6038667  3
   9207   9205  16829  16825     1  0.0000000  1.6038667  3
   9210   9211   9223   9224     1  0.0000000  0.6508444  3
   9210   9211   9223   9225     1  0.0000000  0.6508444  3
   9210   9214   9226   9227     1  0.0000000  0.6508444  3
   9210   9214   9226   9228     1  0.0000000  0.6508444  3
   9210   9217   9220   9221     1  0.0000000  0.6508444  3
   9210   9217   9220   9222     1  0.0000000  0.6508444  3
   9211   9210   9214   9215     1  0.0000000  0.6508444  3
   9211   9210   9214   9216     1  0.0000000  0.6508444  3
   9211   9210   9217   9218     1  0.0000000  0.6508444  3
   9211   9210   9217   9219     1  0.0000000  0.6508444  3
   9211   9223   9235   9236     1  0.0000000  0.6508444  3
   9211   9223   9235   9237     1  0.0000000  0.6508444  3
   9212   9211   9210   9214     1  0.0000000  0.6508444  3
   9212   9211   9210   9217     1  0.0000000  0.6508444  3
   9212   9211   9210   9239     1  0.0000000  0.6508444  3
   9212   9211   9223   9235     1  0.0000000  0.6508444  3
   9212   9211   9223   9224     1  0.0000000  0.6508444  3
   9212   9211   9223   9225     1  0.0000000  0.6508444  3
   9213   9211   9210   9214     1  0.0000000  0.6508444  3
   9213   9211   9210   9217     1  0.0000000  0.6508444  3
   9213   9211   9210   9239     1  0.0000000  0.6508444  3
   9213   9211   9223   9235     1  0.0000000  0.6508444  3
   9213   9211   9223   9224     1  0.0000000  0.6508444  3
   9213   9211   9223   9225     1  0.0000000  0.6508444  3
   9214   9210   9217   9218     1  0.0000000  0.6508444  3
   9214   9210   9217   9219     1  0.0000000  0.6508444  3
   9214   9226   9232   9233     1  0.0000000  0.6508444  3
   9214   9226   9232   9234     1  0.0000000  0.6508444  3
   9215   9214   9210   9217     1  0.0000000  0.6508444  3
   9215   9214   9210   9239     1  0.0000000  0.6508444  3
   9215   9214   9226   9232     1  0.0000000  0.6508444  3
   9215   9214   9226   9227     1  0.0000000  0.6508444  3
   9215   9214   9226   9228     1  0.0000000  0.6508444  3
   9216   9214   9210   9217     1  0.0000000  0.6508444  3
   9216   9214   9210   9239     1  0.0000000  0.6508444  3
   9216   9214   9226   9232     1  0.0000000  0.6508444  3
   9216   9214   9226   9227     1  0.0000000  0.6508444  3
   9216   9214   9226   9228     1  0.0000000  0.6508444  3
   9217   9220   9229   9230     1  0.0000000  0.6508444  3
   9217   9220   9229   9231     1  0.0000000  0.6508444  3
   9218   9217   9210   9239     1  0.0000000  0.6508444  3
   9218   9217   9220   9229     1  0.0000000  0.6508444  3
   9218   9217   9220   9221     1  0.0000000  0.6508444  3
   9218   9217   9220   9222     1  0.0000000  0.6508444  3
   9219   9217   9210   9239     1  0.0000000  0.6508444  3
   9219   9217   9220   9229     1  0.0000000  0.6508444  3
   9219   9217   9220   9221     1  0.0000000  0.6508444  3
   9219   9217   9220   9222     1  0.0000000  0.6508444  3
   9220   9217   9210   9239     1  0.0000000  0.6508444  3
   9221   9220   9229   9238     1  0.0000000  1.0460000  1
   9221   9220   9229   9238     1  0.0000000  0.0000000  3
   9221   9220   9229   9230     1  0.0000000  0.6508444  3
   9221   9220   9229   9231     1  0.0000000  0.6508444  3
   9222   9220   9229   9238     1  0.0000000  1.0460000  1
   9222   9220   9229   9238     1  0.0000000  0.0000000  3
   9222   9220   9229   9230     1  0.0000000  0.6508444  3
   9222   9220   9229   9231     1  0.0000000  0.6508444  3
   9223   9211   9210   9239     1  0.0000000  0.6508444  3
   9224   9223   9235  16875     1  0.0000000  1.0460000  1
   9224   9223   9235  16875     1  0.0000000  0.0000000  3
   9224   9223   9235   9236     1  0.0000000  0.6508444  3
   9224   9223   9235   9237     1  0.0000000  0.6508444  3
   9225   9223   9235  16875     1  0.0000000  1.0460000  1
   9225   9223   9235  16875     1  0.0000000  0.0000000  3
   9225   9223   9235   9236     1  0.0000000  0.6508444  3
   9225   9223   9235   9237     1  0.0000000  0.6508444  3
   9226   9214   9210   9239     1  0.0000000  0.6508444  3
   9227   9226   9232  16852     1  0.0000000  1.0460000  1
   9227   9226   9232  16852     1  0.0000000  0.0000000  3
   9227   9226   9232   9233     1  0.0000000  0.6508444  3
   9227   9226   9232   9234     1  0.0000000  0.6508444  3
   9228   9226   9232  16852     1  0.0000000  1.0460000  1
   9228   9226   9232  16852     1  0.0000000  0.0000000  3
   9228   9226   9232   9233     1  0.0000000  0.6508444  3
   9228   9226   9232   9234     1  0.0000000  0.6508444  3
   9232  16852  16848  16851     1  0.0000000  1.6038667  3
   9233   9232  16852  16848     1  0.0000000  1.6038667  3
   9234   9232  16852  16848     1  0.0000000  1.6038667  3
   9235  16875  16871  16874     1  0.0000000  1.6038667  3
   9236   9235  16875  16871     1  0.0000000  1.6038667  3
   9237   9235  16875  16871     1  0.0000000  1.6038667  3
   9240   9241   9253   9254     1  0.0000000  0.6508444  3
   9240   9241   9253   9255     1  0.0000000  0.6508444  3
   9240   9244   9256   9257     1  0.0000000  0.6508444  3
   9240   9244   9256   9258     1  0.0000000  0.6508444  3
   9240   9247   9250   9251     1  0.0000000  0.6508444  3
   9240   9247   9250   9252     1  0.0000000  0.6508444  3
   9241   9240   9244   9245     1  0.0000000  0.6508444  3
   9241   9240   9244   9246     1  0.0000000  0.6508444  3
   9241   9240   9247   9248     1  0.0000000  0.6508444  3
   9241   9240   9247   9249     1  0.0000000  0.6508444  3
   9241   9253   9265   9266     1  0.0000000  0.6508444  3
   9241   9253   9265   9267     1  0.0000000  0.6508444  3
   9242   9241   9240   9244     1  0.0000000  0.6508444  3
   9242   9241   9240   9247     1  0.0000000  0.6508444  3
   9242   9241   9240   9269     1  0.0000000  0.6508444  3
   9242   9241   9253   9265     1  0.0000000  0.6508444  3
   9242   9241   9253   9254     1  0.0000000  0.6508444  3
   9242   9241   9253   9255     1  0.0000000  0.6508444  3
   9243   9241   9240   9244     1  0.0000000  0.6508444  3
   9243   9241   9240   9247     1  0.0000000  0.6508444  3
   9243   9241   9240   9269     1  0.0000000  0.6508444  3
   9243   9241   9253   9265     1  0.0000000  0.6508444  3
   9243   9241   9253   9254     1  0.0000000  0.6508444  3
   9243   9241   9253   9255     1  0.0000000  0.6508444  3
   9244   9240   9247   9248     1  0.0000000  0.6508444  3
   9244   9240   9247   9249     1  0.0000000  0.6508444  3
   9244   9256   9262   9263     1  0.0000000  0.6508444  3
   9244   9256   9262   9264     1  0.0000000  0.6508444  3
   9245   9244   9240   9247     1  0.0000000  0.6508444  3
   9245   9244   9240   9269     1  0.0000000  0.6508444  3
   9245   9244   9256   9262     1  0.0000000  0.6508444  3
   9245   9244   9256   9257     1  0.0000000  0.6508444  3
   9245   9244   9256   9258     1  0.0000000  0.6508444  3
   9246   9244   9240   9247     1  0.0000000  0.6508444  3
   9246   9244   9240   9269     1  0.0000000  0.6508444  3
   9246   9244   9256   9262     1  0.0000000  0.6508444  3
   9246   9244   9256   9257     1  0.0000000  0.6508444  3
   9246   9244   9256   9258     1  0.0000000  0.6508444  3
   9247   9250   9259   9260     1  0.0000000  0.6508444  3
   9247   9250   9259   9261     1  0.0000000  0.6508444  3
   9248   9247   9240   9269     1  0.0000000  0.6508444  3
   9248   9247   9250   9259     1  0.0000000  0.6508444  3
   9248   9247   9250   9251     1  0.0000000  0.6508444  3
   9248   9247   9250   9252     1  0.0000000  0.6508444  3
   9249   9247   9240   9269     1  0.0000000  0.6508444  3
   9249   9247   9250   9259     1  0.0000000  0.6508444  3
   9249   9247   9250   9251     1  0.0000000  0.6508444  3
   9249   9247   9250   9252     1  0.0000000  0.6508444  3
   9250   9247   9240   9269     1  0.0000000  0.6508444  3
   9251   9250   9259   9268     1  0.0000000  1.0460000  1
   9251   9250   9259   9268     1  0.0000000  0.0000000  3
   9251   9250   9259   9260     1  0.0000000  0.6508444  3
   9251   9250   9259   9261     1  0.0000000  0.6508444  3
   9252   9250   9259   9268     1  0.0000000  1.0460000  1
   9252   9250   9259   9268     1  0.0000000  0.0000000  3
   9252   9250   9259   9260     1  0.0000000  0.6508444  3
   9252   9250   9259   9261     1  0.0000000  0.6508444  3
   9253   9241   9240   9269     1  0.0000000  0.6508444  3
   9254   9253   9265  16921     1  0.0000000  1.0460000  1
   9254   9253   9265  16921     1  0.0000000  0.0000000  3
   9254   9253   9265   9266     1  0.0000000  0.6508444  3
   9254   9253   9265   9267     1  0.0000000  0.6508444  3
   9255   9253   9265  16921     1  0.0000000  1.0460000  1
   9255   9253   9265  16921     1  0.0000000  0.0000000  3
   9255   9253   9265   9266     1  0.0000000  0.6508444  3
   9255   9253   9265   9267     1  0.0000000  0.6508444  3
   9256   9244   9240   9269     1  0.0000000  0.6508444  3
   9257   9256   9262  16898     1  0.0000000  1.0460000  1
   9257   9256   9262  16898     1  0.0000000  0.0000000  3
   9257   9256   9262   9263     1  0.0000000  0.6508444  3
   9257   9256   9262   9264     1  0.0000000  0.6508444  3
   9258   9256   9262  16898     1  0.0000000  1.0460000  1
   9258   9256   9262  16898     1  0.0000000  0.0000000  3
   9258   9256   9262   9263     1  0.0000000  0.6508444  3
   9258   9256   9262   9264     1  0.0000000  0.6508444  3
   9262  16898  16894  16897     1  0.0000000  1.6038667  3
   9263   9262  16898  16894     1  0.0000000  1.6038667  3
   9264   9262  16898  16894     1  0.0000000  1.6038667  3
   9265  16921  16917  16920     1  0.0000000  1.6038667  3
   9266   9265  16921  16917     1  0.0000000  1.6038667  3
   9267   9265  16921  16917     1  0.0000000  1.6038667  3
   9270   9271   9283   9284     1  0.0000000  0.6508444  3
   9270   9271   9283   9285     1  0.0000000  0.6508444  3
   9270   9274   9286   9287     1  0.0000000  0.6508444  3
   9270   9274   9286   9288     1  0.0000000  0.6508444  3
   9270   9277   9280   9281     1  0.0000000  0.6508444  3
   9270   9277   9280   9282     1  0.0000000  0.6508444  3
   9271   9270   9274   9275     1  0.0000000  0.6508444  3
   9271   9270   9274   9276     1  0.0000000  0.6508444  3
   9271   9270   9277   9278     1  0.0000000  0.6508444  3
   9271   9270   9277   9279     1  0.0000000  0.6508444  3
   9271   9283   9295   9296     1  0.0000000  0.6508444  3
   9271   9283   9295   9297     1  0.0000000  0.6508444  3
   9272   9271   9270   9274     1  0.0000000  0.6508444  3
   9272   9271   9270   9277     1  0.0000000  0.6508444  3
   9272   9271   9270   9299     1  0.0000000  0.6508444  3
   9272   9271   9283   9295     1  0.0000000  0.6508444  3
   9272   9271   9283   9284     1  0.0000000  0.6508444  3
   9272   9271   9283   9285     1  0.0000000  0.6508444  3
   9273   9271   9270   9274     1  0.0000000  0.6508444  3
   9273   9271   9270   9277     1  0.0000000  0.6508444  3
   9273   9271   9270   9299     1  0.0000000  0.6508444  3
   9273   9271   9283   9295     1  0.0000000  0.6508444  3
   9273   9271   9283   9284     1  0.0000000  0.6508444  3
   9273   9271   9283   9285     1  0.0000000  0.6508444  3
   9274   9270   9277   9278     1  0.0000000  0.6508444  3
   9274   9270   9277   9279     1  0.0000000  0.6508444  3
   9274   9286   9292   9293     1  0.0000000  0.6508444  3
   9274   9286   9292   9294     1  0.0000000  0.6508444  3
   9275   9274   9270   9277     1  0.0000000  0.6508444  3
   9275   9274   9270   9299     1  0.0000000  0.6508444  3
   9275   9274   9286   9292     1  0.0000000  0.6508444  3
   9275   9274   9286   9287     1  0.0000000  0.6508444  3
   9275   9274   9286   9288     1  0.0000000  0.6508444  3
   9276   9274   9270   9277     1  0.0000000  0.6508444  3
   9276   9274   9270   9299     1  0.0000000  0.6508444  3
   9276   9274   9286   9292     1  0.0000000  0.6508444  3
   9276   9274   9286   9287     1  0.0000000  0.6508444  3
   9276   9274   9286   9288     1  0.0000000  0.6508444  3
   9277   9280   9289   9290     1  0.0000000  0.6508444  3
   9277   9280   9289   9291     1  0.0000000  0.6508444  3
   9278   9277   9270   9299     1  0.0000000  0.6508444  3
   9278   9277   9280   9289     1  0.0000000  0.6508444  3
   9278   9277   9280   9281     1  0.0000000  0.6508444  3
   9278   9277   9280   9282     1  0.0000000  0.6508444  3
   9279   9277   9270   9299     1  0.0000000  0.6508444  3
   9279   9277   9280   9289     1  0.0000000  0.6508444  3
   9279   9277   9280   9281     1  0.0000000  0.6508444  3
   9279   9277   9280   9282     1  0.0000000  0.6508444  3
   9280   9277   9270   9299     1  0.0000000  0.6508444  3
   9281   9280   9289   9298     1  0.0000000  1.0460000  1
   9281   9280   9289   9298     1  0.0000000  0.0000000  3
   9281   9280   9289   9290     1  0.0000000  0.6508444  3
   9281   9280   9289   9291     1  0.0000000  0.6508444  3
   9282   9280   9289   9298     1  0.0000000  1.0460000  1
   9282   9280   9289   9298     1  0.0000000  0.0000000  3
   9282   9280   9289   9290     1  0.0000000  0.6508444  3
   9282   9280   9289   9291     1  0.0000000  0.6508444  3
   9283   9271   9270   9299     1  0.0000000  0.6508444  3
   9284   9283   9295  16967     1  0.0000000  1.0460000  1
   9284   9283   9295  16967     1  0.0000000  0.0000000  3
   9284   9283   9295   9296     1  0.0000000  0.6508444  3
   9284   9283   9295   9297     1  0.0000000  0.6508444  3
   9285   9283   9295  16967     1  0.0000000  1.0460000  1
   9285   9283   9295  16967     1  0.0000000  0.0000000  3
   9285   9283   9295   9296     1  0.0000000  0.6508444  3
   9285   9283   9295   9297     1  0.0000000  0.6508444  3
   9286   9274   9270   9299     1  0.0000000  0.6508444  3
   9287   9286   9292  16944     1  0.0000000  1.0460000  1
   9287   9286   9292  16944     1  0.0000000  0.0000000  3
   9287   9286   9292   9293     1  0.0000000  0.6508444  3
   9287   9286   9292   9294     1  0.0000000  0.6508444  3
   9288   9286   9292  16944     1  0.0000000  1.0460000  1
   9288   9286   9292  16944     1  0.0000000  0.0000000  3
   9288   9286   9292   9293     1  0.0000000  0.6508444  3
   9288   9286   9292   9294     1  0.0000000  0.6508444  3
   9292  16944  16940  16943     1  0.0000000  1.6038667  3
   9293   9292  16944  16940     1  0.0000000  1.6038667  3
   9294   9292  16944  16940     1  0.0000000  1.6038667  3
   9295  16967  16963  16966     1  0.0000000  1.6038667  3
   9296   9295  16967  16963     1  0.0000000  1.6038667  3
   9297   9295  16967  16963     1  0.0000000  1.6038667  3
   9300   9301   9313   9314     1  0.0000000  0.6508444  3
   9300   9301   9313   9315     1  0.0000000  0.6508444  3
   9300   9304   9316   9317     1  0.0000000  0.6508444  3
   9300   9304   9316   9318     1  0.0000000  0.6508444  3
   9300   9307   9310   9311     1  0.0000000  0.6508444  3
   9300   9307   9310   9312     1  0.0000000  0.6508444  3
   9301   9300   9304   9305     1  0.0000000  0.6508444  3
   9301   9300   9304   9306     1  0.0000000  0.6508444  3
   9301   9300   9307   9308     1  0.0000000  0.6508444  3
   9301   9300   9307   9309     1  0.0000000  0.6508444  3
   9301   9313   9325   9326     1  0.0000000  0.6508444  3
   9301   9313   9325   9327     1  0.0000000  0.6508444  3
   9302   9301   9300   9304     1  0.0000000  0.6508444  3
   9302   9301   9300   9307     1  0.0000000  0.6508444  3
   9302   9301   9300   9329     1  0.0000000  0.6508444  3
   9302   9301   9313   9325     1  0.0000000  0.6508444  3
   9302   9301   9313   9314     1  0.0000000  0.6508444  3
   9302   9301   9313   9315     1  0.0000000  0.6508444  3
   9303   9301   9300   9304     1  0.0000000  0.6508444  3
   9303   9301   9300   9307     1  0.0000000  0.6508444  3
   9303   9301   9300   9329     1  0.0000000  0.6508444  3
   9303   9301   9313   9325     1  0.0000000  0.6508444  3
   9303   9301   9313   9314     1  0.0000000  0.6508444  3
   9303   9301   9313   9315     1  0.0000000  0.6508444  3
   9304   9300   9307   9308     1  0.0000000  0.6508444  3
   9304   9300   9307   9309     1  0.0000000  0.6508444  3
   9304   9316   9322   9323     1  0.0000000  0.6508444  3
   9304   9316   9322   9324     1  0.0000000  0.6508444  3
   9305   9304   9300   9307     1  0.0000000  0.6508444  3
   9305   9304   9300   9329     1  0.0000000  0.6508444  3
   9305   9304   9316   9322     1  0.0000000  0.6508444  3
   9305   9304   9316   9317     1  0.0000000  0.6508444  3
   9305   9304   9316   9318     1  0.0000000  0.6508444  3
   9306   9304   9300   9307     1  0.0000000  0.6508444  3
   9306   9304   9300   9329     1  0.0000000  0.6508444  3
   9306   9304   9316   9322     1  0.0000000  0.6508444  3
   9306   9304   9316   9317     1  0.0000000  0.6508444  3
   9306   9304   9316   9318     1  0.0000000  0.6508444  3
   9307   9310   9319   9320     1  0.0000000  0.6508444  3
   9307   9310   9319   9321     1  0.0000000  0.6508444  3
   9308   9307   9300   9329     1  0.0000000  0.6508444  3
   9308   9307   9310   9319     1  0.0000000  0.6508444  3
   9308   9307   9310   9311     1  0.0000000  0.6508444  3
   9308   9307   9310   9312     1  0.0000000  0.6508444  3
   9309   9307   9300   9329     1  0.0000000  0.6508444  3
   9309   9307   9310   9319     1  0.0000000  0.6508444  3
   9309   9307   9310   9311     1  0.0000000  0.6508444  3
   9309   9307   9310   9312     1  0.0000000  0.6508444  3
   9310   9307   9300   9329     1  0.0000000  0.6508444  3
   9311   9310   9319   9328     1  0.0000000  1.0460000  1
   9311   9310   9319   9328     1  0.0000000  0.0000000  3
   9311   9310   9319   9320     1  0.0000000  0.6508444  3
   9311   9310   9319   9321     1  0.0000000  0.6508444  3
   9312   9310   9319   9328     1  0.0000000  1.0460000  1
   9312   9310   9319   9328     1  0.0000000  0.0000000  3
   9312   9310   9319   9320     1  0.0000000  0.6508444  3
   9312   9310   9319   9321     1  0.0000000  0.6508444  3
   9313   9301   9300   9329     1  0.0000000  0.6508444  3
   9314   9313   9325  17013     1  0.0000000  1.0460000  1
   9314   9313   9325  17013     1  0.0000000  0.0000000  3
   9314   9313   9325   9326     1  0.0000000  0.6508444  3
   9314   9313   9325   9327     1  0.0000000  0.6508444  3
   9315   9313   9325  17013     1  0.0000000  1.0460000  1
   9315   9313   9325  17013     1  0.0000000  0.0000000  3
   9315   9313   9325   9326     1  0.0000000  0.6508444  3
   9315   9313   9325   9327     1  0.0000000  0.6508444  3
   9316   9304   9300   9329     1  0.0000000  0.6508444  3
   9317   9316   9322  16990     1  0.0000000  1.0460000  1
   9317   9316   9322  16990     1  0.0000000  0.0000000  3
   9317   9316   9322   9323     1  0.0000000  0.6508444  3
   9317   9316   9322   9324     1  0.0000000  0.6508444  3
   9318   9316   9322  16990     1  0.0000000  1.0460000  1
   9318   9316   9322  16990     1  0.0000000  0.0000000  3
   9318   9316   9322   9323     1  0.0000000  0.6508444  3
   9318   9316   9322   9324     1  0.0000000  0.6508444  3
   9322  16990  16986  16989     1  0.0000000  1.6038667  3
   9323   9322  16990  16986     1  0.0000000  1.6038667  3
   9324   9322  16990  16986     1  0.0000000  1.6038667  3
   9325  17013  17009  17012     1  0.0000000  1.6038667  3
   9326   9325  17013  17009     1  0.0000000  1.6038667  3
   9327   9325  17013  17009     1  0.0000000  1.6038667  3
   9330   9331   9343   9344     1  0.0000000  0.6508444  3
   9330   9331   9343   9345     1  0.0000000  0.6508444  3
   9330   9334   9346   9347     1  0.0000000  0.6508444  3
   9330   9334   9346   9348     1  0.0000000  0.6508444  3
   9330   9337   9340   9341     1  0.0000000  0.6508444  3
   9330   9337   9340   9342     1  0.0000000  0.6508444  3
   9331   9330   9334   9335     1  0.0000000  0.6508444  3
   9331   9330   9334   9336     1  0.0000000  0.6508444  3
   9331   9330   9337   9338     1  0.0000000  0.6508444  3
   9331   9330   9337   9339     1  0.0000000  0.6508444  3
   9331   9343   9355   9356     1  0.0000000  0.6508444  3
   9331   9343   9355   9357     1  0.0000000  0.6508444  3
   9332   9331   9330   9334     1  0.0000000  0.6508444  3
   9332   9331   9330   9337     1  0.0000000  0.6508444  3
   9332   9331   9330   9359     1  0.0000000  0.6508444  3
   9332   9331   9343   9355     1  0.0000000  0.6508444  3
   9332   9331   9343   9344     1  0.0000000  0.6508444  3
   9332   9331   9343   9345     1  0.0000000  0.6508444  3
   9333   9331   9330   9334     1  0.0000000  0.6508444  3
   9333   9331   9330   9337     1  0.0000000  0.6508444  3
   9333   9331   9330   9359     1  0.0000000  0.6508444  3
   9333   9331   9343   9355     1  0.0000000  0.6508444  3
   9333   9331   9343   9344     1  0.0000000  0.6508444  3
   9333   9331   9343   9345     1  0.0000000  0.6508444  3
   9334   9330   9337   9338     1  0.0000000  0.6508444  3
   9334   9330   9337   9339     1  0.0000000  0.6508444  3
   9334   9346   9352   9353     1  0.0000000  0.6508444  3
   9334   9346   9352   9354     1  0.0000000  0.6508444  3
   9335   9334   9330   9337     1  0.0000000  0.6508444  3
   9335   9334   9330   9359     1  0.0000000  0.6508444  3
   9335   9334   9346   9352     1  0.0000000  0.6508444  3
   9335   9334   9346   9347     1  0.0000000  0.6508444  3
   9335   9334   9346   9348     1  0.0000000  0.6508444  3
   9336   9334   9330   9337     1  0.0000000  0.6508444  3
   9336   9334   9330   9359     1  0.0000000  0.6508444  3
   9336   9334   9346   9352     1  0.0000000  0.6508444  3
   9336   9334   9346   9347     1  0.0000000  0.6508444  3
   9336   9334   9346   9348     1  0.0000000  0.6508444  3
   9337   9340   9349   9350     1  0.0000000  0.6508444  3
   9337   9340   9349   9351     1  0.0000000  0.6508444  3
   9338   9337   9330   9359     1  0.0000000  0.6508444  3
   9338   9337   9340   9349     1  0.0000000  0.6508444  3
   9338   9337   9340   9341     1  0.0000000  0.6508444  3
   9338   9337   9340   9342     1  0.0000000  0.6508444  3
   9339   9337   9330   9359     1  0.0000000  0.6508444  3
   9339   9337   9340   9349     1  0.0000000  0.6508444  3
   9339   9337   9340   9341     1  0.0000000  0.6508444  3
   9339   9337   9340   9342     1  0.0000000  0.6508444  3
   9340   9337   9330   9359     1  0.0000000  0.6508444  3
   9341   9340   9349   9358     1  0.0000000  1.0460000  1
   9341   9340   9349   9358     1  0.0000000  0.0000000  3
   9341   9340   9349   9350     1  0.0000000  0.6508444  3
   9341   9340   9349   9351     1  0.0000000  0.6508444  3
   9342   9340   9349   9358     1  0.0000000  1.0460000  1
   9342   9340   9349   9358     1  0.0000000  0.0000000  3
   9342   9340   9349   9350     1  0.0000000  0.6508444  3
   9342   9340   9349   9351     1  0.0000000  0.6508444  3
   9343   9331   9330   9359     1  0.0000000  0.6508444  3
   9344   9343   9355  17059     1  0.0000000  1.0460000  1
   9344   9343   9355  17059     1  0.0000000  0.0000000  3
   9344   9343   9355   9356     1  0.0000000  0.6508444  3
   9344   9343   9355   9357     1  0.0000000  0.6508444  3
   9345   9343   9355  17059     1  0.0000000  1.0460000  1
   9345   9343   9355  17059     1  0.0000000  0.0000000  3
   9345   9343   9355   9356     1  0.0000000  0.6508444  3
   9345   9343   9355   9357     1  0.0000000  0.6508444  3
   9346   9334   9330   9359     1  0.0000000  0.6508444  3
   9347   9346   9352  17036     1  0.0000000  1.0460000  1
   9347   9346   9352  17036     1  0.0000000  0.0000000  3
   9347   9346   9352   9353     1  0.0000000  0.6508444  3
   9347   9346   9352   9354     1  0.0000000  0.6508444  3
   9348   9346   9352  17036     1  0.0000000  1.0460000  1
   9348   9346   9352  17036     1  0.0000000  0.0000000  3
   9348   9346   9352   9353     1  0.0000000  0.6508444  3
   9348   9346   9352   9354     1  0.0000000  0.6508444  3
   9352  17036  17032  17035     1  0.0000000  1.6038667  3
   9353   9352  17036  17032     1  0.0000000  1.6038667  3
   9354   9352  17036  17032     1  0.0000000  1.6038667  3
   9355  17059  17055  17058     1  0.0000000  1.6038667  3
   9356   9355  17059  17055     1  0.0000000  1.6038667  3
   9357   9355  17059  17055     1  0.0000000  1.6038667  3
   9360   9361   9373   9374     1  0.0000000  0.6508444  3
   9360   9361   9373   9375     1  0.0000000  0.6508444  3
   9360   9364   9376   9377     1  0.0000000  0.6508444  3
   9360   9364   9376   9378     1  0.0000000  0.6508444  3
   9360   9367   9370   9371     1  0.0000000  0.6508444  3
   9360   9367   9370   9372     1  0.0000000  0.6508444  3
   9361   9360   9364   9365     1  0.0000000  0.6508444  3
   9361   9360   9364   9366     1  0.0000000  0.6508444  3
   9361   9360   9367   9368     1  0.0000000  0.6508444  3
   9361   9360   9367   9369     1  0.0000000  0.6508444  3
   9361   9373   9385   9386     1  0.0000000  0.6508444  3
   9361   9373   9385   9387     1  0.0000000  0.6508444  3
   9362   9361   9360   9364     1  0.0000000  0.6508444  3
   9362   9361   9360   9367     1  0.0000000  0.6508444  3
   9362   9361   9360   9389     1  0.0000000  0.6508444  3
   9362   9361   9373   9385     1  0.0000000  0.6508444  3
   9362   9361   9373   9374     1  0.0000000  0.6508444  3
   9362   9361   9373   9375     1  0.0000000  0.6508444  3
   9363   9361   9360   9364     1  0.0000000  0.6508444  3
   9363   9361   9360   9367     1  0.0000000  0.6508444  3
   9363   9361   9360   9389     1  0.0000000  0.6508444  3
   9363   9361   9373   9385     1  0.0000000  0.6508444  3
   9363   9361   9373   9374     1  0.0000000  0.6508444  3
   9363   9361   9373   9375     1  0.0000000  0.6508444  3
   9364   9360   9367   9368     1  0.0000000  0.6508444  3
   9364   9360   9367   9369     1  0.0000000  0.6508444  3
   9364   9376   9382   9383     1  0.0000000  0.6508444  3
   9364   9376   9382   9384     1  0.0000000  0.6508444  3
   9365   9364   9360   9367     1  0.0000000  0.6508444  3
   9365   9364   9360   9389     1  0.0000000  0.6508444  3
   9365   9364   9376   9382     1  0.0000000  0.6508444  3
   9365   9364   9376   9377     1  0.0000000  0.6508444  3
   9365   9364   9376   9378     1  0.0000000  0.6508444  3
   9366   9364   9360   9367     1  0.0000000  0.6508444  3
   9366   9364   9360   9389     1  0.0000000  0.6508444  3
   9366   9364   9376   9382     1  0.0000000  0.6508444  3
   9366   9364   9376   9377     1  0.0000000  0.6508444  3
   9366   9364   9376   9378     1  0.0000000  0.6508444  3
   9367   9370   9379   9380     1  0.0000000  0.6508444  3
   9367   9370   9379   9381     1  0.0000000  0.6508444  3
   9368   9367   9360   9389     1  0.0000000  0.6508444  3
   9368   9367   9370   9379     1  0.0000000  0.6508444  3
   9368   9367   9370   9371     1  0.0000000  0.6508444  3
   9368   9367   9370   9372     1  0.0000000  0.6508444  3
   9369   9367   9360   9389     1  0.0000000  0.6508444  3
   9369   9367   9370   9379     1  0.0000000  0.6508444  3
   9369   9367   9370   9371     1  0.0000000  0.6508444  3
   9369   9367   9370   9372     1  0.0000000  0.6508444  3
   9370   9367   9360   9389     1  0.0000000  0.6508444  3
   9371   9370   9379   9388     1  0.0000000  1.0460000  1
   9371   9370   9379   9388     1  0.0000000  0.0000000  3
   9371   9370   9379   9380     1  0.0000000  0.6508444  3
   9371   9370   9379   9381     1  0.0000000  0.6508444  3
   9372   9370   9379   9388     1  0.0000000  1.0460000  1
   9372   9370   9379   9388     1  0.0000000  0.0000000  3
   9372   9370   9379   9380     1  0.0000000  0.6508444  3
   9372   9370   9379   9381     1  0.0000000  0.6508444  3
   9373   9361   9360   9389     1  0.0000000  0.6508444  3
   9374   9373   9385  17105     1  0.0000000  1.0460000  1
   9374   9373   9385  17105     1  0.0000000  0.0000000  3
   9374   9373   9385   9386     1  0.0000000  0.6508444  3
   9374   9373   9385   9387     1  0.0000000  0.6508444  3
   9375   9373   9385  17105     1  0.0000000  1.0460000  1
   9375   9373   9385  17105     1  0.0000000  0.0000000  3
   9375   9373   9385   9386     1  0.0000000  0.6508444  3
   9375   9373   9385   9387     1  0.0000000  0.6508444  3
   9376   9364   9360   9389     1  0.0000000  0.6508444  3
   9377   9376   9382  17082     1  0.0000000  1.0460000  1
   9377   9376   9382  17082     1  0.0000000  0.0000000  3
   9377   9376   9382   9383     1  0.0000000  0.6508444  3
   9377   9376   9382   9384     1  0.0000000  0.6508444  3
   9378   9376   9382  17082     1  0.0000000  1.0460000  1
   9378   9376   9382  17082     1  0.0000000  0.0000000  3
   9378   9376   9382   9383     1  0.0000000  0.6508444  3
   9378   9376   9382   9384     1  0.0000000  0.6508444  3
   9382  17082  17078  17081     1  0.0000000  1.6038667  3
   9383   9382  17082  17078     1  0.0000000  1.6038667  3
   9384   9382  17082  17078     1  0.0000000  1.6038667  3
   9385  17105  17101  17104     1  0.0000000  1.6038667  3
   9386   9385  17105  17101     1  0.0000000  1.6038667  3
   9387   9385  17105  17101     1  0.0000000  1.6038667  3
   9390   9391   9403   9404     1  0.0000000  0.6508444  3
   9390   9391   9403   9405     1  0.0000000  0.6508444  3
   9390   9394   9406   9407     1  0.0000000  0.6508444  3
   9390   9394   9406   9408     1  0.0000000  0.6508444  3
   9390   9397   9400   9401     1  0.0000000  0.6508444  3
   9390   9397   9400   9402     1  0.0000000  0.6508444  3
   9391   9390   9394   9395     1  0.0000000  0.6508444  3
   9391   9390   9394   9396     1  0.0000000  0.6508444  3
   9391   9390   9397   9398     1  0.0000000  0.6508444  3
   9391   9390   9397   9399     1  0.0000000  0.6508444  3
   9391   9403   9415   9416     1  0.0000000  0.6508444  3
   9391   9403   9415   9417     1  0.0000000  0.6508444  3
   9392   9391   9390   9394     1  0.0000000  0.6508444  3
   9392   9391   9390   9397     1  0.0000000  0.6508444  3
   9392   9391   9390   9419     1  0.0000000  0.6508444  3
   9392   9391   9403   9415     1  0.0000000  0.6508444  3
   9392   9391   9403   9404     1  0.0000000  0.6508444  3
   9392   9391   9403   9405     1  0.0000000  0.6508444  3
   9393   9391   9390   9394     1  0.0000000  0.6508444  3
   9393   9391   9390   9397     1  0.0000000  0.6508444  3
   9393   9391   9390   9419     1  0.0000000  0.6508444  3
   9393   9391   9403   9415     1  0.0000000  0.6508444  3
   9393   9391   9403   9404     1  0.0000000  0.6508444  3
   9393   9391   9403   9405     1  0.0000000  0.6508444  3
   9394   9390   9397   9398     1  0.0000000  0.6508444  3
   9394   9390   9397   9399     1  0.0000000  0.6508444  3
   9394   9406   9412   9413     1  0.0000000  0.6508444  3
   9394   9406   9412   9414     1  0.0000000  0.6508444  3
   9395   9394   9390   9397     1  0.0000000  0.6508444  3
   9395   9394   9390   9419     1  0.0000000  0.6508444  3
   9395   9394   9406   9412     1  0.0000000  0.6508444  3
   9395   9394   9406   9407     1  0.0000000  0.6508444  3
   9395   9394   9406   9408     1  0.0000000  0.6508444  3
   9396   9394   9390   9397     1  0.0000000  0.6508444  3
   9396   9394   9390   9419     1  0.0000000  0.6508444  3
   9396   9394   9406   9412     1  0.0000000  0.6508444  3
   9396   9394   9406   9407     1  0.0000000  0.6508444  3
   9396   9394   9406   9408     1  0.0000000  0.6508444  3
   9397   9400   9409   9410     1  0.0000000  0.6508444  3
   9397   9400   9409   9411     1  0.0000000  0.6508444  3
   9398   9397   9390   9419     1  0.0000000  0.6508444  3
   9398   9397   9400   9409     1  0.0000000  0.6508444  3
   9398   9397   9400   9401     1  0.0000000  0.6508444  3
   9398   9397   9400   9402     1  0.0000000  0.6508444  3
   9399   9397   9390   9419     1  0.0000000  0.6508444  3
   9399   9397   9400   9409     1  0.0000000  0.6508444  3
   9399   9397   9400   9401     1  0.0000000  0.6508444  3
   9399   9397   9400   9402     1  0.0000000  0.6508444  3
   9400   9397   9390   9419     1  0.0000000  0.6508444  3
   9401   9400   9409   9418     1  0.0000000  1.0460000  1
   9401   9400   9409   9418     1  0.0000000  0.0000000  3
   9401   9400   9409   9410     1  0.0000000  0.6508444  3
   9401   9400   9409   9411     1  0.0000000  0.6508444  3
   9402   9400   9409   9418     1  0.0000000  1.0460000  1
   9402   9400   9409   9418     1  0.0000000  0.0000000  3
   9402   9400   9409   9410     1  0.0000000  0.6508444  3
   9402   9400   9409   9411     1  0.0000000  0.6508444  3
   9403   9391   9390   9419     1  0.0000000  0.6508444  3
   9404   9403   9415  17151     1  0.0000000  1.0460000  1
   9404   9403   9415  17151     1  0.0000000  0.0000000  3
   9404   9403   9415   9416     1  0.0000000  0.6508444  3
   9404   9403   9415   9417     1  0.0000000  0.6508444  3
   9405   9403   9415  17151     1  0.0000000  1.0460000  1
   9405   9403   9415  17151     1  0.0000000  0.0000000  3
   9405   9403   9415   9416     1  0.0000000  0.6508444  3
   9405   9403   9415   9417     1  0.0000000  0.6508444  3
   9406   9394   9390   9419     1  0.0000000  0.6508444  3
   9407   9406   9412  17128     1  0.0000000  1.0460000  1
   9407   9406   9412  17128     1  0.0000000  0.0000000  3
   9407   9406   9412   9413     1  0.0000000  0.6508444  3
   9407   9406   9412   9414     1  0.0000000  0.6508444  3
   9408   9406   9412  17128     1  0.0000000  1.0460000  1
   9408   9406   9412  17128     1  0.0000000  0.0000000  3
   9408   9406   9412   9413     1  0.0000000  0.6508444  3
   9408   9406   9412   9414     1  0.0000000  0.6508444  3
   9412  17128  17124  17127     1  0.0000000  1.6038667  3
   9413   9412  17128  17124     1  0.0000000  1.6038667  3
   9414   9412  17128  17124     1  0.0000000  1.6038667  3
   9415  17151  17147  17150     1  0.0000000  1.6038667  3
   9416   9415  17151  17147     1  0.0000000  1.6038667  3
   9417   9415  17151  17147     1  0.0000000  1.6038667  3
   9420   9421   9433   9434     1  0.0000000  0.6508444  3
   9420   9421   9433   9435     1  0.0000000  0.6508444  3
   9420   9424   9436   9437     1  0.0000000  0.6508444  3
   9420   9424   9436   9438     1  0.0000000  0.6508444  3
   9420   9427   9430   9431     1  0.0000000  0.6508444  3
   9420   9427   9430   9432     1  0.0000000  0.6508444  3
   9421   9420   9424   9425     1  0.0000000  0.6508444  3
   9421   9420   9424   9426     1  0.0000000  0.6508444  3
   9421   9420   9427   9428     1  0.0000000  0.6508444  3
   9421   9420   9427   9429     1  0.0000000  0.6508444  3
   9421   9433   9445   9446     1  0.0000000  0.6508444  3
   9421   9433   9445   9447     1  0.0000000  0.6508444  3
   9422   9421   9420   9424     1  0.0000000  0.6508444  3
   9422   9421   9420   9427     1  0.0000000  0.6508444  3
   9422   9421   9420   9449     1  0.0000000  0.6508444  3
   9422   9421   9433   9445     1  0.0000000  0.6508444  3
   9422   9421   9433   9434     1  0.0000000  0.6508444  3
   9422   9421   9433   9435     1  0.0000000  0.6508444  3
   9423   9421   9420   9424     1  0.0000000  0.6508444  3
   9423   9421   9420   9427     1  0.0000000  0.6508444  3
   9423   9421   9420   9449     1  0.0000000  0.6508444  3
   9423   9421   9433   9445     1  0.0000000  0.6508444  3
   9423   9421   9433   9434     1  0.0000000  0.6508444  3
   9423   9421   9433   9435     1  0.0000000  0.6508444  3
   9424   9420   9427   9428     1  0.0000000  0.6508444  3
   9424   9420   9427   9429     1  0.0000000  0.6508444  3
   9424   9436   9442   9443     1  0.0000000  0.6508444  3
   9424   9436   9442   9444     1  0.0000000  0.6508444  3
   9425   9424   9420   9427     1  0.0000000  0.6508444  3
   9425   9424   9420   9449     1  0.0000000  0.6508444  3
   9425   9424   9436   9442     1  0.0000000  0.6508444  3
   9425   9424   9436   9437     1  0.0000000  0.6508444  3
   9425   9424   9436   9438     1  0.0000000  0.6508444  3
   9426   9424   9420   9427     1  0.0000000  0.6508444  3
   9426   9424   9420   9449     1  0.0000000  0.6508444  3
   9426   9424   9436   9442     1  0.0000000  0.6508444  3
   9426   9424   9436   9437     1  0.0000000  0.6508444  3
   9426   9424   9436   9438     1  0.0000000  0.6508444  3
   9427   9430   9439   9440     1  0.0000000  0.6508444  3
   9427   9430   9439   9441     1  0.0000000  0.6508444  3
   9428   9427   9420   9449     1  0.0000000  0.6508444  3
   9428   9427   9430   9439     1  0.0000000  0.6508444  3
   9428   9427   9430   9431     1  0.0000000  0.6508444  3
   9428   9427   9430   9432     1  0.0000000  0.6508444  3
   9429   9427   9420   9449     1  0.0000000  0.6508444  3
   9429   9427   9430   9439     1  0.0000000  0.6508444  3
   9429   9427   9430   9431     1  0.0000000  0.6508444  3
   9429   9427   9430   9432     1  0.0000000  0.6508444  3
   9430   9427   9420   9449     1  0.0000000  0.6508444  3
   9431   9430   9439   9448     1  0.0000000  1.0460000  1
   9431   9430   9439   9448     1  0.0000000  0.0000000  3
   9431   9430   9439   9440     1  0.0000000  0.6508444  3
   9431   9430   9439   9441     1  0.0000000  0.6508444  3
   9432   9430   9439   9448     1  0.0000000  1.0460000  1
   9432   9430   9439   9448     1  0.0000000  0.0000000  3
   9432   9430   9439   9440     1  0.0000000  0.6508444  3
   9432   9430   9439   9441     1  0.0000000  0.6508444  3
   9433   9421   9420   9449     1  0.0000000  0.6508444  3
   9434   9433   9445  17197     1  0.0000000  1.0460000  1
   9434   9433   9445  17197     1  0.0000000  0.0000000  3
   9434   9433   9445   9446     1  0.0000000  0.6508444  3
   9434   9433   9445   9447     1  0.0000000  0.6508444  3
   9435   9433   9445  17197     1  0.0000000  1.0460000  1
   9435   9433   9445  17197     1  0.0000000  0.0000000  3
   9435   9433   9445   9446     1  0.0000000  0.6508444  3
   9435   9433   9445   9447     1  0.0000000  0.6508444  3
   9436   9424   9420   9449     1  0.0000000  0.6508444  3
   9437   9436   9442  17174     1  0.0000000  1.0460000  1
   9437   9436   9442  17174     1  0.0000000  0.0000000  3
   9437   9436   9442   9443     1  0.0000000  0.6508444  3
   9437   9436   9442   9444     1  0.0000000  0.6508444  3
   9438   9436   9442  17174     1  0.0000000  1.0460000  1
   9438   9436   9442  17174     1  0.0000000  0.0000000  3
   9438   9436   9442   9443     1  0.0000000  0.6508444  3
   9438   9436   9442   9444     1  0.0000000  0.6508444  3
   9442  17174  17170  17173     1  0.0000000  1.6038667  3
   9443   9442  17174  17170     1  0.0000000  1.6038667  3
   9444   9442  17174  17170     1  0.0000000  1.6038667  3
   9445  17197  17193  17196     1  0.0000000  1.6038667  3
   9446   9445  17197  17193     1  0.0000000  1.6038667  3
   9447   9445  17197  17193     1  0.0000000  1.6038667  3
   9450   9451   9463   9464     1  0.0000000  0.6508444  3
   9450   9451   9463   9465     1  0.0000000  0.6508444  3
   9450   9454   9466   9467     1  0.0000000  0.6508444  3
   9450   9454   9466   9468     1  0.0000000  0.6508444  3
   9450   9457   9460   9461     1  0.0000000  0.6508444  3
   9450   9457   9460   9462     1  0.0000000  0.6508444  3
   9451   9450   9454   9455     1  0.0000000  0.6508444  3
   9451   9450   9454   9456     1  0.0000000  0.6508444  3
   9451   9450   9457   9458     1  0.0000000  0.6508444  3
   9451   9450   9457   9459     1  0.0000000  0.6508444  3
   9451   9463   9475   9476     1  0.0000000  0.6508444  3
   9451   9463   9475   9477     1  0.0000000  0.6508444  3
   9452   9451   9450   9454     1  0.0000000  0.6508444  3
   9452   9451   9450   9457     1  0.0000000  0.6508444  3
   9452   9451   9450   9479     1  0.0000000  0.6508444  3
   9452   9451   9463   9475     1  0.0000000  0.6508444  3
   9452   9451   9463   9464     1  0.0000000  0.6508444  3
   9452   9451   9463   9465     1  0.0000000  0.6508444  3
   9453   9451   9450   9454     1  0.0000000  0.6508444  3
   9453   9451   9450   9457     1  0.0000000  0.6508444  3
   9453   9451   9450   9479     1  0.0000000  0.6508444  3
   9453   9451   9463   9475     1  0.0000000  0.6508444  3
   9453   9451   9463   9464     1  0.0000000  0.6508444  3
   9453   9451   9463   9465     1  0.0000000  0.6508444  3
   9454   9450   9457   9458     1  0.0000000  0.6508444  3
   9454   9450   9457   9459     1  0.0000000  0.6508444  3
   9454   9466   9472   9473     1  0.0000000  0.6508444  3
   9454   9466   9472   9474     1  0.0000000  0.6508444  3
   9455   9454   9450   9457     1  0.0000000  0.6508444  3
   9455   9454   9450   9479     1  0.0000000  0.6508444  3
   9455   9454   9466   9472     1  0.0000000  0.6508444  3
   9455   9454   9466   9467     1  0.0000000  0.6508444  3
   9455   9454   9466   9468     1  0.0000000  0.6508444  3
   9456   9454   9450   9457     1  0.0000000  0.6508444  3
   9456   9454   9450   9479     1  0.0000000  0.6508444  3
   9456   9454   9466   9472     1  0.0000000  0.6508444  3
   9456   9454   9466   9467     1  0.0000000  0.6508444  3
   9456   9454   9466   9468     1  0.0000000  0.6508444  3
   9457   9460   9469   9470     1  0.0000000  0.6508444  3
   9457   9460   9469   9471     1  0.0000000  0.6508444  3
   9458   9457   9450   9479     1  0.0000000  0.6508444  3
   9458   9457   9460   9469     1  0.0000000  0.6508444  3
   9458   9457   9460   9461     1  0.0000000  0.6508444  3
   9458   9457   9460   9462     1  0.0000000  0.6508444  3
   9459   9457   9450   9479     1  0.0000000  0.6508444  3
   9459   9457   9460   9469     1  0.0000000  0.6508444  3
   9459   9457   9460   9461     1  0.0000000  0.6508444  3
   9459   9457   9460   9462     1  0.0000000  0.6508444  3
   9460   9457   9450   9479     1  0.0000000  0.6508444  3
   9461   9460   9469   9478     1  0.0000000  1.0460000  1
   9461   9460   9469   9478     1  0.0000000  0.0000000  3
   9461   9460   9469   9470     1  0.0000000  0.6508444  3
   9461   9460   9469   9471     1  0.0000000  0.6508444  3
   9462   9460   9469   9478     1  0.0000000  1.0460000  1
   9462   9460   9469   9478     1  0.0000000  0.0000000  3
   9462   9460   9469   9470     1  0.0000000  0.6508444  3
   9462   9460   9469   9471     1  0.0000000  0.6508444  3
   9463   9451   9450   9479     1  0.0000000  0.6508444  3
   9464   9463   9475  17243     1  0.0000000  1.0460000  1
   9464   9463   9475  17243     1  0.0000000  0.0000000  3
   9464   9463   9475   9476     1  0.0000000  0.6508444  3
   9464   9463   9475   9477     1  0.0000000  0.6508444  3
   9465   9463   9475  17243     1  0.0000000  1.0460000  1
   9465   9463   9475  17243     1  0.0000000  0.0000000  3
   9465   9463   9475   9476     1  0.0000000  0.6508444  3
   9465   9463   9475   9477     1  0.0000000  0.6508444  3
   9466   9454   9450   9479     1  0.0000000  0.6508444  3
   9467   9466   9472  17220     1  0.0000000  1.0460000  1
   9467   9466   9472  17220     1  0.0000000  0.0000000  3
   9467   9466   9472   9473     1  0.0000000  0.6508444  3
   9467   9466   9472   9474     1  0.0000000  0.6508444  3
   9468   9466   9472  17220     1  0.0000000  1.0460000  1
   9468   9466   9472  17220     1  0.0000000  0.0000000  3
   9468   9466   9472   9473     1  0.0000000  0.6508444  3
   9468   9466   9472   9474     1  0.0000000  0.6508444  3
   9472  17220  17216  17219     1  0.0000000  1.6038667  3
   9473   9472  17220  17216     1  0.0000000  1.6038667  3
   9474   9472  17220  17216     1  0.0000000  1.6038667  3
   9475  17243  17239  17242     1  0.0000000  1.6038667  3
   9476   9475  17243  17239     1  0.0000000  1.6038667  3
   9477   9475  17243  17239     1  0.0000000  1.6038667  3
   9480   9481   9493   9494     1  0.0000000  0.6508444  3
   9480   9481   9493   9495     1  0.0000000  0.6508444  3
   9480   9484   9496   9497     1  0.0000000  0.6508444  3
   9480   9484   9496   9498     1  0.0000000  0.6508444  3
   9480   9487   9490   9491     1  0.0000000  0.6508444  3
   9480   9487   9490   9492     1  0.0000000  0.6508444  3
   9481   9480   9484   9485     1  0.0000000  0.6508444  3
   9481   9480   9484   9486     1  0.0000000  0.6508444  3
   9481   9480   9487   9488     1  0.0000000  0.6508444  3
   9481   9480   9487   9489     1  0.0000000  0.6508444  3
   9481   9493   9505   9506     1  0.0000000  0.6508444  3
   9481   9493   9505   9507     1  0.0000000  0.6508444  3
   9482   9481   9480   9484     1  0.0000000  0.6508444  3
   9482   9481   9480   9487     1  0.0000000  0.6508444  3
   9482   9481   9480   9509     1  0.0000000  0.6508444  3
   9482   9481   9493   9505     1  0.0000000  0.6508444  3
   9482   9481   9493   9494     1  0.0000000  0.6508444  3
   9482   9481   9493   9495     1  0.0000000  0.6508444  3
   9483   9481   9480   9484     1  0.0000000  0.6508444  3
   9483   9481   9480   9487     1  0.0000000  0.6508444  3
   9483   9481   9480   9509     1  0.0000000  0.6508444  3
   9483   9481   9493   9505     1  0.0000000  0.6508444  3
   9483   9481   9493   9494     1  0.0000000  0.6508444  3
   9483   9481   9493   9495     1  0.0000000  0.6508444  3
   9484   9480   9487   9488     1  0.0000000  0.6508444  3
   9484   9480   9487   9489     1  0.0000000  0.6508444  3
   9484   9496   9502   9503     1  0.0000000  0.6508444  3
   9484   9496   9502   9504     1  0.0000000  0.6508444  3
   9485   9484   9480   9487     1  0.0000000  0.6508444  3
   9485   9484   9480   9509     1  0.0000000  0.6508444  3
   9485   9484   9496   9502     1  0.0000000  0.6508444  3
   9485   9484   9496   9497     1  0.0000000  0.6508444  3
   9485   9484   9496   9498     1  0.0000000  0.6508444  3
   9486   9484   9480   9487     1  0.0000000  0.6508444  3
   9486   9484   9480   9509     1  0.0000000  0.6508444  3
   9486   9484   9496   9502     1  0.0000000  0.6508444  3
   9486   9484   9496   9497     1  0.0000000  0.6508444  3
   9486   9484   9496   9498     1  0.0000000  0.6508444  3
   9487   9490   9499   9500     1  0.0000000  0.6508444  3
   9487   9490   9499   9501     1  0.0000000  0.6508444  3
   9488   9487   9480   9509     1  0.0000000  0.6508444  3
   9488   9487   9490   9499     1  0.0000000  0.6508444  3
   9488   9487   9490   9491     1  0.0000000  0.6508444  3
   9488   9487   9490   9492     1  0.0000000  0.6508444  3
   9489   9487   9480   9509     1  0.0000000  0.6508444  3
   9489   9487   9490   9499     1  0.0000000  0.6508444  3
   9489   9487   9490   9491     1  0.0000000  0.6508444  3
   9489   9487   9490   9492     1  0.0000000  0.6508444  3
   9490   9487   9480   9509     1  0.0000000  0.6508444  3
   9491   9490   9499   9508     1  0.0000000  1.0460000  1
   9491   9490   9499   9508     1  0.0000000  0.0000000  3
   9491   9490   9499   9500     1  0.0000000  0.6508444  3
   9491   9490   9499   9501     1  0.0000000  0.6508444  3
   9492   9490   9499   9508     1  0.0000000  1.0460000  1
   9492   9490   9499   9508     1  0.0000000  0.0000000  3
   9492   9490   9499   9500     1  0.0000000  0.6508444  3
   9492   9490   9499   9501     1  0.0000000  0.6508444  3
   9493   9481   9480   9509     1  0.0000000  0.6508444  3
   9494   9493   9505  17289     1  0.0000000  1.0460000  1
   9494   9493   9505  17289     1  0.0000000  0.0000000  3
   9494   9493   9505   9506     1  0.0000000  0.6508444  3
   9494   9493   9505   9507     1  0.0000000  0.6508444  3
   9495   9493   9505  17289     1  0.0000000  1.0460000  1
   9495   9493   9505  17289     1  0.0000000  0.0000000  3
   9495   9493   9505   9506     1  0.0000000  0.6508444  3
   9495   9493   9505   9507     1  0.0000000  0.6508444  3
   9496   9484   9480   9509     1  0.0000000  0.6508444  3
   9497   9496   9502  17266     1  0.0000000  1.0460000  1
   9497   9496   9502  17266     1  0.0000000  0.0000000  3
   9497   9496   9502   9503     1  0.0000000  0.6508444  3
   9497   9496   9502   9504     1  0.0000000  0.6508444  3
   9498   9496   9502  17266     1  0.0000000  1.0460000  1
   9498   9496   9502  17266     1  0.0000000  0.0000000  3
   9498   9496   9502   9503     1  0.0000000  0.6508444  3
   9498   9496   9502   9504     1  0.0000000  0.6508444  3
   9502  17266  17262  17265     1  0.0000000  1.6038667  3
   9503   9502  17266  17262     1  0.0000000  1.6038667  3
   9504   9502  17266  17262     1  0.0000000  1.6038667  3
   9505  17289  17285  17288     1  0.0000000  1.6038667  3
   9506   9505  17289  17285     1  0.0000000  1.6038667  3
   9507   9505  17289  17285     1  0.0000000  1.6038667  3
   9510   9511   9523   9524     1  0.0000000  0.6508444  3
   9510   9511   9523   9525     1  0.0000000  0.6508444  3
   9510   9514   9526   9527     1  0.0000000  0.6508444  3
   9510   9514   9526   9528     1  0.0000000  0.6508444  3
   9510   9517   9520   9521     1  0.0000000  0.6508444  3
   9510   9517   9520   9522     1  0.0000000  0.6508444  3
   9511   9510   9514   9515     1  0.0000000  0.6508444  3
   9511   9510   9514   9516     1  0.0000000  0.6508444  3
   9511   9510   9517   9518     1  0.0000000  0.6508444  3
   9511   9510   9517   9519     1  0.0000000  0.6508444  3
   9511   9523   9535   9536     1  0.0000000  0.6508444  3
   9511   9523   9535   9537     1  0.0000000  0.6508444  3
   9512   9511   9510   9514     1  0.0000000  0.6508444  3
   9512   9511   9510   9517     1  0.0000000  0.6508444  3
   9512   9511   9510   9539     1  0.0000000  0.6508444  3
   9512   9511   9523   9535     1  0.0000000  0.6508444  3
   9512   9511   9523   9524     1  0.0000000  0.6508444  3
   9512   9511   9523   9525     1  0.0000000  0.6508444  3
   9513   9511   9510   9514     1  0.0000000  0.6508444  3
   9513   9511   9510   9517     1  0.0000000  0.6508444  3
   9513   9511   9510   9539     1  0.0000000  0.6508444  3
   9513   9511   9523   9535     1  0.0000000  0.6508444  3
   9513   9511   9523   9524     1  0.0000000  0.6508444  3
   9513   9511   9523   9525     1  0.0000000  0.6508444  3
   9514   9510   9517   9518     1  0.0000000  0.6508444  3
   9514   9510   9517   9519     1  0.0000000  0.6508444  3
   9514   9526   9532   9533     1  0.0000000  0.6508444  3
   9514   9526   9532   9534     1  0.0000000  0.6508444  3
   9515   9514   9510   9517     1  0.0000000  0.6508444  3
   9515   9514   9510   9539     1  0.0000000  0.6508444  3
   9515   9514   9526   9532     1  0.0000000  0.6508444  3
   9515   9514   9526   9527     1  0.0000000  0.6508444  3
   9515   9514   9526   9528     1  0.0000000  0.6508444  3
   9516   9514   9510   9517     1  0.0000000  0.6508444  3
   9516   9514   9510   9539     1  0.0000000  0.6508444  3
   9516   9514   9526   9532     1  0.0000000  0.6508444  3
   9516   9514   9526   9527     1  0.0000000  0.6508444  3
   9516   9514   9526   9528     1  0.0000000  0.6508444  3
   9517   9520   9529   9530     1  0.0000000  0.6508444  3
   9517   9520   9529   9531     1  0.0000000  0.6508444  3
   9518   9517   9510   9539     1  0.0000000  0.6508444  3
   9518   9517   9520   9529     1  0.0000000  0.6508444  3
   9518   9517   9520   9521     1  0.0000000  0.6508444  3
   9518   9517   9520   9522     1  0.0000000  0.6508444  3
   9519   9517   9510   9539     1  0.0000000  0.6508444  3
   9519   9517   9520   9529     1  0.0000000  0.6508444  3
   9519   9517   9520   9521     1  0.0000000  0.6508444  3
   9519   9517   9520   9522     1  0.0000000  0.6508444  3
   9520   9517   9510   9539     1  0.0000000  0.6508444  3
   9521   9520   9529   9538     1  0.0000000  1.0460000  1
   9521   9520   9529   9538     1  0.0000000  0.0000000  3
   9521   9520   9529   9530     1  0.0000000  0.6508444  3
   9521   9520   9529   9531     1  0.0000000  0.6508444  3
   9522   9520   9529   9538     1  0.0000000  1.0460000  1
   9522   9520   9529   9538     1  0.0000000  0.0000000  3
   9522   9520   9529   9530     1  0.0000000  0.6508444  3
   9522   9520   9529   9531     1  0.0000000  0.6508444  3
   9523   9511   9510   9539     1  0.0000000  0.6508444  3
   9524   9523   9535  17335     1  0.0000000  1.0460000  1
   9524   9523   9535  17335     1  0.0000000  0.0000000  3
   9524   9523   9535   9536     1  0.0000000  0.6508444  3
   9524   9523   9535   9537     1  0.0000000  0.6508444  3
   9525   9523   9535  17335     1  0.0000000  1.0460000  1
   9525   9523   9535  17335     1  0.0000000  0.0000000  3
   9525   9523   9535   9536     1  0.0000000  0.6508444  3
   9525   9523   9535   9537     1  0.0000000  0.6508444  3
   9526   9514   9510   9539     1  0.0000000  0.6508444  3
   9527   9526   9532  17312     1  0.0000000  1.0460000  1
   9527   9526   9532  17312     1  0.0000000  0.0000000  3
   9527   9526   9532   9533     1  0.0000000  0.6508444  3
   9527   9526   9532   9534     1  0.0000000  0.6508444  3
   9528   9526   9532  17312     1  0.0000000  1.0460000  1
   9528   9526   9532  17312     1  0.0000000  0.0000000  3
   9528   9526   9532   9533     1  0.0000000  0.6508444  3
   9528   9526   9532   9534     1  0.0000000  0.6508444  3
   9532  17312  17308  17311     1  0.0000000  1.6038667  3
   9533   9532  17312  17308     1  0.0000000  1.6038667  3
   9534   9532  17312  17308     1  0.0000000  1.6038667  3
   9535  17335  17331  17334     1  0.0000000  1.6038667  3
   9536   9535  17335  17331     1  0.0000000  1.6038667  3
   9537   9535  17335  17331     1  0.0000000  1.6038667  3
   9540   9541   9553   9554     1  0.0000000  0.6508444  3
   9540   9541   9553   9555     1  0.0000000  0.6508444  3
   9540   9544   9556   9557     1  0.0000000  0.6508444  3
   9540   9544   9556   9558     1  0.0000000  0.6508444  3
   9540   9547   9550   9551     1  0.0000000  0.6508444  3
   9540   9547   9550   9552     1  0.0000000  0.6508444  3
   9541   9540   9544   9545     1  0.0000000  0.6508444  3
   9541   9540   9544   9546     1  0.0000000  0.6508444  3
   9541   9540   9547   9548     1  0.0000000  0.6508444  3
   9541   9540   9547   9549     1  0.0000000  0.6508444  3
   9541   9553   9565   9566     1  0.0000000  0.6508444  3
   9541   9553   9565   9567     1  0.0000000  0.6508444  3
   9542   9541   9540   9544     1  0.0000000  0.6508444  3
   9542   9541   9540   9547     1  0.0000000  0.6508444  3
   9542   9541   9540   9569     1  0.0000000  0.6508444  3
   9542   9541   9553   9565     1  0.0000000  0.6508444  3
   9542   9541   9553   9554     1  0.0000000  0.6508444  3
   9542   9541   9553   9555     1  0.0000000  0.6508444  3
   9543   9541   9540   9544     1  0.0000000  0.6508444  3
   9543   9541   9540   9547     1  0.0000000  0.6508444  3
   9543   9541   9540   9569     1  0.0000000  0.6508444  3
   9543   9541   9553   9565     1  0.0000000  0.6508444  3
   9543   9541   9553   9554     1  0.0000000  0.6508444  3
   9543   9541   9553   9555     1  0.0000000  0.6508444  3
   9544   9540   9547   9548     1  0.0000000  0.6508444  3
   9544   9540   9547   9549     1  0.0000000  0.6508444  3
   9544   9556   9562   9563     1  0.0000000  0.6508444  3
   9544   9556   9562   9564     1  0.0000000  0.6508444  3
   9545   9544   9540   9547     1  0.0000000  0.6508444  3
   9545   9544   9540   9569     1  0.0000000  0.6508444  3
   9545   9544   9556   9562     1  0.0000000  0.6508444  3
   9545   9544   9556   9557     1  0.0000000  0.6508444  3
   9545   9544   9556   9558     1  0.0000000  0.6508444  3
   9546   9544   9540   9547     1  0.0000000  0.6508444  3
   9546   9544   9540   9569     1  0.0000000  0.6508444  3
   9546   9544   9556   9562     1  0.0000000  0.6508444  3
   9546   9544   9556   9557     1  0.0000000  0.6508444  3
   9546   9544   9556   9558     1  0.0000000  0.6508444  3
   9547   9550   9559   9560     1  0.0000000  0.6508444  3
   9547   9550   9559   9561     1  0.0000000  0.6508444  3
   9548   9547   9540   9569     1  0.0000000  0.6508444  3
   9548   9547   9550   9559     1  0.0000000  0.6508444  3
   9548   9547   9550   9551     1  0.0000000  0.6508444  3
   9548   9547   9550   9552     1  0.0000000  0.6508444  3
   9549   9547   9540   9569     1  0.0000000  0.6508444  3
   9549   9547   9550   9559     1  0.0000000  0.6508444  3
   9549   9547   9550   9551     1  0.0000000  0.6508444  3
   9549   9547   9550   9552     1  0.0000000  0.6508444  3
   9550   9547   9540   9569     1  0.0000000  0.6508444  3
   9551   9550   9559   9568     1  0.0000000  1.0460000  1
   9551   9550   9559   9568     1  0.0000000  0.0000000  3
   9551   9550   9559   9560     1  0.0000000  0.6508444  3
   9551   9550   9559   9561     1  0.0000000  0.6508444  3
   9552   9550   9559   9568     1  0.0000000  1.0460000  1
   9552   9550   9559   9568     1  0.0000000  0.0000000  3
   9552   9550   9559   9560     1  0.0000000  0.6508444  3
   9552   9550   9559   9561     1  0.0000000  0.6508444  3
   9553   9541   9540   9569     1  0.0000000  0.6508444  3
   9554   9553   9565  17381     1  0.0000000  1.0460000  1
   9554   9553   9565  17381     1  0.0000000  0.0000000  3
   9554   9553   9565   9566     1  0.0000000  0.6508444  3
   9554   9553   9565   9567     1  0.0000000  0.6508444  3
   9555   9553   9565  17381     1  0.0000000  1.0460000  1
   9555   9553   9565  17381     1  0.0000000  0.0000000  3
   9555   9553   9565   9566     1  0.0000000  0.6508444  3
   9555   9553   9565   9567     1  0.0000000  0.6508444  3
   9556   9544   9540   9569     1  0.0000000  0.6508444  3
   9557   9556   9562  17358     1  0.0000000  1.0460000  1
   9557   9556   9562  17358     1  0.0000000  0.0000000  3
   9557   9556   9562   9563     1  0.0000000  0.6508444  3
   9557   9556   9562   9564     1  0.0000000  0.6508444  3
   9558   9556   9562  17358     1  0.0000000  1.0460000  1
   9558   9556   9562  17358     1  0.0000000  0.0000000  3
   9558   9556   9562   9563     1  0.0000000  0.6508444  3
   9558   9556   9562   9564     1  0.0000000  0.6508444  3
   9562  17358  17354  17357     1  0.0000000  1.6038667  3
   9563   9562  17358  17354     1  0.0000000  1.6038667  3
   9564   9562  17358  17354     1  0.0000000  1.6038667  3
   9565  17381  17377  17380     1  0.0000000  1.6038667  3
   9566   9565  17381  17377     1  0.0000000  1.6038667  3
   9567   9565  17381  17377     1  0.0000000  1.6038667  3
   9570   9571   9583   9584     1  0.0000000  0.6508444  3
   9570   9571   9583   9585     1  0.0000000  0.6508444  3
   9570   9574   9586   9587     1  0.0000000  0.6508444  3
   9570   9574   9586   9588     1  0.0000000  0.6508444  3
   9570   9577   9580   9581     1  0.0000000  0.6508444  3
   9570   9577   9580   9582     1  0.0000000  0.6508444  3
   9571   9570   9574   9575     1  0.0000000  0.6508444  3
   9571   9570   9574   9576     1  0.0000000  0.6508444  3
   9571   9570   9577   9578     1  0.0000000  0.6508444  3
   9571   9570   9577   9579     1  0.0000000  0.6508444  3
   9571   9583   9595   9596     1  0.0000000  0.6508444  3
   9571   9583   9595   9597     1  0.0000000  0.6508444  3
   9572   9571   9570   9574     1  0.0000000  0.6508444  3
   9572   9571   9570   9577     1  0.0000000  0.6508444  3
   9572   9571   9570   9599     1  0.0000000  0.6508444  3
   9572   9571   9583   9595     1  0.0000000  0.6508444  3
   9572   9571   9583   9584     1  0.0000000  0.6508444  3
   9572   9571   9583   9585     1  0.0000000  0.6508444  3
   9573   9571   9570   9574     1  0.0000000  0.6508444  3
   9573   9571   9570   9577     1  0.0000000  0.6508444  3
   9573   9571   9570   9599     1  0.0000000  0.6508444  3
   9573   9571   9583   9595     1  0.0000000  0.6508444  3
   9573   9571   9583   9584     1  0.0000000  0.6508444  3
   9573   9571   9583   9585     1  0.0000000  0.6508444  3
   9574   9570   9577   9578     1  0.0000000  0.6508444  3
   9574   9570   9577   9579     1  0.0000000  0.6508444  3
   9574   9586   9592   9593     1  0.0000000  0.6508444  3
   9574   9586   9592   9594     1  0.0000000  0.6508444  3
   9575   9574   9570   9577     1  0.0000000  0.6508444  3
   9575   9574   9570   9599     1  0.0000000  0.6508444  3
   9575   9574   9586   9592     1  0.0000000  0.6508444  3
   9575   9574   9586   9587     1  0.0000000  0.6508444  3
   9575   9574   9586   9588     1  0.0000000  0.6508444  3
   9576   9574   9570   9577     1  0.0000000  0.6508444  3
   9576   9574   9570   9599     1  0.0000000  0.6508444  3
   9576   9574   9586   9592     1  0.0000000  0.6508444  3
   9576   9574   9586   9587     1  0.0000000  0.6508444  3
   9576   9574   9586   9588     1  0.0000000  0.6508444  3
   9577   9580   9589   9590     1  0.0000000  0.6508444  3
   9577   9580   9589   9591     1  0.0000000  0.6508444  3
   9578   9577   9570   9599     1  0.0000000  0.6508444  3
   9578   9577   9580   9589     1  0.0000000  0.6508444  3
   9578   9577   9580   9581     1  0.0000000  0.6508444  3
   9578   9577   9580   9582     1  0.0000000  0.6508444  3
   9579   9577   9570   9599     1  0.0000000  0.6508444  3
   9579   9577   9580   9589     1  0.0000000  0.6508444  3
   9579   9577   9580   9581     1  0.0000000  0.6508444  3
   9579   9577   9580   9582     1  0.0000000  0.6508444  3
   9580   9577   9570   9599     1  0.0000000  0.6508444  3
   9581   9580   9589   9598     1  0.0000000  1.0460000  1
   9581   9580   9589   9598     1  0.0000000  0.0000000  3
   9581   9580   9589   9590     1  0.0000000  0.6508444  3
   9581   9580   9589   9591     1  0.0000000  0.6508444  3
   9582   9580   9589   9598     1  0.0000000  1.0460000  1
   9582   9580   9589   9598     1  0.0000000  0.0000000  3
   9582   9580   9589   9590     1  0.0000000  0.6508444  3
   9582   9580   9589   9591     1  0.0000000  0.6508444  3
   9583   9571   9570   9599     1  0.0000000  0.6508444  3
   9584   9583   9595  17427     1  0.0000000  1.0460000  1
   9584   9583   9595  17427     1  0.0000000  0.0000000  3
   9584   9583   9595   9596     1  0.0000000  0.6508444  3
   9584   9583   9595   9597     1  0.0000000  0.6508444  3
   9585   9583   9595  17427     1  0.0000000  1.0460000  1
   9585   9583   9595  17427     1  0.0000000  0.0000000  3
   9585   9583   9595   9596     1  0.0000000  0.6508444  3
   9585   9583   9595   9597     1  0.0000000  0.6508444  3
   9586   9574   9570   9599     1  0.0000000  0.6508444  3
   9587   9586   9592  17404     1  0.0000000  1.0460000  1
   9587   9586   9592  17404     1  0.0000000  0.0000000  3
   9587   9586   9592   9593     1  0.0000000  0.6508444  3
   9587   9586   9592   9594     1  0.0000000  0.6508444  3
   9588   9586   9592  17404     1  0.0000000  1.0460000  1
   9588   9586   9592  17404     1  0.0000000  0.0000000  3
   9588   9586   9592   9593     1  0.0000000  0.6508444  3
   9588   9586   9592   9594     1  0.0000000  0.6508444  3
   9592  17404  17400  17403     1  0.0000000  1.6038667  3
   9593   9592  17404  17400     1  0.0000000  1.6038667  3
   9594   9592  17404  17400     1  0.0000000  1.6038667  3
   9595  17427  17423  17426     1  0.0000000  1.6038667  3
   9596   9595  17427  17423     1  0.0000000  1.6038667  3
   9597   9595  17427  17423     1  0.0000000  1.6038667  3
   9600   9601   9613   9614     1  0.0000000  0.6508444  3
   9600   9601   9613   9615     1  0.0000000  0.6508444  3
   9600   9604   9616   9617     1  0.0000000  0.6508444  3
   9600   9604   9616   9618     1  0.0000000  0.6508444  3
   9600   9607   9610   9611     1  0.0000000  0.6508444  3
   9600   9607   9610   9612     1  0.0000000  0.6508444  3
   9601   9600   9604   9605     1  0.0000000  0.6508444  3
   9601   9600   9604   9606     1  0.0000000  0.6508444  3
   9601   9600   9607   9608     1  0.0000000  0.6508444  3
   9601   9600   9607   9609     1  0.0000000  0.6508444  3
   9601   9613   9625   9626     1  0.0000000  0.6508444  3
   9601   9613   9625   9627     1  0.0000000  0.6508444  3
   9602   9601   9600   9604     1  0.0000000  0.6508444  3
   9602   9601   9600   9607     1  0.0000000  0.6508444  3
   9602   9601   9600   9629     1  0.0000000  0.6508444  3
   9602   9601   9613   9625     1  0.0000000  0.6508444  3
   9602   9601   9613   9614     1  0.0000000  0.6508444  3
   9602   9601   9613   9615     1  0.0000000  0.6508444  3
   9603   9601   9600   9604     1  0.0000000  0.6508444  3
   9603   9601   9600   9607     1  0.0000000  0.6508444  3
   9603   9601   9600   9629     1  0.0000000  0.6508444  3
   9603   9601   9613   9625     1  0.0000000  0.6508444  3
   9603   9601   9613   9614     1  0.0000000  0.6508444  3
   9603   9601   9613   9615     1  0.0000000  0.6508444  3
   9604   9600   9607   9608     1  0.0000000  0.6508444  3
   9604   9600   9607   9609     1  0.0000000  0.6508444  3
   9604   9616   9622   9623     1  0.0000000  0.6508444  3
   9604   9616   9622   9624     1  0.0000000  0.6508444  3
   9605   9604   9600   9607     1  0.0000000  0.6508444  3
   9605   9604   9600   9629     1  0.0000000  0.6508444  3
   9605   9604   9616   9622     1  0.0000000  0.6508444  3
   9605   9604   9616   9617     1  0.0000000  0.6508444  3
   9605   9604   9616   9618     1  0.0000000  0.6508444  3
   9606   9604   9600   9607     1  0.0000000  0.6508444  3
   9606   9604   9600   9629     1  0.0000000  0.6508444  3
   9606   9604   9616   9622     1  0.0000000  0.6508444  3
   9606   9604   9616   9617     1  0.0000000  0.6508444  3
   9606   9604   9616   9618     1  0.0000000  0.6508444  3
   9607   9610   9619   9620     1  0.0000000  0.6508444  3
   9607   9610   9619   9621     1  0.0000000  0.6508444  3
   9608   9607   9600   9629     1  0.0000000  0.6508444  3
   9608   9607   9610   9619     1  0.0000000  0.6508444  3
   9608   9607   9610   9611     1  0.0000000  0.6508444  3
   9608   9607   9610   9612     1  0.0000000  0.6508444  3
   9609   9607   9600   9629     1  0.0000000  0.6508444  3
   9609   9607   9610   9619     1  0.0000000  0.6508444  3
   9609   9607   9610   9611     1  0.0000000  0.6508444  3
   9609   9607   9610   9612     1  0.0000000  0.6508444  3
   9610   9607   9600   9629     1  0.0000000  0.6508444  3
   9611   9610   9619   9628     1  0.0000000  1.0460000  1
   9611   9610   9619   9628     1  0.0000000  0.0000000  3
   9611   9610   9619   9620     1  0.0000000  0.6508444  3
   9611   9610   9619   9621     1  0.0000000  0.6508444  3
   9612   9610   9619   9628     1  0.0000000  1.0460000  1
   9612   9610   9619   9628     1  0.0000000  0.0000000  3
   9612   9610   9619   9620     1  0.0000000  0.6508444  3
   9612   9610   9619   9621     1  0.0000000  0.6508444  3
   9613   9601   9600   9629     1  0.0000000  0.6508444  3
   9614   9613   9625  17473     1  0.0000000  1.0460000  1
   9614   9613   9625  17473     1  0.0000000  0.0000000  3
   9614   9613   9625   9626     1  0.0000000  0.6508444  3
   9614   9613   9625   9627     1  0.0000000  0.6508444  3
   9615   9613   9625  17473     1  0.0000000  1.0460000  1
   9615   9613   9625  17473     1  0.0000000  0.0000000  3
   9615   9613   9625   9626     1  0.0000000  0.6508444  3
   9615   9613   9625   9627     1  0.0000000  0.6508444  3
   9616   9604   9600   9629     1  0.0000000  0.6508444  3
   9617   9616   9622  17450     1  0.0000000  1.0460000  1
   9617   9616   9622  17450     1  0.0000000  0.0000000  3
   9617   9616   9622   9623     1  0.0000000  0.6508444  3
   9617   9616   9622   9624     1  0.0000000  0.6508444  3
   9618   9616   9622  17450     1  0.0000000  1.0460000  1
   9618   9616   9622  17450     1  0.0000000  0.0000000  3
   9618   9616   9622   9623     1  0.0000000  0.6508444  3
   9618   9616   9622   9624     1  0.0000000  0.6508444  3
   9622  17450  17446  17449     1  0.0000000  1.6038667  3
   9623   9622  17450  17446     1  0.0000000  1.6038667  3
   9624   9622  17450  17446     1  0.0000000  1.6038667  3
   9625  17473  17469  17472     1  0.0000000  1.6038667  3
   9626   9625  17473  17469     1  0.0000000  1.6038667  3
   9627   9625  17473  17469     1  0.0000000  1.6038667  3
   9630   9631   9643   9644     1  0.0000000  0.6508444  3
   9630   9631   9643   9645     1  0.0000000  0.6508444  3
   9630   9634   9646   9647     1  0.0000000  0.6508444  3
   9630   9634   9646   9648     1  0.0000000  0.6508444  3
   9630   9637   9640   9641     1  0.0000000  0.6508444  3
   9630   9637   9640   9642     1  0.0000000  0.6508444  3
   9631   9630   9634   9635     1  0.0000000  0.6508444  3
   9631   9630   9634   9636     1  0.0000000  0.6508444  3
   9631   9630   9637   9638     1  0.0000000  0.6508444  3
   9631   9630   9637   9639     1  0.0000000  0.6508444  3
   9631   9643   9655   9656     1  0.0000000  0.6508444  3
   9631   9643   9655   9657     1  0.0000000  0.6508444  3
   9632   9631   9630   9634     1  0.0000000  0.6508444  3
   9632   9631   9630   9637     1  0.0000000  0.6508444  3
   9632   9631   9630   9659     1  0.0000000  0.6508444  3
   9632   9631   9643   9655     1  0.0000000  0.6508444  3
   9632   9631   9643   9644     1  0.0000000  0.6508444  3
   9632   9631   9643   9645     1  0.0000000  0.6508444  3
   9633   9631   9630   9634     1  0.0000000  0.6508444  3
   9633   9631   9630   9637     1  0.0000000  0.6508444  3
   9633   9631   9630   9659     1  0.0000000  0.6508444  3
   9633   9631   9643   9655     1  0.0000000  0.6508444  3
   9633   9631   9643   9644     1  0.0000000  0.6508444  3
   9633   9631   9643   9645     1  0.0000000  0.6508444  3
   9634   9630   9637   9638     1  0.0000000  0.6508444  3
   9634   9630   9637   9639     1  0.0000000  0.6508444  3
   9634   9646   9652   9653     1  0.0000000  0.6508444  3
   9634   9646   9652   9654     1  0.0000000  0.6508444  3
   9635   9634   9630   9637     1  0.0000000  0.6508444  3
   9635   9634   9630   9659     1  0.0000000  0.6508444  3
   9635   9634   9646   9652     1  0.0000000  0.6508444  3
   9635   9634   9646   9647     1  0.0000000  0.6508444  3
   9635   9634   9646   9648     1  0.0000000  0.6508444  3
   9636   9634   9630   9637     1  0.0000000  0.6508444  3
   9636   9634   9630   9659     1  0.0000000  0.6508444  3
   9636   9634   9646   9652     1  0.0000000  0.6508444  3
   9636   9634   9646   9647     1  0.0000000  0.6508444  3
   9636   9634   9646   9648     1  0.0000000  0.6508444  3
   9637   9640   9649   9650     1  0.0000000  0.6508444  3
   9637   9640   9649   9651     1  0.0000000  0.6508444  3
   9638   9637   9630   9659     1  0.0000000  0.6508444  3
   9638   9637   9640   9649     1  0.0000000  0.6508444  3
   9638   9637   9640   9641     1  0.0000000  0.6508444  3
   9638   9637   9640   9642     1  0.0000000  0.6508444  3
   9639   9637   9630   9659     1  0.0000000  0.6508444  3
   9639   9637   9640   9649     1  0.0000000  0.6508444  3
   9639   9637   9640   9641     1  0.0000000  0.6508444  3
   9639   9637   9640   9642     1  0.0000000  0.6508444  3
   9640   9637   9630   9659     1  0.0000000  0.6508444  3
   9641   9640   9649   9658     1  0.0000000  1.0460000  1
   9641   9640   9649   9658     1  0.0000000  0.0000000  3
   9641   9640   9649   9650     1  0.0000000  0.6508444  3
   9641   9640   9649   9651     1  0.0000000  0.6508444  3
   9642   9640   9649   9658     1  0.0000000  1.0460000  1
   9642   9640   9649   9658     1  0.0000000  0.0000000  3
   9642   9640   9649   9650     1  0.0000000  0.6508444  3
   9642   9640   9649   9651     1  0.0000000  0.6508444  3
   9643   9631   9630   9659     1  0.0000000  0.6508444  3
   9644   9643   9655  17519     1  0.0000000  1.0460000  1
   9644   9643   9655  17519     1  0.0000000  0.0000000  3
   9644   9643   9655   9656     1  0.0000000  0.6508444  3
   9644   9643   9655   9657     1  0.0000000  0.6508444  3
   9645   9643   9655  17519     1  0.0000000  1.0460000  1
   9645   9643   9655  17519     1  0.0000000  0.0000000  3
   9645   9643   9655   9656     1  0.0000000  0.6508444  3
   9645   9643   9655   9657     1  0.0000000  0.6508444  3
   9646   9634   9630   9659     1  0.0000000  0.6508444  3
   9647   9646   9652  17496     1  0.0000000  1.0460000  1
   9647   9646   9652  17496     1  0.0000000  0.0000000  3
   9647   9646   9652   9653     1  0.0000000  0.6508444  3
   9647   9646   9652   9654     1  0.0000000  0.6508444  3
   9648   9646   9652  17496     1  0.0000000  1.0460000  1
   9648   9646   9652  17496     1  0.0000000  0.0000000  3
   9648   9646   9652   9653     1  0.0000000  0.6508444  3
   9648   9646   9652   9654     1  0.0000000  0.6508444  3
   9652  17496  17492  17495     1  0.0000000  1.6038667  3
   9653   9652  17496  17492     1  0.0000000  1.6038667  3
   9654   9652  17496  17492     1  0.0000000  1.6038667  3
   9655  17519  17515  17518     1  0.0000000  1.6038667  3
   9656   9655  17519  17515     1  0.0000000  1.6038667  3
   9657   9655  17519  17515     1  0.0000000  1.6038667  3
   9660   9661   9673   9674     1  0.0000000  0.6508444  3
   9660   9661   9673   9675     1  0.0000000  0.6508444  3
   9660   9664   9676   9677     1  0.0000000  0.6508444  3
   9660   9664   9676   9678     1  0.0000000  0.6508444  3
   9660   9667   9670   9671     1  0.0000000  0.6508444  3
   9660   9667   9670   9672     1  0.0000000  0.6508444  3
   9661   9660   9664   9665     1  0.0000000  0.6508444  3
   9661   9660   9664   9666     1  0.0000000  0.6508444  3
   9661   9660   9667   9668     1  0.0000000  0.6508444  3
   9661   9660   9667   9669     1  0.0000000  0.6508444  3
   9661   9673   9685   9686     1  0.0000000  0.6508444  3
   9661   9673   9685   9687     1  0.0000000  0.6508444  3
   9662   9661   9660   9664     1  0.0000000  0.6508444  3
   9662   9661   9660   9667     1  0.0000000  0.6508444  3
   9662   9661   9660   9689     1  0.0000000  0.6508444  3
   9662   9661   9673   9685     1  0.0000000  0.6508444  3
   9662   9661   9673   9674     1  0.0000000  0.6508444  3
   9662   9661   9673   9675     1  0.0000000  0.6508444  3
   9663   9661   9660   9664     1  0.0000000  0.6508444  3
   9663   9661   9660   9667     1  0.0000000  0.6508444  3
   9663   9661   9660   9689     1  0.0000000  0.6508444  3
   9663   9661   9673   9685     1  0.0000000  0.6508444  3
   9663   9661   9673   9674     1  0.0000000  0.6508444  3
   9663   9661   9673   9675     1  0.0000000  0.6508444  3
   9664   9660   9667   9668     1  0.0000000  0.6508444  3
   9664   9660   9667   9669     1  0.0000000  0.6508444  3
   9664   9676   9682   9683     1  0.0000000  0.6508444  3
   9664   9676   9682   9684     1  0.0000000  0.6508444  3
   9665   9664   9660   9667     1  0.0000000  0.6508444  3
   9665   9664   9660   9689     1  0.0000000  0.6508444  3
   9665   9664   9676   9682     1  0.0000000  0.6508444  3
   9665   9664   9676   9677     1  0.0000000  0.6508444  3
   9665   9664   9676   9678     1  0.0000000  0.6508444  3
   9666   9664   9660   9667     1  0.0000000  0.6508444  3
   9666   9664   9660   9689     1  0.0000000  0.6508444  3
   9666   9664   9676   9682     1  0.0000000  0.6508444  3
   9666   9664   9676   9677     1  0.0000000  0.6508444  3
   9666   9664   9676   9678     1  0.0000000  0.6508444  3
   9667   9670   9679   9680     1  0.0000000  0.6508444  3
   9667   9670   9679   9681     1  0.0000000  0.6508444  3
   9668   9667   9660   9689     1  0.0000000  0.6508444  3
   9668   9667   9670   9679     1  0.0000000  0.6508444  3
   9668   9667   9670   9671     1  0.0000000  0.6508444  3
   9668   9667   9670   9672     1  0.0000000  0.6508444  3
   9669   9667   9660   9689     1  0.0000000  0.6508444  3
   9669   9667   9670   9679     1  0.0000000  0.6508444  3
   9669   9667   9670   9671     1  0.0000000  0.6508444  3
   9669   9667   9670   9672     1  0.0000000  0.6508444  3
   9670   9667   9660   9689     1  0.0000000  0.6508444  3
   9671   9670   9679   9688     1  0.0000000  1.0460000  1
   9671   9670   9679   9688     1  0.0000000  0.0000000  3
   9671   9670   9679   9680     1  0.0000000  0.6508444  3
   9671   9670   9679   9681     1  0.0000000  0.6508444  3
   9672   9670   9679   9688     1  0.0000000  1.0460000  1
   9672   9670   9679   9688     1  0.0000000  0.0000000  3
   9672   9670   9679   9680     1  0.0000000  0.6508444  3
   9672   9670   9679   9681     1  0.0000000  0.6508444  3
   9673   9661   9660   9689     1  0.0000000  0.6508444  3
   9674   9673   9685  17565     1  0.0000000  1.0460000  1
   9674   9673   9685  17565     1  0.0000000  0.0000000  3
   9674   9673   9685   9686     1  0.0000000  0.6508444  3
   9674   9673   9685   9687     1  0.0000000  0.6508444  3
   9675   9673   9685  17565     1  0.0000000  1.0460000  1
   9675   9673   9685  17565     1  0.0000000  0.0000000  3
   9675   9673   9685   9686     1  0.0000000  0.6508444  3
   9675   9673   9685   9687     1  0.0000000  0.6508444  3
   9676   9664   9660   9689     1  0.0000000  0.6508444  3
   9677   9676   9682  17542     1  0.0000000  1.0460000  1
   9677   9676   9682  17542     1  0.0000000  0.0000000  3
   9677   9676   9682   9683     1  0.0000000  0.6508444  3
   9677   9676   9682   9684     1  0.0000000  0.6508444  3
   9678   9676   9682  17542     1  0.0000000  1.0460000  1
   9678   9676   9682  17542     1  0.0000000  0.0000000  3
   9678   9676   9682   9683     1  0.0000000  0.6508444  3
   9678   9676   9682   9684     1  0.0000000  0.6508444  3
   9682  17542  17538  17541     1  0.0000000  1.6038667  3
   9683   9682  17542  17538     1  0.0000000  1.6038667  3
   9684   9682  17542  17538     1  0.0000000  1.6038667  3
   9685  17565  17561  17564     1  0.0000000  1.6038667  3
   9686   9685  17565  17561     1  0.0000000  1.6038667  3
   9687   9685  17565  17561     1  0.0000000  1.6038667  3
   9690   9691   9703   9704     1  0.0000000  0.6508444  3
   9690   9691   9703   9705     1  0.0000000  0.6508444  3
   9690   9694   9706   9707     1  0.0000000  0.6508444  3
   9690   9694   9706   9708     1  0.0000000  0.6508444  3
   9690   9697   9700   9701     1  0.0000000  0.6508444  3
   9690   9697   9700   9702     1  0.0000000  0.6508444  3
   9691   9690   9694   9695     1  0.0000000  0.6508444  3
   9691   9690   9694   9696     1  0.0000000  0.6508444  3
   9691   9690   9697   9698     1  0.0000000  0.6508444  3
   9691   9690   9697   9699     1  0.0000000  0.6508444  3
   9691   9703   9715   9716     1  0.0000000  0.6508444  3
   9691   9703   9715   9717     1  0.0000000  0.6508444  3
   9692   9691   9690   9694     1  0.0000000  0.6508444  3
   9692   9691   9690   9697     1  0.0000000  0.6508444  3
   9692   9691   9690   9719     1  0.0000000  0.6508444  3
   9692   9691   9703   9715     1  0.0000000  0.6508444  3
   9692   9691   9703   9704     1  0.0000000  0.6508444  3
   9692   9691   9703   9705     1  0.0000000  0.6508444  3
   9693   9691   9690   9694     1  0.0000000  0.6508444  3
   9693   9691   9690   9697     1  0.0000000  0.6508444  3
   9693   9691   9690   9719     1  0.0000000  0.6508444  3
   9693   9691   9703   9715     1  0.0000000  0.6508444  3
   9693   9691   9703   9704     1  0.0000000  0.6508444  3
   9693   9691   9703   9705     1  0.0000000  0.6508444  3
   9694   9690   9697   9698     1  0.0000000  0.6508444  3
   9694   9690   9697   9699     1  0.0000000  0.6508444  3
   9694   9706   9712   9713     1  0.0000000  0.6508444  3
   9694   9706   9712   9714     1  0.0000000  0.6508444  3
   9695   9694   9690   9697     1  0.0000000  0.6508444  3
   9695   9694   9690   9719     1  0.0000000  0.6508444  3
   9695   9694   9706   9712     1  0.0000000  0.6508444  3
   9695   9694   9706   9707     1  0.0000000  0.6508444  3
   9695   9694   9706   9708     1  0.0000000  0.6508444  3
   9696   9694   9690   9697     1  0.0000000  0.6508444  3
   9696   9694   9690   9719     1  0.0000000  0.6508444  3
   9696   9694   9706   9712     1  0.0000000  0.6508444  3
   9696   9694   9706   9707     1  0.0000000  0.6508444  3
   9696   9694   9706   9708     1  0.0000000  0.6508444  3
   9697   9700   9709   9710     1  0.0000000  0.6508444  3
   9697   9700   9709   9711     1  0.0000000  0.6508444  3
   9698   9697   9690   9719     1  0.0000000  0.6508444  3
   9698   9697   9700   9709     1  0.0000000  0.6508444  3
   9698   9697   9700   9701     1  0.0000000  0.6508444  3
   9698   9697   9700   9702     1  0.0000000  0.6508444  3
   9699   9697   9690   9719     1  0.0000000  0.6508444  3
   9699   9697   9700   9709     1  0.0000000  0.6508444  3
   9699   9697   9700   9701     1  0.0000000  0.6508444  3
   9699   9697   9700   9702     1  0.0000000  0.6508444  3
   9700   9697   9690   9719     1  0.0000000  0.6508444  3
   9701   9700   9709   9718     1  0.0000000  1.0460000  1
   9701   9700   9709   9718     1  0.0000000  0.0000000  3
   9701   9700   9709   9710     1  0.0000000  0.6508444  3
   9701   9700   9709   9711     1  0.0000000  0.6508444  3
   9702   9700   9709   9718     1  0.0000000  1.0460000  1
   9702   9700   9709   9718     1  0.0000000  0.0000000  3
   9702   9700   9709   9710     1  0.0000000  0.6508444  3
   9702   9700   9709   9711     1  0.0000000  0.6508444  3
   9703   9691   9690   9719     1  0.0000000  0.6508444  3
   9704   9703   9715  17611     1  0.0000000  1.0460000  1
   9704   9703   9715  17611     1  0.0000000  0.0000000  3
   9704   9703   9715   9716     1  0.0000000  0.6508444  3
   9704   9703   9715   9717     1  0.0000000  0.6508444  3
   9705   9703   9715  17611     1  0.0000000  1.0460000  1
   9705   9703   9715  17611     1  0.0000000  0.0000000  3
   9705   9703   9715   9716     1  0.0000000  0.6508444  3
   9705   9703   9715   9717     1  0.0000000  0.6508444  3
   9706   9694   9690   9719     1  0.0000000  0.6508444  3
   9707   9706   9712  17588     1  0.0000000  1.0460000  1
   9707   9706   9712  17588     1  0.0000000  0.0000000  3
   9707   9706   9712   9713     1  0.0000000  0.6508444  3
   9707   9706   9712   9714     1  0.0000000  0.6508444  3
   9708   9706   9712  17588     1  0.0000000  1.0460000  1
   9708   9706   9712  17588     1  0.0000000  0.0000000  3
   9708   9706   9712   9713     1  0.0000000  0.6508444  3
   9708   9706   9712   9714     1  0.0000000  0.6508444  3
   9712  17588  17584  17587     1  0.0000000  1.6038667  3
   9713   9712  17588  17584     1  0.0000000  1.6038667  3
   9714   9712  17588  17584     1  0.0000000  1.6038667  3
   9715  17611  17607  17610     1  0.0000000  1.6038667  3
   9716   9715  17611  17607     1  0.0000000  1.6038667  3
   9717   9715  17611  17607     1  0.0000000  1.6038667  3
   9720   9721   9733   9734     1  0.0000000  0.6508444  3
   9720   9721   9733   9735     1  0.0000000  0.6508444  3
   9720   9724   9736   9737     1  0.0000000  0.6508444  3
   9720   9724   9736   9738     1  0.0000000  0.6508444  3
   9720   9727   9730   9731     1  0.0000000  0.6508444  3
   9720   9727   9730   9732     1  0.0000000  0.6508444  3
   9721   9720   9724   9725     1  0.0000000  0.6508444  3
   9721   9720   9724   9726     1  0.0000000  0.6508444  3
   9721   9720   9727   9728     1  0.0000000  0.6508444  3
   9721   9720   9727   9729     1  0.0000000  0.6508444  3
   9721   9733   9745   9746     1  0.0000000  0.6508444  3
   9721   9733   9745   9747     1  0.0000000  0.6508444  3
   9722   9721   9720   9724     1  0.0000000  0.6508444  3
   9722   9721   9720   9727     1  0.0000000  0.6508444  3
   9722   9721   9720   9749     1  0.0000000  0.6508444  3
   9722   9721   9733   9745     1  0.0000000  0.6508444  3
   9722   9721   9733   9734     1  0.0000000  0.6508444  3
   9722   9721   9733   9735     1  0.0000000  0.6508444  3
   9723   9721   9720   9724     1  0.0000000  0.6508444  3
   9723   9721   9720   9727     1  0.0000000  0.6508444  3
   9723   9721   9720   9749     1  0.0000000  0.6508444  3
   9723   9721   9733   9745     1  0.0000000  0.6508444  3
   9723   9721   9733   9734     1  0.0000000  0.6508444  3
   9723   9721   9733   9735     1  0.0000000  0.6508444  3
   9724   9720   9727   9728     1  0.0000000  0.6508444  3
   9724   9720   9727   9729     1  0.0000000  0.6508444  3
   9724   9736   9742   9743     1  0.0000000  0.6508444  3
   9724   9736   9742   9744     1  0.0000000  0.6508444  3
   9725   9724   9720   9727     1  0.0000000  0.6508444  3
   9725   9724   9720   9749     1  0.0000000  0.6508444  3
   9725   9724   9736   9742     1  0.0000000  0.6508444  3
   9725   9724   9736   9737     1  0.0000000  0.6508444  3
   9725   9724   9736   9738     1  0.0000000  0.6508444  3
   9726   9724   9720   9727     1  0.0000000  0.6508444  3
   9726   9724   9720   9749     1  0.0000000  0.6508444  3
   9726   9724   9736   9742     1  0.0000000  0.6508444  3
   9726   9724   9736   9737     1  0.0000000  0.6508444  3
   9726   9724   9736   9738     1  0.0000000  0.6508444  3
   9727   9730   9739   9740     1  0.0000000  0.6508444  3
   9727   9730   9739   9741     1  0.0000000  0.6508444  3
   9728   9727   9720   9749     1  0.0000000  0.6508444  3
   9728   9727   9730   9739     1  0.0000000  0.6508444  3
   9728   9727   9730   9731     1  0.0000000  0.6508444  3
   9728   9727   9730   9732     1  0.0000000  0.6508444  3
   9729   9727   9720   9749     1  0.0000000  0.6508444  3
   9729   9727   9730   9739     1  0.0000000  0.6508444  3
   9729   9727   9730   9731     1  0.0000000  0.6508444  3
   9729   9727   9730   9732     1  0.0000000  0.6508444  3
   9730   9727   9720   9749     1  0.0000000  0.6508444  3
   9731   9730   9739   9748     1  0.0000000  1.0460000  1
   9731   9730   9739   9748     1  0.0000000  0.0000000  3
   9731   9730   9739   9740     1  0.0000000  0.6508444  3
   9731   9730   9739   9741     1  0.0000000  0.6508444  3
   9732   9730   9739   9748     1  0.0000000  1.0460000  1
   9732   9730   9739   9748     1  0.0000000  0.0000000  3
   9732   9730   9739   9740     1  0.0000000  0.6508444  3
   9732   9730   9739   9741     1  0.0000000  0.6508444  3
   9733   9721   9720   9749     1  0.0000000  0.6508444  3
   9734   9733   9745  17657     1  0.0000000  1.0460000  1
   9734   9733   9745  17657     1  0.0000000  0.0000000  3
   9734   9733   9745   9746     1  0.0000000  0.6508444  3
   9734   9733   9745   9747     1  0.0000000  0.6508444  3
   9735   9733   9745  17657     1  0.0000000  1.0460000  1
   9735   9733   9745  17657     1  0.0000000  0.0000000  3
   9735   9733   9745   9746     1  0.0000000  0.6508444  3
   9735   9733   9745   9747     1  0.0000000  0.6508444  3
   9736   9724   9720   9749     1  0.0000000  0.6508444  3
   9737   9736   9742  17634     1  0.0000000  1.0460000  1
   9737   9736   9742  17634     1  0.0000000  0.0000000  3
   9737   9736   9742   9743     1  0.0000000  0.6508444  3
   9737   9736   9742   9744     1  0.0000000  0.6508444  3
   9738   9736   9742  17634     1  0.0000000  1.0460000  1
   9738   9736   9742  17634     1  0.0000000  0.0000000  3
   9738   9736   9742   9743     1  0.0000000  0.6508444  3
   9738   9736   9742   9744     1  0.0000000  0.6508444  3
   9742  17634  17630  17633     1  0.0000000  1.6038667  3
   9743   9742  17634  17630     1  0.0000000  1.6038667  3
   9744   9742  17634  17630     1  0.0000000  1.6038667  3
   9745  17657  17653  17656     1  0.0000000  1.6038667  3
   9746   9745  17657  17653     1  0.0000000  1.6038667  3
   9747   9745  17657  17653     1  0.0000000  1.6038667  3
   9750   9751   9763   9764     1  0.0000000  0.6508444  3
   9750   9751   9763   9765     1  0.0000000  0.6508444  3
   9750   9754   9766   9767     1  0.0000000  0.6508444  3
   9750   9754   9766   9768     1  0.0000000  0.6508444  3
   9750   9757   9760   9761     1  0.0000000  0.6508444  3
   9750   9757   9760   9762     1  0.0000000  0.6508444  3
   9751   9750   9754   9755     1  0.0000000  0.6508444  3
   9751   9750   9754   9756     1  0.0000000  0.6508444  3
   9751   9750   9757   9758     1  0.0000000  0.6508444  3
   9751   9750   9757   9759     1  0.0000000  0.6508444  3
   9751   9763   9775   9776     1  0.0000000  0.6508444  3
   9751   9763   9775   9777     1  0.0000000  0.6508444  3
   9752   9751   9750   9754     1  0.0000000  0.6508444  3
   9752   9751   9750   9757     1  0.0000000  0.6508444  3
   9752   9751   9750   9779     1  0.0000000  0.6508444  3
   9752   9751   9763   9775     1  0.0000000  0.6508444  3
   9752   9751   9763   9764     1  0.0000000  0.6508444  3
   9752   9751   9763   9765     1  0.0000000  0.6508444  3
   9753   9751   9750   9754     1  0.0000000  0.6508444  3
   9753   9751   9750   9757     1  0.0000000  0.6508444  3
   9753   9751   9750   9779     1  0.0000000  0.6508444  3
   9753   9751   9763   9775     1  0.0000000  0.6508444  3
   9753   9751   9763   9764     1  0.0000000  0.6508444  3
   9753   9751   9763   9765     1  0.0000000  0.6508444  3
   9754   9750   9757   9758     1  0.0000000  0.6508444  3
   9754   9750   9757   9759     1  0.0000000  0.6508444  3
   9754   9766   9772   9773     1  0.0000000  0.6508444  3
   9754   9766   9772   9774     1  0.0000000  0.6508444  3
   9755   9754   9750   9757     1  0.0000000  0.6508444  3
   9755   9754   9750   9779     1  0.0000000  0.6508444  3
   9755   9754   9766   9772     1  0.0000000  0.6508444  3
   9755   9754   9766   9767     1  0.0000000  0.6508444  3
   9755   9754   9766   9768     1  0.0000000  0.6508444  3
   9756   9754   9750   9757     1  0.0000000  0.6508444  3
   9756   9754   9750   9779     1  0.0000000  0.6508444  3
   9756   9754   9766   9772     1  0.0000000  0.6508444  3
   9756   9754   9766   9767     1  0.0000000  0.6508444  3
   9756   9754   9766   9768     1  0.0000000  0.6508444  3
   9757   9760   9769   9770     1  0.0000000  0.6508444  3
   9757   9760   9769   9771     1  0.0000000  0.6508444  3
   9758   9757   9750   9779     1  0.0000000  0.6508444  3
   9758   9757   9760   9769     1  0.0000000  0.6508444  3
   9758   9757   9760   9761     1  0.0000000  0.6508444  3
   9758   9757   9760   9762     1  0.0000000  0.6508444  3
   9759   9757   9750   9779     1  0.0000000  0.6508444  3
   9759   9757   9760   9769     1  0.0000000  0.6508444  3
   9759   9757   9760   9761     1  0.0000000  0.6508444  3
   9759   9757   9760   9762     1  0.0000000  0.6508444  3
   9760   9757   9750   9779     1  0.0000000  0.6508444  3
   9761   9760   9769   9778     1  0.0000000  1.0460000  1
   9761   9760   9769   9778     1  0.0000000  0.0000000  3
   9761   9760   9769   9770     1  0.0000000  0.6508444  3
   9761   9760   9769   9771     1  0.0000000  0.6508444  3
   9762   9760   9769   9778     1  0.0000000  1.0460000  1
   9762   9760   9769   9778     1  0.0000000  0.0000000  3
   9762   9760   9769   9770     1  0.0000000  0.6508444  3
   9762   9760   9769   9771     1  0.0000000  0.6508444  3
   9763   9751   9750   9779     1  0.0000000  0.6508444  3
   9764   9763   9775  17703     1  0.0000000  1.0460000  1
   9764   9763   9775  17703     1  0.0000000  0.0000000  3
   9764   9763   9775   9776     1  0.0000000  0.6508444  3
   9764   9763   9775   9777     1  0.0000000  0.6508444  3
   9765   9763   9775  17703     1  0.0000000  1.0460000  1
   9765   9763   9775  17703     1  0.0000000  0.0000000  3
   9765   9763   9775   9776     1  0.0000000  0.6508444  3
   9765   9763   9775   9777     1  0.0000000  0.6508444  3
   9766   9754   9750   9779     1  0.0000000  0.6508444  3
   9767   9766   9772  17680     1  0.0000000  1.0460000  1
   9767   9766   9772  17680     1  0.0000000  0.0000000  3
   9767   9766   9772   9773     1  0.0000000  0.6508444  3
   9767   9766   9772   9774     1  0.0000000  0.6508444  3
   9768   9766   9772  17680     1  0.0000000  1.0460000  1
   9768   9766   9772  17680     1  0.0000000  0.0000000  3
   9768   9766   9772   9773     1  0.0000000  0.6508444  3
   9768   9766   9772   9774     1  0.0000000  0.6508444  3
   9772  17680  17676  17679     1  0.0000000  1.6038667  3
   9773   9772  17680  17676     1  0.0000000  1.6038667  3
   9774   9772  17680  17676     1  0.0000000  1.6038667  3
   9775  17703  17699  17702     1  0.0000000  1.6038667  3
   9776   9775  17703  17699     1  0.0000000  1.6038667  3
   9777   9775  17703  17699     1  0.0000000  1.6038667  3
   9780   9781   9793   9794     1  0.0000000  0.6508444  3
   9780   9781   9793   9795     1  0.0000000  0.6508444  3
   9780   9784   9796   9797     1  0.0000000  0.6508444  3
   9780   9784   9796   9798     1  0.0000000  0.6508444  3
   9780   9787   9790   9791     1  0.0000000  0.6508444  3
   9780   9787   9790   9792     1  0.0000000  0.6508444  3
   9781   9780   9784   9785     1  0.0000000  0.6508444  3
   9781   9780   9784   9786     1  0.0000000  0.6508444  3
   9781   9780   9787   9788     1  0.0000000  0.6508444  3
   9781   9780   9787   9789     1  0.0000000  0.6508444  3
   9781   9793   9805   9806     1  0.0000000  0.6508444  3
   9781   9793   9805   9807     1  0.0000000  0.6508444  3
   9782   9781   9780   9784     1  0.0000000  0.6508444  3
   9782   9781   9780   9787     1  0.0000000  0.6508444  3
   9782   9781   9780   9809     1  0.0000000  0.6508444  3
   9782   9781   9793   9805     1  0.0000000  0.6508444  3
   9782   9781   9793   9794     1  0.0000000  0.6508444  3
   9782   9781   9793   9795     1  0.0000000  0.6508444  3
   9783   9781   9780   9784     1  0.0000000  0.6508444  3
   9783   9781   9780   9787     1  0.0000000  0.6508444  3
   9783   9781   9780   9809     1  0.0000000  0.6508444  3
   9783   9781   9793   9805     1  0.0000000  0.6508444  3
   9783   9781   9793   9794     1  0.0000000  0.6508444  3
   9783   9781   9793   9795     1  0.0000000  0.6508444  3
   9784   9780   9787   9788     1  0.0000000  0.6508444  3
   9784   9780   9787   9789     1  0.0000000  0.6508444  3
   9784   9796   9802   9803     1  0.0000000  0.6508444  3
   9784   9796   9802   9804     1  0.0000000  0.6508444  3
   9785   9784   9780   9787     1  0.0000000  0.6508444  3
   9785   9784   9780   9809     1  0.0000000  0.6508444  3
   9785   9784   9796   9802     1  0.0000000  0.6508444  3
   9785   9784   9796   9797     1  0.0000000  0.6508444  3
   9785   9784   9796   9798     1  0.0000000  0.6508444  3
   9786   9784   9780   9787     1  0.0000000  0.6508444  3
   9786   9784   9780   9809     1  0.0000000  0.6508444  3
   9786   9784   9796   9802     1  0.0000000  0.6508444  3
   9786   9784   9796   9797     1  0.0000000  0.6508444  3
   9786   9784   9796   9798     1  0.0000000  0.6508444  3
   9787   9790   9799   9800     1  0.0000000  0.6508444  3
   9787   9790   9799   9801     1  0.0000000  0.6508444  3
   9788   9787   9780   9809     1  0.0000000  0.6508444  3
   9788   9787   9790   9799     1  0.0000000  0.6508444  3
   9788   9787   9790   9791     1  0.0000000  0.6508444  3
   9788   9787   9790   9792     1  0.0000000  0.6508444  3
   9789   9787   9780   9809     1  0.0000000  0.6508444  3
   9789   9787   9790   9799     1  0.0000000  0.6508444  3
   9789   9787   9790   9791     1  0.0000000  0.6508444  3
   9789   9787   9790   9792     1  0.0000000  0.6508444  3
   9790   9787   9780   9809     1  0.0000000  0.6508444  3
   9791   9790   9799   9808     1  0.0000000  1.0460000  1
   9791   9790   9799   9808     1  0.0000000  0.0000000  3
   9791   9790   9799   9800     1  0.0000000  0.6508444  3
   9791   9790   9799   9801     1  0.0000000  0.6508444  3
   9792   9790   9799   9808     1  0.0000000  1.0460000  1
   9792   9790   9799   9808     1  0.0000000  0.0000000  3
   9792   9790   9799   9800     1  0.0000000  0.6508444  3
   9792   9790   9799   9801     1  0.0000000  0.6508444  3
   9793   9781   9780   9809     1  0.0000000  0.6508444  3
   9794   9793   9805  17749     1  0.0000000  1.0460000  1
   9794   9793   9805  17749     1  0.0000000  0.0000000  3
   9794   9793   9805   9806     1  0.0000000  0.6508444  3
   9794   9793   9805   9807     1  0.0000000  0.6508444  3
   9795   9793   9805  17749     1  0.0000000  1.0460000  1
   9795   9793   9805  17749     1  0.0000000  0.0000000  3
   9795   9793   9805   9806     1  0.0000000  0.6508444  3
   9795   9793   9805   9807     1  0.0000000  0.6508444  3
   9796   9784   9780   9809     1  0.0000000  0.6508444  3
   9797   9796   9802  17726     1  0.0000000  1.0460000  1
   9797   9796   9802  17726     1  0.0000000  0.0000000  3
   9797   9796   9802   9803     1  0.0000000  0.6508444  3
   9797   9796   9802   9804     1  0.0000000  0.6508444  3
   9798   9796   9802  17726     1  0.0000000  1.0460000  1
   9798   9796   9802  17726     1  0.0000000  0.0000000  3
   9798   9796   9802   9803     1  0.0000000  0.6508444  3
   9798   9796   9802   9804     1  0.0000000  0.6508444  3
   9802  17726  17722  17725     1  0.0000000  1.6038667  3
   9803   9802  17726  17722     1  0.0000000  1.6038667  3
   9804   9802  17726  17722     1  0.0000000  1.6038667  3
   9805  17749  17745  17748     1  0.0000000  1.6038667  3
   9806   9805  17749  17745     1  0.0000000  1.6038667  3
   9807   9805  17749  17745     1  0.0000000  1.6038667  3
   9810   9811   9823   9824     1  0.0000000  0.6508444  3
   9810   9811   9823   9825     1  0.0000000  0.6508444  3
   9810   9814   9826   9827     1  0.0000000  0.6508444  3
   9810   9814   9826   9828     1  0.0000000  0.6508444  3
   9810   9817   9820   9821     1  0.0000000  0.6508444  3
   9810   9817   9820   9822     1  0.0000000  0.6508444  3
   9811   9810   9814   9815     1  0.0000000  0.6508444  3
   9811   9810   9814   9816     1  0.0000000  0.6508444  3
   9811   9810   9817   9818     1  0.0000000  0.6508444  3
   9811   9810   9817   9819     1  0.0000000  0.6508444  3
   9811   9823   9835   9836     1  0.0000000  0.6508444  3
   9811   9823   9835   9837     1  0.0000000  0.6508444  3
   9812   9811   9810   9814     1  0.0000000  0.6508444  3
   9812   9811   9810   9817     1  0.0000000  0.6508444  3
   9812   9811   9810   9839     1  0.0000000  0.6508444  3
   9812   9811   9823   9835     1  0.0000000  0.6508444  3
   9812   9811   9823   9824     1  0.0000000  0.6508444  3
   9812   9811   9823   9825     1  0.0000000  0.6508444  3
   9813   9811   9810   9814     1  0.0000000  0.6508444  3
   9813   9811   9810   9817     1  0.0000000  0.6508444  3
   9813   9811   9810   9839     1  0.0000000  0.6508444  3
   9813   9811   9823   9835     1  0.0000000  0.6508444  3
   9813   9811   9823   9824     1  0.0000000  0.6508444  3
   9813   9811   9823   9825     1  0.0000000  0.6508444  3
   9814   9810   9817   9818     1  0.0000000  0.6508444  3
   9814   9810   9817   9819     1  0.0000000  0.6508444  3
   9814   9826   9832   9833     1  0.0000000  0.6508444  3
   9814   9826   9832   9834     1  0.0000000  0.6508444  3
   9815   9814   9810   9817     1  0.0000000  0.6508444  3
   9815   9814   9810   9839     1  0.0000000  0.6508444  3
   9815   9814   9826   9832     1  0.0000000  0.6508444  3
   9815   9814   9826   9827     1  0.0000000  0.6508444  3
   9815   9814   9826   9828     1  0.0000000  0.6508444  3
   9816   9814   9810   9817     1  0.0000000  0.6508444  3
   9816   9814   9810   9839     1  0.0000000  0.6508444  3
   9816   9814   9826   9832     1  0.0000000  0.6508444  3
   9816   9814   9826   9827     1  0.0000000  0.6508444  3
   9816   9814   9826   9828     1  0.0000000  0.6508444  3
   9817   9820   9829   9830     1  0.0000000  0.6508444  3
   9817   9820   9829   9831     1  0.0000000  0.6508444  3
   9818   9817   9810   9839     1  0.0000000  0.6508444  3
   9818   9817   9820   9829     1  0.0000000  0.6508444  3
   9818   9817   9820   9821     1  0.0000000  0.6508444  3
   9818   9817   9820   9822     1  0.0000000  0.6508444  3
   9819   9817   9810   9839     1  0.0000000  0.6508444  3
   9819   9817   9820   9829     1  0.0000000  0.6508444  3
   9819   9817   9820   9821     1  0.0000000  0.6508444  3
   9819   9817   9820   9822     1  0.0000000  0.6508444  3
   9820   9817   9810   9839     1  0.0000000  0.6508444  3
   9821   9820   9829   9838     1  0.0000000  1.0460000  1
   9821   9820   9829   9838     1  0.0000000  0.0000000  3
   9821   9820   9829   9830     1  0.0000000  0.6508444  3
   9821   9820   9829   9831     1  0.0000000  0.6508444  3
   9822   9820   9829   9838     1  0.0000000  1.0460000  1
   9822   9820   9829   9838     1  0.0000000  0.0000000  3
   9822   9820   9829   9830     1  0.0000000  0.6508444  3
   9822   9820   9829   9831     1  0.0000000  0.6508444  3
   9823   9811   9810   9839     1  0.0000000  0.6508444  3
   9824   9823   9835  17795     1  0.0000000  1.0460000  1
   9824   9823   9835  17795     1  0.0000000  0.0000000  3
   9824   9823   9835   9836     1  0.0000000  0.6508444  3
   9824   9823   9835   9837     1  0.0000000  0.6508444  3
   9825   9823   9835  17795     1  0.0000000  1.0460000  1
   9825   9823   9835  17795     1  0.0000000  0.0000000  3
   9825   9823   9835   9836     1  0.0000000  0.6508444  3
   9825   9823   9835   9837     1  0.0000000  0.6508444  3
   9826   9814   9810   9839     1  0.0000000  0.6508444  3
   9827   9826   9832  17772     1  0.0000000  1.0460000  1
   9827   9826   9832  17772     1  0.0000000  0.0000000  3
   9827   9826   9832   9833     1  0.0000000  0.6508444  3
   9827   9826   9832   9834     1  0.0000000  0.6508444  3
   9828   9826   9832  17772     1  0.0000000  1.0460000  1
   9828   9826   9832  17772     1  0.0000000  0.0000000  3
   9828   9826   9832   9833     1  0.0000000  0.6508444  3
   9828   9826   9832   9834     1  0.0000000  0.6508444  3
   9832  17772  17768  17771     1  0.0000000  1.6038667  3
   9833   9832  17772  17768     1  0.0000000  1.6038667  3
   9834   9832  17772  17768     1  0.0000000  1.6038667  3
   9835  17795  17791  17794     1  0.0000000  1.6038667  3
   9836   9835  17795  17791     1  0.0000000  1.6038667  3
   9837   9835  17795  17791     1  0.0000000  1.6038667  3
   9840   9841   9853   9854     1  0.0000000  0.6508444  3
   9840   9841   9853   9855     1  0.0000000  0.6508444  3
   9840   9844   9856   9857     1  0.0000000  0.6508444  3
   9840   9844   9856   9858     1  0.0000000  0.6508444  3
   9840   9847   9850   9851     1  0.0000000  0.6508444  3
   9840   9847   9850   9852     1  0.0000000  0.6508444  3
   9841   9840   9844   9845     1  0.0000000  0.6508444  3
   9841   9840   9844   9846     1  0.0000000  0.6508444  3
   9841   9840   9847   9848     1  0.0000000  0.6508444  3
   9841   9840   9847   9849     1  0.0000000  0.6508444  3
   9841   9853   9865   9866     1  0.0000000  0.6508444  3
   9841   9853   9865   9867     1  0.0000000  0.6508444  3
   9842   9841   9840   9844     1  0.0000000  0.6508444  3
   9842   9841   9840   9847     1  0.0000000  0.6508444  3
   9842   9841   9840   9869     1  0.0000000  0.6508444  3
   9842   9841   9853   9865     1  0.0000000  0.6508444  3
   9842   9841   9853   9854     1  0.0000000  0.6508444  3
   9842   9841   9853   9855     1  0.0000000  0.6508444  3
   9843   9841   9840   9844     1  0.0000000  0.6508444  3
   9843   9841   9840   9847     1  0.0000000  0.6508444  3
   9843   9841   9840   9869     1  0.0000000  0.6508444  3
   9843   9841   9853   9865     1  0.0000000  0.6508444  3
   9843   9841   9853   9854     1  0.0000000  0.6508444  3
   9843   9841   9853   9855     1  0.0000000  0.6508444  3
   9844   9840   9847   9848     1  0.0000000  0.6508444  3
   9844   9840   9847   9849     1  0.0000000  0.6508444  3
   9844   9856   9862   9863     1  0.0000000  0.6508444  3
   9844   9856   9862   9864     1  0.0000000  0.6508444  3
   9845   9844   9840   9847     1  0.0000000  0.6508444  3
   9845   9844   9840   9869     1  0.0000000  0.6508444  3
   9845   9844   9856   9862     1  0.0000000  0.6508444  3
   9845   9844   9856   9857     1  0.0000000  0.6508444  3
   9845   9844   9856   9858     1  0.0000000  0.6508444  3
   9846   9844   9840   9847     1  0.0000000  0.6508444  3
   9846   9844   9840   9869     1  0.0000000  0.6508444  3
   9846   9844   9856   9862     1  0.0000000  0.6508444  3
   9846   9844   9856   9857     1  0.0000000  0.6508444  3
   9846   9844   9856   9858     1  0.0000000  0.6508444  3
   9847   9850   9859   9860     1  0.0000000  0.6508444  3
   9847   9850   9859   9861     1  0.0000000  0.6508444  3
   9848   9847   9840   9869     1  0.0000000  0.6508444  3
   9848   9847   9850   9859     1  0.0000000  0.6508444  3
   9848   9847   9850   9851     1  0.0000000  0.6508444  3
   9848   9847   9850   9852     1  0.0000000  0.6508444  3
   9849   9847   9840   9869     1  0.0000000  0.6508444  3
   9849   9847   9850   9859     1  0.0000000  0.6508444  3
   9849   9847   9850   9851     1  0.0000000  0.6508444  3
   9849   9847   9850   9852     1  0.0000000  0.6508444  3
   9850   9847   9840   9869     1  0.0000000  0.6508444  3
   9851   9850   9859   9868     1  0.0000000  1.0460000  1
   9851   9850   9859   9868     1  0.0000000  0.0000000  3
   9851   9850   9859   9860     1  0.0000000  0.6508444  3
   9851   9850   9859   9861     1  0.0000000  0.6508444  3
   9852   9850   9859   9868     1  0.0000000  1.0460000  1
   9852   9850   9859   9868     1  0.0000000  0.0000000  3
   9852   9850   9859   9860     1  0.0000000  0.6508444  3
   9852   9850   9859   9861     1  0.0000000  0.6508444  3
   9853   9841   9840   9869     1  0.0000000  0.6508444  3
   9854   9853   9865  17841     1  0.0000000  1.0460000  1
   9854   9853   9865  17841     1  0.0000000  0.0000000  3
   9854   9853   9865   9866     1  0.0000000  0.6508444  3
   9854   9853   9865   9867     1  0.0000000  0.6508444  3
   9855   9853   9865  17841     1  0.0000000  1.0460000  1
   9855   9853   9865  17841     1  0.0000000  0.0000000  3
   9855   9853   9865   9866     1  0.0000000  0.6508444  3
   9855   9853   9865   9867     1  0.0000000  0.6508444  3
   9856   9844   9840   9869     1  0.0000000  0.6508444  3
   9857   9856   9862  17818     1  0.0000000  1.0460000  1
   9857   9856   9862  17818     1  0.0000000  0.0000000  3
   9857   9856   9862   9863     1  0.0000000  0.6508444  3
   9857   9856   9862   9864     1  0.0000000  0.6508444  3
   9858   9856   9862  17818     1  0.0000000  1.0460000  1
   9858   9856   9862  17818     1  0.0000000  0.0000000  3
   9858   9856   9862   9863     1  0.0000000  0.6508444  3
   9858   9856   9862   9864     1  0.0000000  0.6508444  3
   9862  17818  17814  17817     1  0.0000000  1.6038667  3
   9863   9862  17818  17814     1  0.0000000  1.6038667  3
   9864   9862  17818  17814     1  0.0000000  1.6038667  3
   9865  17841  17837  17840     1  0.0000000  1.6038667  3
   9866   9865  17841  17837     1  0.0000000  1.6038667  3
   9867   9865  17841  17837     1  0.0000000  1.6038667  3
   9870   9871   9883   9884     1  0.0000000  0.6508444  3
   9870   9871   9883   9885     1  0.0000000  0.6508444  3
   9870   9874   9886   9887     1  0.0000000  0.6508444  3
   9870   9874   9886   9888     1  0.0000000  0.6508444  3
   9870   9877   9880   9881     1  0.0000000  0.6508444  3
   9870   9877   9880   9882     1  0.0000000  0.6508444  3
   9871   9870   9874   9875     1  0.0000000  0.6508444  3
   9871   9870   9874   9876     1  0.0000000  0.6508444  3
   9871   9870   9877   9878     1  0.0000000  0.6508444  3
   9871   9870   9877   9879     1  0.0000000  0.6508444  3
   9871   9883   9895   9896     1  0.0000000  0.6508444  3
   9871   9883   9895   9897     1  0.0000000  0.6508444  3
   9872   9871   9870   9874     1  0.0000000  0.6508444  3
   9872   9871   9870   9877     1  0.0000000  0.6508444  3
   9872   9871   9870   9899     1  0.0000000  0.6508444  3
   9872   9871   9883   9895     1  0.0000000  0.6508444  3
   9872   9871   9883   9884     1  0.0000000  0.6508444  3
   9872   9871   9883   9885     1  0.0000000  0.6508444  3
   9873   9871   9870   9874     1  0.0000000  0.6508444  3
   9873   9871   9870   9877     1  0.0000000  0.6508444  3
   9873   9871   9870   9899     1  0.0000000  0.6508444  3
   9873   9871   9883   9895     1  0.0000000  0.6508444  3
   9873   9871   9883   9884     1  0.0000000  0.6508444  3
   9873   9871   9883   9885     1  0.0000000  0.6508444  3
   9874   9870   9877   9878     1  0.0000000  0.6508444  3
   9874   9870   9877   9879     1  0.0000000  0.6508444  3
   9874   9886   9892   9893     1  0.0000000  0.6508444  3
   9874   9886   9892   9894     1  0.0000000  0.6508444  3
   9875   9874   9870   9877     1  0.0000000  0.6508444  3
   9875   9874   9870   9899     1  0.0000000  0.6508444  3
   9875   9874   9886   9892     1  0.0000000  0.6508444  3
   9875   9874   9886   9887     1  0.0000000  0.6508444  3
   9875   9874   9886   9888     1  0.0000000  0.6508444  3
   9876   9874   9870   9877     1  0.0000000  0.6508444  3
   9876   9874   9870   9899     1  0.0000000  0.6508444  3
   9876   9874   9886   9892     1  0.0000000  0.6508444  3
   9876   9874   9886   9887     1  0.0000000  0.6508444  3
   9876   9874   9886   9888     1  0.0000000  0.6508444  3
   9877   9880   9889   9890     1  0.0000000  0.6508444  3
   9877   9880   9889   9891     1  0.0000000  0.6508444  3
   9878   9877   9870   9899     1  0.0000000  0.6508444  3
   9878   9877   9880   9889     1  0.0000000  0.6508444  3
   9878   9877   9880   9881     1  0.0000000  0.6508444  3
   9878   9877   9880   9882     1  0.0000000  0.6508444  3
   9879   9877   9870   9899     1  0.0000000  0.6508444  3
   9879   9877   9880   9889     1  0.0000000  0.6508444  3
   9879   9877   9880   9881     1  0.0000000  0.6508444  3
   9879   9877   9880   9882     1  0.0000000  0.6508444  3
   9880   9877   9870   9899     1  0.0000000  0.6508444  3
   9881   9880   9889   9898     1  0.0000000  1.0460000  1
   9881   9880   9889   9898     1  0.0000000  0.0000000  3
   9881   9880   9889   9890     1  0.0000000  0.6508444  3
   9881   9880   9889   9891     1  0.0000000  0.6508444  3
   9882   9880   9889   9898     1  0.0000000  1.0460000  1
   9882   9880   9889   9898     1  0.0000000  0.0000000  3
   9882   9880   9889   9890     1  0.0000000  0.6508444  3
   9882   9880   9889   9891     1  0.0000000  0.6508444  3
   9883   9871   9870   9899     1  0.0000000  0.6508444  3
   9884   9883   9895  17887     1  0.0000000  1.0460000  1
   9884   9883   9895  17887     1  0.0000000  0.0000000  3
   9884   9883   9895   9896     1  0.0000000  0.6508444  3
   9884   9883   9895   9897     1  0.0000000  0.6508444  3
   9885   9883   9895  17887     1  0.0000000  1.0460000  1
   9885   9883   9895  17887     1  0.0000000  0.0000000  3
   9885   9883   9895   9896     1  0.0000000  0.6508444  3
   9885   9883   9895   9897     1  0.0000000  0.6508444  3
   9886   9874   9870   9899     1  0.0000000  0.6508444  3
   9887   9886   9892  17864     1  0.0000000  1.0460000  1
   9887   9886   9892  17864     1  0.0000000  0.0000000  3
   9887   9886   9892   9893     1  0.0000000  0.6508444  3
   9887   9886   9892   9894     1  0.0000000  0.6508444  3
   9888   9886   9892  17864     1  0.0000000  1.0460000  1
   9888   9886   9892  17864     1  0.0000000  0.0000000  3
   9888   9886   9892   9893     1  0.0000000  0.6508444  3
   9888   9886   9892   9894     1  0.0000000  0.6508444  3
   9892  17864  17860  17863     1  0.0000000  1.6038667  3
   9893   9892  17864  17860     1  0.0000000  1.6038667  3
   9894   9892  17864  17860     1  0.0000000  1.6038667  3
   9895  17887  17883  17886     1  0.0000000  1.6038667  3
   9896   9895  17887  17883     1  0.0000000  1.6038667  3
   9897   9895  17887  17883     1  0.0000000  1.6038667  3
   9900   9901   9913   9914     1  0.0000000  0.6508444  3
   9900   9901   9913   9915     1  0.0000000  0.6508444  3
   9900   9904   9916   9917     1  0.0000000  0.6508444  3
   9900   9904   9916   9918     1  0.0000000  0.6508444  3
   9900   9907   9910   9911     1  0.0000000  0.6508444  3
   9900   9907   9910   9912     1  0.0000000  0.6508444  3
   9901   9900   9904   9905     1  0.0000000  0.6508444  3
   9901   9900   9904   9906     1  0.0000000  0.6508444  3
   9901   9900   9907   9908     1  0.0000000  0.6508444  3
   9901   9900   9907   9909     1  0.0000000  0.6508444  3
   9901   9913   9925   9926     1  0.0000000  0.6508444  3
   9901   9913   9925   9927     1  0.0000000  0.6508444  3
   9902   9901   9900   9904     1  0.0000000  0.6508444  3
   9902   9901   9900   9907     1  0.0000000  0.6508444  3
   9902   9901   9900   9929     1  0.0000000  0.6508444  3
   9902   9901   9913   9925     1  0.0000000  0.6508444  3
   9902   9901   9913   9914     1  0.0000000  0.6508444  3
   9902   9901   9913   9915     1  0.0000000  0.6508444  3
   9903   9901   9900   9904     1  0.0000000  0.6508444  3
   9903   9901   9900   9907     1  0.0000000  0.6508444  3
   9903   9901   9900   9929     1  0.0000000  0.6508444  3
   9903   9901   9913   9925     1  0.0000000  0.6508444  3
   9903   9901   9913   9914     1  0.0000000  0.6508444  3
   9903   9901   9913   9915     1  0.0000000  0.6508444  3
   9904   9900   9907   9908     1  0.0000000  0.6508444  3
   9904   9900   9907   9909     1  0.0000000  0.6508444  3
   9904   9916   9922   9923     1  0.0000000  0.6508444  3
   9904   9916   9922   9924     1  0.0000000  0.6508444  3
   9905   9904   9900   9907     1  0.0000000  0.6508444  3
   9905   9904   9900   9929     1  0.0000000  0.6508444  3
   9905   9904   9916   9922     1  0.0000000  0.6508444  3
   9905   9904   9916   9917     1  0.0000000  0.6508444  3
   9905   9904   9916   9918     1  0.0000000  0.6508444  3
   9906   9904   9900   9907     1  0.0000000  0.6508444  3
   9906   9904   9900   9929     1  0.0000000  0.6508444  3
   9906   9904   9916   9922     1  0.0000000  0.6508444  3
   9906   9904   9916   9917     1  0.0000000  0.6508444  3
   9906   9904   9916   9918     1  0.0000000  0.6508444  3
   9907   9910   9919   9920     1  0.0000000  0.6508444  3
   9907   9910   9919   9921     1  0.0000000  0.6508444  3
   9908   9907   9900   9929     1  0.0000000  0.6508444  3
   9908   9907   9910   9919     1  0.0000000  0.6508444  3
   9908   9907   9910   9911     1  0.0000000  0.6508444  3
   9908   9907   9910   9912     1  0.0000000  0.6508444  3
   9909   9907   9900   9929     1  0.0000000  0.6508444  3
   9909   9907   9910   9919     1  0.0000000  0.6508444  3
   9909   9907   9910   9911     1  0.0000000  0.6508444  3
   9909   9907   9910   9912     1  0.0000000  0.6508444  3
   9910   9907   9900   9929     1  0.0000000  0.6508444  3
   9911   9910   9919   9928     1  0.0000000  1.0460000  1
   9911   9910   9919   9928     1  0.0000000  0.0000000  3
   9911   9910   9919   9920     1  0.0000000  0.6508444  3
   9911   9910   9919   9921     1  0.0000000  0.6508444  3
   9912   9910   9919   9928     1  0.0000000  1.0460000  1
   9912   9910   9919   9928     1  0.0000000  0.0000000  3
   9912   9910   9919   9920     1  0.0000000  0.6508444  3
   9912   9910   9919   9921     1  0.0000000  0.6508444  3
   9913   9901   9900   9929     1  0.0000000  0.6508444  3
   9914   9913   9925  17933     1  0.0000000  1.0460000  1
   9914   9913   9925  17933     1  0.0000000  0.0000000  3
   9914   9913   9925   9926     1  0.0000000  0.6508444  3
   9914   9913   9925   9927     1  0.0000000  0.6508444  3
   9915   9913   9925  17933     1  0.0000000  1.0460000  1
   9915   9913   9925  17933     1  0.0000000  0.0000000  3
   9915   9913   9925   9926     1  0.0000000  0.6508444  3
   9915   9913   9925   9927     1  0.0000000  0.6508444  3
   9916   9904   9900   9929     1  0.0000000  0.6508444  3
   9917   9916   9922  17910     1  0.0000000  1.0460000  1
   9917   9916   9922  17910     1  0.0000000  0.0000000  3
   9917   9916   9922   9923     1  0.0000000  0.6508444  3
   9917   9916   9922   9924     1  0.0000000  0.6508444  3
   9918   9916   9922  17910     1  0.0000000  1.0460000  1
   9918   9916   9922  17910     1  0.0000000  0.0000000  3
   9918   9916   9922   9923     1  0.0000000  0.6508444  3
   9918   9916   9922   9924     1  0.0000000  0.6508444  3
   9922  17910  17906  17909     1  0.0000000  1.6038667  3
   9923   9922  17910  17906     1  0.0000000  1.6038667  3
   9924   9922  17910  17906     1  0.0000000  1.6038667  3
   9925  17933  17929  17932     1  0.0000000  1.6038667  3
   9926   9925  17933  17929     1  0.0000000  1.6038667  3
   9927   9925  17933  17929     1  0.0000000  1.6038667  3
   9930   9931   9943   9944     1  0.0000000  0.6508444  3
   9930   9931   9943   9945     1  0.0000000  0.6508444  3
   9930   9934   9946   9947     1  0.0000000  0.6508444  3
   9930   9934   9946   9948     1  0.0000000  0.6508444  3
   9930   9937   9940   9941     1  0.0000000  0.6508444  3
   9930   9937   9940   9942     1  0.0000000  0.6508444  3
   9931   9930   9934   9935     1  0.0000000  0.6508444  3
   9931   9930   9934   9936     1  0.0000000  0.6508444  3
   9931   9930   9937   9938     1  0.0000000  0.6508444  3
   9931   9930   9937   9939     1  0.0000000  0.6508444  3
   9931   9943   9955   9956     1  0.0000000  0.6508444  3
   9931   9943   9955   9957     1  0.0000000  0.6508444  3
   9932   9931   9930   9934     1  0.0000000  0.6508444  3
   9932   9931   9930   9937     1  0.0000000  0.6508444  3
   9932   9931   9930   9959     1  0.0000000  0.6508444  3
   9932   9931   9943   9955     1  0.0000000  0.6508444  3
   9932   9931   9943   9944     1  0.0000000  0.6508444  3
   9932   9931   9943   9945     1  0.0000000  0.6508444  3
   9933   9931   9930   9934     1  0.0000000  0.6508444  3
   9933   9931   9930   9937     1  0.0000000  0.6508444  3
   9933   9931   9930   9959     1  0.0000000  0.6508444  3
   9933   9931   9943   9955     1  0.0000000  0.6508444  3
   9933   9931   9943   9944     1  0.0000000  0.6508444  3
   9933   9931   9943   9945     1  0.0000000  0.6508444  3
   9934   9930   9937   9938     1  0.0000000  0.6508444  3
   9934   9930   9937   9939     1  0.0000000  0.6508444  3
   9934   9946   9952   9953     1  0.0000000  0.6508444  3
   9934   9946   9952   9954     1  0.0000000  0.6508444  3
   9935   9934   9930   9937     1  0.0000000  0.6508444  3
   9935   9934   9930   9959     1  0.0000000  0.6508444  3
   9935   9934   9946   9952     1  0.0000000  0.6508444  3
   9935   9934   9946   9947     1  0.0000000  0.6508444  3
   9935   9934   9946   9948     1  0.0000000  0.6508444  3
   9936   9934   9930   9937     1  0.0000000  0.6508444  3
   9936   9934   9930   9959     1  0.0000000  0.6508444  3
   9936   9934   9946   9952     1  0.0000000  0.6508444  3
   9936   9934   9946   9947     1  0.0000000  0.6508444  3
   9936   9934   9946   9948     1  0.0000000  0.6508444  3
   9937   9940   9949   9950     1  0.0000000  0.6508444  3
   9937   9940   9949   9951     1  0.0000000  0.6508444  3
   9938   9937   9930   9959     1  0.0000000  0.6508444  3
   9938   9937   9940   9949     1  0.0000000  0.6508444  3
   9938   9937   9940   9941     1  0.0000000  0.6508444  3
   9938   9937   9940   9942     1  0.0000000  0.6508444  3
   9939   9937   9930   9959     1  0.0000000  0.6508444  3
   9939   9937   9940   9949     1  0.0000000  0.6508444  3
   9939   9937   9940   9941     1  0.0000000  0.6508444  3
   9939   9937   9940   9942     1  0.0000000  0.6508444  3
   9940   9937   9930   9959     1  0.0000000  0.6508444  3
   9941   9940   9949   9958     1  0.0000000  1.0460000  1
   9941   9940   9949   9958     1  0.0000000  0.0000000  3
   9941   9940   9949   9950     1  0.0000000  0.6508444  3
   9941   9940   9949   9951     1  0.0000000  0.6508444  3
   9942   9940   9949   9958     1  0.0000000  1.0460000  1
   9942   9940   9949   9958     1  0.0000000  0.0000000  3
   9942   9940   9949   9950     1  0.0000000  0.6508444  3
   9942   9940   9949   9951     1  0.0000000  0.6508444  3
   9943   9931   9930   9959     1  0.0000000  0.6508444  3
   9944   9943   9955  17979     1  0.0000000  1.0460000  1
   9944   9943   9955  17979     1  0.0000000  0.0000000  3
   9944   9943   9955   9956     1  0.0000000  0.6508444  3
   9944   9943   9955   9957     1  0.0000000  0.6508444  3
   9945   9943   9955  17979     1  0.0000000  1.0460000  1
   9945   9943   9955  17979     1  0.0000000  0.0000000  3
   9945   9943   9955   9956     1  0.0000000  0.6508444  3
   9945   9943   9955   9957     1  0.0000000  0.6508444  3
   9946   9934   9930   9959     1  0.0000000  0.6508444  3
   9947   9946   9952  17956     1  0.0000000  1.0460000  1
   9947   9946   9952  17956     1  0.0000000  0.0000000  3
   9947   9946   9952   9953     1  0.0000000  0.6508444  3
   9947   9946   9952   9954     1  0.0000000  0.6508444  3
   9948   9946   9952  17956     1  0.0000000  1.0460000  1
   9948   9946   9952  17956     1  0.0000000  0.0000000  3
   9948   9946   9952   9953     1  0.0000000  0.6508444  3
   9948   9946   9952   9954     1  0.0000000  0.6508444  3
   9952  17956  17952  17955     1  0.0000000  1.6038667  3
   9953   9952  17956  17952     1  0.0000000  1.6038667  3
   9954   9952  17956  17952     1  0.0000000  1.6038667  3
   9955  17979  17975  17978     1  0.0000000  1.6038667  3
   9956   9955  17979  17975     1  0.0000000  1.6038667  3
   9957   9955  17979  17975     1  0.0000000  1.6038667  3
   9960   9961   9973   9974     1  0.0000000  0.6508444  3
   9960   9961   9973   9975     1  0.0000000  0.6508444  3
   9960   9964   9976   9977     1  0.0000000  0.6508444  3
   9960   9964   9976   9978     1  0.0000000  0.6508444  3
   9960   9967   9970   9971     1  0.0000000  0.6508444  3
   9960   9967   9970   9972     1  0.0000000  0.6508444  3
   9961   9960   9964   9965     1  0.0000000  0.6508444  3
   9961   9960   9964   9966     1  0.0000000  0.6508444  3
   9961   9960   9967   9968     1  0.0000000  0.6508444  3
   9961   9960   9967   9969     1  0.0000000  0.6508444  3
   9961   9973   9985   9986     1  0.0000000  0.6508444  3
   9961   9973   9985   9987     1  0.0000000  0.6508444  3
   9962   9961   9960   9964     1  0.0000000  0.6508444  3
   9962   9961   9960   9967     1  0.0000000  0.6508444  3
   9962   9961   9960   9989     1  0.0000000  0.6508444  3
   9962   9961   9973   9985     1  0.0000000  0.6508444  3
   9962   9961   9973   9974     1  0.0000000  0.6508444  3
   9962   9961   9973   9975     1  0.0000000  0.6508444  3
   9963   9961   9960   9964     1  0.0000000  0.6508444  3
   9963   9961   9960   9967     1  0.0000000  0.6508444  3
   9963   9961   9960   9989     1  0.0000000  0.6508444  3
   9963   9961   9973   9985     1  0.0000000  0.6508444  3
   9963   9961   9973   9974     1  0.0000000  0.6508444  3
   9963   9961   9973   9975     1  0.0000000  0.6508444  3
   9964   9960   9967   9968     1  0.0000000  0.6508444  3
   9964   9960   9967   9969     1  0.0000000  0.6508444  3
   9964   9976   9982   9983     1  0.0000000  0.6508444  3
   9964   9976   9982   9984     1  0.0000000  0.6508444  3
   9965   9964   9960   9967     1  0.0000000  0.6508444  3
   9965   9964   9960   9989     1  0.0000000  0.6508444  3
   9965   9964   9976   9982     1  0.0000000  0.6508444  3
   9965   9964   9976   9977     1  0.0000000  0.6508444  3
   9965   9964   9976   9978     1  0.0000000  0.6508444  3
   9966   9964   9960   9967     1  0.0000000  0.6508444  3
   9966   9964   9960   9989     1  0.0000000  0.6508444  3
   9966   9964   9976   9982     1  0.0000000  0.6508444  3
   9966   9964   9976   9977     1  0.0000000  0.6508444  3
   9966   9964   9976   9978     1  0.0000000  0.6508444  3
   9967   9970   9979   9980     1  0.0000000  0.6508444  3
   9967   9970   9979   9981     1  0.0000000  0.6508444  3
   9968   9967   9960   9989     1  0.0000000  0.6508444  3
   9968   9967   9970   9979     1  0.0000000  0.6508444  3
   9968   9967   9970   9971     1  0.0000000  0.6508444  3
   9968   9967   9970   9972     1  0.0000000  0.6508444  3
   9969   9967   9960   9989     1  0.0000000  0.6508444  3
   9969   9967   9970   9979     1  0.0000000  0.6508444  3
   9969   9967   9970   9971     1  0.0000000  0.6508444  3
   9969   9967   9970   9972     1  0.0000000  0.6508444  3
   9970   9967   9960   9989     1  0.0000000  0.6508444  3
   9971   9970   9979   9988     1  0.0000000  1.0460000  1
   9971   9970   9979   9988     1  0.0000000  0.0000000  3
   9971   9970   9979   9980     1  0.0000000  0.6508444  3
   9971   9970   9979   9981     1  0.0000000  0.6508444  3
   9972   9970   9979   9988     1  0.0000000  1.0460000  1
   9972   9970   9979   9988     1  0.0000000  0.0000000  3
   9972   9970   9979   9980     1  0.0000000  0.6508444  3
   9972   9970   9979   9981     1  0.0000000  0.6508444  3
   9973   9961   9960   9989     1  0.0000000  0.6508444  3
   9974   9973   9985  18025     1  0.0000000  1.0460000  1
   9974   9973   9985  18025     1  0.0000000  0.0000000  3
   9974   9973   9985   9986     1  0.0000000  0.6508444  3
   9974   9973   9985   9987     1  0.0000000  0.6508444  3
   9975   9973   9985  18025     1  0.0000000  1.0460000  1
   9975   9973   9985  18025     1  0.0000000  0.0000000  3
   9975   9973   9985   9986     1  0.0000000  0.6508444  3
   9975   9973   9985   9987     1  0.0000000  0.6508444  3
   9976   9964   9960   9989     1  0.0000000  0.6508444  3
   9977   9976   9982  18002     1  0.0000000  1.0460000  1
   9977   9976   9982  18002     1  0.0000000  0.0000000  3
   9977   9976   9982   9983     1  0.0000000  0.6508444  3
   9977   9976   9982   9984     1  0.0000000  0.6508444  3
   9978   9976   9982  18002     1  0.0000000  1.0460000  1
   9978   9976   9982  18002     1  0.0000000  0.0000000  3
   9978   9976   9982   9983     1  0.0000000  0.6508444  3
   9978   9976   9982   9984     1  0.0000000  0.6508444  3
   9982  18002  17998  18001     1  0.0000000  1.6038667  3
   9983   9982  18002  17998     1  0.0000000  1.6038667  3
   9984   9982  18002  17998     1  0.0000000  1.6038667  3
   9985  18025  18021  18024     1  0.0000000  1.6038667  3
   9986   9985  18025  18021     1  0.0000000  1.6038667  3
   9987   9985  18025  18021     1  0.0000000  1.6038667  3
   9990   9991  10003  10004     1  0.0000000  0.6508444  3
   9990   9991  10003  10005     1  0.0000000  0.6508444  3
   9990   9994  10006  10007     1  0.0000000  0.6508444  3
   9990   9994  10006  10008     1  0.0000000  0.6508444  3
   9990   9997  10000  10001     1  0.0000000  0.6508444  3
   9990   9997  10000  10002     1  0.0000000  0.6508444  3
   9991   9990   9994   9995     1  0.0000000  0.6508444  3
   9991   9990   9994   9996     1  0.0000000  0.6508444  3
   9991   9990   9997   9998     1  0.0000000  0.6508444  3
   9991   9990   9997   9999     1  0.0000000  0.6508444  3
   9991  10003  10015  10016     1  0.0000000  0.6508444  3
   9991  10003  10015  10017     1  0.0000000  0.6508444  3
   9992   9991   9990   9994     1  0.0000000  0.6508444  3
   9992   9991   9990   9997     1  0.0000000  0.6508444  3
   9992   9991   9990  10019     1  0.0000000  0.6508444  3
   9992   9991  10003  10015     1  0.0000000  0.6508444  3
   9992   9991  10003  10004     1  0.0000000  0.6508444  3
   9992   9991  10003  10005     1  0.0000000  0.6508444  3
   9993   9991   9990   9994     1  0.0000000  0.6508444  3
   9993   9991   9990   9997     1  0.0000000  0.6508444  3
   9993   9991   9990  10019     1  0.0000000  0.6508444  3
   9993   9991  10003  10015     1  0.0000000  0.6508444  3
   9993   9991  10003  10004     1  0.0000000  0.6508444  3
   9993   9991  10003  10005     1  0.0000000  0.6508444  3
   9994   9990   9997   9998     1  0.0000000  0.6508444  3
   9994   9990   9997   9999     1  0.0000000  0.6508444  3
   9994  10006  10012  10013     1  0.0000000  0.6508444  3
   9994  10006  10012  10014     1  0.0000000  0.6508444  3
   9995   9994   9990   9997     1  0.0000000  0.6508444  3
   9995   9994   9990  10019     1  0.0000000  0.6508444  3
   9995   9994  10006  10012     1  0.0000000  0.6508444  3
   9995   9994  10006  10007     1  0.0000000  0.6508444  3
   9995   9994  10006  10008     1  0.0000000  0.6508444  3
   9996   9994   9990   9997     1  0.0000000  0.6508444  3
   9996   9994   9990  10019     1  0.0000000  0.6508444  3
   9996   9994  10006  10012     1  0.0000000  0.6508444  3
   9996   9994  10006  10007     1  0.0000000  0.6508444  3
   9996   9994  10006  10008     1  0.0000000  0.6508444  3
   9997  10000  10009  10010     1  0.0000000  0.6508444  3
   9997  10000  10009  10011     1  0.0000000  0.6508444  3
   9998   9997   9990  10019     1  0.0000000  0.6508444  3
   9998   9997  10000  10009     1  0.0000000  0.6508444  3
   9998   9997  10000  10001     1  0.0000000  0.6508444  3
   9998   9997  10000  10002     1  0.0000000  0.6508444  3
   9999   9997   9990  10019     1  0.0000000  0.6508444  3
   9999   9997  10000  10009     1  0.0000000  0.6508444  3
   9999   9997  10000  10001     1  0.0000000  0.6508444  3
   9999   9997  10000  10002     1  0.0000000  0.6508444  3
  10000   9997   9990  10019     1  0.0000000  0.6508444  3
  10001  10000  10009  10018     1  0.0000000  1.0460000  1
  10001  10000  10009  10018     1  0.0000000  0.0000000  3
  10001  10000  10009  10010     1  0.0000000  0.6508444  3
  10001  10000  10009  10011     1  0.0000000  0.6508444  3
  10002  10000  10009  10018     1  0.0000000  1.0460000  1
  10002  10000  10009  10018     1  0.0000000  0.0000000  3
  10002  10000  10009  10010     1  0.0000000  0.6508444  3
  10002  10000  10009  10011     1  0.0000000  0.6508444  3
  10003   9991   9990  10019     1  0.0000000  0.6508444  3
  10004  10003  10015  18071     1  0.0000000  1.0460000  1
  10004  10003  10015  18071     1  0.0000000  0.0000000  3
  10004  10003  10015  10016     1  0.0000000  0.6508444  3
  10004  10003  10015  10017     1  0.0000000  0.6508444  3
  10005  10003  10015  18071     1  0.0000000  1.0460000  1
  10005  10003  10015  18071     1  0.0000000  0.0000000  3
  10005  10003  10015  10016     1  0.0000000  0.6508444  3
  10005  10003  10015  10017     1  0.0000000  0.6508444  3
  10006   9994   9990  10019     1  0.0000000  0.6508444  3
  10007  10006  10012  18048     1  0.0000000  1.0460000  1
  10007  10006  10012  18048     1  0.0000000  0.0000000  3
  10007  10006  10012  10013     1  0.0000000  0.6508444  3
  10007  10006  10012  10014     1  0.0000000  0.6508444  3
  10008  10006  10012  18048     1  0.0000000  1.0460000  1
  10008  10006  10012  18048     1  0.0000000  0.0000000  3
  10008  10006  10012  10013     1  0.0000000  0.6508444  3
  10008  10006  10012  10014     1  0.0000000  0.6508444  3
  10012  18048  18044  18047     1  0.0000000  1.6038667  3
  10013  10012  18048  18044     1  0.0000000  1.6038667  3
  10014  10012  18048  18044     1  0.0000000  1.6038667  3
  10015  18071  18067  18070     1  0.0000000  1.6038667  3
  10016  10015  18071  18067     1  0.0000000  1.6038667  3
  10017  10015  18071  18067     1  0.0000000  1.6038667  3
  10020  10021  10033  10034     1  0.0000000  0.6508444  3
  10020  10021  10033  10035     1  0.0000000  0.6508444  3
  10020  10024  10036  10037     1  0.0000000  0.6508444  3
  10020  10024  10036  10038     1  0.0000000  0.6508444  3
  10020  10027  10030  10031     1  0.0000000  0.6508444  3
  10020  10027  10030  10032     1  0.0000000  0.6508444  3
  10021  10020  10024  10025     1  0.0000000  0.6508444  3
  10021  10020  10024  10026     1  0.0000000  0.6508444  3
  10021  10020  10027  10028     1  0.0000000  0.6508444  3
  10021  10020  10027  10029     1  0.0000000  0.6508444  3
  10021  10033  10045  10046     1  0.0000000  0.6508444  3
  10021  10033  10045  10047     1  0.0000000  0.6508444  3
  10022  10021  10020  10024     1  0.0000000  0.6508444  3
  10022  10021  10020  10027     1  0.0000000  0.6508444  3
  10022  10021  10020  10049     1  0.0000000  0.6508444  3
  10022  10021  10033  10045     1  0.0000000  0.6508444  3
  10022  10021  10033  10034     1  0.0000000  0.6508444  3
  10022  10021  10033  10035     1  0.0000000  0.6508444  3
  10023  10021  10020  10024     1  0.0000000  0.6508444  3
  10023  10021  10020  10027     1  0.0000000  0.6508444  3
  10023  10021  10020  10049     1  0.0000000  0.6508444  3
  10023  10021  10033  10045     1  0.0000000  0.6508444  3
  10023  10021  10033  10034     1  0.0000000  0.6508444  3
  10023  10021  10033  10035     1  0.0000000  0.6508444  3
  10024  10020  10027  10028     1  0.0000000  0.6508444  3
  10024  10020  10027  10029     1  0.0000000  0.6508444  3
  10024  10036  10042  10043     1  0.0000000  0.6508444  3
  10024  10036  10042  10044     1  0.0000000  0.6508444  3
  10025  10024  10020  10027     1  0.0000000  0.6508444  3
  10025  10024  10020  10049     1  0.0000000  0.6508444  3
  10025  10024  10036  10042     1  0.0000000  0.6508444  3
  10025  10024  10036  10037     1  0.0000000  0.6508444  3
  10025  10024  10036  10038     1  0.0000000  0.6508444  3
  10026  10024  10020  10027     1  0.0000000  0.6508444  3
  10026  10024  10020  10049     1  0.0000000  0.6508444  3
  10026  10024  10036  10042     1  0.0000000  0.6508444  3
  10026  10024  10036  10037     1  0.0000000  0.6508444  3
  10026  10024  10036  10038     1  0.0000000  0.6508444  3
  10027  10030  10039  10040     1  0.0000000  0.6508444  3
  10027  10030  10039  10041     1  0.0000000  0.6508444  3
  10028  10027  10020  10049     1  0.0000000  0.6508444  3
  10028  10027  10030  10039     1  0.0000000  0.6508444  3
  10028  10027  10030  10031     1  0.0000000  0.6508444  3
  10028  10027  10030  10032     1  0.0000000  0.6508444  3
  10029  10027  10020  10049     1  0.0000000  0.6508444  3
  10029  10027  10030  10039     1  0.0000000  0.6508444  3
  10029  10027  10030  10031     1  0.0000000  0.6508444  3
  10029  10027  10030  10032     1  0.0000000  0.6508444  3
  10030  10027  10020  10049     1  0.0000000  0.6508444  3
  10031  10030  10039  10048     1  0.0000000  1.0460000  1
  10031  10030  10039  10048     1  0.0000000  0.0000000  3
  10031  10030  10039  10040     1  0.0000000  0.6508444  3
  10031  10030  10039  10041     1  0.0000000  0.6508444  3
  10032  10030  10039  10048     1  0.0000000  1.0460000  1
  10032  10030  10039  10048     1  0.0000000  0.0000000  3
  10032  10030  10039  10040     1  0.0000000  0.6508444  3
  10032  10030  10039  10041     1  0.0000000  0.6508444  3
  10033  10021  10020  10049     1  0.0000000  0.6508444  3
  10034  10033  10045  18117     1  0.0000000  1.0460000  1
  10034  10033  10045  18117     1  0.0000000  0.0000000  3
  10034  10033  10045  10046     1  0.0000000  0.6508444  3
  10034  10033  10045  10047     1  0.0000000  0.6508444  3
  10035  10033  10045  18117     1  0.0000000  1.0460000  1
  10035  10033  10045  18117     1  0.0000000  0.0000000  3
  10035  10033  10045  10046     1  0.0000000  0.6508444  3
  10035  10033  10045  10047     1  0.0000000  0.6508444  3
  10036  10024  10020  10049     1  0.0000000  0.6508444  3
  10037  10036  10042  18094     1  0.0000000  1.0460000  1
  10037  10036  10042  18094     1  0.0000000  0.0000000  3
  10037  10036  10042  10043     1  0.0000000  0.6508444  3
  10037  10036  10042  10044     1  0.0000000  0.6508444  3
  10038  10036  10042  18094     1  0.0000000  1.0460000  1
  10038  10036  10042  18094     1  0.0000000  0.0000000  3
  10038  10036  10042  10043     1  0.0000000  0.6508444  3
  10038  10036  10042  10044     1  0.0000000  0.6508444  3
  10042  18094  18090  18093     1  0.0000000  1.6038667  3
  10043  10042  18094  18090     1  0.0000000  1.6038667  3
  10044  10042  18094  18090     1  0.0000000  1.6038667  3
  10045  18117  18113  18116     1  0.0000000  1.6038667  3
  10046  10045  18117  18113     1  0.0000000  1.6038667  3
  10047  10045  18117  18113     1  0.0000000  1.6038667  3
  10050  10051  10063  10064     1  0.0000000  0.6508444  3
  10050  10051  10063  10065     1  0.0000000  0.6508444  3
  10050  10054  10066  10067     1  0.0000000  0.6508444  3
  10050  10054  10066  10068     1  0.0000000  0.6508444  3
  10050  10057  10060  10061     1  0.0000000  0.6508444  3
  10050  10057  10060  10062     1  0.0000000  0.6508444  3
  10051  10050  10054  10055     1  0.0000000  0.6508444  3
  10051  10050  10054  10056     1  0.0000000  0.6508444  3
  10051  10050  10057  10058     1  0.0000000  0.6508444  3
  10051  10050  10057  10059     1  0.0000000  0.6508444  3
  10051  10063  10075  10076     1  0.0000000  0.6508444  3
  10051  10063  10075  10077     1  0.0000000  0.6508444  3
  10052  10051  10050  10054     1  0.0000000  0.6508444  3
  10052  10051  10050  10057     1  0.0000000  0.6508444  3
  10052  10051  10050  10079     1  0.0000000  0.6508444  3
  10052  10051  10063  10075     1  0.0000000  0.6508444  3
  10052  10051  10063  10064     1  0.0000000  0.6508444  3
  10052  10051  10063  10065     1  0.0000000  0.6508444  3
  10053  10051  10050  10054     1  0.0000000  0.6508444  3
  10053  10051  10050  10057     1  0.0000000  0.6508444  3
  10053  10051  10050  10079     1  0.0000000  0.6508444  3
  10053  10051  10063  10075     1  0.0000000  0.6508444  3
  10053  10051  10063  10064     1  0.0000000  0.6508444  3
  10053  10051  10063  10065     1  0.0000000  0.6508444  3
  10054  10050  10057  10058     1  0.0000000  0.6508444  3
  10054  10050  10057  10059     1  0.0000000  0.6508444  3
  10054  10066  10072  10073     1  0.0000000  0.6508444  3
  10054  10066  10072  10074     1  0.0000000  0.6508444  3
  10055  10054  10050  10057     1  0.0000000  0.6508444  3
  10055  10054  10050  10079     1  0.0000000  0.6508444  3
  10055  10054  10066  10072     1  0.0000000  0.6508444  3
  10055  10054  10066  10067     1  0.0000000  0.6508444  3
  10055  10054  10066  10068     1  0.0000000  0.6508444  3
  10056  10054  10050  10057     1  0.0000000  0.6508444  3
  10056  10054  10050  10079     1  0.0000000  0.6508444  3
  10056  10054  10066  10072     1  0.0000000  0.6508444  3
  10056  10054  10066  10067     1  0.0000000  0.6508444  3
  10056  10054  10066  10068     1  0.0000000  0.6508444  3
  10057  10060  10069  10070     1  0.0000000  0.6508444  3
  10057  10060  10069  10071     1  0.0000000  0.6508444  3
  10058  10057  10050  10079     1  0.0000000  0.6508444  3
  10058  10057  10060  10069     1  0.0000000  0.6508444  3
  10058  10057  10060  10061     1  0.0000000  0.6508444  3
  10058  10057  10060  10062     1  0.0000000  0.6508444  3
  10059  10057  10050  10079     1  0.0000000  0.6508444  3
  10059  10057  10060  10069     1  0.0000000  0.6508444  3
  10059  10057  10060  10061     1  0.0000000  0.6508444  3
  10059  10057  10060  10062     1  0.0000000  0.6508444  3
  10060  10057  10050  10079     1  0.0000000  0.6508444  3
  10061  10060  10069  10078     1  0.0000000  1.0460000  1
  10061  10060  10069  10078     1  0.0000000  0.0000000  3
  10061  10060  10069  10070     1  0.0000000  0.6508444  3
  10061  10060  10069  10071     1  0.0000000  0.6508444  3
  10062  10060  10069  10078     1  0.0000000  1.0460000  1
  10062  10060  10069  10078     1  0.0000000  0.0000000  3
  10062  10060  10069  10070     1  0.0000000  0.6508444  3
  10062  10060  10069  10071     1  0.0000000  0.6508444  3
  10063  10051  10050  10079     1  0.0000000  0.6508444  3
  10064  10063  10075  18163     1  0.0000000  1.0460000  1
  10064  10063  10075  18163     1  0.0000000  0.0000000  3
  10064  10063  10075  10076     1  0.0000000  0.6508444  3
  10064  10063  10075  10077     1  0.0000000  0.6508444  3
  10065  10063  10075  18163     1  0.0000000  1.0460000  1
  10065  10063  10075  18163     1  0.0000000  0.0000000  3
  10065  10063  10075  10076     1  0.0000000  0.6508444  3
  10065  10063  10075  10077     1  0.0000000  0.6508444  3
  10066  10054  10050  10079     1  0.0000000  0.6508444  3
  10067  10066  10072  18140     1  0.0000000  1.0460000  1
  10067  10066  10072  18140     1  0.0000000  0.0000000  3
  10067  10066  10072  10073     1  0.0000000  0.6508444  3
  10067  10066  10072  10074     1  0.0000000  0.6508444  3
  10068  10066  10072  18140     1  0.0000000  1.0460000  1
  10068  10066  10072  18140     1  0.0000000  0.0000000  3
  10068  10066  10072  10073     1  0.0000000  0.6508444  3
  10068  10066  10072  10074     1  0.0000000  0.6508444  3
  10072  18140  18136  18139     1  0.0000000  1.6038667  3
  10073  10072  18140  18136     1  0.0000000  1.6038667  3
  10074  10072  18140  18136     1  0.0000000  1.6038667  3
  10075  18163  18159  18162     1  0.0000000  1.6038667  3
  10076  10075  18163  18159     1  0.0000000  1.6038667  3
  10077  10075  18163  18159     1  0.0000000  1.6038667  3
  10080  10081  10093  10094     1  0.0000000  0.6508444  3
  10080  10081  10093  10095     1  0.0000000  0.6508444  3
  10080  10084  10096  10097     1  0.0000000  0.6508444  3
  10080  10084  10096  10098     1  0.0000000  0.6508444  3
  10080  10087  10090  10091     1  0.0000000  0.6508444  3
  10080  10087  10090  10092     1  0.0000000  0.6508444  3
  10081  10080  10084  10085     1  0.0000000  0.6508444  3
  10081  10080  10084  10086     1  0.0000000  0.6508444  3
  10081  10080  10087  10088     1  0.0000000  0.6508444  3
  10081  10080  10087  10089     1  0.0000000  0.6508444  3
  10081  10093  10105  10106     1  0.0000000  0.6508444  3
  10081  10093  10105  10107     1  0.0000000  0.6508444  3
  10082  10081  10080  10084     1  0.0000000  0.6508444  3
  10082  10081  10080  10087     1  0.0000000  0.6508444  3
  10082  10081  10080  10109     1  0.0000000  0.6508444  3
  10082  10081  10093  10105     1  0.0000000  0.6508444  3
  10082  10081  10093  10094     1  0.0000000  0.6508444  3
  10082  10081  10093  10095     1  0.0000000  0.6508444  3
  10083  10081  10080  10084     1  0.0000000  0.6508444  3
  10083  10081  10080  10087     1  0.0000000  0.6508444  3
  10083  10081  10080  10109     1  0.0000000  0.6508444  3
  10083  10081  10093  10105     1  0.0000000  0.6508444  3
  10083  10081  10093  10094     1  0.0000000  0.6508444  3
  10083  10081  10093  10095     1  0.0000000  0.6508444  3
  10084  10080  10087  10088     1  0.0000000  0.6508444  3
  10084  10080  10087  10089     1  0.0000000  0.6508444  3
  10084  10096  10102  10103     1  0.0000000  0.6508444  3
  10084  10096  10102  10104     1  0.0000000  0.6508444  3
  10085  10084  10080  10087     1  0.0000000  0.6508444  3
  10085  10084  10080  10109     1  0.0000000  0.6508444  3
  10085  10084  10096  10102     1  0.0000000  0.6508444  3
  10085  10084  10096  10097     1  0.0000000  0.6508444  3
  10085  10084  10096  10098     1  0.0000000  0.6508444  3
  10086  10084  10080  10087     1  0.0000000  0.6508444  3
  10086  10084  10080  10109     1  0.0000000  0.6508444  3
  10086  10084  10096  10102     1  0.0000000  0.6508444  3
  10086  10084  10096  10097     1  0.0000000  0.6508444  3
  10086  10084  10096  10098     1  0.0000000  0.6508444  3
  10087  10090  10099  10100     1  0.0000000  0.6508444  3
  10087  10090  10099  10101     1  0.0000000  0.6508444  3
  10088  10087  10080  10109     1  0.0000000  0.6508444  3
  10088  10087  10090  10099     1  0.0000000  0.6508444  3
  10088  10087  10090  10091     1  0.0000000  0.6508444  3
  10088  10087  10090  10092     1  0.0000000  0.6508444  3
  10089  10087  10080  10109     1  0.0000000  0.6508444  3
  10089  10087  10090  10099     1  0.0000000  0.6508444  3
  10089  10087  10090  10091     1  0.0000000  0.6508444  3
  10089  10087  10090  10092     1  0.0000000  0.6508444  3
  10090  10087  10080  10109     1  0.0000000  0.6508444  3
  10091  10090  10099  10108     1  0.0000000  1.0460000  1
  10091  10090  10099  10108     1  0.0000000  0.0000000  3
  10091  10090  10099  10100     1  0.0000000  0.6508444  3
  10091  10090  10099  10101     1  0.0000000  0.6508444  3
  10092  10090  10099  10108     1  0.0000000  1.0460000  1
  10092  10090  10099  10108     1  0.0000000  0.0000000  3
  10092  10090  10099  10100     1  0.0000000  0.6508444  3
  10092  10090  10099  10101     1  0.0000000  0.6508444  3
  10093  10081  10080  10109     1  0.0000000  0.6508444  3
  10094  10093  10105  18209     1  0.0000000  1.0460000  1
  10094  10093  10105  18209     1  0.0000000  0.0000000  3
  10094  10093  10105  10106     1  0.0000000  0.6508444  3
  10094  10093  10105  10107     1  0.0000000  0.6508444  3
  10095  10093  10105  18209     1  0.0000000  1.0460000  1
  10095  10093  10105  18209     1  0.0000000  0.0000000  3
  10095  10093  10105  10106     1  0.0000000  0.6508444  3
  10095  10093  10105  10107     1  0.0000000  0.6508444  3
  10096  10084  10080  10109     1  0.0000000  0.6508444  3
  10097  10096  10102  18186     1  0.0000000  1.0460000  1
  10097  10096  10102  18186     1  0.0000000  0.0000000  3
  10097  10096  10102  10103     1  0.0000000  0.6508444  3
  10097  10096  10102  10104     1  0.0000000  0.6508444  3
  10098  10096  10102  18186     1  0.0000000  1.0460000  1
  10098  10096  10102  18186     1  0.0000000  0.0000000  3
  10098  10096  10102  10103     1  0.0000000  0.6508444  3
  10098  10096  10102  10104     1  0.0000000  0.6508444  3
  10102  18186  18182  18185     1  0.0000000  1.6038667  3
  10103  10102  18186  18182     1  0.0000000  1.6038667  3
  10104  10102  18186  18182     1  0.0000000  1.6038667  3
  10105  18209  18205  18208     1  0.0000000  1.6038667  3
  10106  10105  18209  18205     1  0.0000000  1.6038667  3
  10107  10105  18209  18205     1  0.0000000  1.6038667  3
  10110  10111  10123  10124     1  0.0000000  0.6508444  3
  10110  10111  10123  10125     1  0.0000000  0.6508444  3
  10110  10114  10126  10127     1  0.0000000  0.6508444  3
  10110  10114  10126  10128     1  0.0000000  0.6508444  3
  10110  10117  10120  10121     1  0.0000000  0.6508444  3
  10110  10117  10120  10122     1  0.0000000  0.6508444  3
  10111  10110  10114  10115     1  0.0000000  0.6508444  3
  10111  10110  10114  10116     1  0.0000000  0.6508444  3
  10111  10110  10117  10118     1  0.0000000  0.6508444  3
  10111  10110  10117  10119     1  0.0000000  0.6508444  3
  10111  10123  10135  10136     1  0.0000000  0.6508444  3
  10111  10123  10135  10137     1  0.0000000  0.6508444  3
  10112  10111  10110  10114     1  0.0000000  0.6508444  3
  10112  10111  10110  10117     1  0.0000000  0.6508444  3
  10112  10111  10110  10139     1  0.0000000  0.6508444  3
  10112  10111  10123  10135     1  0.0000000  0.6508444  3
  10112  10111  10123  10124     1  0.0000000  0.6508444  3
  10112  10111  10123  10125     1  0.0000000  0.6508444  3
  10113  10111  10110  10114     1  0.0000000  0.6508444  3
  10113  10111  10110  10117     1  0.0000000  0.6508444  3
  10113  10111  10110  10139     1  0.0000000  0.6508444  3
  10113  10111  10123  10135     1  0.0000000  0.6508444  3
  10113  10111  10123  10124     1  0.0000000  0.6508444  3
  10113  10111  10123  10125     1  0.0000000  0.6508444  3
  10114  10110  10117  10118     1  0.0000000  0.6508444  3
  10114  10110  10117  10119     1  0.0000000  0.6508444  3
  10114  10126  10132  10133     1  0.0000000  0.6508444  3
  10114  10126  10132  10134     1  0.0000000  0.6508444  3
  10115  10114  10110  10117     1  0.0000000  0.6508444  3
  10115  10114  10110  10139     1  0.0000000  0.6508444  3
  10115  10114  10126  10132     1  0.0000000  0.6508444  3
  10115  10114  10126  10127     1  0.0000000  0.6508444  3
  10115  10114  10126  10128     1  0.0000000  0.6508444  3
  10116  10114  10110  10117     1  0.0000000  0.6508444  3
  10116  10114  10110  10139     1  0.0000000  0.6508444  3
  10116  10114  10126  10132     1  0.0000000  0.6508444  3
  10116  10114  10126  10127     1  0.0000000  0.6508444  3
  10116  10114  10126  10128     1  0.0000000  0.6508444  3
  10117  10120  10129  10130     1  0.0000000  0.6508444  3
  10117  10120  10129  10131     1  0.0000000  0.6508444  3
  10118  10117  10110  10139     1  0.0000000  0.6508444  3
  10118  10117  10120  10129     1  0.0000000  0.6508444  3
  10118  10117  10120  10121     1  0.0000000  0.6508444  3
  10118  10117  10120  10122     1  0.0000000  0.6508444  3
  10119  10117  10110  10139     1  0.0000000  0.6508444  3
  10119  10117  10120  10129     1  0.0000000  0.6508444  3
  10119  10117  10120  10121     1  0.0000000  0.6508444  3
  10119  10117  10120  10122     1  0.0000000  0.6508444  3
  10120  10117  10110  10139     1  0.0000000  0.6508444  3
  10121  10120  10129  10138     1  0.0000000  1.0460000  1
  10121  10120  10129  10138     1  0.0000000  0.0000000  3
  10121  10120  10129  10130     1  0.0000000  0.6508444  3
  10121  10120  10129  10131     1  0.0000000  0.6508444  3
  10122  10120  10129  10138     1  0.0000000  1.0460000  1
  10122  10120  10129  10138     1  0.0000000  0.0000000  3
  10122  10120  10129  10130     1  0.0000000  0.6508444  3
  10122  10120  10129  10131     1  0.0000000  0.6508444  3
  10123  10111  10110  10139     1  0.0000000  0.6508444  3
  10124  10123  10135  18255     1  0.0000000  1.0460000  1
  10124  10123  10135  18255     1  0.0000000  0.0000000  3
  10124  10123  10135  10136     1  0.0000000  0.6508444  3
  10124  10123  10135  10137     1  0.0000000  0.6508444  3
  10125  10123  10135  18255     1  0.0000000  1.0460000  1
  10125  10123  10135  18255     1  0.0000000  0.0000000  3
  10125  10123  10135  10136     1  0.0000000  0.6508444  3
  10125  10123  10135  10137     1  0.0000000  0.6508444  3
  10126  10114  10110  10139     1  0.0000000  0.6508444  3
  10127  10126  10132  18232     1  0.0000000  1.0460000  1
  10127  10126  10132  18232     1  0.0000000  0.0000000  3
  10127  10126  10132  10133     1  0.0000000  0.6508444  3
  10127  10126  10132  10134     1  0.0000000  0.6508444  3
  10128  10126  10132  18232     1  0.0000000  1.0460000  1
  10128  10126  10132  18232     1  0.0000000  0.0000000  3
  10128  10126  10132  10133     1  0.0000000  0.6508444  3
  10128  10126  10132  10134     1  0.0000000  0.6508444  3
  10132  18232  18228  18231     1  0.0000000  1.6038667  3
  10133  10132  18232  18228     1  0.0000000  1.6038667  3
  10134  10132  18232  18228     1  0.0000000  1.6038667  3
  10135  18255  18251  18254     1  0.0000000  1.6038667  3
  10136  10135  18255  18251     1  0.0000000  1.6038667  3
  10137  10135  18255  18251     1  0.0000000  1.6038667  3
  10140  10141  10153  10154     1  0.0000000  0.6508444  3
  10140  10141  10153  10155     1  0.0000000  0.6508444  3
  10140  10144  10156  10157     1  0.0000000  0.6508444  3
  10140  10144  10156  10158     1  0.0000000  0.6508444  3
  10140  10147  10150  10151     1  0.0000000  0.6508444  3
  10140  10147  10150  10152     1  0.0000000  0.6508444  3
  10141  10140  10144  10145     1  0.0000000  0.6508444  3
  10141  10140  10144  10146     1  0.0000000  0.6508444  3
  10141  10140  10147  10148     1  0.0000000  0.6508444  3
  10141  10140  10147  10149     1  0.0000000  0.6508444  3
  10141  10153  10165  10166     1  0.0000000  0.6508444  3
  10141  10153  10165  10167     1  0.0000000  0.6508444  3
  10142  10141  10140  10144     1  0.0000000  0.6508444  3
  10142  10141  10140  10147     1  0.0000000  0.6508444  3
  10142  10141  10140  10169     1  0.0000000  0.6508444  3
  10142  10141  10153  10165     1  0.0000000  0.6508444  3
  10142  10141  10153  10154     1  0.0000000  0.6508444  3
  10142  10141  10153  10155     1  0.0000000  0.6508444  3
  10143  10141  10140  10144     1  0.0000000  0.6508444  3
  10143  10141  10140  10147     1  0.0000000  0.6508444  3
  10143  10141  10140  10169     1  0.0000000  0.6508444  3
  10143  10141  10153  10165     1  0.0000000  0.6508444  3
  10143  10141  10153  10154     1  0.0000000  0.6508444  3
  10143  10141  10153  10155     1  0.0000000  0.6508444  3
  10144  10140  10147  10148     1  0.0000000  0.6508444  3
  10144  10140  10147  10149     1  0.0000000  0.6508444  3
  10144  10156  10162  10163     1  0.0000000  0.6508444  3
  10144  10156  10162  10164     1  0.0000000  0.6508444  3
  10145  10144  10140  10147     1  0.0000000  0.6508444  3
  10145  10144  10140  10169     1  0.0000000  0.6508444  3
  10145  10144  10156  10162     1  0.0000000  0.6508444  3
  10145  10144  10156  10157     1  0.0000000  0.6508444  3
  10145  10144  10156  10158     1  0.0000000  0.6508444  3
  10146  10144  10140  10147     1  0.0000000  0.6508444  3
  10146  10144  10140  10169     1  0.0000000  0.6508444  3
  10146  10144  10156  10162     1  0.0000000  0.6508444  3
  10146  10144  10156  10157     1  0.0000000  0.6508444  3
  10146  10144  10156  10158     1  0.0000000  0.6508444  3
  10147  10150  10159  10160     1  0.0000000  0.6508444  3
  10147  10150  10159  10161     1  0.0000000  0.6508444  3
  10148  10147  10140  10169     1  0.0000000  0.6508444  3
  10148  10147  10150  10159     1  0.0000000  0.6508444  3
  10148  10147  10150  10151     1  0.0000000  0.6508444  3
  10148  10147  10150  10152     1  0.0000000  0.6508444  3
  10149  10147  10140  10169     1  0.0000000  0.6508444  3
  10149  10147  10150  10159     1  0.0000000  0.6508444  3
  10149  10147  10150  10151     1  0.0000000  0.6508444  3
  10149  10147  10150  10152     1  0.0000000  0.6508444  3
  10150  10147  10140  10169     1  0.0000000  0.6508444  3
  10151  10150  10159  10168     1  0.0000000  1.0460000  1
  10151  10150  10159  10168     1  0.0000000  0.0000000  3
  10151  10150  10159  10160     1  0.0000000  0.6508444  3
  10151  10150  10159  10161     1  0.0000000  0.6508444  3
  10152  10150  10159  10168     1  0.0000000  1.0460000  1
  10152  10150  10159  10168     1  0.0000000  0.0000000  3
  10152  10150  10159  10160     1  0.0000000  0.6508444  3
  10152  10150  10159  10161     1  0.0000000  0.6508444  3
  10153  10141  10140  10169     1  0.0000000  0.6508444  3
  10154  10153  10165  18301     1  0.0000000  1.0460000  1
  10154  10153  10165  18301     1  0.0000000  0.0000000  3
  10154  10153  10165  10166     1  0.0000000  0.6508444  3
  10154  10153  10165  10167     1  0.0000000  0.6508444  3
  10155  10153  10165  18301     1  0.0000000  1.0460000  1
  10155  10153  10165  18301     1  0.0000000  0.0000000  3
  10155  10153  10165  10166     1  0.0000000  0.6508444  3
  10155  10153  10165  10167     1  0.0000000  0.6508444  3
  10156  10144  10140  10169     1  0.0000000  0.6508444  3
  10157  10156  10162  18278     1  0.0000000  1.0460000  1
  10157  10156  10162  18278     1  0.0000000  0.0000000  3
  10157  10156  10162  10163     1  0.0000000  0.6508444  3
  10157  10156  10162  10164     1  0.0000000  0.6508444  3
  10158  10156  10162  18278     1  0.0000000  1.0460000  1
  10158  10156  10162  18278     1  0.0000000  0.0000000  3
  10158  10156  10162  10163     1  0.0000000  0.6508444  3
  10158  10156  10162  10164     1  0.0000000  0.6508444  3
  10162  18278  18274  18277     1  0.0000000  1.6038667  3
  10163  10162  18278  18274     1  0.0000000  1.6038667  3
  10164  10162  18278  18274     1  0.0000000  1.6038667  3
  10165  18301  18297  18300     1  0.0000000  1.6038667  3
  10166  10165  18301  18297     1  0.0000000  1.6038667  3
  10167  10165  18301  18297     1  0.0000000  1.6038667  3
  10170  10171  10183  10184     1  0.0000000  0.6508444  3
  10170  10171  10183  10185     1  0.0000000  0.6508444  3
  10170  10174  10186  10187     1  0.0000000  0.6508444  3
  10170  10174  10186  10188     1  0.0000000  0.6508444  3
  10170  10177  10180  10181     1  0.0000000  0.6508444  3
  10170  10177  10180  10182     1  0.0000000  0.6508444  3
  10171  10170  10174  10175     1  0.0000000  0.6508444  3
  10171  10170  10174  10176     1  0.0000000  0.6508444  3
  10171  10170  10177  10178     1  0.0000000  0.6508444  3
  10171  10170  10177  10179     1  0.0000000  0.6508444  3
  10171  10183  10195  10196     1  0.0000000  0.6508444  3
  10171  10183  10195  10197     1  0.0000000  0.6508444  3
  10172  10171  10170  10174     1  0.0000000  0.6508444  3
  10172  10171  10170  10177     1  0.0000000  0.6508444  3
  10172  10171  10170  10199     1  0.0000000  0.6508444  3
  10172  10171  10183  10195     1  0.0000000  0.6508444  3
  10172  10171  10183  10184     1  0.0000000  0.6508444  3
  10172  10171  10183  10185     1  0.0000000  0.6508444  3
  10173  10171  10170  10174     1  0.0000000  0.6508444  3
  10173  10171  10170  10177     1  0.0000000  0.6508444  3
  10173  10171  10170  10199     1  0.0000000  0.6508444  3
  10173  10171  10183  10195     1  0.0000000  0.6508444  3
  10173  10171  10183  10184     1  0.0000000  0.6508444  3
  10173  10171  10183  10185     1  0.0000000  0.6508444  3
  10174  10170  10177  10178     1  0.0000000  0.6508444  3
  10174  10170  10177  10179     1  0.0000000  0.6508444  3
  10174  10186  10192  10193     1  0.0000000  0.6508444  3
  10174  10186  10192  10194     1  0.0000000  0.6508444  3
  10175  10174  10170  10177     1  0.0000000  0.6508444  3
  10175  10174  10170  10199     1  0.0000000  0.6508444  3
  10175  10174  10186  10192     1  0.0000000  0.6508444  3
  10175  10174  10186  10187     1  0.0000000  0.6508444  3
  10175  10174  10186  10188     1  0.0000000  0.6508444  3
  10176  10174  10170  10177     1  0.0000000  0.6508444  3
  10176  10174  10170  10199     1  0.0000000  0.6508444  3
  10176  10174  10186  10192     1  0.0000000  0.6508444  3
  10176  10174  10186  10187     1  0.0000000  0.6508444  3
  10176  10174  10186  10188     1  0.0000000  0.6508444  3
  10177  10180  10189  10190     1  0.0000000  0.6508444  3
  10177  10180  10189  10191     1  0.0000000  0.6508444  3
  10178  10177  10170  10199     1  0.0000000  0.6508444  3
  10178  10177  10180  10189     1  0.0000000  0.6508444  3
  10178  10177  10180  10181     1  0.0000000  0.6508444  3
  10178  10177  10180  10182     1  0.0000000  0.6508444  3
  10179  10177  10170  10199     1  0.0000000  0.6508444  3
  10179  10177  10180  10189     1  0.0000000  0.6508444  3
  10179  10177  10180  10181     1  0.0000000  0.6508444  3
  10179  10177  10180  10182     1  0.0000000  0.6508444  3
  10180  10177  10170  10199     1  0.0000000  0.6508444  3
  10181  10180  10189  10198     1  0.0000000  1.0460000  1
  10181  10180  10189  10198     1  0.0000000  0.0000000  3
  10181  10180  10189  10190     1  0.0000000  0.6508444  3
  10181  10180  10189  10191     1  0.0000000  0.6508444  3
  10182  10180  10189  10198     1  0.0000000  1.0460000  1
  10182  10180  10189  10198     1  0.0000000  0.0000000  3
  10182  10180  10189  10190     1  0.0000000  0.6508444  3
  10182  10180  10189  10191     1  0.0000000  0.6508444  3
  10183  10171  10170  10199     1  0.0000000  0.6508444  3
  10184  10183  10195  18347     1  0.0000000  1.0460000  1
  10184  10183  10195  18347     1  0.0000000  0.0000000  3
  10184  10183  10195  10196     1  0.0000000  0.6508444  3
  10184  10183  10195  10197     1  0.0000000  0.6508444  3
  10185  10183  10195  18347     1  0.0000000  1.0460000  1
  10185  10183  10195  18347     1  0.0000000  0.0000000  3
  10185  10183  10195  10196     1  0.0000000  0.6508444  3
  10185  10183  10195  10197     1  0.0000000  0.6508444  3
  10186  10174  10170  10199     1  0.0000000  0.6508444  3
  10187  10186  10192  18324     1  0.0000000  1.0460000  1
  10187  10186  10192  18324     1  0.0000000  0.0000000  3
  10187  10186  10192  10193     1  0.0000000  0.6508444  3
  10187  10186  10192  10194     1  0.0000000  0.6508444  3
  10188  10186  10192  18324     1  0.0000000  1.0460000  1
  10188  10186  10192  18324     1  0.0000000  0.0000000  3
  10188  10186  10192  10193     1  0.0000000  0.6508444  3
  10188  10186  10192  10194     1  0.0000000  0.6508444  3
  10192  18324  18320  18323     1  0.0000000  1.6038667  3
  10193  10192  18324  18320     1  0.0000000  1.6038667  3
  10194  10192  18324  18320     1  0.0000000  1.6038667  3
  10195  18347  18343  18346     1  0.0000000  1.6038667  3
  10196  10195  18347  18343     1  0.0000000  1.6038667  3
  10197  10195  18347  18343     1  0.0000000  1.6038667  3
  10200  10201  10213  10214     1  0.0000000  0.6508444  3
  10200  10201  10213  10215     1  0.0000000  0.6508444  3
  10200  10204  10216  10217     1  0.0000000  0.6508444  3
  10200  10204  10216  10218     1  0.0000000  0.6508444  3
  10200  10207  10210  10211     1  0.0000000  0.6508444  3
  10200  10207  10210  10212     1  0.0000000  0.6508444  3
  10201  10200  10204  10205     1  0.0000000  0.6508444  3
  10201  10200  10204  10206     1  0.0000000  0.6508444  3
  10201  10200  10207  10208     1  0.0000000  0.6508444  3
  10201  10200  10207  10209     1  0.0000000  0.6508444  3
  10201  10213  10225  10226     1  0.0000000  0.6508444  3
  10201  10213  10225  10227     1  0.0000000  0.6508444  3
  10202  10201  10200  10204     1  0.0000000  0.6508444  3
  10202  10201  10200  10207     1  0.0000000  0.6508444  3
  10202  10201  10200  10229     1  0.0000000  0.6508444  3
  10202  10201  10213  10225     1  0.0000000  0.6508444  3
  10202  10201  10213  10214     1  0.0000000  0.6508444  3
  10202  10201  10213  10215     1  0.0000000  0.6508444  3
  10203  10201  10200  10204     1  0.0000000  0.6508444  3
  10203  10201  10200  10207     1  0.0000000  0.6508444  3
  10203  10201  10200  10229     1  0.0000000  0.6508444  3
  10203  10201  10213  10225     1  0.0000000  0.6508444  3
  10203  10201  10213  10214     1  0.0000000  0.6508444  3
  10203  10201  10213  10215     1  0.0000000  0.6508444  3
  10204  10200  10207  10208     1  0.0000000  0.6508444  3
  10204  10200  10207  10209     1  0.0000000  0.6508444  3
  10204  10216  10222  10223     1  0.0000000  0.6508444  3
  10204  10216  10222  10224     1  0.0000000  0.6508444  3
  10205  10204  10200  10207     1  0.0000000  0.6508444  3
  10205  10204  10200  10229     1  0.0000000  0.6508444  3
  10205  10204  10216  10222     1  0.0000000  0.6508444  3
  10205  10204  10216  10217     1  0.0000000  0.6508444  3
  10205  10204  10216  10218     1  0.0000000  0.6508444  3
  10206  10204  10200  10207     1  0.0000000  0.6508444  3
  10206  10204  10200  10229     1  0.0000000  0.6508444  3
  10206  10204  10216  10222     1  0.0000000  0.6508444  3
  10206  10204  10216  10217     1  0.0000000  0.6508444  3
  10206  10204  10216  10218     1  0.0000000  0.6508444  3
  10207  10210  10219  10220     1  0.0000000  0.6508444  3
  10207  10210  10219  10221     1  0.0000000  0.6508444  3
  10208  10207  10200  10229     1  0.0000000  0.6508444  3
  10208  10207  10210  10219     1  0.0000000  0.6508444  3
  10208  10207  10210  10211     1  0.0000000  0.6508444  3
  10208  10207  10210  10212     1  0.0000000  0.6508444  3
  10209  10207  10200  10229     1  0.0000000  0.6508444  3
  10209  10207  10210  10219     1  0.0000000  0.6508444  3
  10209  10207  10210  10211     1  0.0000000  0.6508444  3
  10209  10207  10210  10212     1  0.0000000  0.6508444  3
  10210  10207  10200  10229     1  0.0000000  0.6508444  3
  10211  10210  10219  10228     1  0.0000000  1.0460000  1
  10211  10210  10219  10228     1  0.0000000  0.0000000  3
  10211  10210  10219  10220     1  0.0000000  0.6508444  3
  10211  10210  10219  10221     1  0.0000000  0.6508444  3
  10212  10210  10219  10228     1  0.0000000  1.0460000  1
  10212  10210  10219  10228     1  0.0000000  0.0000000  3
  10212  10210  10219  10220     1  0.0000000  0.6508444  3
  10212  10210  10219  10221     1  0.0000000  0.6508444  3
  10213  10201  10200  10229     1  0.0000000  0.6508444  3
  10214  10213  10225  18393     1  0.0000000  1.0460000  1
  10214  10213  10225  18393     1  0.0000000  0.0000000  3
  10214  10213  10225  10226     1  0.0000000  0.6508444  3
  10214  10213  10225  10227     1  0.0000000  0.6508444  3
  10215  10213  10225  18393     1  0.0000000  1.0460000  1
  10215  10213  10225  18393     1  0.0000000  0.0000000  3
  10215  10213  10225  10226     1  0.0000000  0.6508444  3
  10215  10213  10225  10227     1  0.0000000  0.6508444  3
  10216  10204  10200  10229     1  0.0000000  0.6508444  3
  10217  10216  10222  18370     1  0.0000000  1.0460000  1
  10217  10216  10222  18370     1  0.0000000  0.0000000  3
  10217  10216  10222  10223     1  0.0000000  0.6508444  3
  10217  10216  10222  10224     1  0.0000000  0.6508444  3
  10218  10216  10222  18370     1  0.0000000  1.0460000  1
  10218  10216  10222  18370     1  0.0000000  0.0000000  3
  10218  10216  10222  10223     1  0.0000000  0.6508444  3
  10218  10216  10222  10224     1  0.0000000  0.6508444  3
  10222  18370  18366  18369     1  0.0000000  1.6038667  3
  10223  10222  18370  18366     1  0.0000000  1.6038667  3
  10224  10222  18370  18366     1  0.0000000  1.6038667  3
  10225  18393  18389  18392     1  0.0000000  1.6038667  3
  10226  10225  18393  18389     1  0.0000000  1.6038667  3
  10227  10225  18393  18389     1  0.0000000  1.6038667  3
  10230  10231  10243  10244     1  0.0000000  0.6508444  3
  10230  10231  10243  10245     1  0.0000000  0.6508444  3
  10230  10234  10246  10247     1  0.0000000  0.6508444  3
  10230  10234  10246  10248     1  0.0000000  0.6508444  3
  10230  10237  10240  10241     1  0.0000000  0.6508444  3
  10230  10237  10240  10242     1  0.0000000  0.6508444  3
  10231  10230  10234  10235     1  0.0000000  0.6508444  3
  10231  10230  10234  10236     1  0.0000000  0.6508444  3
  10231  10230  10237  10238     1  0.0000000  0.6508444  3
  10231  10230  10237  10239     1  0.0000000  0.6508444  3
  10231  10243  10255  10256     1  0.0000000  0.6508444  3
  10231  10243  10255  10257     1  0.0000000  0.6508444  3
  10232  10231  10230  10234     1  0.0000000  0.6508444  3
  10232  10231  10230  10237     1  0.0000000  0.6508444  3
  10232  10231  10230  10259     1  0.0000000  0.6508444  3
  10232  10231  10243  10255     1  0.0000000  0.6508444  3
  10232  10231  10243  10244     1  0.0000000  0.6508444  3
  10232  10231  10243  10245     1  0.0000000  0.6508444  3
  10233  10231  10230  10234     1  0.0000000  0.6508444  3
  10233  10231  10230  10237     1  0.0000000  0.6508444  3
  10233  10231  10230  10259     1  0.0000000  0.6508444  3
  10233  10231  10243  10255     1  0.0000000  0.6508444  3
  10233  10231  10243  10244     1  0.0000000  0.6508444  3
  10233  10231  10243  10245     1  0.0000000  0.6508444  3
  10234  10230  10237  10238     1  0.0000000  0.6508444  3
  10234  10230  10237  10239     1  0.0000000  0.6508444  3
  10234  10246  10252  10253     1  0.0000000  0.6508444  3
  10234  10246  10252  10254     1  0.0000000  0.6508444  3
  10235  10234  10230  10237     1  0.0000000  0.6508444  3
  10235  10234  10230  10259     1  0.0000000  0.6508444  3
  10235  10234  10246  10252     1  0.0000000  0.6508444  3
  10235  10234  10246  10247     1  0.0000000  0.6508444  3
  10235  10234  10246  10248     1  0.0000000  0.6508444  3
  10236  10234  10230  10237     1  0.0000000  0.6508444  3
  10236  10234  10230  10259     1  0.0000000  0.6508444  3
  10236  10234  10246  10252     1  0.0000000  0.6508444  3
  10236  10234  10246  10247     1  0.0000000  0.6508444  3
  10236  10234  10246  10248     1  0.0000000  0.6508444  3
  10237  10240  10249  10250     1  0.0000000  0.6508444  3
  10237  10240  10249  10251     1  0.0000000  0.6508444  3
  10238  10237  10230  10259     1  0.0000000  0.6508444  3
  10238  10237  10240  10249     1  0.0000000  0.6508444  3
  10238  10237  10240  10241     1  0.0000000  0.6508444  3
  10238  10237  10240  10242     1  0.0000000  0.6508444  3
  10239  10237  10230  10259     1  0.0000000  0.6508444  3
  10239  10237  10240  10249     1  0.0000000  0.6508444  3
  10239  10237  10240  10241     1  0.0000000  0.6508444  3
  10239  10237  10240  10242     1  0.0000000  0.6508444  3
  10240  10237  10230  10259     1  0.0000000  0.6508444  3
  10241  10240  10249  10258     1  0.0000000  1.0460000  1
  10241  10240  10249  10258     1  0.0000000  0.0000000  3
  10241  10240  10249  10250     1  0.0000000  0.6508444  3
  10241  10240  10249  10251     1  0.0000000  0.6508444  3
  10242  10240  10249  10258     1  0.0000000  1.0460000  1
  10242  10240  10249  10258     1  0.0000000  0.0000000  3
  10242  10240  10249  10250     1  0.0000000  0.6508444  3
  10242  10240  10249  10251     1  0.0000000  0.6508444  3
  10243  10231  10230  10259     1  0.0000000  0.6508444  3
  10244  10243  10255  18439     1  0.0000000  1.0460000  1
  10244  10243  10255  18439     1  0.0000000  0.0000000  3
  10244  10243  10255  10256     1  0.0000000  0.6508444  3
  10244  10243  10255  10257     1  0.0000000  0.6508444  3
  10245  10243  10255  18439     1  0.0000000  1.0460000  1
  10245  10243  10255  18439     1  0.0000000  0.0000000  3
  10245  10243  10255  10256     1  0.0000000  0.6508444  3
  10245  10243  10255  10257     1  0.0000000  0.6508444  3
  10246  10234  10230  10259     1  0.0000000  0.6508444  3
  10247  10246  10252  18416     1  0.0000000  1.0460000  1
  10247  10246  10252  18416     1  0.0000000  0.0000000  3
  10247  10246  10252  10253     1  0.0000000  0.6508444  3
  10247  10246  10252  10254     1  0.0000000  0.6508444  3
  10248  10246  10252  18416     1  0.0000000  1.0460000  1
  10248  10246  10252  18416     1  0.0000000  0.0000000  3
  10248  10246  10252  10253     1  0.0000000  0.6508444  3
  10248  10246  10252  10254     1  0.0000000  0.6508444  3
  10252  18416  18412  18415     1  0.0000000  1.6038667  3
  10253  10252  18416  18412     1  0.0000000  1.6038667  3
  10254  10252  18416  18412     1  0.0000000  1.6038667  3
  10255  18439  18435  18438     1  0.0000000  1.6038667  3
  10256  10255  18439  18435     1  0.0000000  1.6038667  3
  10257  10255  18439  18435     1  0.0000000  1.6038667  3
  10260  10261  10273  10274     1  0.0000000  0.6508444  3
  10260  10261  10273  10275     1  0.0000000  0.6508444  3
  10260  10264  10276  10277     1  0.0000000  0.6508444  3
  10260  10264  10276  10278     1  0.0000000  0.6508444  3
  10260  10267  10270  10271     1  0.0000000  0.6508444  3
  10260  10267  10270  10272     1  0.0000000  0.6508444  3
  10261  10260  10264  10265     1  0.0000000  0.6508444  3
  10261  10260  10264  10266     1  0.0000000  0.6508444  3
  10261  10260  10267  10268     1  0.0000000  0.6508444  3
  10261  10260  10267  10269     1  0.0000000  0.6508444  3
  10261  10273  10285  10286     1  0.0000000  0.6508444  3
  10261  10273  10285  10287     1  0.0000000  0.6508444  3
  10262  10261  10260  10264     1  0.0000000  0.6508444  3
  10262  10261  10260  10267     1  0.0000000  0.6508444  3
  10262  10261  10260  10289     1  0.0000000  0.6508444  3
  10262  10261  10273  10285     1  0.0000000  0.6508444  3
  10262  10261  10273  10274     1  0.0000000  0.6508444  3
  10262  10261  10273  10275     1  0.0000000  0.6508444  3
  10263  10261  10260  10264     1  0.0000000  0.6508444  3
  10263  10261  10260  10267     1  0.0000000  0.6508444  3
  10263  10261  10260  10289     1  0.0000000  0.6508444  3
  10263  10261  10273  10285     1  0.0000000  0.6508444  3
  10263  10261  10273  10274     1  0.0000000  0.6508444  3
  10263  10261  10273  10275     1  0.0000000  0.6508444  3
  10264  10260  10267  10268     1  0.0000000  0.6508444  3
  10264  10260  10267  10269     1  0.0000000  0.6508444  3
  10264  10276  10282  10283     1  0.0000000  0.6508444  3
  10264  10276  10282  10284     1  0.0000000  0.6508444  3
  10265  10264  10260  10267     1  0.0000000  0.6508444  3
  10265  10264  10260  10289     1  0.0000000  0.6508444  3
  10265  10264  10276  10282     1  0.0000000  0.6508444  3
  10265  10264  10276  10277     1  0.0000000  0.6508444  3
  10265  10264  10276  10278     1  0.0000000  0.6508444  3
  10266  10264  10260  10267     1  0.0000000  0.6508444  3
  10266  10264  10260  10289     1  0.0000000  0.6508444  3
  10266  10264  10276  10282     1  0.0000000  0.6508444  3
  10266  10264  10276  10277     1  0.0000000  0.6508444  3
  10266  10264  10276  10278     1  0.0000000  0.6508444  3
  10267  10270  10279  10280     1  0.0000000  0.6508444  3
  10267  10270  10279  10281     1  0.0000000  0.6508444  3
  10268  10267  10260  10289     1  0.0000000  0.6508444  3
  10268  10267  10270  10279     1  0.0000000  0.6508444  3
  10268  10267  10270  10271     1  0.0000000  0.6508444  3
  10268  10267  10270  10272     1  0.0000000  0.6508444  3
  10269  10267  10260  10289     1  0.0000000  0.6508444  3
  10269  10267  10270  10279     1  0.0000000  0.6508444  3
  10269  10267  10270  10271     1  0.0000000  0.6508444  3
  10269  10267  10270  10272     1  0.0000000  0.6508444  3
  10270  10267  10260  10289     1  0.0000000  0.6508444  3
  10271  10270  10279  10288     1  0.0000000  1.0460000  1
  10271  10270  10279  10288     1  0.0000000  0.0000000  3
  10271  10270  10279  10280     1  0.0000000  0.6508444  3
  10271  10270  10279  10281     1  0.0000000  0.6508444  3
  10272  10270  10279  10288     1  0.0000000  1.0460000  1
  10272  10270  10279  10288     1  0.0000000  0.0000000  3
  10272  10270  10279  10280     1  0.0000000  0.6508444  3
  10272  10270  10279  10281     1  0.0000000  0.6508444  3
  10273  10261  10260  10289     1  0.0000000  0.6508444  3
  10274  10273  10285  18485     1  0.0000000  1.0460000  1
  10274  10273  10285  18485     1  0.0000000  0.0000000  3
  10274  10273  10285  10286     1  0.0000000  0.6508444  3
  10274  10273  10285  10287     1  0.0000000  0.6508444  3
  10275  10273  10285  18485     1  0.0000000  1.0460000  1
  10275  10273  10285  18485     1  0.0000000  0.0000000  3
  10275  10273  10285  10286     1  0.0000000  0.6508444  3
  10275  10273  10285  10287     1  0.0000000  0.6508444  3
  10276  10264  10260  10289     1  0.0000000  0.6508444  3
  10277  10276  10282  18462     1  0.0000000  1.0460000  1
  10277  10276  10282  18462     1  0.0000000  0.0000000  3
  10277  10276  10282  10283     1  0.0000000  0.6508444  3
  10277  10276  10282  10284     1  0.0000000  0.6508444  3
  10278  10276  10282  18462     1  0.0000000  1.0460000  1
  10278  10276  10282  18462     1  0.0000000  0.0000000  3
  10278  10276  10282  10283     1  0.0000000  0.6508444  3
  10278  10276  10282  10284     1  0.0000000  0.6508444  3
  10282  18462  18458  18461     1  0.0000000  1.6038667  3
  10283  10282  18462  18458     1  0.0000000  1.6038667  3
  10284  10282  18462  18458     1  0.0000000  1.6038667  3
  10285  18485  18481  18484     1  0.0000000  1.6038667  3
  10286  10285  18485  18481     1  0.0000000  1.6038667  3
  10287  10285  18485  18481     1  0.0000000  1.6038667  3
  10290  10291  10303  10304     1  0.0000000  0.6508444  3
  10290  10291  10303  10305     1  0.0000000  0.6508444  3
  10290  10294  10306  10307     1  0.0000000  0.6508444  3
  10290  10294  10306  10308     1  0.0000000  0.6508444  3
  10290  10297  10300  10301     1  0.0000000  0.6508444  3
  10290  10297  10300  10302     1  0.0000000  0.6508444  3
  10291  10290  10294  10295     1  0.0000000  0.6508444  3
  10291  10290  10294  10296     1  0.0000000  0.6508444  3
  10291  10290  10297  10298     1  0.0000000  0.6508444  3
  10291  10290  10297  10299     1  0.0000000  0.6508444  3
  10291  10303  10315  10316     1  0.0000000  0.6508444  3
  10291  10303  10315  10317     1  0.0000000  0.6508444  3
  10292  10291  10290  10294     1  0.0000000  0.6508444  3
  10292  10291  10290  10297     1  0.0000000  0.6508444  3
  10292  10291  10290  10319     1  0.0000000  0.6508444  3
  10292  10291  10303  10315     1  0.0000000  0.6508444  3
  10292  10291  10303  10304     1  0.0000000  0.6508444  3
  10292  10291  10303  10305     1  0.0000000  0.6508444  3
  10293  10291  10290  10294     1  0.0000000  0.6508444  3
  10293  10291  10290  10297     1  0.0000000  0.6508444  3
  10293  10291  10290  10319     1  0.0000000  0.6508444  3
  10293  10291  10303  10315     1  0.0000000  0.6508444  3
  10293  10291  10303  10304     1  0.0000000  0.6508444  3
  10293  10291  10303  10305     1  0.0000000  0.6508444  3
  10294  10290  10297  10298     1  0.0000000  0.6508444  3
  10294  10290  10297  10299     1  0.0000000  0.6508444  3
  10294  10306  10312  10313     1  0.0000000  0.6508444  3
  10294  10306  10312  10314     1  0.0000000  0.6508444  3
  10295  10294  10290  10297     1  0.0000000  0.6508444  3
  10295  10294  10290  10319     1  0.0000000  0.6508444  3
  10295  10294  10306  10312     1  0.0000000  0.6508444  3
  10295  10294  10306  10307     1  0.0000000  0.6508444  3
  10295  10294  10306  10308     1  0.0000000  0.6508444  3
  10296  10294  10290  10297     1  0.0000000  0.6508444  3
  10296  10294  10290  10319     1  0.0000000  0.6508444  3
  10296  10294  10306  10312     1  0.0000000  0.6508444  3
  10296  10294  10306  10307     1  0.0000000  0.6508444  3
  10296  10294  10306  10308     1  0.0000000  0.6508444  3
  10297  10300  10309  10310     1  0.0000000  0.6508444  3
  10297  10300  10309  10311     1  0.0000000  0.6508444  3
  10298  10297  10290  10319     1  0.0000000  0.6508444  3
  10298  10297  10300  10309     1  0.0000000  0.6508444  3
  10298  10297  10300  10301     1  0.0000000  0.6508444  3
  10298  10297  10300  10302     1  0.0000000  0.6508444  3
  10299  10297  10290  10319     1  0.0000000  0.6508444  3
  10299  10297  10300  10309     1  0.0000000  0.6508444  3
  10299  10297  10300  10301     1  0.0000000  0.6508444  3
  10299  10297  10300  10302     1  0.0000000  0.6508444  3
  10300  10297  10290  10319     1  0.0000000  0.6508444  3
  10301  10300  10309  10318     1  0.0000000  1.0460000  1
  10301  10300  10309  10318     1  0.0000000  0.0000000  3
  10301  10300  10309  10310     1  0.0000000  0.6508444  3
  10301  10300  10309  10311     1  0.0000000  0.6508444  3
  10302  10300  10309  10318     1  0.0000000  1.0460000  1
  10302  10300  10309  10318     1  0.0000000  0.0000000  3
  10302  10300  10309  10310     1  0.0000000  0.6508444  3
  10302  10300  10309  10311     1  0.0000000  0.6508444  3
  10303  10291  10290  10319     1  0.0000000  0.6508444  3
  10304  10303  10315  18531     1  0.0000000  1.0460000  1
  10304  10303  10315  18531     1  0.0000000  0.0000000  3
  10304  10303  10315  10316     1  0.0000000  0.6508444  3
  10304  10303  10315  10317     1  0.0000000  0.6508444  3
  10305  10303  10315  18531     1  0.0000000  1.0460000  1
  10305  10303  10315  18531     1  0.0000000  0.0000000  3
  10305  10303  10315  10316     1  0.0000000  0.6508444  3
  10305  10303  10315  10317     1  0.0000000  0.6508444  3
  10306  10294  10290  10319     1  0.0000000  0.6508444  3
  10307  10306  10312  18508     1  0.0000000  1.0460000  1
  10307  10306  10312  18508     1  0.0000000  0.0000000  3
  10307  10306  10312  10313     1  0.0000000  0.6508444  3
  10307  10306  10312  10314     1  0.0000000  0.6508444  3
  10308  10306  10312  18508     1  0.0000000  1.0460000  1
  10308  10306  10312  18508     1  0.0000000  0.0000000  3
  10308  10306  10312  10313     1  0.0000000  0.6508444  3
  10308  10306  10312  10314     1  0.0000000  0.6508444  3
  10312  18508  18504  18507     1  0.0000000  1.6038667  3
  10313  10312  18508  18504     1  0.0000000  1.6038667  3
  10314  10312  18508  18504     1  0.0000000  1.6038667  3
  10315  18531  18527  18530     1  0.0000000  1.6038667  3
  10316  10315  18531  18527     1  0.0000000  1.6038667  3
  10317  10315  18531  18527     1  0.0000000  1.6038667  3
  10320  10321  10333  10334     1  0.0000000  0.6508444  3
  10320  10321  10333  10335     1  0.0000000  0.6508444  3
  10320  10324  10336  10337     1  0.0000000  0.6508444  3
  10320  10324  10336  10338     1  0.0000000  0.6508444  3
  10320  10327  10330  10331     1  0.0000000  0.6508444  3
  10320  10327  10330  10332     1  0.0000000  0.6508444  3
  10321  10320  10324  10325     1  0.0000000  0.6508444  3
  10321  10320  10324  10326     1  0.0000000  0.6508444  3
  10321  10320  10327  10328     1  0.0000000  0.6508444  3
  10321  10320  10327  10329     1  0.0000000  0.6508444  3
  10321  10333  10345  10346     1  0.0000000  0.6508444  3
  10321  10333  10345  10347     1  0.0000000  0.6508444  3
  10322  10321  10320  10324     1  0.0000000  0.6508444  3
  10322  10321  10320  10327     1  0.0000000  0.6508444  3
  10322  10321  10320  10349     1  0.0000000  0.6508444  3
  10322  10321  10333  10345     1  0.0000000  0.6508444  3
  10322  10321  10333  10334     1  0.0000000  0.6508444  3
  10322  10321  10333  10335     1  0.0000000  0.6508444  3
  10323  10321  10320  10324     1  0.0000000  0.6508444  3
  10323  10321  10320  10327     1  0.0000000  0.6508444  3
  10323  10321  10320  10349     1  0.0000000  0.6508444  3
  10323  10321  10333  10345     1  0.0000000  0.6508444  3
  10323  10321  10333  10334     1  0.0000000  0.6508444  3
  10323  10321  10333  10335     1  0.0000000  0.6508444  3
  10324  10320  10327  10328     1  0.0000000  0.6508444  3
  10324  10320  10327  10329     1  0.0000000  0.6508444  3
  10324  10336  10342  10343     1  0.0000000  0.6508444  3
  10324  10336  10342  10344     1  0.0000000  0.6508444  3
  10325  10324  10320  10327     1  0.0000000  0.6508444  3
  10325  10324  10320  10349     1  0.0000000  0.6508444  3
  10325  10324  10336  10342     1  0.0000000  0.6508444  3
  10325  10324  10336  10337     1  0.0000000  0.6508444  3
  10325  10324  10336  10338     1  0.0000000  0.6508444  3
  10326  10324  10320  10327     1  0.0000000  0.6508444  3
  10326  10324  10320  10349     1  0.0000000  0.6508444  3
  10326  10324  10336  10342     1  0.0000000  0.6508444  3
  10326  10324  10336  10337     1  0.0000000  0.6508444  3
  10326  10324  10336  10338     1  0.0000000  0.6508444  3
  10327  10330  10339  10340     1  0.0000000  0.6508444  3
  10327  10330  10339  10341     1  0.0000000  0.6508444  3
  10328  10327  10320  10349     1  0.0000000  0.6508444  3
  10328  10327  10330  10339     1  0.0000000  0.6508444  3
  10328  10327  10330  10331     1  0.0000000  0.6508444  3
  10328  10327  10330  10332     1  0.0000000  0.6508444  3
  10329  10327  10320  10349     1  0.0000000  0.6508444  3
  10329  10327  10330  10339     1  0.0000000  0.6508444  3
  10329  10327  10330  10331     1  0.0000000  0.6508444  3
  10329  10327  10330  10332     1  0.0000000  0.6508444  3
  10330  10327  10320  10349     1  0.0000000  0.6508444  3
  10331  10330  10339  10348     1  0.0000000  1.0460000  1
  10331  10330  10339  10348     1  0.0000000  0.0000000  3
  10331  10330  10339  10340     1  0.0000000  0.6508444  3
  10331  10330  10339  10341     1  0.0000000  0.6508444  3
  10332  10330  10339  10348     1  0.0000000  1.0460000  1
  10332  10330  10339  10348     1  0.0000000  0.0000000  3
  10332  10330  10339  10340     1  0.0000000  0.6508444  3
  10332  10330  10339  10341     1  0.0000000  0.6508444  3
  10333  10321  10320  10349     1  0.0000000  0.6508444  3
  10334  10333  10345  18577     1  0.0000000  1.0460000  1
  10334  10333  10345  18577     1  0.0000000  0.0000000  3
  10334  10333  10345  10346     1  0.0000000  0.6508444  3
  10334  10333  10345  10347     1  0.0000000  0.6508444  3
  10335  10333  10345  18577     1  0.0000000  1.0460000  1
  10335  10333  10345  18577     1  0.0000000  0.0000000  3
  10335  10333  10345  10346     1  0.0000000  0.6508444  3
  10335  10333  10345  10347     1  0.0000000  0.6508444  3
  10336  10324  10320  10349     1  0.0000000  0.6508444  3
  10337  10336  10342  18554     1  0.0000000  1.0460000  1
  10337  10336  10342  18554     1  0.0000000  0.0000000  3
  10337  10336  10342  10343     1  0.0000000  0.6508444  3
  10337  10336  10342  10344     1  0.0000000  0.6508444  3
  10338  10336  10342  18554     1  0.0000000  1.0460000  1
  10338  10336  10342  18554     1  0.0000000  0.0000000  3
  10338  10336  10342  10343     1  0.0000000  0.6508444  3
  10338  10336  10342  10344     1  0.0000000  0.6508444  3
  10342  18554  18550  18553     1  0.0000000  1.6038667  3
  10343  10342  18554  18550     1  0.0000000  1.6038667  3
  10344  10342  18554  18550     1  0.0000000  1.6038667  3
  10345  18577  18573  18576     1  0.0000000  1.6038667  3
  10346  10345  18577  18573     1  0.0000000  1.6038667  3
  10347  10345  18577  18573     1  0.0000000  1.6038667  3
  10350  10351  10363  10364     1  0.0000000  0.6508444  3
  10350  10351  10363  10365     1  0.0000000  0.6508444  3
  10350  10354  10366  10367     1  0.0000000  0.6508444  3
  10350  10354  10366  10368     1  0.0000000  0.6508444  3
  10350  10357  10360  10361     1  0.0000000  0.6508444  3
  10350  10357  10360  10362     1  0.0000000  0.6508444  3
  10351  10350  10354  10355     1  0.0000000  0.6508444  3
  10351  10350  10354  10356     1  0.0000000  0.6508444  3
  10351  10350  10357  10358     1  0.0000000  0.6508444  3
  10351  10350  10357  10359     1  0.0000000  0.6508444  3
  10351  10363  10375  10376     1  0.0000000  0.6508444  3
  10351  10363  10375  10377     1  0.0000000  0.6508444  3
  10352  10351  10350  10354     1  0.0000000  0.6508444  3
  10352  10351  10350  10357     1  0.0000000  0.6508444  3
  10352  10351  10350  10379     1  0.0000000  0.6508444  3
  10352  10351  10363  10375     1  0.0000000  0.6508444  3
  10352  10351  10363  10364     1  0.0000000  0.6508444  3
  10352  10351  10363  10365     1  0.0000000  0.6508444  3
  10353  10351  10350  10354     1  0.0000000  0.6508444  3
  10353  10351  10350  10357     1  0.0000000  0.6508444  3
  10353  10351  10350  10379     1  0.0000000  0.6508444  3
  10353  10351  10363  10375     1  0.0000000  0.6508444  3
  10353  10351  10363  10364     1  0.0000000  0.6508444  3
  10353  10351  10363  10365     1  0.0000000  0.6508444  3
  10354  10350  10357  10358     1  0.0000000  0.6508444  3
  10354  10350  10357  10359     1  0.0000000  0.6508444  3
  10354  10366  10372  10373     1  0.0000000  0.6508444  3
  10354  10366  10372  10374     1  0.0000000  0.6508444  3
  10355  10354  10350  10357     1  0.0000000  0.6508444  3
  10355  10354  10350  10379     1  0.0000000  0.6508444  3
  10355  10354  10366  10372     1  0.0000000  0.6508444  3
  10355  10354  10366  10367     1  0.0000000  0.6508444  3
  10355  10354  10366  10368     1  0.0000000  0.6508444  3
  10356  10354  10350  10357     1  0.0000000  0.6508444  3
  10356  10354  10350  10379     1  0.0000000  0.6508444  3
  10356  10354  10366  10372     1  0.0000000  0.6508444  3
  10356  10354  10366  10367     1  0.0000000  0.6508444  3
  10356  10354  10366  10368     1  0.0000000  0.6508444  3
  10357  10360  10369  10370     1  0.0000000  0.6508444  3
  10357  10360  10369  10371     1  0.0000000  0.6508444  3
  10358  10357  10350  10379     1  0.0000000  0.6508444  3
  10358  10357  10360  10369     1  0.0000000  0.6508444  3
  10358  10357  10360  10361     1  0.0000000  0.6508444  3
  10358  10357  10360  10362     1  0.0000000  0.6508444  3
  10359  10357  10350  10379     1  0.0000000  0.6508444  3
  10359  10357  10360  10369     1  0.0000000  0.6508444  3
  10359  10357  10360  10361     1  0.0000000  0.6508444  3
  10359  10357  10360  10362     1  0.0000000  0.6508444  3
  10360  10357  10350  10379     1  0.0000000  0.6508444  3
  10361  10360  10369  10378     1  0.0000000  1.0460000  1
  10361  10360  10369  10378     1  0.0000000  0.0000000  3
  10361  10360  10369  10370     1  0.0000000  0.6508444  3
  10361  10360  10369  10371     1  0.0000000  0.6508444  3
  10362  10360  10369  10378     1  0.0000000  1.0460000  1
  10362  10360  10369  10378     1  0.0000000  0.0000000  3
  10362  10360  10369  10370     1  0.0000000  0.6508444  3
  10362  10360  10369  10371     1  0.0000000  0.6508444  3
  10363  10351  10350  10379     1  0.0000000  0.6508444  3
  10364  10363  10375  18623     1  0.0000000  1.0460000  1
  10364  10363  10375  18623     1  0.0000000  0.0000000  3
  10364  10363  10375  10376     1  0.0000000  0.6508444  3
  10364  10363  10375  10377     1  0.0000000  0.6508444  3
  10365  10363  10375  18623     1  0.0000000  1.0460000  1
  10365  10363  10375  18623     1  0.0000000  0.0000000  3
  10365  10363  10375  10376     1  0.0000000  0.6508444  3
  10365  10363  10375  10377     1  0.0000000  0.6508444  3
  10366  10354  10350  10379     1  0.0000000  0.6508444  3
  10367  10366  10372  18600     1  0.0000000  1.0460000  1
  10367  10366  10372  18600     1  0.0000000  0.0000000  3
  10367  10366  10372  10373     1  0.0000000  0.6508444  3
  10367  10366  10372  10374     1  0.0000000  0.6508444  3
  10368  10366  10372  18600     1  0.0000000  1.0460000  1
  10368  10366  10372  18600     1  0.0000000  0.0000000  3
  10368  10366  10372  10373     1  0.0000000  0.6508444  3
  10368  10366  10372  10374     1  0.0000000  0.6508444  3
  10372  18600  18596  18599     1  0.0000000  1.6038667  3
  10373  10372  18600  18596     1  0.0000000  1.6038667  3
  10374  10372  18600  18596     1  0.0000000  1.6038667  3
  10375  18623  18619  18622     1  0.0000000  1.6038667  3
  10376  10375  18623  18619     1  0.0000000  1.6038667  3
  10377  10375  18623  18619     1  0.0000000  1.6038667  3
  10380  10381  10393  10394     1  0.0000000  0.6508444  3
  10380  10381  10393  10395     1  0.0000000  0.6508444  3
  10380  10384  10396  10397     1  0.0000000  0.6508444  3
  10380  10384  10396  10398     1  0.0000000  0.6508444  3
  10380  10387  10390  10391     1  0.0000000  0.6508444  3
  10380  10387  10390  10392     1  0.0000000  0.6508444  3
  10381  10380  10384  10385     1  0.0000000  0.6508444  3
  10381  10380  10384  10386     1  0.0000000  0.6508444  3
  10381  10380  10387  10388     1  0.0000000  0.6508444  3
  10381  10380  10387  10389     1  0.0000000  0.6508444  3
  10381  10393  10405  10406     1  0.0000000  0.6508444  3
  10381  10393  10405  10407     1  0.0000000  0.6508444  3
  10382  10381  10380  10384     1  0.0000000  0.6508444  3
  10382  10381  10380  10387     1  0.0000000  0.6508444  3
  10382  10381  10380  10409     1  0.0000000  0.6508444  3
  10382  10381  10393  10405     1  0.0000000  0.6508444  3
  10382  10381  10393  10394     1  0.0000000  0.6508444  3
  10382  10381  10393  10395     1  0.0000000  0.6508444  3
  10383  10381  10380  10384     1  0.0000000  0.6508444  3
  10383  10381  10380  10387     1  0.0000000  0.6508444  3
  10383  10381  10380  10409     1  0.0000000  0.6508444  3
  10383  10381  10393  10405     1  0.0000000  0.6508444  3
  10383  10381  10393  10394     1  0.0000000  0.6508444  3
  10383  10381  10393  10395     1  0.0000000  0.6508444  3
  10384  10380  10387  10388     1  0.0000000  0.6508444  3
  10384  10380  10387  10389     1  0.0000000  0.6508444  3
  10384  10396  10402  10403     1  0.0000000  0.6508444  3
  10384  10396  10402  10404     1  0.0000000  0.6508444  3
  10385  10384  10380  10387     1  0.0000000  0.6508444  3
  10385  10384  10380  10409     1  0.0000000  0.6508444  3
  10385  10384  10396  10402     1  0.0000000  0.6508444  3
  10385  10384  10396  10397     1  0.0000000  0.6508444  3
  10385  10384  10396  10398     1  0.0000000  0.6508444  3
  10386  10384  10380  10387     1  0.0000000  0.6508444  3
  10386  10384  10380  10409     1  0.0000000  0.6508444  3
  10386  10384  10396  10402     1  0.0000000  0.6508444  3
  10386  10384  10396  10397     1  0.0000000  0.6508444  3
  10386  10384  10396  10398     1  0.0000000  0.6508444  3
  10387  10390  10399  10400     1  0.0000000  0.6508444  3
  10387  10390  10399  10401     1  0.0000000  0.6508444  3
  10388  10387  10380  10409     1  0.0000000  0.6508444  3
  10388  10387  10390  10399     1  0.0000000  0.6508444  3
  10388  10387  10390  10391     1  0.0000000  0.6508444  3
  10388  10387  10390  10392     1  0.0000000  0.6508444  3
  10389  10387  10380  10409     1  0.0000000  0.6508444  3
  10389  10387  10390  10399     1  0.0000000  0.6508444  3
  10389  10387  10390  10391     1  0.0000000  0.6508444  3
  10389  10387  10390  10392     1  0.0000000  0.6508444  3
  10390  10387  10380  10409     1  0.0000000  0.6508444  3
  10391  10390  10399  10408     1  0.0000000  1.0460000  1
  10391  10390  10399  10408     1  0.0000000  0.0000000  3
  10391  10390  10399  10400     1  0.0000000  0.6508444  3
  10391  10390  10399  10401     1  0.0000000  0.6508444  3
  10392  10390  10399  10408     1  0.0000000  1.0460000  1
  10392  10390  10399  10408     1  0.0000000  0.0000000  3
  10392  10390  10399  10400     1  0.0000000  0.6508444  3
  10392  10390  10399  10401     1  0.0000000  0.6508444  3
  10393  10381  10380  10409     1  0.0000000  0.6508444  3
  10394  10393  10405  18669     1  0.0000000  1.0460000  1
  10394  10393  10405  18669     1  0.0000000  0.0000000  3
  10394  10393  10405  10406     1  0.0000000  0.6508444  3
  10394  10393  10405  10407     1  0.0000000  0.6508444  3
  10395  10393  10405  18669     1  0.0000000  1.0460000  1
  10395  10393  10405  18669     1  0.0000000  0.0000000  3
  10395  10393  10405  10406     1  0.0000000  0.6508444  3
  10395  10393  10405  10407     1  0.0000000  0.6508444  3
  10396  10384  10380  10409     1  0.0000000  0.6508444  3
  10397  10396  10402  18646     1  0.0000000  1.0460000  1
  10397  10396  10402  18646     1  0.0000000  0.0000000  3
  10397  10396  10402  10403     1  0.0000000  0.6508444  3
  10397  10396  10402  10404     1  0.0000000  0.6508444  3
  10398  10396  10402  18646     1  0.0000000  1.0460000  1
  10398  10396  10402  18646     1  0.0000000  0.0000000  3
  10398  10396  10402  10403     1  0.0000000  0.6508444  3
  10398  10396  10402  10404     1  0.0000000  0.6508444  3
  10402  18646  18642  18645     1  0.0000000  1.6038667  3
  10403  10402  18646  18642     1  0.0000000  1.6038667  3
  10404  10402  18646  18642     1  0.0000000  1.6038667  3
  10405  18669  18665  18668     1  0.0000000  1.6038667  3
  10406  10405  18669  18665     1  0.0000000  1.6038667  3
  10407  10405  18669  18665     1  0.0000000  1.6038667  3
  10410  10411  10423  10424     1  0.0000000  0.6508444  3
  10410  10411  10423  10425     1  0.0000000  0.6508444  3
  10410  10414  10426  10427     1  0.0000000  0.6508444  3
  10410  10414  10426  10428     1  0.0000000  0.6508444  3
  10410  10417  10420  10421     1  0.0000000  0.6508444  3
  10410  10417  10420  10422     1  0.0000000  0.6508444  3
  10411  10410  10414  10415     1  0.0000000  0.6508444  3
  10411  10410  10414  10416     1  0.0000000  0.6508444  3
  10411  10410  10417  10418     1  0.0000000  0.6508444  3
  10411  10410  10417  10419     1  0.0000000  0.6508444  3
  10411  10423  10435  10436     1  0.0000000  0.6508444  3
  10411  10423  10435  10437     1  0.0000000  0.6508444  3
  10412  10411  10410  10414     1  0.0000000  0.6508444  3
  10412  10411  10410  10417     1  0.0000000  0.6508444  3
  10412  10411  10410  10439     1  0.0000000  0.6508444  3
  10412  10411  10423  10435     1  0.0000000  0.6508444  3
  10412  10411  10423  10424     1  0.0000000  0.6508444  3
  10412  10411  10423  10425     1  0.0000000  0.6508444  3
  10413  10411  10410  10414     1  0.0000000  0.6508444  3
  10413  10411  10410  10417     1  0.0000000  0.6508444  3
  10413  10411  10410  10439     1  0.0000000  0.6508444  3
  10413  10411  10423  10435     1  0.0000000  0.6508444  3
  10413  10411  10423  10424     1  0.0000000  0.6508444  3
  10413  10411  10423  10425     1  0.0000000  0.6508444  3
  10414  10410  10417  10418     1  0.0000000  0.6508444  3
  10414  10410  10417  10419     1  0.0000000  0.6508444  3
  10414  10426  10432  10433     1  0.0000000  0.6508444  3
  10414  10426  10432  10434     1  0.0000000  0.6508444  3
  10415  10414  10410  10417     1  0.0000000  0.6508444  3
  10415  10414  10410  10439     1  0.0000000  0.6508444  3
  10415  10414  10426  10432     1  0.0000000  0.6508444  3
  10415  10414  10426  10427     1  0.0000000  0.6508444  3
  10415  10414  10426  10428     1  0.0000000  0.6508444  3
  10416  10414  10410  10417     1  0.0000000  0.6508444  3
  10416  10414  10410  10439     1  0.0000000  0.6508444  3
  10416  10414  10426  10432     1  0.0000000  0.6508444  3
  10416  10414  10426  10427     1  0.0000000  0.6508444  3
  10416  10414  10426  10428     1  0.0000000  0.6508444  3
  10417  10420  10429  10430     1  0.0000000  0.6508444  3
  10417  10420  10429  10431     1  0.0000000  0.6508444  3
  10418  10417  10410  10439     1  0.0000000  0.6508444  3
  10418  10417  10420  10429     1  0.0000000  0.6508444  3
  10418  10417  10420  10421     1  0.0000000  0.6508444  3
  10418  10417  10420  10422     1  0.0000000  0.6508444  3
  10419  10417  10410  10439     1  0.0000000  0.6508444  3
  10419  10417  10420  10429     1  0.0000000  0.6508444  3
  10419  10417  10420  10421     1  0.0000000  0.6508444  3
  10419  10417  10420  10422     1  0.0000000  0.6508444  3
  10420  10417  10410  10439     1  0.0000000  0.6508444  3
  10421  10420  10429  10438     1  0.0000000  1.0460000  1
  10421  10420  10429  10438     1  0.0000000  0.0000000  3
  10421  10420  10429  10430     1  0.0000000  0.6508444  3
  10421  10420  10429  10431     1  0.0000000  0.6508444  3
  10422  10420  10429  10438     1  0.0000000  1.0460000  1
  10422  10420  10429  10438     1  0.0000000  0.0000000  3
  10422  10420  10429  10430     1  0.0000000  0.6508444  3
  10422  10420  10429  10431     1  0.0000000  0.6508444  3
  10423  10411  10410  10439     1  0.0000000  0.6508444  3
  10424  10423  10435  18715     1  0.0000000  1.0460000  1
  10424  10423  10435  18715     1  0.0000000  0.0000000  3
  10424  10423  10435  10436     1  0.0000000  0.6508444  3
  10424  10423  10435  10437     1  0.0000000  0.6508444  3
  10425  10423  10435  18715     1  0.0000000  1.0460000  1
  10425  10423  10435  18715     1  0.0000000  0.0000000  3
  10425  10423  10435  10436     1  0.0000000  0.6508444  3
  10425  10423  10435  10437     1  0.0000000  0.6508444  3
  10426  10414  10410  10439     1  0.0000000  0.6508444  3
  10427  10426  10432  18692     1  0.0000000  1.0460000  1
  10427  10426  10432  18692     1  0.0000000  0.0000000  3
  10427  10426  10432  10433     1  0.0000000  0.6508444  3
  10427  10426  10432  10434     1  0.0000000  0.6508444  3
  10428  10426  10432  18692     1  0.0000000  1.0460000  1
  10428  10426  10432  18692     1  0.0000000  0.0000000  3
  10428  10426  10432  10433     1  0.0000000  0.6508444  3
  10428  10426  10432  10434     1  0.0000000  0.6508444  3
  10432  18692  18688  18691     1  0.0000000  1.6038667  3
  10433  10432  18692  18688     1  0.0000000  1.6038667  3
  10434  10432  18692  18688     1  0.0000000  1.6038667  3
  10435  18715  18711  18714     1  0.0000000  1.6038667  3
  10436  10435  18715  18711     1  0.0000000  1.6038667  3
  10437  10435  18715  18711     1  0.0000000  1.6038667  3
  10440  10441  10453  10454     1  0.0000000  0.6508444  3
  10440  10441  10453  10455     1  0.0000000  0.6508444  3
  10440  10444  10456  10457     1  0.0000000  0.6508444  3
  10440  10444  10456  10458     1  0.0000000  0.6508444  3
  10440  10447  10450  10451     1  0.0000000  0.6508444  3
  10440  10447  10450  10452     1  0.0000000  0.6508444  3
  10441  10440  10444  10445     1  0.0000000  0.6508444  3
  10441  10440  10444  10446     1  0.0000000  0.6508444  3
  10441  10440  10447  10448     1  0.0000000  0.6508444  3
  10441  10440  10447  10449     1  0.0000000  0.6508444  3
  10441  10453  10465  10466     1  0.0000000  0.6508444  3
  10441  10453  10465  10467     1  0.0000000  0.6508444  3
  10442  10441  10440  10444     1  0.0000000  0.6508444  3
  10442  10441  10440  10447     1  0.0000000  0.6508444  3
  10442  10441  10440  10469     1  0.0000000  0.6508444  3
  10442  10441  10453  10465     1  0.0000000  0.6508444  3
  10442  10441  10453  10454     1  0.0000000  0.6508444  3
  10442  10441  10453  10455     1  0.0000000  0.6508444  3
  10443  10441  10440  10444     1  0.0000000  0.6508444  3
  10443  10441  10440  10447     1  0.0000000  0.6508444  3
  10443  10441  10440  10469     1  0.0000000  0.6508444  3
  10443  10441  10453  10465     1  0.0000000  0.6508444  3
  10443  10441  10453  10454     1  0.0000000  0.6508444  3
  10443  10441  10453  10455     1  0.0000000  0.6508444  3
  10444  10440  10447  10448     1  0.0000000  0.6508444  3
  10444  10440  10447  10449     1  0.0000000  0.6508444  3
  10444  10456  10462  10463     1  0.0000000  0.6508444  3
  10444  10456  10462  10464     1  0.0000000  0.6508444  3
  10445  10444  10440  10447     1  0.0000000  0.6508444  3
  10445  10444  10440  10469     1  0.0000000  0.6508444  3
  10445  10444  10456  10462     1  0.0000000  0.6508444  3
  10445  10444  10456  10457     1  0.0000000  0.6508444  3
  10445  10444  10456  10458     1  0.0000000  0.6508444  3
  10446  10444  10440  10447     1  0.0000000  0.6508444  3
  10446  10444  10440  10469     1  0.0000000  0.6508444  3
  10446  10444  10456  10462     1  0.0000000  0.6508444  3
  10446  10444  10456  10457     1  0.0000000  0.6508444  3
  10446  10444  10456  10458     1  0.0000000  0.6508444  3
  10447  10450  10459  10460     1  0.0000000  0.6508444  3
  10447  10450  10459  10461     1  0.0000000  0.6508444  3
  10448  10447  10440  10469     1  0.0000000  0.6508444  3
  10448  10447  10450  10459     1  0.0000000  0.6508444  3
  10448  10447  10450  10451     1  0.0000000  0.6508444  3
  10448  10447  10450  10452     1  0.0000000  0.6508444  3
  10449  10447  10440  10469     1  0.0000000  0.6508444  3
  10449  10447  10450  10459     1  0.0000000  0.6508444  3
  10449  10447  10450  10451     1  0.0000000  0.6508444  3
  10449  10447  10450  10452     1  0.0000000  0.6508444  3
  10450  10447  10440  10469     1  0.0000000  0.6508444  3
  10451  10450  10459  10468     1  0.0000000  1.0460000  1
  10451  10450  10459  10468     1  0.0000000  0.0000000  3
  10451  10450  10459  10460     1  0.0000000  0.6508444  3
  10451  10450  10459  10461     1  0.0000000  0.6508444  3
  10452  10450  10459  10468     1  0.0000000  1.0460000  1
  10452  10450  10459  10468     1  0.0000000  0.0000000  3
  10452  10450  10459  10460     1  0.0000000  0.6508444  3
  10452  10450  10459  10461     1  0.0000000  0.6508444  3
  10453  10441  10440  10469     1  0.0000000  0.6508444  3
  10454  10453  10465  18761     1  0.0000000  1.0460000  1
  10454  10453  10465  18761     1  0.0000000  0.0000000  3
  10454  10453  10465  10466     1  0.0000000  0.6508444  3
  10454  10453  10465  10467     1  0.0000000  0.6508444  3
  10455  10453  10465  18761     1  0.0000000  1.0460000  1
  10455  10453  10465  18761     1  0.0000000  0.0000000  3
  10455  10453  10465  10466     1  0.0000000  0.6508444  3
  10455  10453  10465  10467     1  0.0000000  0.6508444  3
  10456  10444  10440  10469     1  0.0000000  0.6508444  3
  10457  10456  10462  18738     1  0.0000000  1.0460000  1
  10457  10456  10462  18738     1  0.0000000  0.0000000  3
  10457  10456  10462  10463     1  0.0000000  0.6508444  3
  10457  10456  10462  10464     1  0.0000000  0.6508444  3
  10458  10456  10462  18738     1  0.0000000  1.0460000  1
  10458  10456  10462  18738     1  0.0000000  0.0000000  3
  10458  10456  10462  10463     1  0.0000000  0.6508444  3
  10458  10456  10462  10464     1  0.0000000  0.6508444  3
  10462  18738  18734  18737     1  0.0000000  1.6038667  3
  10463  10462  18738  18734     1  0.0000000  1.6038667  3
  10464  10462  18738  18734     1  0.0000000  1.6038667  3
  10465  18761  18757  18760     1  0.0000000  1.6038667  3
  10466  10465  18761  18757     1  0.0000000  1.6038667  3
  10467  10465  18761  18757     1  0.0000000  1.6038667  3
  10470  10471  10483  10484     1  0.0000000  0.6508444  3
  10470  10471  10483  10485     1  0.0000000  0.6508444  3
  10470  10474  10486  10487     1  0.0000000  0.6508444  3
  10470  10474  10486  10488     1  0.0000000  0.6508444  3
  10470  10477  10480  10481     1  0.0000000  0.6508444  3
  10470  10477  10480  10482     1  0.0000000  0.6508444  3
  10471  10470  10474  10475     1  0.0000000  0.6508444  3
  10471  10470  10474  10476     1  0.0000000  0.6508444  3
  10471  10470  10477  10478     1  0.0000000  0.6508444  3
  10471  10470  10477  10479     1  0.0000000  0.6508444  3
  10471  10483  10495  10496     1  0.0000000  0.6508444  3
  10471  10483  10495  10497     1  0.0000000  0.6508444  3
  10472  10471  10470  10474     1  0.0000000  0.6508444  3
  10472  10471  10470  10477     1  0.0000000  0.6508444  3
  10472  10471  10470  10499     1  0.0000000  0.6508444  3
  10472  10471  10483  10495     1  0.0000000  0.6508444  3
  10472  10471  10483  10484     1  0.0000000  0.6508444  3
  10472  10471  10483  10485     1  0.0000000  0.6508444  3
  10473  10471  10470  10474     1  0.0000000  0.6508444  3
  10473  10471  10470  10477     1  0.0000000  0.6508444  3
  10473  10471  10470  10499     1  0.0000000  0.6508444  3
  10473  10471  10483  10495     1  0.0000000  0.6508444  3
  10473  10471  10483  10484     1  0.0000000  0.6508444  3
  10473  10471  10483  10485     1  0.0000000  0.6508444  3
  10474  10470  10477  10478     1  0.0000000  0.6508444  3
  10474  10470  10477  10479     1  0.0000000  0.6508444  3
  10474  10486  10492  10493     1  0.0000000  0.6508444  3
  10474  10486  10492  10494     1  0.0000000  0.6508444  3
  10475  10474  10470  10477     1  0.0000000  0.6508444  3
  10475  10474  10470  10499     1  0.0000000  0.6508444  3
  10475  10474  10486  10492     1  0.0000000  0.6508444  3
  10475  10474  10486  10487     1  0.0000000  0.6508444  3
  10475  10474  10486  10488     1  0.0000000  0.6508444  3
  10476  10474  10470  10477     1  0.0000000  0.6508444  3
  10476  10474  10470  10499     1  0.0000000  0.6508444  3
  10476  10474  10486  10492     1  0.0000000  0.6508444  3
  10476  10474  10486  10487     1  0.0000000  0.6508444  3
  10476  10474  10486  10488     1  0.0000000  0.6508444  3
  10477  10480  10489  10490     1  0.0000000  0.6508444  3
  10477  10480  10489  10491     1  0.0000000  0.6508444  3
  10478  10477  10470  10499     1  0.0000000  0.6508444  3
  10478  10477  10480  10489     1  0.0000000  0.6508444  3
  10478  10477  10480  10481     1  0.0000000  0.6508444  3
  10478  10477  10480  10482     1  0.0000000  0.6508444  3
  10479  10477  10470  10499     1  0.0000000  0.6508444  3
  10479  10477  10480  10489     1  0.0000000  0.6508444  3
  10479  10477  10480  10481     1  0.0000000  0.6508444  3
  10479  10477  10480  10482     1  0.0000000  0.6508444  3
  10480  10477  10470  10499     1  0.0000000  0.6508444  3
  10481  10480  10489  10498     1  0.0000000  1.0460000  1
  10481  10480  10489  10498     1  0.0000000  0.0000000  3
  10481  10480  10489  10490     1  0.0000000  0.6508444  3
  10481  10480  10489  10491     1  0.0000000  0.6508444  3
  10482  10480  10489  10498     1  0.0000000  1.0460000  1
  10482  10480  10489  10498     1  0.0000000  0.0000000  3
  10482  10480  10489  10490     1  0.0000000  0.6508444  3
  10482  10480  10489  10491     1  0.0000000  0.6508444  3
  10483  10471  10470  10499     1  0.0000000  0.6508444  3
  10484  10483  10495  18807     1  0.0000000  1.0460000  1
  10484  10483  10495  18807     1  0.0000000  0.0000000  3
  10484  10483  10495  10496     1  0.0000000  0.6508444  3
  10484  10483  10495  10497     1  0.0000000  0.6508444  3
  10485  10483  10495  18807     1  0.0000000  1.0460000  1
  10485  10483  10495  18807     1  0.0000000  0.0000000  3
  10485  10483  10495  10496     1  0.0000000  0.6508444  3
  10485  10483  10495  10497     1  0.0000000  0.6508444  3
  10486  10474  10470  10499     1  0.0000000  0.6508444  3
  10487  10486  10492  18784     1  0.0000000  1.0460000  1
  10487  10486  10492  18784     1  0.0000000  0.0000000  3
  10487  10486  10492  10493     1  0.0000000  0.6508444  3
  10487  10486  10492  10494     1  0.0000000  0.6508444  3
  10488  10486  10492  18784     1  0.0000000  1.0460000  1
  10488  10486  10492  18784     1  0.0000000  0.0000000  3
  10488  10486  10492  10493     1  0.0000000  0.6508444  3
  10488  10486  10492  10494     1  0.0000000  0.6508444  3
  10492  18784  18780  18783     1  0.0000000  1.6038667  3
  10493  10492  18784  18780     1  0.0000000  1.6038667  3
  10494  10492  18784  18780     1  0.0000000  1.6038667  3
  10495  18807  18803  18806     1  0.0000000  1.6038667  3
  10496  10495  18807  18803     1  0.0000000  1.6038667  3
  10497  10495  18807  18803     1  0.0000000  1.6038667  3
  10500  10501  10513  10514     1  0.0000000  0.6508444  3
  10500  10501  10513  10515     1  0.0000000  0.6508444  3
  10500  10504  10516  10517     1  0.0000000  0.6508444  3
  10500  10504  10516  10518     1  0.0000000  0.6508444  3
  10500  10507  10510  10511     1  0.0000000  0.6508444  3
  10500  10507  10510  10512     1  0.0000000  0.6508444  3
  10501  10500  10504  10505     1  0.0000000  0.6508444  3
  10501  10500  10504  10506     1  0.0000000  0.6508444  3
  10501  10500  10507  10508     1  0.0000000  0.6508444  3
  10501  10500  10507  10509     1  0.0000000  0.6508444  3
  10501  10513  10525  10526     1  0.0000000  0.6508444  3
  10501  10513  10525  10527     1  0.0000000  0.6508444  3
  10502  10501  10500  10504     1  0.0000000  0.6508444  3
  10502  10501  10500  10507     1  0.0000000  0.6508444  3
  10502  10501  10500  10529     1  0.0000000  0.6508444  3
  10502  10501  10513  10525     1  0.0000000  0.6508444  3
  10502  10501  10513  10514     1  0.0000000  0.6508444  3
  10502  10501  10513  10515     1  0.0000000  0.6508444  3
  10503  10501  10500  10504     1  0.0000000  0.6508444  3
  10503  10501  10500  10507     1  0.0000000  0.6508444  3
  10503  10501  10500  10529     1  0.0000000  0.6508444  3
  10503  10501  10513  10525     1  0.0000000  0.6508444  3
  10503  10501  10513  10514     1  0.0000000  0.6508444  3
  10503  10501  10513  10515     1  0.0000000  0.6508444  3
  10504  10500  10507  10508     1  0.0000000  0.6508444  3
  10504  10500  10507  10509     1  0.0000000  0.6508444  3
  10504  10516  10522  10523     1  0.0000000  0.6508444  3
  10504  10516  10522  10524     1  0.0000000  0.6508444  3
  10505  10504  10500  10507     1  0.0000000  0.6508444  3
  10505  10504  10500  10529     1  0.0000000  0.6508444  3
  10505  10504  10516  10522     1  0.0000000  0.6508444  3
  10505  10504  10516  10517     1  0.0000000  0.6508444  3
  10505  10504  10516  10518     1  0.0000000  0.6508444  3
  10506  10504  10500  10507     1  0.0000000  0.6508444  3
  10506  10504  10500  10529     1  0.0000000  0.6508444  3
  10506  10504  10516  10522     1  0.0000000  0.6508444  3
  10506  10504  10516  10517     1  0.0000000  0.6508444  3
  10506  10504  10516  10518     1  0.0000000  0.6508444  3
  10507  10510  10519  10520     1  0.0000000  0.6508444  3
  10507  10510  10519  10521     1  0.0000000  0.6508444  3
  10508  10507  10500  10529     1  0.0000000  0.6508444  3
  10508  10507  10510  10519     1  0.0000000  0.6508444  3
  10508  10507  10510  10511     1  0.0000000  0.6508444  3
  10508  10507  10510  10512     1  0.0000000  0.6508444  3
  10509  10507  10500  10529     1  0.0000000  0.6508444  3
  10509  10507  10510  10519     1  0.0000000  0.6508444  3
  10509  10507  10510  10511     1  0.0000000  0.6508444  3
  10509  10507  10510  10512     1  0.0000000  0.6508444  3
  10510  10507  10500  10529     1  0.0000000  0.6508444  3
  10511  10510  10519  10528     1  0.0000000  1.0460000  1
  10511  10510  10519  10528     1  0.0000000  0.0000000  3
  10511  10510  10519  10520     1  0.0000000  0.6508444  3
  10511  10510  10519  10521     1  0.0000000  0.6508444  3
  10512  10510  10519  10528     1  0.0000000  1.0460000  1
  10512  10510  10519  10528     1  0.0000000  0.0000000  3
  10512  10510  10519  10520     1  0.0000000  0.6508444  3
  10512  10510  10519  10521     1  0.0000000  0.6508444  3
  10513  10501  10500  10529     1  0.0000000  0.6508444  3
  10514  10513  10525  18853     1  0.0000000  1.0460000  1
  10514  10513  10525  18853     1  0.0000000  0.0000000  3
  10514  10513  10525  10526     1  0.0000000  0.6508444  3
  10514  10513  10525  10527     1  0.0000000  0.6508444  3
  10515  10513  10525  18853     1  0.0000000  1.0460000  1
  10515  10513  10525  18853     1  0.0000000  0.0000000  3
  10515  10513  10525  10526     1  0.0000000  0.6508444  3
  10515  10513  10525  10527     1  0.0000000  0.6508444  3
  10516  10504  10500  10529     1  0.0000000  0.6508444  3
  10517  10516  10522  18830     1  0.0000000  1.0460000  1
  10517  10516  10522  18830     1  0.0000000  0.0000000  3
  10517  10516  10522  10523     1  0.0000000  0.6508444  3
  10517  10516  10522  10524     1  0.0000000  0.6508444  3
  10518  10516  10522  18830     1  0.0000000  1.0460000  1
  10518  10516  10522  18830     1  0.0000000  0.0000000  3
  10518  10516  10522  10523     1  0.0000000  0.6508444  3
  10518  10516  10522  10524     1  0.0000000  0.6508444  3
  10522  18830  18826  18829     1  0.0000000  1.6038667  3
  10523  10522  18830  18826     1  0.0000000  1.6038667  3
  10524  10522  18830  18826     1  0.0000000  1.6038667  3
  10525  18853  18849  18852     1  0.0000000  1.6038667  3
  10526  10525  18853  18849     1  0.0000000  1.6038667  3
  10527  10525  18853  18849     1  0.0000000  1.6038667  3
  10530  10531  10543  10544     1  0.0000000  0.6508444  3
  10530  10531  10543  10545     1  0.0000000  0.6508444  3
  10530  10534  10546  10547     1  0.0000000  0.6508444  3
  10530  10534  10546  10548     1  0.0000000  0.6508444  3
  10530  10537  10540  10541     1  0.0000000  0.6508444  3
  10530  10537  10540  10542     1  0.0000000  0.6508444  3
  10531  10530  10534  10535     1  0.0000000  0.6508444  3
  10531  10530  10534  10536     1  0.0000000  0.6508444  3
  10531  10530  10537  10538     1  0.0000000  0.6508444  3
  10531  10530  10537  10539     1  0.0000000  0.6508444  3
  10531  10543  10555  10556     1  0.0000000  0.6508444  3
  10531  10543  10555  10557     1  0.0000000  0.6508444  3
  10532  10531  10530  10534     1  0.0000000  0.6508444  3
  10532  10531  10530  10537     1  0.0000000  0.6508444  3
  10532  10531  10530  10559     1  0.0000000  0.6508444  3
  10532  10531  10543  10555     1  0.0000000  0.6508444  3
  10532  10531  10543  10544     1  0.0000000  0.6508444  3
  10532  10531  10543  10545     1  0.0000000  0.6508444  3
  10533  10531  10530  10534     1  0.0000000  0.6508444  3
  10533  10531  10530  10537     1  0.0000000  0.6508444  3
  10533  10531  10530  10559     1  0.0000000  0.6508444  3
  10533  10531  10543  10555     1  0.0000000  0.6508444  3
  10533  10531  10543  10544     1  0.0000000  0.6508444  3
  10533  10531  10543  10545     1  0.0000000  0.6508444  3
  10534  10530  10537  10538     1  0.0000000  0.6508444  3
  10534  10530  10537  10539     1  0.0000000  0.6508444  3
  10534  10546  10552  10553     1  0.0000000  0.6508444  3
  10534  10546  10552  10554     1  0.0000000  0.6508444  3
  10535  10534  10530  10537     1  0.0000000  0.6508444  3
  10535  10534  10530  10559     1  0.0000000  0.6508444  3
  10535  10534  10546  10552     1  0.0000000  0.6508444  3
  10535  10534  10546  10547     1  0.0000000  0.6508444  3
  10535  10534  10546  10548     1  0.0000000  0.6508444  3
  10536  10534  10530  10537     1  0.0000000  0.6508444  3
  10536  10534  10530  10559     1  0.0000000  0.6508444  3
  10536  10534  10546  10552     1  0.0000000  0.6508444  3
  10536  10534  10546  10547     1  0.0000000  0.6508444  3
  10536  10534  10546  10548     1  0.0000000  0.6508444  3
  10537  10540  10549  10550     1  0.0000000  0.6508444  3
  10537  10540  10549  10551     1  0.0000000  0.6508444  3
  10538  10537  10530  10559     1  0.0000000  0.6508444  3
  10538  10537  10540  10549     1  0.0000000  0.6508444  3
  10538  10537  10540  10541     1  0.0000000  0.6508444  3
  10538  10537  10540  10542     1  0.0000000  0.6508444  3
  10539  10537  10530  10559     1  0.0000000  0.6508444  3
  10539  10537  10540  10549     1  0.0000000  0.6508444  3
  10539  10537  10540  10541     1  0.0000000  0.6508444  3
  10539  10537  10540  10542     1  0.0000000  0.6508444  3
  10540  10537  10530  10559     1  0.0000000  0.6508444  3
  10541  10540  10549  10558     1  0.0000000  1.0460000  1
  10541  10540  10549  10558     1  0.0000000  0.0000000  3
  10541  10540  10549  10550     1  0.0000000  0.6508444  3
  10541  10540  10549  10551     1  0.0000000  0.6508444  3
  10542  10540  10549  10558     1  0.0000000  1.0460000  1
  10542  10540  10549  10558     1  0.0000000  0.0000000  3
  10542  10540  10549  10550     1  0.0000000  0.6508444  3
  10542  10540  10549  10551     1  0.0000000  0.6508444  3
  10543  10531  10530  10559     1  0.0000000  0.6508444  3
  10544  10543  10555  18899     1  0.0000000  1.0460000  1
  10544  10543  10555  18899     1  0.0000000  0.0000000  3
  10544  10543  10555  10556     1  0.0000000  0.6508444  3
  10544  10543  10555  10557     1  0.0000000  0.6508444  3
  10545  10543  10555  18899     1  0.0000000  1.0460000  1
  10545  10543  10555  18899     1  0.0000000  0.0000000  3
  10545  10543  10555  10556     1  0.0000000  0.6508444  3
  10545  10543  10555  10557     1  0.0000000  0.6508444  3
  10546  10534  10530  10559     1  0.0000000  0.6508444  3
  10547  10546  10552  18876     1  0.0000000  1.0460000  1
  10547  10546  10552  18876     1  0.0000000  0.0000000  3
  10547  10546  10552  10553     1  0.0000000  0.6508444  3
  10547  10546  10552  10554     1  0.0000000  0.6508444  3
  10548  10546  10552  18876     1  0.0000000  1.0460000  1
  10548  10546  10552  18876     1  0.0000000  0.0000000  3
  10548  10546  10552  10553     1  0.0000000  0.6508444  3
  10548  10546  10552  10554     1  0.0000000  0.6508444  3
  10552  18876  18872  18875     1  0.0000000  1.6038667  3
  10553  10552  18876  18872     1  0.0000000  1.6038667  3
  10554  10552  18876  18872     1  0.0000000  1.6038667  3
  10555  18899  18895  18898     1  0.0000000  1.6038667  3
  10556  10555  18899  18895     1  0.0000000  1.6038667  3
  10557  10555  18899  18895     1  0.0000000  1.6038667  3
  10560  10561  10573  10574     1  0.0000000  0.6508444  3
  10560  10561  10573  10575     1  0.0000000  0.6508444  3
  10560  10564  10576  10577     1  0.0000000  0.6508444  3
  10560  10564  10576  10578     1  0.0000000  0.6508444  3
  10560  10567  10570  10571     1  0.0000000  0.6508444  3
  10560  10567  10570  10572     1  0.0000000  0.6508444  3
  10561  10560  10564  10565     1  0.0000000  0.6508444  3
  10561  10560  10564  10566     1  0.0000000  0.6508444  3
  10561  10560  10567  10568     1  0.0000000  0.6508444  3
  10561  10560  10567  10569     1  0.0000000  0.6508444  3
  10561  10573  10585  10586     1  0.0000000  0.6508444  3
  10561  10573  10585  10587     1  0.0000000  0.6508444  3
  10562  10561  10560  10564     1  0.0000000  0.6508444  3
  10562  10561  10560  10567     1  0.0000000  0.6508444  3
  10562  10561  10560  10589     1  0.0000000  0.6508444  3
  10562  10561  10573  10585     1  0.0000000  0.6508444  3
  10562  10561  10573  10574     1  0.0000000  0.6508444  3
  10562  10561  10573  10575     1  0.0000000  0.6508444  3
  10563  10561  10560  10564     1  0.0000000  0.6508444  3
  10563  10561  10560  10567     1  0.0000000  0.6508444  3
  10563  10561  10560  10589     1  0.0000000  0.6508444  3
  10563  10561  10573  10585     1  0.0000000  0.6508444  3
  10563  10561  10573  10574     1  0.0000000  0.6508444  3
  10563  10561  10573  10575     1  0.0000000  0.6508444  3
  10564  10560  10567  10568     1  0.0000000  0.6508444  3
  10564  10560  10567  10569     1  0.0000000  0.6508444  3
  10564  10576  10582  10583     1  0.0000000  0.6508444  3
  10564  10576  10582  10584     1  0.0000000  0.6508444  3
  10565  10564  10560  10567     1  0.0000000  0.6508444  3
  10565  10564  10560  10589     1  0.0000000  0.6508444  3
  10565  10564  10576  10582     1  0.0000000  0.6508444  3
  10565  10564  10576  10577     1  0.0000000  0.6508444  3
  10565  10564  10576  10578     1  0.0000000  0.6508444  3
  10566  10564  10560  10567     1  0.0000000  0.6508444  3
  10566  10564  10560  10589     1  0.0000000  0.6508444  3
  10566  10564  10576  10582     1  0.0000000  0.6508444  3
  10566  10564  10576  10577     1  0.0000000  0.6508444  3
  10566  10564  10576  10578     1  0.0000000  0.6508444  3
  10567  10570  10579  10580     1  0.0000000  0.6508444  3
  10567  10570  10579  10581     1  0.0000000  0.6508444  3
  10568  10567  10560  10589     1  0.0000000  0.6508444  3
  10568  10567  10570  10579     1  0.0000000  0.6508444  3
  10568  10567  10570  10571     1  0.0000000  0.6508444  3
  10568  10567  10570  10572     1  0.0000000  0.6508444  3
  10569  10567  10560  10589     1  0.0000000  0.6508444  3
  10569  10567  10570  10579     1  0.0000000  0.6508444  3
  10569  10567  10570  10571     1  0.0000000  0.6508444  3
  10569  10567  10570  10572     1  0.0000000  0.6508444  3
  10570  10567  10560  10589     1  0.0000000  0.6508444  3
  10571  10570  10579  10588     1  0.0000000  1.0460000  1
  10571  10570  10579  10588     1  0.0000000  0.0000000  3
  10571  10570  10579  10580     1  0.0000000  0.6508444  3
  10571  10570  10579  10581     1  0.0000000  0.6508444  3
  10572  10570  10579  10588     1  0.0000000  1.0460000  1
  10572  10570  10579  10588     1  0.0000000  0.0000000  3
  10572  10570  10579  10580     1  0.0000000  0.6508444  3
  10572  10570  10579  10581     1  0.0000000  0.6508444  3
  10573  10561  10560  10589     1  0.0000000  0.6508444  3
  10574  10573  10585  18945     1  0.0000000  1.0460000  1
  10574  10573  10585  18945     1  0.0000000  0.0000000  3
  10574  10573  10585  10586     1  0.0000000  0.6508444  3
  10574  10573  10585  10587     1  0.0000000  0.6508444  3
  10575  10573  10585  18945     1  0.0000000  1.0460000  1
  10575  10573  10585  18945     1  0.0000000  0.0000000  3
  10575  10573  10585  10586     1  0.0000000  0.6508444  3
  10575  10573  10585  10587     1  0.0000000  0.6508444  3
  10576  10564  10560  10589     1  0.0000000  0.6508444  3
  10577  10576  10582  18922     1  0.0000000  1.0460000  1
  10577  10576  10582  18922     1  0.0000000  0.0000000  3
  10577  10576  10582  10583     1  0.0000000  0.6508444  3
  10577  10576  10582  10584     1  0.0000000  0.6508444  3
  10578  10576  10582  18922     1  0.0000000  1.0460000  1
  10578  10576  10582  18922     1  0.0000000  0.0000000  3
  10578  10576  10582  10583     1  0.0000000  0.6508444  3
  10578  10576  10582  10584     1  0.0000000  0.6508444  3
  10582  18922  18918  18921     1  0.0000000  1.6038667  3
  10583  10582  18922  18918     1  0.0000000  1.6038667  3
  10584  10582  18922  18918     1  0.0000000  1.6038667  3
  10585  18945  18941  18944     1  0.0000000  1.6038667  3
  10586  10585  18945  18941     1  0.0000000  1.6038667  3
  10587  10585  18945  18941     1  0.0000000  1.6038667  3
  10590  10591  10603  10604     1  0.0000000  0.6508444  3
  10590  10591  10603  10605     1  0.0000000  0.6508444  3
  10590  10594  10606  10607     1  0.0000000  0.6508444  3
  10590  10594  10606  10608     1  0.0000000  0.6508444  3
  10590  10597  10600  10601     1  0.0000000  0.6508444  3
  10590  10597  10600  10602     1  0.0000000  0.6508444  3
  10591  10590  10594  10595     1  0.0000000  0.6508444  3
  10591  10590  10594  10596     1  0.0000000  0.6508444  3
  10591  10590  10597  10598     1  0.0000000  0.6508444  3
  10591  10590  10597  10599     1  0.0000000  0.6508444  3
  10591  10603  10615  10616     1  0.0000000  0.6508444  3
  10591  10603  10615  10617     1  0.0000000  0.6508444  3
  10592  10591  10590  10594     1  0.0000000  0.6508444  3
  10592  10591  10590  10597     1  0.0000000  0.6508444  3
  10592  10591  10590  10619     1  0.0000000  0.6508444  3
  10592  10591  10603  10615     1  0.0000000  0.6508444  3
  10592  10591  10603  10604     1  0.0000000  0.6508444  3
  10592  10591  10603  10605     1  0.0000000  0.6508444  3
  10593  10591  10590  10594     1  0.0000000  0.6508444  3
  10593  10591  10590  10597     1  0.0000000  0.6508444  3
  10593  10591  10590  10619     1  0.0000000  0.6508444  3
  10593  10591  10603  10615     1  0.0000000  0.6508444  3
  10593  10591  10603  10604     1  0.0000000  0.6508444  3
  10593  10591  10603  10605     1  0.0000000  0.6508444  3
  10594  10590  10597  10598     1  0.0000000  0.6508444  3
  10594  10590  10597  10599     1  0.0000000  0.6508444  3
  10594  10606  10612  10613     1  0.0000000  0.6508444  3
  10594  10606  10612  10614     1  0.0000000  0.6508444  3
  10595  10594  10590  10597     1  0.0000000  0.6508444  3
  10595  10594  10590  10619     1  0.0000000  0.6508444  3
  10595  10594  10606  10612     1  0.0000000  0.6508444  3
  10595  10594  10606  10607     1  0.0000000  0.6508444  3
  10595  10594  10606  10608     1  0.0000000  0.6508444  3
  10596  10594  10590  10597     1  0.0000000  0.6508444  3
  10596  10594  10590  10619     1  0.0000000  0.6508444  3
  10596  10594  10606  10612     1  0.0000000  0.6508444  3
  10596  10594  10606  10607     1  0.0000000  0.6508444  3
  10596  10594  10606  10608     1  0.0000000  0.6508444  3
  10597  10600  10609  10610     1  0.0000000  0.6508444  3
  10597  10600  10609  10611     1  0.0000000  0.6508444  3
  10598  10597  10590  10619     1  0.0000000  0.6508444  3
  10598  10597  10600  10609     1  0.0000000  0.6508444  3
  10598  10597  10600  10601     1  0.0000000  0.6508444  3
  10598  10597  10600  10602     1  0.0000000  0.6508444  3
  10599  10597  10590  10619     1  0.0000000  0.6508444  3
  10599  10597  10600  10609     1  0.0000000  0.6508444  3
  10599  10597  10600  10601     1  0.0000000  0.6508444  3
  10599  10597  10600  10602     1  0.0000000  0.6508444  3
  10600  10597  10590  10619     1  0.0000000  0.6508444  3
  10601  10600  10609  10618     1  0.0000000  1.0460000  1
  10601  10600  10609  10618     1  0.0000000  0.0000000  3
  10601  10600  10609  10610     1  0.0000000  0.6508444  3
  10601  10600  10609  10611     1  0.0000000  0.6508444  3
  10602  10600  10609  10618     1  0.0000000  1.0460000  1
  10602  10600  10609  10618     1  0.0000000  0.0000000  3
  10602  10600  10609  10610     1  0.0000000  0.6508444  3
  10602  10600  10609  10611     1  0.0000000  0.6508444  3
  10603  10591  10590  10619     1  0.0000000  0.6508444  3
  10604  10603  10615  18991     1  0.0000000  1.0460000  1
  10604  10603  10615  18991     1  0.0000000  0.0000000  3
  10604  10603  10615  10616     1  0.0000000  0.6508444  3
  10604  10603  10615  10617     1  0.0000000  0.6508444  3
  10605  10603  10615  18991     1  0.0000000  1.0460000  1
  10605  10603  10615  18991     1  0.0000000  0.0000000  3
  10605  10603  10615  10616     1  0.0000000  0.6508444  3
  10605  10603  10615  10617     1  0.0000000  0.6508444  3
  10606  10594  10590  10619     1  0.0000000  0.6508444  3
  10607  10606  10612  18968     1  0.0000000  1.0460000  1
  10607  10606  10612  18968     1  0.0000000  0.0000000  3
  10607  10606  10612  10613     1  0.0000000  0.6508444  3
  10607  10606  10612  10614     1  0.0000000  0.6508444  3
  10608  10606  10612  18968     1  0.0000000  1.0460000  1
  10608  10606  10612  18968     1  0.0000000  0.0000000  3
  10608  10606  10612  10613     1  0.0000000  0.6508444  3
  10608  10606  10612  10614     1  0.0000000  0.6508444  3
  10612  18968  18964  18967     1  0.0000000  1.6038667  3
  10613  10612  18968  18964     1  0.0000000  1.6038667  3
  10614  10612  18968  18964     1  0.0000000  1.6038667  3
  10615  18991  18987  18990     1  0.0000000  1.6038667  3
  10616  10615  18991  18987     1  0.0000000  1.6038667  3
  10617  10615  18991  18987     1  0.0000000  1.6038667  3
  10620  10621  10633  10634     1  0.0000000  0.6508444  3
  10620  10621  10633  10635     1  0.0000000  0.6508444  3
  10620  10624  10636  10637     1  0.0000000  0.6508444  3
  10620  10624  10636  10638     1  0.0000000  0.6508444  3
  10620  10627  10630  10631     1  0.0000000  0.6508444  3
  10620  10627  10630  10632     1  0.0000000  0.6508444  3
  10621  10620  10624  10625     1  0.0000000  0.6508444  3
  10621  10620  10624  10626     1  0.0000000  0.6508444  3
  10621  10620  10627  10628     1  0.0000000  0.6508444  3
  10621  10620  10627  10629     1  0.0000000  0.6508444  3
  10621  10633  10645  10646     1  0.0000000  0.6508444  3
  10621  10633  10645  10647     1  0.0000000  0.6508444  3
  10622  10621  10620  10624     1  0.0000000  0.6508444  3
  10622  10621  10620  10627     1  0.0000000  0.6508444  3
  10622  10621  10620  10649     1  0.0000000  0.6508444  3
  10622  10621  10633  10645     1  0.0000000  0.6508444  3
  10622  10621  10633  10634     1  0.0000000  0.6508444  3
  10622  10621  10633  10635     1  0.0000000  0.6508444  3
  10623  10621  10620  10624     1  0.0000000  0.6508444  3
  10623  10621  10620  10627     1  0.0000000  0.6508444  3
  10623  10621  10620  10649     1  0.0000000  0.6508444  3
  10623  10621  10633  10645     1  0.0000000  0.6508444  3
  10623  10621  10633  10634     1  0.0000000  0.6508444  3
  10623  10621  10633  10635     1  0.0000000  0.6508444  3
  10624  10620  10627  10628     1  0.0000000  0.6508444  3
  10624  10620  10627  10629     1  0.0000000  0.6508444  3
  10624  10636  10642  10643     1  0.0000000  0.6508444  3
  10624  10636  10642  10644     1  0.0000000  0.6508444  3
  10625  10624  10620  10627     1  0.0000000  0.6508444  3
  10625  10624  10620  10649     1  0.0000000  0.6508444  3
  10625  10624  10636  10642     1  0.0000000  0.6508444  3
  10625  10624  10636  10637     1  0.0000000  0.6508444  3
  10625  10624  10636  10638     1  0.0000000  0.6508444  3
  10626  10624  10620  10627     1  0.0000000  0.6508444  3
  10626  10624  10620  10649     1  0.0000000  0.6508444  3
  10626  10624  10636  10642     1  0.0000000  0.6508444  3
  10626  10624  10636  10637     1  0.0000000  0.6508444  3
  10626  10624  10636  10638     1  0.0000000  0.6508444  3
  10627  10630  10639  10640     1  0.0000000  0.6508444  3
  10627  10630  10639  10641     1  0.0000000  0.6508444  3
  10628  10627  10620  10649     1  0.0000000  0.6508444  3
  10628  10627  10630  10639     1  0.0000000  0.6508444  3
  10628  10627  10630  10631     1  0.0000000  0.6508444  3
  10628  10627  10630  10632     1  0.0000000  0.6508444  3
  10629  10627  10620  10649     1  0.0000000  0.6508444  3
  10629  10627  10630  10639     1  0.0000000  0.6508444  3
  10629  10627  10630  10631     1  0.0000000  0.6508444  3
  10629  10627  10630  10632     1  0.0000000  0.6508444  3
  10630  10627  10620  10649     1  0.0000000  0.6508444  3
  10631  10630  10639  10648     1  0.0000000  1.0460000  1
  10631  10630  10639  10648     1  0.0000000  0.0000000  3
  10631  10630  10639  10640     1  0.0000000  0.6508444  3
  10631  10630  10639  10641     1  0.0000000  0.6508444  3
  10632  10630  10639  10648     1  0.0000000  1.0460000  1
  10632  10630  10639  10648     1  0.0000000  0.0000000  3
  10632  10630  10639  10640     1  0.0000000  0.6508444  3
  10632  10630  10639  10641     1  0.0000000  0.6508444  3
  10633  10621  10620  10649     1  0.0000000  0.6508444  3
  10634  10633  10645  19037     1  0.0000000  1.0460000  1
  10634  10633  10645  19037     1  0.0000000  0.0000000  3
  10634  10633  10645  10646     1  0.0000000  0.6508444  3
  10634  10633  10645  10647     1  0.0000000  0.6508444  3
  10635  10633  10645  19037     1  0.0000000  1.0460000  1
  10635  10633  10645  19037     1  0.0000000  0.0000000  3
  10635  10633  10645  10646     1  0.0000000  0.6508444  3
  10635  10633  10645  10647     1  0.0000000  0.6508444  3
  10636  10624  10620  10649     1  0.0000000  0.6508444  3
  10637  10636  10642  19014     1  0.0000000  1.0460000  1
  10637  10636  10642  19014     1  0.0000000  0.0000000  3
  10637  10636  10642  10643     1  0.0000000  0.6508444  3
  10637  10636  10642  10644     1  0.0000000  0.6508444  3
  10638  10636  10642  19014     1  0.0000000  1.0460000  1
  10638  10636  10642  19014     1  0.0000000  0.0000000  3
  10638  10636  10642  10643     1  0.0000000  0.6508444  3
  10638  10636  10642  10644     1  0.0000000  0.6508444  3
  10642  19014  19010  19013     1  0.0000000  1.6038667  3
  10643  10642  19014  19010     1  0.0000000  1.6038667  3
  10644  10642  19014  19010     1  0.0000000  1.6038667  3
  10645  19037  19033  19036     1  0.0000000  1.6038667  3
  10646  10645  19037  19033     1  0.0000000  1.6038667  3
  10647  10645  19037  19033     1  0.0000000  1.6038667  3
  10650  10651  10663  10664     1  0.0000000  0.6508444  3
  10650  10651  10663  10665     1  0.0000000  0.6508444  3
  10650  10654  10666  10667     1  0.0000000  0.6508444  3
  10650  10654  10666  10668     1  0.0000000  0.6508444  3
  10650  10657  10660  10661     1  0.0000000  0.6508444  3
  10650  10657  10660  10662     1  0.0000000  0.6508444  3
  10651  10650  10654  10655     1  0.0000000  0.6508444  3
  10651  10650  10654  10656     1  0.0000000  0.6508444  3
  10651  10650  10657  10658     1  0.0000000  0.6508444  3
  10651  10650  10657  10659     1  0.0000000  0.6508444  3
  10651  10663  10675  10676     1  0.0000000  0.6508444  3
  10651  10663  10675  10677     1  0.0000000  0.6508444  3
  10652  10651  10650  10654     1  0.0000000  0.6508444  3
  10652  10651  10650  10657     1  0.0000000  0.6508444  3
  10652  10651  10650  10679     1  0.0000000  0.6508444  3
  10652  10651  10663  10675     1  0.0000000  0.6508444  3
  10652  10651  10663  10664     1  0.0000000  0.6508444  3
  10652  10651  10663  10665     1  0.0000000  0.6508444  3
  10653  10651  10650  10654     1  0.0000000  0.6508444  3
  10653  10651  10650  10657     1  0.0000000  0.6508444  3
  10653  10651  10650  10679     1  0.0000000  0.6508444  3
  10653  10651  10663  10675     1  0.0000000  0.6508444  3
  10653  10651  10663  10664     1  0.0000000  0.6508444  3
  10653  10651  10663  10665     1  0.0000000  0.6508444  3
  10654  10650  10657  10658     1  0.0000000  0.6508444  3
  10654  10650  10657  10659     1  0.0000000  0.6508444  3
  10654  10666  10672  10673     1  0.0000000  0.6508444  3
  10654  10666  10672  10674     1  0.0000000  0.6508444  3
  10655  10654  10650  10657     1  0.0000000  0.6508444  3
  10655  10654  10650  10679     1  0.0000000  0.6508444  3
  10655  10654  10666  10672     1  0.0000000  0.6508444  3
  10655  10654  10666  10667     1  0.0000000  0.6508444  3
  10655  10654  10666  10668     1  0.0000000  0.6508444  3
  10656  10654  10650  10657     1  0.0000000  0.6508444  3
  10656  10654  10650  10679     1  0.0000000  0.6508444  3
  10656  10654  10666  10672     1  0.0000000  0.6508444  3
  10656  10654  10666  10667     1  0.0000000  0.6508444  3
  10656  10654  10666  10668     1  0.0000000  0.6508444  3
  10657  10660  10669  10670     1  0.0000000  0.6508444  3
  10657  10660  10669  10671     1  0.0000000  0.6508444  3
  10658  10657  10650  10679     1  0.0000000  0.6508444  3
  10658  10657  10660  10669     1  0.0000000  0.6508444  3
  10658  10657  10660  10661     1  0.0000000  0.6508444  3
  10658  10657  10660  10662     1  0.0000000  0.6508444  3
  10659  10657  10650  10679     1  0.0000000  0.6508444  3
  10659  10657  10660  10669     1  0.0000000  0.6508444  3
  10659  10657  10660  10661     1  0.0000000  0.6508444  3
  10659  10657  10660  10662     1  0.0000000  0.6508444  3
  10660  10657  10650  10679     1  0.0000000  0.6508444  3
  10661  10660  10669  10678     1  0.0000000  1.0460000  1
  10661  10660  10669  10678     1  0.0000000  0.0000000  3
  10661  10660  10669  10670     1  0.0000000  0.6508444  3
  10661  10660  10669  10671     1  0.0000000  0.6508444  3
  10662  10660  10669  10678     1  0.0000000  1.0460000  1
  10662  10660  10669  10678     1  0.0000000  0.0000000  3
  10662  10660  10669  10670     1  0.0000000  0.6508444  3
  10662  10660  10669  10671     1  0.0000000  0.6508444  3
  10663  10651  10650  10679     1  0.0000000  0.6508444  3
  10664  10663  10675  19083     1  0.0000000  1.0460000  1
  10664  10663  10675  19083     1  0.0000000  0.0000000  3
  10664  10663  10675  10676     1  0.0000000  0.6508444  3
  10664  10663  10675  10677     1  0.0000000  0.6508444  3
  10665  10663  10675  19083     1  0.0000000  1.0460000  1
  10665  10663  10675  19083     1  0.0000000  0.0000000  3
  10665  10663  10675  10676     1  0.0000000  0.6508444  3
  10665  10663  10675  10677     1  0.0000000  0.6508444  3
  10666  10654  10650  10679     1  0.0000000  0.6508444  3
  10667  10666  10672  19060     1  0.0000000  1.0460000  1
  10667  10666  10672  19060     1  0.0000000  0.0000000  3
  10667  10666  10672  10673     1  0.0000000  0.6508444  3
  10667  10666  10672  10674     1  0.0000000  0.6508444  3
  10668  10666  10672  19060     1  0.0000000  1.0460000  1
  10668  10666  10672  19060     1  0.0000000  0.0000000  3
  10668  10666  10672  10673     1  0.0000000  0.6508444  3
  10668  10666  10672  10674     1  0.0000000  0.6508444  3
  10672  19060  19056  19059     1  0.0000000  1.6038667  3
  10673  10672  19060  19056     1  0.0000000  1.6038667  3
  10674  10672  19060  19056     1  0.0000000  1.6038667  3
  10675  19083  19079  19082     1  0.0000000  1.6038667  3
  10676  10675  19083  19079     1  0.0000000  1.6038667  3
  10677  10675  19083  19079     1  0.0000000  1.6038667  3
  10680  10681  10693  10694     1  0.0000000  0.6508444  3
  10680  10681  10693  10695     1  0.0000000  0.6508444  3
  10680  10684  10696  10697     1  0.0000000  0.6508444  3
  10680  10684  10696  10698     1  0.0000000  0.6508444  3
  10680  10687  10690  10691     1  0.0000000  0.6508444  3
  10680  10687  10690  10692     1  0.0000000  0.6508444  3
  10681  10680  10684  10685     1  0.0000000  0.6508444  3
  10681  10680  10684  10686     1  0.0000000  0.6508444  3
  10681  10680  10687  10688     1  0.0000000  0.6508444  3
  10681  10680  10687  10689     1  0.0000000  0.6508444  3
  10681  10693  10705  10706     1  0.0000000  0.6508444  3
  10681  10693  10705  10707     1  0.0000000  0.6508444  3
  10682  10681  10680  10684     1  0.0000000  0.6508444  3
  10682  10681  10680  10687     1  0.0000000  0.6508444  3
  10682  10681  10680  10709     1  0.0000000  0.6508444  3
  10682  10681  10693  10705     1  0.0000000  0.6508444  3
  10682  10681  10693  10694     1  0.0000000  0.6508444  3
  10682  10681  10693  10695     1  0.0000000  0.6508444  3
  10683  10681  10680  10684     1  0.0000000  0.6508444  3
  10683  10681  10680  10687     1  0.0000000  0.6508444  3
  10683  10681  10680  10709     1  0.0000000  0.6508444  3
  10683  10681  10693  10705     1  0.0000000  0.6508444  3
  10683  10681  10693  10694     1  0.0000000  0.6508444  3
  10683  10681  10693  10695     1  0.0000000  0.6508444  3
  10684  10680  10687  10688     1  0.0000000  0.6508444  3
  10684  10680  10687  10689     1  0.0000000  0.6508444  3
  10684  10696  10702  10703     1  0.0000000  0.6508444  3
  10684  10696  10702  10704     1  0.0000000  0.6508444  3
  10685  10684  10680  10687     1  0.0000000  0.6508444  3
  10685  10684  10680  10709     1  0.0000000  0.6508444  3
  10685  10684  10696  10702     1  0.0000000  0.6508444  3
  10685  10684  10696  10697     1  0.0000000  0.6508444  3
  10685  10684  10696  10698     1  0.0000000  0.6508444  3
  10686  10684  10680  10687     1  0.0000000  0.6508444  3
  10686  10684  10680  10709     1  0.0000000  0.6508444  3
  10686  10684  10696  10702     1  0.0000000  0.6508444  3
  10686  10684  10696  10697     1  0.0000000  0.6508444  3
  10686  10684  10696  10698     1  0.0000000  0.6508444  3
  10687  10690  10699  10700     1  0.0000000  0.6508444  3
  10687  10690  10699  10701     1  0.0000000  0.6508444  3
  10688  10687  10680  10709     1  0.0000000  0.6508444  3
  10688  10687  10690  10699     1  0.0000000  0.6508444  3
  10688  10687  10690  10691     1  0.0000000  0.6508444  3
  10688  10687  10690  10692     1  0.0000000  0.6508444  3
  10689  10687  10680  10709     1  0.0000000  0.6508444  3
  10689  10687  10690  10699     1  0.0000000  0.6508444  3
  10689  10687  10690  10691     1  0.0000000  0.6508444  3
  10689  10687  10690  10692     1  0.0000000  0.6508444  3
  10690  10687  10680  10709     1  0.0000000  0.6508444  3
  10691  10690  10699  10708     1  0.0000000  1.0460000  1
  10691  10690  10699  10708     1  0.0000000  0.0000000  3
  10691  10690  10699  10700     1  0.0000000  0.6508444  3
  10691  10690  10699  10701     1  0.0000000  0.6508444  3
  10692  10690  10699  10708     1  0.0000000  1.0460000  1
  10692  10690  10699  10708     1  0.0000000  0.0000000  3
  10692  10690  10699  10700     1  0.0000000  0.6508444  3
  10692  10690  10699  10701     1  0.0000000  0.6508444  3
  10693  10681  10680  10709     1  0.0000000  0.6508444  3
  10694  10693  10705  19129     1  0.0000000  1.0460000  1
  10694  10693  10705  19129     1  0.0000000  0.0000000  3
  10694  10693  10705  10706     1  0.0000000  0.6508444  3
  10694  10693  10705  10707     1  0.0000000  0.6508444  3
  10695  10693  10705  19129     1  0.0000000  1.0460000  1
  10695  10693  10705  19129     1  0.0000000  0.0000000  3
  10695  10693  10705  10706     1  0.0000000  0.6508444  3
  10695  10693  10705  10707     1  0.0000000  0.6508444  3
  10696  10684  10680  10709     1  0.0000000  0.6508444  3
  10697  10696  10702  19106     1  0.0000000  1.0460000  1
  10697  10696  10702  19106     1  0.0000000  0.0000000  3
  10697  10696  10702  10703     1  0.0000000  0.6508444  3
  10697  10696  10702  10704     1  0.0000000  0.6508444  3
  10698  10696  10702  19106     1  0.0000000  1.0460000  1
  10698  10696  10702  19106     1  0.0000000  0.0000000  3
  10698  10696  10702  10703     1  0.0000000  0.6508444  3
  10698  10696  10702  10704     1  0.0000000  0.6508444  3
  10702  19106  19102  19105     1  0.0000000  1.6038667  3
  10703  10702  19106  19102     1  0.0000000  1.6038667  3
  10704  10702  19106  19102     1  0.0000000  1.6038667  3
  10705  19129  19125  19128     1  0.0000000  1.6038667  3
  10706  10705  19129  19125     1  0.0000000  1.6038667  3
  10707  10705  19129  19125     1  0.0000000  1.6038667  3
  10710  10711  10723  10724     1  0.0000000  0.6508444  3
  10710  10711  10723  10725     1  0.0000000  0.6508444  3
  10710  10714  10726  10727     1  0.0000000  0.6508444  3
  10710  10714  10726  10728     1  0.0000000  0.6508444  3
  10710  10717  10720  10721     1  0.0000000  0.6508444  3
  10710  10717  10720  10722     1  0.0000000  0.6508444  3
  10711  10710  10714  10715     1  0.0000000  0.6508444  3
  10711  10710  10714  10716     1  0.0000000  0.6508444  3
  10711  10710  10717  10718     1  0.0000000  0.6508444  3
  10711  10710  10717  10719     1  0.0000000  0.6508444  3
  10711  10723  10735  10736     1  0.0000000  0.6508444  3
  10711  10723  10735  10737     1  0.0000000  0.6508444  3
  10712  10711  10710  10714     1  0.0000000  0.6508444  3
  10712  10711  10710  10717     1  0.0000000  0.6508444  3
  10712  10711  10710  10739     1  0.0000000  0.6508444  3
  10712  10711  10723  10735     1  0.0000000  0.6508444  3
  10712  10711  10723  10724     1  0.0000000  0.6508444  3
  10712  10711  10723  10725     1  0.0000000  0.6508444  3
  10713  10711  10710  10714     1  0.0000000  0.6508444  3
  10713  10711  10710  10717     1  0.0000000  0.6508444  3
  10713  10711  10710  10739     1  0.0000000  0.6508444  3
  10713  10711  10723  10735     1  0.0000000  0.6508444  3
  10713  10711  10723  10724     1  0.0000000  0.6508444  3
  10713  10711  10723  10725     1  0.0000000  0.6508444  3
  10714  10710  10717  10718     1  0.0000000  0.6508444  3
  10714  10710  10717  10719     1  0.0000000  0.6508444  3
  10714  10726  10732  10733     1  0.0000000  0.6508444  3
  10714  10726  10732  10734     1  0.0000000  0.6508444  3
  10715  10714  10710  10717     1  0.0000000  0.6508444  3
  10715  10714  10710  10739     1  0.0000000  0.6508444  3
  10715  10714  10726  10732     1  0.0000000  0.6508444  3
  10715  10714  10726  10727     1  0.0000000  0.6508444  3
  10715  10714  10726  10728     1  0.0000000  0.6508444  3
  10716  10714  10710  10717     1  0.0000000  0.6508444  3
  10716  10714  10710  10739     1  0.0000000  0.6508444  3
  10716  10714  10726  10732     1  0.0000000  0.6508444  3
  10716  10714  10726  10727     1  0.0000000  0.6508444  3
  10716  10714  10726  10728     1  0.0000000  0.6508444  3
  10717  10720  10729  10730     1  0.0000000  0.6508444  3
  10717  10720  10729  10731     1  0.0000000  0.6508444  3
  10718  10717  10710  10739     1  0.0000000  0.6508444  3
  10718  10717  10720  10729     1  0.0000000  0.6508444  3
  10718  10717  10720  10721     1  0.0000000  0.6508444  3
  10718  10717  10720  10722     1  0.0000000  0.6508444  3
  10719  10717  10710  10739     1  0.0000000  0.6508444  3
  10719  10717  10720  10729     1  0.0000000  0.6508444  3
  10719  10717  10720  10721     1  0.0000000  0.6508444  3
  10719  10717  10720  10722     1  0.0000000  0.6508444  3
  10720  10717  10710  10739     1  0.0000000  0.6508444  3
  10721  10720  10729  10738     1  0.0000000  1.0460000  1
  10721  10720  10729  10738     1  0.0000000  0.0000000  3
  10721  10720  10729  10730     1  0.0000000  0.6508444  3
  10721  10720  10729  10731     1  0.0000000  0.6508444  3
  10722  10720  10729  10738     1  0.0000000  1.0460000  1
  10722  10720  10729  10738     1  0.0000000  0.0000000  3
  10722  10720  10729  10730     1  0.0000000  0.6508444  3
  10722  10720  10729  10731     1  0.0000000  0.6508444  3
  10723  10711  10710  10739     1  0.0000000  0.6508444  3
  10724  10723  10735  19175     1  0.0000000  1.0460000  1
  10724  10723  10735  19175     1  0.0000000  0.0000000  3
  10724  10723  10735  10736     1  0.0000000  0.6508444  3
  10724  10723  10735  10737     1  0.0000000  0.6508444  3
  10725  10723  10735  19175     1  0.0000000  1.0460000  1
  10725  10723  10735  19175     1  0.0000000  0.0000000  3
  10725  10723  10735  10736     1  0.0000000  0.6508444  3
  10725  10723  10735  10737     1  0.0000000  0.6508444  3
  10726  10714  10710  10739     1  0.0000000  0.6508444  3
  10727  10726  10732  19152     1  0.0000000  1.0460000  1
  10727  10726  10732  19152     1  0.0000000  0.0000000  3
  10727  10726  10732  10733     1  0.0000000  0.6508444  3
  10727  10726  10732  10734     1  0.0000000  0.6508444  3
  10728  10726  10732  19152     1  0.0000000  1.0460000  1
  10728  10726  10732  19152     1  0.0000000  0.0000000  3
  10728  10726  10732  10733     1  0.0000000  0.6508444  3
  10728  10726  10732  10734     1  0.0000000  0.6508444  3
  10732  19152  19148  19151     1  0.0000000  1.6038667  3
  10733  10732  19152  19148     1  0.0000000  1.6038667  3
  10734  10732  19152  19148     1  0.0000000  1.6038667  3
  10735  19175  19171  19174     1  0.0000000  1.6038667  3
  10736  10735  19175  19171     1  0.0000000  1.6038667  3
  10737  10735  19175  19171     1  0.0000000  1.6038667  3
  10740  10741  10753  10754     1  0.0000000  0.6508444  3
  10740  10741  10753  10755     1  0.0000000  0.6508444  3
  10740  10744  10756  10757     1  0.0000000  0.6508444  3
  10740  10744  10756  10758     1  0.0000000  0.6508444  3
  10740  10747  10750  10751     1  0.0000000  0.6508444  3
  10740  10747  10750  10752     1  0.0000000  0.6508444  3
  10741  10740  10744  10745     1  0.0000000  0.6508444  3
  10741  10740  10744  10746     1  0.0000000  0.6508444  3
  10741  10740  10747  10748     1  0.0000000  0.6508444  3
  10741  10740  10747  10749     1  0.0000000  0.6508444  3
  10741  10753  10765  10766     1  0.0000000  0.6508444  3
  10741  10753  10765  10767     1  0.0000000  0.6508444  3
  10742  10741  10740  10744     1  0.0000000  0.6508444  3
  10742  10741  10740  10747     1  0.0000000  0.6508444  3
  10742  10741  10740  10769     1  0.0000000  0.6508444  3
  10742  10741  10753  10765     1  0.0000000  0.6508444  3
  10742  10741  10753  10754     1  0.0000000  0.6508444  3
  10742  10741  10753  10755     1  0.0000000  0.6508444  3
  10743  10741  10740  10744     1  0.0000000  0.6508444  3
  10743  10741  10740  10747     1  0.0000000  0.6508444  3
  10743  10741  10740  10769     1  0.0000000  0.6508444  3
  10743  10741  10753  10765     1  0.0000000  0.6508444  3
  10743  10741  10753  10754     1  0.0000000  0.6508444  3
  10743  10741  10753  10755     1  0.0000000  0.6508444  3
  10744  10740  10747  10748     1  0.0000000  0.6508444  3
  10744  10740  10747  10749     1  0.0000000  0.6508444  3
  10744  10756  10762  10763     1  0.0000000  0.6508444  3
  10744  10756  10762  10764     1  0.0000000  0.6508444  3
  10745  10744  10740  10747     1  0.0000000  0.6508444  3
  10745  10744  10740  10769     1  0.0000000  0.6508444  3
  10745  10744  10756  10762     1  0.0000000  0.6508444  3
  10745  10744  10756  10757     1  0.0000000  0.6508444  3
  10745  10744  10756  10758     1  0.0000000  0.6508444  3
  10746  10744  10740  10747     1  0.0000000  0.6508444  3
  10746  10744  10740  10769     1  0.0000000  0.6508444  3
  10746  10744  10756  10762     1  0.0000000  0.6508444  3
  10746  10744  10756  10757     1  0.0000000  0.6508444  3
  10746  10744  10756  10758     1  0.0000000  0.6508444  3
  10747  10750  10759  10760     1  0.0000000  0.6508444  3
  10747  10750  10759  10761     1  0.0000000  0.6508444  3
  10748  10747  10740  10769     1  0.0000000  0.6508444  3
  10748  10747  10750  10759     1  0.0000000  0.6508444  3
  10748  10747  10750  10751     1  0.0000000  0.6508444  3
  10748  10747  10750  10752     1  0.0000000  0.6508444  3
  10749  10747  10740  10769     1  0.0000000  0.6508444  3
  10749  10747  10750  10759     1  0.0000000  0.6508444  3
  10749  10747  10750  10751     1  0.0000000  0.6508444  3
  10749  10747  10750  10752     1  0.0000000  0.6508444  3
  10750  10747  10740  10769     1  0.0000000  0.6508444  3
  10751  10750  10759  10768     1  0.0000000  1.0460000  1
  10751  10750  10759  10768     1  0.0000000  0.0000000  3
  10751  10750  10759  10760     1  0.0000000  0.6508444  3
  10751  10750  10759  10761     1  0.0000000  0.6508444  3
  10752  10750  10759  10768     1  0.0000000  1.0460000  1
  10752  10750  10759  10768     1  0.0000000  0.0000000  3
  10752  10750  10759  10760     1  0.0000000  0.6508444  3
  10752  10750  10759  10761     1  0.0000000  0.6508444  3
  10753  10741  10740  10769     1  0.0000000  0.6508444  3
  10754  10753  10765  19221     1  0.0000000  1.0460000  1
  10754  10753  10765  19221     1  0.0000000  0.0000000  3
  10754  10753  10765  10766     1  0.0000000  0.6508444  3
  10754  10753  10765  10767     1  0.0000000  0.6508444  3
  10755  10753  10765  19221     1  0.0000000  1.0460000  1
  10755  10753  10765  19221     1  0.0000000  0.0000000  3
  10755  10753  10765  10766     1  0.0000000  0.6508444  3
  10755  10753  10765  10767     1  0.0000000  0.6508444  3
  10756  10744  10740  10769     1  0.0000000  0.6508444  3
  10757  10756  10762  19198     1  0.0000000  1.0460000  1
  10757  10756  10762  19198     1  0.0000000  0.0000000  3
  10757  10756  10762  10763     1  0.0000000  0.6508444  3
  10757  10756  10762  10764     1  0.0000000  0.6508444  3
  10758  10756  10762  19198     1  0.0000000  1.0460000  1
  10758  10756  10762  19198     1  0.0000000  0.0000000  3
  10758  10756  10762  10763     1  0.0000000  0.6508444  3
  10758  10756  10762  10764     1  0.0000000  0.6508444  3
  10762  19198  19194  19197     1  0.0000000  1.6038667  3
  10763  10762  19198  19194     1  0.0000000  1.6038667  3
  10764  10762  19198  19194     1  0.0000000  1.6038667  3
  10765  19221  19217  19220     1  0.0000000  1.6038667  3
  10766  10765  19221  19217     1  0.0000000  1.6038667  3
  10767  10765  19221  19217     1  0.0000000  1.6038667  3
  10770  10771  10783  10784     1  0.0000000  0.6508444  3
  10770  10771  10783  10785     1  0.0000000  0.6508444  3
  10770  10774  10786  10787     1  0.0000000  0.6508444  3
  10770  10774  10786  10788     1  0.0000000  0.6508444  3
  10770  10777  10780  10781     1  0.0000000  0.6508444  3
  10770  10777  10780  10782     1  0.0000000  0.6508444  3
  10771  10770  10774  10775     1  0.0000000  0.6508444  3
  10771  10770  10774  10776     1  0.0000000  0.6508444  3
  10771  10770  10777  10778     1  0.0000000  0.6508444  3
  10771  10770  10777  10779     1  0.0000000  0.6508444  3
  10771  10783  10795  10796     1  0.0000000  0.6508444  3
  10771  10783  10795  10797     1  0.0000000  0.6508444  3
  10772  10771  10770  10774     1  0.0000000  0.6508444  3
  10772  10771  10770  10777     1  0.0000000  0.6508444  3
  10772  10771  10770  10799     1  0.0000000  0.6508444  3
  10772  10771  10783  10795     1  0.0000000  0.6508444  3
  10772  10771  10783  10784     1  0.0000000  0.6508444  3
  10772  10771  10783  10785     1  0.0000000  0.6508444  3
  10773  10771  10770  10774     1  0.0000000  0.6508444  3
  10773  10771  10770  10777     1  0.0000000  0.6508444  3
  10773  10771  10770  10799     1  0.0000000  0.6508444  3
  10773  10771  10783  10795     1  0.0000000  0.6508444  3
  10773  10771  10783  10784     1  0.0000000  0.6508444  3
  10773  10771  10783  10785     1  0.0000000  0.6508444  3
  10774  10770  10777  10778     1  0.0000000  0.6508444  3
  10774  10770  10777  10779     1  0.0000000  0.6508444  3
  10774  10786  10792  10793     1  0.0000000  0.6508444  3
  10774  10786  10792  10794     1  0.0000000  0.6508444  3
  10775  10774  10770  10777     1  0.0000000  0.6508444  3
  10775  10774  10770  10799     1  0.0000000  0.6508444  3
  10775  10774  10786  10792     1  0.0000000  0.6508444  3
  10775  10774  10786  10787     1  0.0000000  0.6508444  3
  10775  10774  10786  10788     1  0.0000000  0.6508444  3
  10776  10774  10770  10777     1  0.0000000  0.6508444  3
  10776  10774  10770  10799     1  0.0000000  0.6508444  3
  10776  10774  10786  10792     1  0.0000000  0.6508444  3
  10776  10774  10786  10787     1  0.0000000  0.6508444  3
  10776  10774  10786  10788     1  0.0000000  0.6508444  3
  10777  10780  10789  10790     1  0.0000000  0.6508444  3
  10777  10780  10789  10791     1  0.0000000  0.6508444  3
  10778  10777  10770  10799     1  0.0000000  0.6508444  3
  10778  10777  10780  10789     1  0.0000000  0.6508444  3
  10778  10777  10780  10781     1  0.0000000  0.6508444  3
  10778  10777  10780  10782     1  0.0000000  0.6508444  3
  10779  10777  10770  10799     1  0.0000000  0.6508444  3
  10779  10777  10780  10789     1  0.0000000  0.6508444  3
  10779  10777  10780  10781     1  0.0000000  0.6508444  3
  10779  10777  10780  10782     1  0.0000000  0.6508444  3
  10780  10777  10770  10799     1  0.0000000  0.6508444  3
  10781  10780  10789  10798     1  0.0000000  1.0460000  1
  10781  10780  10789  10798     1  0.0000000  0.0000000  3
  10781  10780  10789  10790     1  0.0000000  0.6508444  3
  10781  10780  10789  10791     1  0.0000000  0.6508444  3
  10782  10780  10789  10798     1  0.0000000  1.0460000  1
  10782  10780  10789  10798     1  0.0000000  0.0000000  3
  10782  10780  10789  10790     1  0.0000000  0.6508444  3
  10782  10780  10789  10791     1  0.0000000  0.6508444  3
  10783  10771  10770  10799     1  0.0000000  0.6508444  3
  10784  10783  10795  19267     1  0.0000000  1.0460000  1
  10784  10783  10795  19267     1  0.0000000  0.0000000  3
  10784  10783  10795  10796     1  0.0000000  0.6508444  3
  10784  10783  10795  10797     1  0.0000000  0.6508444  3
  10785  10783  10795  19267     1  0.0000000  1.0460000  1
  10785  10783  10795  19267     1  0.0000000  0.0000000  3
  10785  10783  10795  10796     1  0.0000000  0.6508444  3
  10785  10783  10795  10797     1  0.0000000  0.6508444  3
  10786  10774  10770  10799     1  0.0000000  0.6508444  3
  10787  10786  10792  19244     1  0.0000000  1.0460000  1
  10787  10786  10792  19244     1  0.0000000  0.0000000  3
  10787  10786  10792  10793     1  0.0000000  0.6508444  3
  10787  10786  10792  10794     1  0.0000000  0.6508444  3
  10788  10786  10792  19244     1  0.0000000  1.0460000  1
  10788  10786  10792  19244     1  0.0000000  0.0000000  3
  10788  10786  10792  10793     1  0.0000000  0.6508444  3
  10788  10786  10792  10794     1  0.0000000  0.6508444  3
  10792  19244  19240  19243     1  0.0000000  1.6038667  3
  10793  10792  19244  19240     1  0.0000000  1.6038667  3
  10794  10792  19244  19240     1  0.0000000  1.6038667  3
  10795  19267  19263  19266     1  0.0000000  1.6038667  3
  10796  10795  19267  19263     1  0.0000000  1.6038667  3
  10797  10795  19267  19263     1  0.0000000  1.6038667  3
  10800  10801  10813  10814     1  0.0000000  0.6508444  3
  10800  10801  10813  10815     1  0.0000000  0.6508444  3
  10800  10804  10816  10817     1  0.0000000  0.6508444  3
  10800  10804  10816  10818     1  0.0000000  0.6508444  3
  10800  10807  10810  10811     1  0.0000000  0.6508444  3
  10800  10807  10810  10812     1  0.0000000  0.6508444  3
  10801  10800  10804  10805     1  0.0000000  0.6508444  3
  10801  10800  10804  10806     1  0.0000000  0.6508444  3
  10801  10800  10807  10808     1  0.0000000  0.6508444  3
  10801  10800  10807  10809     1  0.0000000  0.6508444  3
  10801  10813  10825  10826     1  0.0000000  0.6508444  3
  10801  10813  10825  10827     1  0.0000000  0.6508444  3
  10802  10801  10800  10804     1  0.0000000  0.6508444  3
  10802  10801  10800  10807     1  0.0000000  0.6508444  3
  10802  10801  10800  10829     1  0.0000000  0.6508444  3
  10802  10801  10813  10825     1  0.0000000  0.6508444  3
  10802  10801  10813  10814     1  0.0000000  0.6508444  3
  10802  10801  10813  10815     1  0.0000000  0.6508444  3
  10803  10801  10800  10804     1  0.0000000  0.6508444  3
  10803  10801  10800  10807     1  0.0000000  0.6508444  3
  10803  10801  10800  10829     1  0.0000000  0.6508444  3
  10803  10801  10813  10825     1  0.0000000  0.6508444  3
  10803  10801  10813  10814     1  0.0000000  0.6508444  3
  10803  10801  10813  10815     1  0.0000000  0.6508444  3
  10804  10800  10807  10808     1  0.0000000  0.6508444  3
  10804  10800  10807  10809     1  0.0000000  0.6508444  3
  10804  10816  10822  10823     1  0.0000000  0.6508444  3
  10804  10816  10822  10824     1  0.0000000  0.6508444  3
  10805  10804  10800  10807     1  0.0000000  0.6508444  3
  10805  10804  10800  10829     1  0.0000000  0.6508444  3
  10805  10804  10816  10822     1  0.0000000  0.6508444  3
  10805  10804  10816  10817     1  0.0000000  0.6508444  3
  10805  10804  10816  10818     1  0.0000000  0.6508444  3
  10806  10804  10800  10807     1  0.0000000  0.6508444  3
  10806  10804  10800  10829     1  0.0000000  0.6508444  3
  10806  10804  10816  10822     1  0.0000000  0.6508444  3
  10806  10804  10816  10817     1  0.0000000  0.6508444  3
  10806  10804  10816  10818     1  0.0000000  0.6508444  3
  10807  10810  10819  10820     1  0.0000000  0.6508444  3
  10807  10810  10819  10821     1  0.0000000  0.6508444  3
  10808  10807  10800  10829     1  0.0000000  0.6508444  3
  10808  10807  10810  10819     1  0.0000000  0.6508444  3
  10808  10807  10810  10811     1  0.0000000  0.6508444  3
  10808  10807  10810  10812     1  0.0000000  0.6508444  3
  10809  10807  10800  10829     1  0.0000000  0.6508444  3
  10809  10807  10810  10819     1  0.0000000  0.6508444  3
  10809  10807  10810  10811     1  0.0000000  0.6508444  3
  10809  10807  10810  10812     1  0.0000000  0.6508444  3
  10810  10807  10800  10829     1  0.0000000  0.6508444  3
  10811  10810  10819  10828     1  0.0000000  1.0460000  1
  10811  10810  10819  10828     1  0.0000000  0.0000000  3
  10811  10810  10819  10820     1  0.0000000  0.6508444  3
  10811  10810  10819  10821     1  0.0000000  0.6508444  3
  10812  10810  10819  10828     1  0.0000000  1.0460000  1
  10812  10810  10819  10828     1  0.0000000  0.0000000  3
  10812  10810  10819  10820     1  0.0000000  0.6508444  3
  10812  10810  10819  10821     1  0.0000000  0.6508444  3
  10813  10801  10800  10829     1  0.0000000  0.6508444  3
  10814  10813  10825  19313     1  0.0000000  1.0460000  1
  10814  10813  10825  19313     1  0.0000000  0.0000000  3
  10814  10813  10825  10826     1  0.0000000  0.6508444  3
  10814  10813  10825  10827     1  0.0000000  0.6508444  3
  10815  10813  10825  19313     1  0.0000000  1.0460000  1
  10815  10813  10825  19313     1  0.0000000  0.0000000  3
  10815  10813  10825  10826     1  0.0000000  0.6508444  3
  10815  10813  10825  10827     1  0.0000000  0.6508444  3
  10816  10804  10800  10829     1  0.0000000  0.6508444  3
  10817  10816  10822  19290     1  0.0000000  1.0460000  1
  10817  10816  10822  19290     1  0.0000000  0.0000000  3
  10817  10816  10822  10823     1  0.0000000  0.6508444  3
  10817  10816  10822  10824     1  0.0000000  0.6508444  3
  10818  10816  10822  19290     1  0.0000000  1.0460000  1
  10818  10816  10822  19290     1  0.0000000  0.0000000  3
  10818  10816  10822  10823     1  0.0000000  0.6508444  3
  10818  10816  10822  10824     1  0.0000000  0.6508444  3
  10822  19290  19286  19289     1  0.0000000  1.6038667  3
  10823  10822  19290  19286     1  0.0000000  1.6038667  3
  10824  10822  19290  19286     1  0.0000000  1.6038667  3
  10825  19313  19309  19312     1  0.0000000  1.6038667  3
  10826  10825  19313  19309     1  0.0000000  1.6038667  3
  10827  10825  19313  19309     1  0.0000000  1.6038667  3
  10830  10831  10843  10844     1  0.0000000  0.6508444  3
  10830  10831  10843  10845     1  0.0000000  0.6508444  3
  10830  10834  10846  10847     1  0.0000000  0.6508444  3
  10830  10834  10846  10848     1  0.0000000  0.6508444  3
  10830  10837  10840  10841     1  0.0000000  0.6508444  3
  10830  10837  10840  10842     1  0.0000000  0.6508444  3
  10831  10830  10834  10835     1  0.0000000  0.6508444  3
  10831  10830  10834  10836     1  0.0000000  0.6508444  3
  10831  10830  10837  10838     1  0.0000000  0.6508444  3
  10831  10830  10837  10839     1  0.0000000  0.6508444  3
  10831  10843  10855  10856     1  0.0000000  0.6508444  3
  10831  10843  10855  10857     1  0.0000000  0.6508444  3
  10832  10831  10830  10834     1  0.0000000  0.6508444  3
  10832  10831  10830  10837     1  0.0000000  0.6508444  3
  10832  10831  10830  10859     1  0.0000000  0.6508444  3
  10832  10831  10843  10855     1  0.0000000  0.6508444  3
  10832  10831  10843  10844     1  0.0000000  0.6508444  3
  10832  10831  10843  10845     1  0.0000000  0.6508444  3
  10833  10831  10830  10834     1  0.0000000  0.6508444  3
  10833  10831  10830  10837     1  0.0000000  0.6508444  3
  10833  10831  10830  10859     1  0.0000000  0.6508444  3
  10833  10831  10843  10855     1  0.0000000  0.6508444  3
  10833  10831  10843  10844     1  0.0000000  0.6508444  3
  10833  10831  10843  10845     1  0.0000000  0.6508444  3
  10834  10830  10837  10838     1  0.0000000  0.6508444  3
  10834  10830  10837  10839     1  0.0000000  0.6508444  3
  10834  10846  10852  10853     1  0.0000000  0.6508444  3
  10834  10846  10852  10854     1  0.0000000  0.6508444  3
  10835  10834  10830  10837     1  0.0000000  0.6508444  3
  10835  10834  10830  10859     1  0.0000000  0.6508444  3
  10835  10834  10846  10852     1  0.0000000  0.6508444  3
  10835  10834  10846  10847     1  0.0000000  0.6508444  3
  10835  10834  10846  10848     1  0.0000000  0.6508444  3
  10836  10834  10830  10837     1  0.0000000  0.6508444  3
  10836  10834  10830  10859     1  0.0000000  0.6508444  3
  10836  10834  10846  10852     1  0.0000000  0.6508444  3
  10836  10834  10846  10847     1  0.0000000  0.6508444  3
  10836  10834  10846  10848     1  0.0000000  0.6508444  3
  10837  10840  10849  10850     1  0.0000000  0.6508444  3
  10837  10840  10849  10851     1  0.0000000  0.6508444  3
  10838  10837  10830  10859     1  0.0000000  0.6508444  3
  10838  10837  10840  10849     1  0.0000000  0.6508444  3
  10838  10837  10840  10841     1  0.0000000  0.6508444  3
  10838  10837  10840  10842     1  0.0000000  0.6508444  3
  10839  10837  10830  10859     1  0.0000000  0.6508444  3
  10839  10837  10840  10849     1  0.0000000  0.6508444  3
  10839  10837  10840  10841     1  0.0000000  0.6508444  3
  10839  10837  10840  10842     1  0.0000000  0.6508444  3
  10840  10837  10830  10859     1  0.0000000  0.6508444  3
  10841  10840  10849  10858     1  0.0000000  1.0460000  1
  10841  10840  10849  10858     1  0.0000000  0.0000000  3
  10841  10840  10849  10850     1  0.0000000  0.6508444  3
  10841  10840  10849  10851     1  0.0000000  0.6508444  3
  10842  10840  10849  10858     1  0.0000000  1.0460000  1
  10842  10840  10849  10858     1  0.0000000  0.0000000  3
  10842  10840  10849  10850     1  0.0000000  0.6508444  3
  10842  10840  10849  10851     1  0.0000000  0.6508444  3
  10843  10831  10830  10859     1  0.0000000  0.6508444  3
  10844  10843  10855  19359     1  0.0000000  1.0460000  1
  10844  10843  10855  19359     1  0.0000000  0.0000000  3
  10844  10843  10855  10856     1  0.0000000  0.6508444  3
  10844  10843  10855  10857     1  0.0000000  0.6508444  3
  10845  10843  10855  19359     1  0.0000000  1.0460000  1
  10845  10843  10855  19359     1  0.0000000  0.0000000  3
  10845  10843  10855  10856     1  0.0000000  0.6508444  3
  10845  10843  10855  10857     1  0.0000000  0.6508444  3
  10846  10834  10830  10859     1  0.0000000  0.6508444  3
  10847  10846  10852  19336     1  0.0000000  1.0460000  1
  10847  10846  10852  19336     1  0.0000000  0.0000000  3
  10847  10846  10852  10853     1  0.0000000  0.6508444  3
  10847  10846  10852  10854     1  0.0000000  0.6508444  3
  10848  10846  10852  19336     1  0.0000000  1.0460000  1
  10848  10846  10852  19336     1  0.0000000  0.0000000  3
  10848  10846  10852  10853     1  0.0000000  0.6508444  3
  10848  10846  10852  10854     1  0.0000000  0.6508444  3
  10852  19336  19332  19335     1  0.0000000  1.6038667  3
  10853  10852  19336  19332     1  0.0000000  1.6038667  3
  10854  10852  19336  19332     1  0.0000000  1.6038667  3
  10855  19359  19355  19358     1  0.0000000  1.6038667  3
  10856  10855  19359  19355     1  0.0000000  1.6038667  3
  10857  10855  19359  19355     1  0.0000000  1.6038667  3
  10860  10861  10873  10874     1  0.0000000  0.6508444  3
  10860  10861  10873  10875     1  0.0000000  0.6508444  3
  10860  10864  10876  10877     1  0.0000000  0.6508444  3
  10860  10864  10876  10878     1  0.0000000  0.6508444  3
  10860  10867  10870  10871     1  0.0000000  0.6508444  3
  10860  10867  10870  10872     1  0.0000000  0.6508444  3
  10861  10860  10864  10865     1  0.0000000  0.6508444  3
  10861  10860  10864  10866     1  0.0000000  0.6508444  3
  10861  10860  10867  10868     1  0.0000000  0.6508444  3
  10861  10860  10867  10869     1  0.0000000  0.6508444  3
  10861  10873  10885  10886     1  0.0000000  0.6508444  3
  10861  10873  10885  10887     1  0.0000000  0.6508444  3
  10862  10861  10860  10864     1  0.0000000  0.6508444  3
  10862  10861  10860  10867     1  0.0000000  0.6508444  3
  10862  10861  10860  10889     1  0.0000000  0.6508444  3
  10862  10861  10873  10885     1  0.0000000  0.6508444  3
  10862  10861  10873  10874     1  0.0000000  0.6508444  3
  10862  10861  10873  10875     1  0.0000000  0.6508444  3
  10863  10861  10860  10864     1  0.0000000  0.6508444  3
  10863  10861  10860  10867     1  0.0000000  0.6508444  3
  10863  10861  10860  10889     1  0.0000000  0.6508444  3
  10863  10861  10873  10885     1  0.0000000  0.6508444  3
  10863  10861  10873  10874     1  0.0000000  0.6508444  3
  10863  10861  10873  10875     1  0.0000000  0.6508444  3
  10864  10860  10867  10868     1  0.0000000  0.6508444  3
  10864  10860  10867  10869     1  0.0000000  0.6508444  3
  10864  10876  10882  10883     1  0.0000000  0.6508444  3
  10864  10876  10882  10884     1  0.0000000  0.6508444  3
  10865  10864  10860  10867     1  0.0000000  0.6508444  3
  10865  10864  10860  10889     1  0.0000000  0.6508444  3
  10865  10864  10876  10882     1  0.0000000  0.6508444  3
  10865  10864  10876  10877     1  0.0000000  0.6508444  3
  10865  10864  10876  10878     1  0.0000000  0.6508444  3
  10866  10864  10860  10867     1  0.0000000  0.6508444  3
  10866  10864  10860  10889     1  0.0000000  0.6508444  3
  10866  10864  10876  10882     1  0.0000000  0.6508444  3
  10866  10864  10876  10877     1  0.0000000  0.6508444  3
  10866  10864  10876  10878     1  0.0000000  0.6508444  3
  10867  10870  10879  10880     1  0.0000000  0.6508444  3
  10867  10870  10879  10881     1  0.0000000  0.6508444  3
  10868  10867  10860  10889     1  0.0000000  0.6508444  3
  10868  10867  10870  10879     1  0.0000000  0.6508444  3
  10868  10867  10870  10871     1  0.0000000  0.6508444  3
  10868  10867  10870  10872     1  0.0000000  0.6508444  3
  10869  10867  10860  10889     1  0.0000000  0.6508444  3
  10869  10867  10870  10879     1  0.0000000  0.6508444  3
  10869  10867  10870  10871     1  0.0000000  0.6508444  3
  10869  10867  10870  10872     1  0.0000000  0.6508444  3
  10870  10867  10860  10889     1  0.0000000  0.6508444  3
  10871  10870  10879  10888     1  0.0000000  1.0460000  1
  10871  10870  10879  10888     1  0.0000000  0.0000000  3
  10871  10870  10879  10880     1  0.0000000  0.6508444  3
  10871  10870  10879  10881     1  0.0000000  0.6508444  3
  10872  10870  10879  10888     1  0.0000000  1.0460000  1
  10872  10870  10879  10888     1  0.0000000  0.0000000  3
  10872  10870  10879  10880     1  0.0000000  0.6508444  3
  10872  10870  10879  10881     1  0.0000000  0.6508444  3
  10873  10861  10860  10889     1  0.0000000  0.6508444  3
  10874  10873  10885  19405     1  0.0000000  1.0460000  1
  10874  10873  10885  19405     1  0.0000000  0.0000000  3
  10874  10873  10885  10886     1  0.0000000  0.6508444  3
  10874  10873  10885  10887     1  0.0000000  0.6508444  3
  10875  10873  10885  19405     1  0.0000000  1.0460000  1
  10875  10873  10885  19405     1  0.0000000  0.0000000  3
  10875  10873  10885  10886     1  0.0000000  0.6508444  3
  10875  10873  10885  10887     1  0.0000000  0.6508444  3
  10876  10864  10860  10889     1  0.0000000  0.6508444  3
  10877  10876  10882  19382     1  0.0000000  1.0460000  1
  10877  10876  10882  19382     1  0.0000000  0.0000000  3
  10877  10876  10882  10883     1  0.0000000  0.6508444  3
  10877  10876  10882  10884     1  0.0000000  0.6508444  3
  10878  10876  10882  19382     1  0.0000000  1.0460000  1
  10878  10876  10882  19382     1  0.0000000  0.0000000  3
  10878  10876  10882  10883     1  0.0000000  0.6508444  3
  10878  10876  10882  10884     1  0.0000000  0.6508444  3
  10882  19382  19378  19381     1  0.0000000  1.6038667  3
  10883  10882  19382  19378     1  0.0000000  1.6038667  3
  10884  10882  19382  19378     1  0.0000000  1.6038667  3
  10885  19405  19401  19404     1  0.0000000  1.6038667  3
  10886  10885  19405  19401     1  0.0000000  1.6038667  3
  10887  10885  19405  19401     1  0.0000000  1.6038667  3
  10890  10891  10903  10904     1  0.0000000  0.6508444  3
  10890  10891  10903  10905     1  0.0000000  0.6508444  3
  10890  10894  10906  10907     1  0.0000000  0.6508444  3
  10890  10894  10906  10908     1  0.0000000  0.6508444  3
  10890  10897  10900  10901     1  0.0000000  0.6508444  3
  10890  10897  10900  10902     1  0.0000000  0.6508444  3
  10891  10890  10894  10895     1  0.0000000  0.6508444  3
  10891  10890  10894  10896     1  0.0000000  0.6508444  3
  10891  10890  10897  10898     1  0.0000000  0.6508444  3
  10891  10890  10897  10899     1  0.0000000  0.6508444  3
  10891  10903  10915  10916     1  0.0000000  0.6508444  3
  10891  10903  10915  10917     1  0.0000000  0.6508444  3
  10892  10891  10890  10894     1  0.0000000  0.6508444  3
  10892  10891  10890  10897     1  0.0000000  0.6508444  3
  10892  10891  10890  10919     1  0.0000000  0.6508444  3
  10892  10891  10903  10915     1  0.0000000  0.6508444  3
  10892  10891  10903  10904     1  0.0000000  0.6508444  3
  10892  10891  10903  10905     1  0.0000000  0.6508444  3
  10893  10891  10890  10894     1  0.0000000  0.6508444  3
  10893  10891  10890  10897     1  0.0000000  0.6508444  3
  10893  10891  10890  10919     1  0.0000000  0.6508444  3
  10893  10891  10903  10915     1  0.0000000  0.6508444  3
  10893  10891  10903  10904     1  0.0000000  0.6508444  3
  10893  10891  10903  10905     1  0.0000000  0.6508444  3
  10894  10890  10897  10898     1  0.0000000  0.6508444  3
  10894  10890  10897  10899     1  0.0000000  0.6508444  3
  10894  10906  10912  10913     1  0.0000000  0.6508444  3
  10894  10906  10912  10914     1  0.0000000  0.6508444  3
  10895  10894  10890  10897     1  0.0000000  0.6508444  3
  10895  10894  10890  10919     1  0.0000000  0.6508444  3
  10895  10894  10906  10912     1  0.0000000  0.6508444  3
  10895  10894  10906  10907     1  0.0000000  0.6508444  3
  10895  10894  10906  10908     1  0.0000000  0.6508444  3
  10896  10894  10890  10897     1  0.0000000  0.6508444  3
  10896  10894  10890  10919     1  0.0000000  0.6508444  3
  10896  10894  10906  10912     1  0.0000000  0.6508444  3
  10896  10894  10906  10907     1  0.0000000  0.6508444  3
  10896  10894  10906  10908     1  0.0000000  0.6508444  3
  10897  10900  10909  10910     1  0.0000000  0.6508444  3
  10897  10900  10909  10911     1  0.0000000  0.6508444  3
  10898  10897  10890  10919     1  0.0000000  0.6508444  3
  10898  10897  10900  10909     1  0.0000000  0.6508444  3
  10898  10897  10900  10901     1  0.0000000  0.6508444  3
  10898  10897  10900  10902     1  0.0000000  0.6508444  3
  10899  10897  10890  10919     1  0.0000000  0.6508444  3
  10899  10897  10900  10909     1  0.0000000  0.6508444  3
  10899  10897  10900  10901     1  0.0000000  0.6508444  3
  10899  10897  10900  10902     1  0.0000000  0.6508444  3
  10900  10897  10890  10919     1  0.0000000  0.6508444  3
  10901  10900  10909  10918     1  0.0000000  1.0460000  1
  10901  10900  10909  10918     1  0.0000000  0.0000000  3
  10901  10900  10909  10910     1  0.0000000  0.6508444  3
  10901  10900  10909  10911     1  0.0000000  0.6508444  3
  10902  10900  10909  10918     1  0.0000000  1.0460000  1
  10902  10900  10909  10918     1  0.0000000  0.0000000  3
  10902  10900  10909  10910     1  0.0000000  0.6508444  3
  10902  10900  10909  10911     1  0.0000000  0.6508444  3
  10903  10891  10890  10919     1  0.0000000  0.6508444  3
  10904  10903  10915  19451     1  0.0000000  1.0460000  1
  10904  10903  10915  19451     1  0.0000000  0.0000000  3
  10904  10903  10915  10916     1  0.0000000  0.6508444  3
  10904  10903  10915  10917     1  0.0000000  0.6508444  3
  10905  10903  10915  19451     1  0.0000000  1.0460000  1
  10905  10903  10915  19451     1  0.0000000  0.0000000  3
  10905  10903  10915  10916     1  0.0000000  0.6508444  3
  10905  10903  10915  10917     1  0.0000000  0.6508444  3
  10906  10894  10890  10919     1  0.0000000  0.6508444  3
  10907  10906  10912  19428     1  0.0000000  1.0460000  1
  10907  10906  10912  19428     1  0.0000000  0.0000000  3
  10907  10906  10912  10913     1  0.0000000  0.6508444  3
  10907  10906  10912  10914     1  0.0000000  0.6508444  3
  10908  10906  10912  19428     1  0.0000000  1.0460000  1
  10908  10906  10912  19428     1  0.0000000  0.0000000  3
  10908  10906  10912  10913     1  0.0000000  0.6508444  3
  10908  10906  10912  10914     1  0.0000000  0.6508444  3
  10912  19428  19424  19427     1  0.0000000  1.6038667  3
  10913  10912  19428  19424     1  0.0000000  1.6038667  3
  10914  10912  19428  19424     1  0.0000000  1.6038667  3
  10915  19451  19447  19450     1  0.0000000  1.6038667  3
  10916  10915  19451  19447     1  0.0000000  1.6038667  3
  10917  10915  19451  19447     1  0.0000000  1.6038667  3
  10920  10921  10933  10934     1  0.0000000  0.6508444  3
  10920  10921  10933  10935     1  0.0000000  0.6508444  3
  10920  10924  10936  10937     1  0.0000000  0.6508444  3
  10920  10924  10936  10938     1  0.0000000  0.6508444  3
  10920  10927  10930  10931     1  0.0000000  0.6508444  3
  10920  10927  10930  10932     1  0.0000000  0.6508444  3
  10921  10920  10924  10925     1  0.0000000  0.6508444  3
  10921  10920  10924  10926     1  0.0000000  0.6508444  3
  10921  10920  10927  10928     1  0.0000000  0.6508444  3
  10921  10920  10927  10929     1  0.0000000  0.6508444  3
  10921  10933  10945  10946     1  0.0000000  0.6508444  3
  10921  10933  10945  10947     1  0.0000000  0.6508444  3
  10922  10921  10920  10924     1  0.0000000  0.6508444  3
  10922  10921  10920  10927     1  0.0000000  0.6508444  3
  10922  10921  10920  10949     1  0.0000000  0.6508444  3
  10922  10921  10933  10945     1  0.0000000  0.6508444  3
  10922  10921  10933  10934     1  0.0000000  0.6508444  3
  10922  10921  10933  10935     1  0.0000000  0.6508444  3
  10923  10921  10920  10924     1  0.0000000  0.6508444  3
  10923  10921  10920  10927     1  0.0000000  0.6508444  3
  10923  10921  10920  10949     1  0.0000000  0.6508444  3
  10923  10921  10933  10945     1  0.0000000  0.6508444  3
  10923  10921  10933  10934     1  0.0000000  0.6508444  3
  10923  10921  10933  10935     1  0.0000000  0.6508444  3
  10924  10920  10927  10928     1  0.0000000  0.6508444  3
  10924  10920  10927  10929     1  0.0000000  0.6508444  3
  10924  10936  10942  10943     1  0.0000000  0.6508444  3
  10924  10936  10942  10944     1  0.0000000  0.6508444  3
  10925  10924  10920  10927     1  0.0000000  0.6508444  3
  10925  10924  10920  10949     1  0.0000000  0.6508444  3
  10925  10924  10936  10942     1  0.0000000  0.6508444  3
  10925  10924  10936  10937     1  0.0000000  0.6508444  3
  10925  10924  10936  10938     1  0.0000000  0.6508444  3
  10926  10924  10920  10927     1  0.0000000  0.6508444  3
  10926  10924  10920  10949     1  0.0000000  0.6508444  3
  10926  10924  10936  10942     1  0.0000000  0.6508444  3
  10926  10924  10936  10937     1  0.0000000  0.6508444  3
  10926  10924  10936  10938     1  0.0000000  0.6508444  3
  10927  10930  10939  10940     1  0.0000000  0.6508444  3
  10927  10930  10939  10941     1  0.0000000  0.6508444  3
  10928  10927  10920  10949     1  0.0000000  0.6508444  3
  10928  10927  10930  10939     1  0.0000000  0.6508444  3
  10928  10927  10930  10931     1  0.0000000  0.6508444  3
  10928  10927  10930  10932     1  0.0000000  0.6508444  3
  10929  10927  10920  10949     1  0.0000000  0.6508444  3
  10929  10927  10930  10939     1  0.0000000  0.6508444  3
  10929  10927  10930  10931     1  0.0000000  0.6508444  3
  10929  10927  10930  10932     1  0.0000000  0.6508444  3
  10930  10927  10920  10949     1  0.0000000  0.6508444  3
  10931  10930  10939  10948     1  0.0000000  1.0460000  1
  10931  10930  10939  10948     1  0.0000000  0.0000000  3
  10931  10930  10939  10940     1  0.0000000  0.6508444  3
  10931  10930  10939  10941     1  0.0000000  0.6508444  3
  10932  10930  10939  10948     1  0.0000000  1.0460000  1
  10932  10930  10939  10948     1  0.0000000  0.0000000  3
  10932  10930  10939  10940     1  0.0000000  0.6508444  3
  10932  10930  10939  10941     1  0.0000000  0.6508444  3
  10933  10921  10920  10949     1  0.0000000  0.6508444  3
  10934  10933  10945  19497     1  0.0000000  1.0460000  1
  10934  10933  10945  19497     1  0.0000000  0.0000000  3
  10934  10933  10945  10946     1  0.0000000  0.6508444  3
  10934  10933  10945  10947     1  0.0000000  0.6508444  3
  10935  10933  10945  19497     1  0.0000000  1.0460000  1
  10935  10933  10945  19497     1  0.0000000  0.0000000  3
  10935  10933  10945  10946     1  0.0000000  0.6508444  3
  10935  10933  10945  10947     1  0.0000000  0.6508444  3
  10936  10924  10920  10949     1  0.0000000  0.6508444  3
  10937  10936  10942  19474     1  0.0000000  1.0460000  1
  10937  10936  10942  19474     1  0.0000000  0.0000000  3
  10937  10936  10942  10943     1  0.0000000  0.6508444  3
  10937  10936  10942  10944     1  0.0000000  0.6508444  3
  10938  10936  10942  19474     1  0.0000000  1.0460000  1
  10938  10936  10942  19474     1  0.0000000  0.0000000  3
  10938  10936  10942  10943     1  0.0000000  0.6508444  3
  10938  10936  10942  10944     1  0.0000000  0.6508444  3
  10942  19474  19470  19473     1  0.0000000  1.6038667  3
  10943  10942  19474  19470     1  0.0000000  1.6038667  3
  10944  10942  19474  19470     1  0.0000000  1.6038667  3
  10945  19497  19493  19496     1  0.0000000  1.6038667  3
  10946  10945  19497  19493     1  0.0000000  1.6038667  3
  10947  10945  19497  19493     1  0.0000000  1.6038667  3
  10950  10951  10963  10964     1  0.0000000  0.6508444  3
  10950  10951  10963  10965     1  0.0000000  0.6508444  3
  10950  10954  10966  10967     1  0.0000000  0.6508444  3
  10950  10954  10966  10968     1  0.0000000  0.6508444  3
  10950  10957  10960  10961     1  0.0000000  0.6508444  3
  10950  10957  10960  10962     1  0.0000000  0.6508444  3
  10951  10950  10954  10955     1  0.0000000  0.6508444  3
  10951  10950  10954  10956     1  0.0000000  0.6508444  3
  10951  10950  10957  10958     1  0.0000000  0.6508444  3
  10951  10950  10957  10959     1  0.0000000  0.6508444  3
  10951  10963  10975  10976     1  0.0000000  0.6508444  3
  10951  10963  10975  10977     1  0.0000000  0.6508444  3
  10952  10951  10950  10954     1  0.0000000  0.6508444  3
  10952  10951  10950  10957     1  0.0000000  0.6508444  3
  10952  10951  10950  10979     1  0.0000000  0.6508444  3
  10952  10951  10963  10975     1  0.0000000  0.6508444  3
  10952  10951  10963  10964     1  0.0000000  0.6508444  3
  10952  10951  10963  10965     1  0.0000000  0.6508444  3
  10953  10951  10950  10954     1  0.0000000  0.6508444  3
  10953  10951  10950  10957     1  0.0000000  0.6508444  3
  10953  10951  10950  10979     1  0.0000000  0.6508444  3
  10953  10951  10963  10975     1  0.0000000  0.6508444  3
  10953  10951  10963  10964     1  0.0000000  0.6508444  3
  10953  10951  10963  10965     1  0.0000000  0.6508444  3
  10954  10950  10957  10958     1  0.0000000  0.6508444  3
  10954  10950  10957  10959     1  0.0000000  0.6508444  3
  10954  10966  10972  10973     1  0.0000000  0.6508444  3
  10954  10966  10972  10974     1  0.0000000  0.6508444  3
  10955  10954  10950  10957     1  0.0000000  0.6508444  3
  10955  10954  10950  10979     1  0.0000000  0.6508444  3
  10955  10954  10966  10972     1  0.0000000  0.6508444  3
  10955  10954  10966  10967     1  0.0000000  0.6508444  3
  10955  10954  10966  10968     1  0.0000000  0.6508444  3
  10956  10954  10950  10957     1  0.0000000  0.6508444  3
  10956  10954  10950  10979     1  0.0000000  0.6508444  3
  10956  10954  10966  10972     1  0.0000000  0.6508444  3
  10956  10954  10966  10967     1  0.0000000  0.6508444  3
  10956  10954  10966  10968     1  0.0000000  0.6508444  3
  10957  10960  10969  10970     1  0.0000000  0.6508444  3
  10957  10960  10969  10971     1  0.0000000  0.6508444  3
  10958  10957  10950  10979     1  0.0000000  0.6508444  3
  10958  10957  10960  10969     1  0.0000000  0.6508444  3
  10958  10957  10960  10961     1  0.0000000  0.6508444  3
  10958  10957  10960  10962     1  0.0000000  0.6508444  3
  10959  10957  10950  10979     1  0.0000000  0.6508444  3
  10959  10957  10960  10969     1  0.0000000  0.6508444  3
  10959  10957  10960  10961     1  0.0000000  0.6508444  3
  10959  10957  10960  10962     1  0.0000000  0.6508444  3
  10960  10957  10950  10979     1  0.0000000  0.6508444  3
  10961  10960  10969  10978     1  0.0000000  1.0460000  1
  10961  10960  10969  10978     1  0.0000000  0.0000000  3
  10961  10960  10969  10970     1  0.0000000  0.6508444  3
  10961  10960  10969  10971     1  0.0000000  0.6508444  3
  10962  10960  10969  10978     1  0.0000000  1.0460000  1
  10962  10960  10969  10978     1  0.0000000  0.0000000  3
  10962  10960  10969  10970     1  0.0000000  0.6508444  3
  10962  10960  10969  10971     1  0.0000000  0.6508444  3
  10963  10951  10950  10979     1  0.0000000  0.6508444  3
  10964  10963  10975  19543     1  0.0000000  1.0460000  1
  10964  10963  10975  19543     1  0.0000000  0.0000000  3
  10964  10963  10975  10976     1  0.0000000  0.6508444  3
  10964  10963  10975  10977     1  0.0000000  0.6508444  3
  10965  10963  10975  19543     1  0.0000000  1.0460000  1
  10965  10963  10975  19543     1  0.0000000  0.0000000  3
  10965  10963  10975  10976     1  0.0000000  0.6508444  3
  10965  10963  10975  10977     1  0.0000000  0.6508444  3
  10966  10954  10950  10979     1  0.0000000  0.6508444  3
  10967  10966  10972  19520     1  0.0000000  1.0460000  1
  10967  10966  10972  19520     1  0.0000000  0.0000000  3
  10967  10966  10972  10973     1  0.0000000  0.6508444  3
  10967  10966  10972  10974     1  0.0000000  0.6508444  3
  10968  10966  10972  19520     1  0.0000000  1.0460000  1
  10968  10966  10972  19520     1  0.0000000  0.0000000  3
  10968  10966  10972  10973     1  0.0000000  0.6508444  3
  10968  10966  10972  10974     1  0.0000000  0.6508444  3
  10972  19520  19516  19519     1  0.0000000  1.6038667  3
  10973  10972  19520  19516     1  0.0000000  1.6038667  3
  10974  10972  19520  19516     1  0.0000000  1.6038667  3
  10975  19543  19539  19542     1  0.0000000  1.6038667  3
  10976  10975  19543  19539     1  0.0000000  1.6038667  3
  10977  10975  19543  19539     1  0.0000000  1.6038667  3
  10980  10981  10993  10994     1  0.0000000  0.6508444  3
  10980  10981  10993  10995     1  0.0000000  0.6508444  3
  10980  10984  10996  10997     1  0.0000000  0.6508444  3
  10980  10984  10996  10998     1  0.0000000  0.6508444  3
  10980  10987  10990  10991     1  0.0000000  0.6508444  3
  10980  10987  10990  10992     1  0.0000000  0.6508444  3
  10981  10980  10984  10985     1  0.0000000  0.6508444  3
  10981  10980  10984  10986     1  0.0000000  0.6508444  3
  10981  10980  10987  10988     1  0.0000000  0.6508444  3
  10981  10980  10987  10989     1  0.0000000  0.6508444  3
  10981  10993  11005  11006     1  0.0000000  0.6508444  3
  10981  10993  11005  11007     1  0.0000000  0.6508444  3
  10982  10981  10980  10984     1  0.0000000  0.6508444  3
  10982  10981  10980  10987     1  0.0000000  0.6508444  3
  10982  10981  10980  11009     1  0.0000000  0.6508444  3
  10982  10981  10993  11005     1  0.0000000  0.6508444  3
  10982  10981  10993  10994     1  0.0000000  0.6508444  3
  10982  10981  10993  10995     1  0.0000000  0.6508444  3
  10983  10981  10980  10984     1  0.0000000  0.6508444  3
  10983  10981  10980  10987     1  0.0000000  0.6508444  3
  10983  10981  10980  11009     1  0.0000000  0.6508444  3
  10983  10981  10993  11005     1  0.0000000  0.6508444  3
  10983  10981  10993  10994     1  0.0000000  0.6508444  3
  10983  10981  10993  10995     1  0.0000000  0.6508444  3
  10984  10980  10987  10988     1  0.0000000  0.6508444  3
  10984  10980  10987  10989     1  0.0000000  0.6508444  3
  10984  10996  11002  11003     1  0.0000000  0.6508444  3
  10984  10996  11002  11004     1  0.0000000  0.6508444  3
  10985  10984  10980  10987     1  0.0000000  0.6508444  3
  10985  10984  10980  11009     1  0.0000000  0.6508444  3
  10985  10984  10996  11002     1  0.0000000  0.6508444  3
  10985  10984  10996  10997     1  0.0000000  0.6508444  3
  10985  10984  10996  10998     1  0.0000000  0.6508444  3
  10986  10984  10980  10987     1  0.0000000  0.6508444  3
  10986  10984  10980  11009     1  0.0000000  0.6508444  3
  10986  10984  10996  11002     1  0.0000000  0.6508444  3
  10986  10984  10996  10997     1  0.0000000  0.6508444  3
  10986  10984  10996  10998     1  0.0000000  0.6508444  3
  10987  10990  10999  11000     1  0.0000000  0.6508444  3
  10987  10990  10999  11001     1  0.0000000  0.6508444  3
  10988  10987  10980  11009     1  0.0000000  0.6508444  3
  10988  10987  10990  10999     1  0.0000000  0.6508444  3
  10988  10987  10990  10991     1  0.0000000  0.6508444  3
  10988  10987  10990  10992     1  0.0000000  0.6508444  3
  10989  10987  10980  11009     1  0.0000000  0.6508444  3
  10989  10987  10990  10999     1  0.0000000  0.6508444  3
  10989  10987  10990  10991     1  0.0000000  0.6508444  3
  10989  10987  10990  10992     1  0.0000000  0.6508444  3
  10990  10987  10980  11009     1  0.0000000  0.6508444  3
  10991  10990  10999  11008     1  0.0000000  1.0460000  1
  10991  10990  10999  11008     1  0.0000000  0.0000000  3
  10991  10990  10999  11000     1  0.0000000  0.6508444  3
  10991  10990  10999  11001     1  0.0000000  0.6508444  3
  10992  10990  10999  11008     1  0.0000000  1.0460000  1
  10992  10990  10999  11008     1  0.0000000  0.0000000  3
  10992  10990  10999  11000     1  0.0000000  0.6508444  3
  10992  10990  10999  11001     1  0.0000000  0.6508444  3
  10993  10981  10980  11009     1  0.0000000  0.6508444  3
  10994  10993  11005  19589     1  0.0000000  1.0460000  1
  10994  10993  11005  19589     1  0.0000000  0.0000000  3
  10994  10993  11005  11006     1  0.0000000  0.6508444  3
  10994  10993  11005  11007     1  0.0000000  0.6508444  3
  10995  10993  11005  19589     1  0.0000000  1.0460000  1
  10995  10993  11005  19589     1  0.0000000  0.0000000  3
  10995  10993  11005  11006     1  0.0000000  0.6508444  3
  10995  10993  11005  11007     1  0.0000000  0.6508444  3
  10996  10984  10980  11009     1  0.0000000  0.6508444  3
  10997  10996  11002  19566     1  0.0000000  1.0460000  1
  10997  10996  11002  19566     1  0.0000000  0.0000000  3
  10997  10996  11002  11003     1  0.0000000  0.6508444  3
  10997  10996  11002  11004     1  0.0000000  0.6508444  3
  10998  10996  11002  19566     1  0.0000000  1.0460000  1
  10998  10996  11002  19566     1  0.0000000  0.0000000  3
  10998  10996  11002  11003     1  0.0000000  0.6508444  3
  10998  10996  11002  11004     1  0.0000000  0.6508444  3
  11002  19566  19562  19565     1  0.0000000  1.6038667  3
  11003  11002  19566  19562     1  0.0000000  1.6038667  3
  11004  11002  19566  19562     1  0.0000000  1.6038667  3
  11005  19589  19585  19588     1  0.0000000  1.6038667  3
  11006  11005  19589  19585     1  0.0000000  1.6038667  3
  11007  11005  19589  19585     1  0.0000000  1.6038667  3
  11010  11011  11023  11024     1  0.0000000  0.6508444  3
  11010  11011  11023  11025     1  0.0000000  0.6508444  3
  11010  11014  11026  11027     1  0.0000000  0.6508444  3
  11010  11014  11026  11028     1  0.0000000  0.6508444  3
  11010  11017  11020  11021     1  0.0000000  0.6508444  3
  11010  11017  11020  11022     1  0.0000000  0.6508444  3
  11011  11010  11014  11015     1  0.0000000  0.6508444  3
  11011  11010  11014  11016     1  0.0000000  0.6508444  3
  11011  11010  11017  11018     1  0.0000000  0.6508444  3
  11011  11010  11017  11019     1  0.0000000  0.6508444  3
  11011  11023  11035  11036     1  0.0000000  0.6508444  3
  11011  11023  11035  11037     1  0.0000000  0.6508444  3
  11012  11011  11010  11014     1  0.0000000  0.6508444  3
  11012  11011  11010  11017     1  0.0000000  0.6508444  3
  11012  11011  11010  11039     1  0.0000000  0.6508444  3
  11012  11011  11023  11035     1  0.0000000  0.6508444  3
  11012  11011  11023  11024     1  0.0000000  0.6508444  3
  11012  11011  11023  11025     1  0.0000000  0.6508444  3
  11013  11011  11010  11014     1  0.0000000  0.6508444  3
  11013  11011  11010  11017     1  0.0000000  0.6508444  3
  11013  11011  11010  11039     1  0.0000000  0.6508444  3
  11013  11011  11023  11035     1  0.0000000  0.6508444  3
  11013  11011  11023  11024     1  0.0000000  0.6508444  3
  11013  11011  11023  11025     1  0.0000000  0.6508444  3
  11014  11010  11017  11018     1  0.0000000  0.6508444  3
  11014  11010  11017  11019     1  0.0000000  0.6508444  3
  11014  11026  11032  11033     1  0.0000000  0.6508444  3
  11014  11026  11032  11034     1  0.0000000  0.6508444  3
  11015  11014  11010  11017     1  0.0000000  0.6508444  3
  11015  11014  11010  11039     1  0.0000000  0.6508444  3
  11015  11014  11026  11032     1  0.0000000  0.6508444  3
  11015  11014  11026  11027     1  0.0000000  0.6508444  3
  11015  11014  11026  11028     1  0.0000000  0.6508444  3
  11016  11014  11010  11017     1  0.0000000  0.6508444  3
  11016  11014  11010  11039     1  0.0000000  0.6508444  3
  11016  11014  11026  11032     1  0.0000000  0.6508444  3
  11016  11014  11026  11027     1  0.0000000  0.6508444  3
  11016  11014  11026  11028     1  0.0000000  0.6508444  3
  11017  11020  11029  11030     1  0.0000000  0.6508444  3
  11017  11020  11029  11031     1  0.0000000  0.6508444  3
  11018  11017  11010  11039     1  0.0000000  0.6508444  3
  11018  11017  11020  11029     1  0.0000000  0.6508444  3
  11018  11017  11020  11021     1  0.0000000  0.6508444  3
  11018  11017  11020  11022     1  0.0000000  0.6508444  3
  11019  11017  11010  11039     1  0.0000000  0.6508444  3
  11019  11017  11020  11029     1  0.0000000  0.6508444  3
  11019  11017  11020  11021     1  0.0000000  0.6508444  3
  11019  11017  11020  11022     1  0.0000000  0.6508444  3
  11020  11017  11010  11039     1  0.0000000  0.6508444  3
  11021  11020  11029  11038     1  0.0000000  1.0460000  1
  11021  11020  11029  11038     1  0.0000000  0.0000000  3
  11021  11020  11029  11030     1  0.0000000  0.6508444  3
  11021  11020  11029  11031     1  0.0000000  0.6508444  3
  11022  11020  11029  11038     1  0.0000000  1.0460000  1
  11022  11020  11029  11038     1  0.0000000  0.0000000  3
  11022  11020  11029  11030     1  0.0000000  0.6508444  3
  11022  11020  11029  11031     1  0.0000000  0.6508444  3
  11023  11011  11010  11039     1  0.0000000  0.6508444  3
  11024  11023  11035  19635     1  0.0000000  1.0460000  1
  11024  11023  11035  19635     1  0.0000000  0.0000000  3
  11024  11023  11035  11036     1  0.0000000  0.6508444  3
  11024  11023  11035  11037     1  0.0000000  0.6508444  3
  11025  11023  11035  19635     1  0.0000000  1.0460000  1
  11025  11023  11035  19635     1  0.0000000  0.0000000  3
  11025  11023  11035  11036     1  0.0000000  0.6508444  3
  11025  11023  11035  11037     1  0.0000000  0.6508444  3
  11026  11014  11010  11039     1  0.0000000  0.6508444  3
  11027  11026  11032  19612     1  0.0000000  1.0460000  1
  11027  11026  11032  19612     1  0.0000000  0.0000000  3
  11027  11026  11032  11033     1  0.0000000  0.6508444  3
  11027  11026  11032  11034     1  0.0000000  0.6508444  3
  11028  11026  11032  19612     1  0.0000000  1.0460000  1
  11028  11026  11032  19612     1  0.0000000  0.0000000  3
  11028  11026  11032  11033     1  0.0000000  0.6508444  3
  11028  11026  11032  11034     1  0.0000000  0.6508444  3
  11032  19612  19608  19611     1  0.0000000  1.6038667  3
  11033  11032  19612  19608     1  0.0000000  1.6038667  3
  11034  11032  19612  19608     1  0.0000000  1.6038667  3
  11035  19635  19631  19634     1  0.0000000  1.6038667  3
  11036  11035  19635  19631     1  0.0000000  1.6038667  3
  11037  11035  19635  19631     1  0.0000000  1.6038667  3
  11040  11041  11053  11054     1  0.0000000  0.6508444  3
  11040  11041  11053  11055     1  0.0000000  0.6508444  3
  11040  11044  11056  11057     1  0.0000000  0.6508444  3
  11040  11044  11056  11058     1  0.0000000  0.6508444  3
  11040  11047  11050  11051     1  0.0000000  0.6508444  3
  11040  11047  11050  11052     1  0.0000000  0.6508444  3
  11041  11040  11044  11045     1  0.0000000  0.6508444  3
  11041  11040  11044  11046     1  0.0000000  0.6508444  3
  11041  11040  11047  11048     1  0.0000000  0.6508444  3
  11041  11040  11047  11049     1  0.0000000  0.6508444  3
  11041  11053  11065  11066     1  0.0000000  0.6508444  3
  11041  11053  11065  11067     1  0.0000000  0.6508444  3
  11042  11041  11040  11044     1  0.0000000  0.6508444  3
  11042  11041  11040  11047     1  0.0000000  0.6508444  3
  11042  11041  11040  11069     1  0.0000000  0.6508444  3
  11042  11041  11053  11065     1  0.0000000  0.6508444  3
  11042  11041  11053  11054     1  0.0000000  0.6508444  3
  11042  11041  11053  11055     1  0.0000000  0.6508444  3
  11043  11041  11040  11044     1  0.0000000  0.6508444  3
  11043  11041  11040  11047     1  0.0000000  0.6508444  3
  11043  11041  11040  11069     1  0.0000000  0.6508444  3
  11043  11041  11053  11065     1  0.0000000  0.6508444  3
  11043  11041  11053  11054     1  0.0000000  0.6508444  3
  11043  11041  11053  11055     1  0.0000000  0.6508444  3
  11044  11040  11047  11048     1  0.0000000  0.6508444  3
  11044  11040  11047  11049     1  0.0000000  0.6508444  3
  11044  11056  11062  11063     1  0.0000000  0.6508444  3
  11044  11056  11062  11064     1  0.0000000  0.6508444  3
  11045  11044  11040  11047     1  0.0000000  0.6508444  3
  11045  11044  11040  11069     1  0.0000000  0.6508444  3
  11045  11044  11056  11062     1  0.0000000  0.6508444  3
  11045  11044  11056  11057     1  0.0000000  0.6508444  3
  11045  11044  11056  11058     1  0.0000000  0.6508444  3
  11046  11044  11040  11047     1  0.0000000  0.6508444  3
  11046  11044  11040  11069     1  0.0000000  0.6508444  3
  11046  11044  11056  11062     1  0.0000000  0.6508444  3
  11046  11044  11056  11057     1  0.0000000  0.6508444  3
  11046  11044  11056  11058     1  0.0000000  0.6508444  3
  11047  11050  11059  11060     1  0.0000000  0.6508444  3
  11047  11050  11059  11061     1  0.0000000  0.6508444  3
  11048  11047  11040  11069     1  0.0000000  0.6508444  3
  11048  11047  11050  11059     1  0.0000000  0.6508444  3
  11048  11047  11050  11051     1  0.0000000  0.6508444  3
  11048  11047  11050  11052     1  0.0000000  0.6508444  3
  11049  11047  11040  11069     1  0.0000000  0.6508444  3
  11049  11047  11050  11059     1  0.0000000  0.6508444  3
  11049  11047  11050  11051     1  0.0000000  0.6508444  3
  11049  11047  11050  11052     1  0.0000000  0.6508444  3
  11050  11047  11040  11069     1  0.0000000  0.6508444  3
  11051  11050  11059  11068     1  0.0000000  1.0460000  1
  11051  11050  11059  11068     1  0.0000000  0.0000000  3
  11051  11050  11059  11060     1  0.0000000  0.6508444  3
  11051  11050  11059  11061     1  0.0000000  0.6508444  3
  11052  11050  11059  11068     1  0.0000000  1.0460000  1
  11052  11050  11059  11068     1  0.0000000  0.0000000  3
  11052  11050  11059  11060     1  0.0000000  0.6508444  3
  11052  11050  11059  11061     1  0.0000000  0.6508444  3
  11053  11041  11040  11069     1  0.0000000  0.6508444  3
  11054  11053  11065  19681     1  0.0000000  1.0460000  1
  11054  11053  11065  19681     1  0.0000000  0.0000000  3
  11054  11053  11065  11066     1  0.0000000  0.6508444  3
  11054  11053  11065  11067     1  0.0000000  0.6508444  3
  11055  11053  11065  19681     1  0.0000000  1.0460000  1
  11055  11053  11065  19681     1  0.0000000  0.0000000  3
  11055  11053  11065  11066     1  0.0000000  0.6508444  3
  11055  11053  11065  11067     1  0.0000000  0.6508444  3
  11056  11044  11040  11069     1  0.0000000  0.6508444  3
  11057  11056  11062  19658     1  0.0000000  1.0460000  1
  11057  11056  11062  19658     1  0.0000000  0.0000000  3
  11057  11056  11062  11063     1  0.0000000  0.6508444  3
  11057  11056  11062  11064     1  0.0000000  0.6508444  3
  11058  11056  11062  19658     1  0.0000000  1.0460000  1
  11058  11056  11062  19658     1  0.0000000  0.0000000  3
  11058  11056  11062  11063     1  0.0000000  0.6508444  3
  11058  11056  11062  11064     1  0.0000000  0.6508444  3
  11062  19658  19654  19657     1  0.0000000  1.6038667  3
  11063  11062  19658  19654     1  0.0000000  1.6038667  3
  11064  11062  19658  19654     1  0.0000000  1.6038667  3
  11065  19681  19677  19680     1  0.0000000  1.6038667  3
  11066  11065  19681  19677     1  0.0000000  1.6038667  3
  11067  11065  19681  19677     1  0.0000000  1.6038667  3
  11070  11071  11083  11084     1  0.0000000  0.6508444  3
  11070  11071  11083  11085     1  0.0000000  0.6508444  3
  11070  11074  11086  11087     1  0.0000000  0.6508444  3
  11070  11074  11086  11088     1  0.0000000  0.6508444  3
  11070  11077  11080  11081     1  0.0000000  0.6508444  3
  11070  11077  11080  11082     1  0.0000000  0.6508444  3
  11071  11070  11074  11075     1  0.0000000  0.6508444  3
  11071  11070  11074  11076     1  0.0000000  0.6508444  3
  11071  11070  11077  11078     1  0.0000000  0.6508444  3
  11071  11070  11077  11079     1  0.0000000  0.6508444  3
  11071  11083  11095  11096     1  0.0000000  0.6508444  3
  11071  11083  11095  11097     1  0.0000000  0.6508444  3
  11072  11071  11070  11074     1  0.0000000  0.6508444  3
  11072  11071  11070  11077     1  0.0000000  0.6508444  3
  11072  11071  11070  11099     1  0.0000000  0.6508444  3
  11072  11071  11083  11095     1  0.0000000  0.6508444  3
  11072  11071  11083  11084     1  0.0000000  0.6508444  3
  11072  11071  11083  11085     1  0.0000000  0.6508444  3
  11073  11071  11070  11074     1  0.0000000  0.6508444  3
  11073  11071  11070  11077     1  0.0000000  0.6508444  3
  11073  11071  11070  11099     1  0.0000000  0.6508444  3
  11073  11071  11083  11095     1  0.0000000  0.6508444  3
  11073  11071  11083  11084     1  0.0000000  0.6508444  3
  11073  11071  11083  11085     1  0.0000000  0.6508444  3
  11074  11070  11077  11078     1  0.0000000  0.6508444  3
  11074  11070  11077  11079     1  0.0000000  0.6508444  3
  11074  11086  11092  11093     1  0.0000000  0.6508444  3
  11074  11086  11092  11094     1  0.0000000  0.6508444  3
  11075  11074  11070  11077     1  0.0000000  0.6508444  3
  11075  11074  11070  11099     1  0.0000000  0.6508444  3
  11075  11074  11086  11092     1  0.0000000  0.6508444  3
  11075  11074  11086  11087     1  0.0000000  0.6508444  3
  11075  11074  11086  11088     1  0.0000000  0.6508444  3
  11076  11074  11070  11077     1  0.0000000  0.6508444  3
  11076  11074  11070  11099     1  0.0000000  0.6508444  3
  11076  11074  11086  11092     1  0.0000000  0.6508444  3
  11076  11074  11086  11087     1  0.0000000  0.6508444  3
  11076  11074  11086  11088     1  0.0000000  0.6508444  3
  11077  11080  11089  11090     1  0.0000000  0.6508444  3
  11077  11080  11089  11091     1  0.0000000  0.6508444  3
  11078  11077  11070  11099     1  0.0000000  0.6508444  3
  11078  11077  11080  11089     1  0.0000000  0.6508444  3
  11078  11077  11080  11081     1  0.0000000  0.6508444  3
  11078  11077  11080  11082     1  0.0000000  0.6508444  3
  11079  11077  11070  11099     1  0.0000000  0.6508444  3
  11079  11077  11080  11089     1  0.0000000  0.6508444  3
  11079  11077  11080  11081     1  0.0000000  0.6508444  3
  11079  11077  11080  11082     1  0.0000000  0.6508444  3
  11080  11077  11070  11099     1  0.0000000  0.6508444  3
  11081  11080  11089  11098     1  0.0000000  1.0460000  1
  11081  11080  11089  11098     1  0.0000000  0.0000000  3
  11081  11080  11089  11090     1  0.0000000  0.6508444  3
  11081  11080  11089  11091     1  0.0000000  0.6508444  3
  11082  11080  11089  11098     1  0.0000000  1.0460000  1
  11082  11080  11089  11098     1  0.0000000  0.0000000  3
  11082  11080  11089  11090     1  0.0000000  0.6508444  3
  11082  11080  11089  11091     1  0.0000000  0.6508444  3
  11083  11071  11070  11099     1  0.0000000  0.6508444  3
  11084  11083  11095  19727     1  0.0000000  1.0460000  1
  11084  11083  11095  19727     1  0.0000000  0.0000000  3
  11084  11083  11095  11096     1  0.0000000  0.6508444  3
  11084  11083  11095  11097     1  0.0000000  0.6508444  3
  11085  11083  11095  19727     1  0.0000000  1.0460000  1
  11085  11083  11095  19727     1  0.0000000  0.0000000  3
  11085  11083  11095  11096     1  0.0000000  0.6508444  3
  11085  11083  11095  11097     1  0.0000000  0.6508444  3
  11086  11074  11070  11099     1  0.0000000  0.6508444  3
  11087  11086  11092  19704     1  0.0000000  1.0460000  1
  11087  11086  11092  19704     1  0.0000000  0.0000000  3
  11087  11086  11092  11093     1  0.0000000  0.6508444  3
  11087  11086  11092  11094     1  0.0000000  0.6508444  3
  11088  11086  11092  19704     1  0.0000000  1.0460000  1
  11088  11086  11092  19704     1  0.0000000  0.0000000  3
  11088  11086  11092  11093     1  0.0000000  0.6508444  3
  11088  11086  11092  11094     1  0.0000000  0.6508444  3
  11092  19704  19700  19703     1  0.0000000  1.6038667  3
  11093  11092  19704  19700     1  0.0000000  1.6038667  3
  11094  11092  19704  19700     1  0.0000000  1.6038667  3
  11095  19727  19723  19726     1  0.0000000  1.6038667  3
  11096  11095  19727  19723     1  0.0000000  1.6038667  3
  11097  11095  19727  19723     1  0.0000000  1.6038667  3
  11100  11101  11113  11114     1  0.0000000  0.6508444  3
  11100  11101  11113  11115     1  0.0000000  0.6508444  3
  11100  11104  11116  11117     1  0.0000000  0.6508444  3
  11100  11104  11116  11118     1  0.0000000  0.6508444  3
  11100  11107  11110  11111     1  0.0000000  0.6508444  3
  11100  11107  11110  11112     1  0.0000000  0.6508444  3
  11101  11100  11104  11105     1  0.0000000  0.6508444  3
  11101  11100  11104  11106     1  0.0000000  0.6508444  3
  11101  11100  11107  11108     1  0.0000000  0.6508444  3
  11101  11100  11107  11109     1  0.0000000  0.6508444  3
  11101  11113  11125  11126     1  0.0000000  0.6508444  3
  11101  11113  11125  11127     1  0.0000000  0.6508444  3
  11102  11101  11100  11104     1  0.0000000  0.6508444  3
  11102  11101  11100  11107     1  0.0000000  0.6508444  3
  11102  11101  11100  11129     1  0.0000000  0.6508444  3
  11102  11101  11113  11125     1  0.0000000  0.6508444  3
  11102  11101  11113  11114     1  0.0000000  0.6508444  3
  11102  11101  11113  11115     1  0.0000000  0.6508444  3
  11103  11101  11100  11104     1  0.0000000  0.6508444  3
  11103  11101  11100  11107     1  0.0000000  0.6508444  3
  11103  11101  11100  11129     1  0.0000000  0.6508444  3
  11103  11101  11113  11125     1  0.0000000  0.6508444  3
  11103  11101  11113  11114     1  0.0000000  0.6508444  3
  11103  11101  11113  11115     1  0.0000000  0.6508444  3
  11104  11100  11107  11108     1  0.0000000  0.6508444  3
  11104  11100  11107  11109     1  0.0000000  0.6508444  3
  11104  11116  11122  11123     1  0.0000000  0.6508444  3
  11104  11116  11122  11124     1  0.0000000  0.6508444  3
  11105  11104  11100  11107     1  0.0000000  0.6508444  3
  11105  11104  11100  11129     1  0.0000000  0.6508444  3
  11105  11104  11116  11122     1  0.0000000  0.6508444  3
  11105  11104  11116  11117     1  0.0000000  0.6508444  3
  11105  11104  11116  11118     1  0.0000000  0.6508444  3
  11106  11104  11100  11107     1  0.0000000  0.6508444  3
  11106  11104  11100  11129     1  0.0000000  0.6508444  3
  11106  11104  11116  11122     1  0.0000000  0.6508444  3
  11106  11104  11116  11117     1  0.0000000  0.6508444  3
  11106  11104  11116  11118     1  0.0000000  0.6508444  3
  11107  11110  11119  11120     1  0.0000000  0.6508444  3
  11107  11110  11119  11121     1  0.0000000  0.6508444  3
  11108  11107  11100  11129     1  0.0000000  0.6508444  3
  11108  11107  11110  11119     1  0.0000000  0.6508444  3
  11108  11107  11110  11111     1  0.0000000  0.6508444  3
  11108  11107  11110  11112     1  0.0000000  0.6508444  3
  11109  11107  11100  11129     1  0.0000000  0.6508444  3
  11109  11107  11110  11119     1  0.0000000  0.6508444  3
  11109  11107  11110  11111     1  0.0000000  0.6508444  3
  11109  11107  11110  11112     1  0.0000000  0.6508444  3
  11110  11107  11100  11129     1  0.0000000  0.6508444  3
  11111  11110  11119  11128     1  0.0000000  1.0460000  1
  11111  11110  11119  11128     1  0.0000000  0.0000000  3
  11111  11110  11119  11120     1  0.0000000  0.6508444  3
  11111  11110  11119  11121     1  0.0000000  0.6508444  3
  11112  11110  11119  11128     1  0.0000000  1.0460000  1
  11112  11110  11119  11128     1  0.0000000  0.0000000  3
  11112  11110  11119  11120     1  0.0000000  0.6508444  3
  11112  11110  11119  11121     1  0.0000000  0.6508444  3
  11113  11101  11100  11129     1  0.0000000  0.6508444  3
  11114  11113  11125  19773     1  0.0000000  1.0460000  1
  11114  11113  11125  19773     1  0.0000000  0.0000000  3
  11114  11113  11125  11126     1  0.0000000  0.6508444  3
  11114  11113  11125  11127     1  0.0000000  0.6508444  3
  11115  11113  11125  19773     1  0.0000000  1.0460000  1
  11115  11113  11125  19773     1  0.0000000  0.0000000  3
  11115  11113  11125  11126     1  0.0000000  0.6508444  3
  11115  11113  11125  11127     1  0.0000000  0.6508444  3
  11116  11104  11100  11129     1  0.0000000  0.6508444  3
  11117  11116  11122  19750     1  0.0000000  1.0460000  1
  11117  11116  11122  19750     1  0.0000000  0.0000000  3
  11117  11116  11122  11123     1  0.0000000  0.6508444  3
  11117  11116  11122  11124     1  0.0000000  0.6508444  3
  11118  11116  11122  19750     1  0.0000000  1.0460000  1
  11118  11116  11122  19750     1  0.0000000  0.0000000  3
  11118  11116  11122  11123     1  0.0000000  0.6508444  3
  11118  11116  11122  11124     1  0.0000000  0.6508444  3
  11122  19750  19746  19749     1  0.0000000  1.6038667  3
  11123  11122  19750  19746     1  0.0000000  1.6038667  3
  11124  11122  19750  19746     1  0.0000000  1.6038667  3
  11125  19773  19769  19772     1  0.0000000  1.6038667  3
  11126  11125  19773  19769     1  0.0000000  1.6038667  3
  11127  11125  19773  19769     1  0.0000000  1.6038667  3
  11130  11131  11143  11144     1  0.0000000  0.6508444  3
  11130  11131  11143  11145     1  0.0000000  0.6508444  3
  11130  11134  11146  11147     1  0.0000000  0.6508444  3
  11130  11134  11146  11148     1  0.0000000  0.6508444  3
  11130  11137  11140  11141     1  0.0000000  0.6508444  3
  11130  11137  11140  11142     1  0.0000000  0.6508444  3
  11131  11130  11134  11135     1  0.0000000  0.6508444  3
  11131  11130  11134  11136     1  0.0000000  0.6508444  3
  11131  11130  11137  11138     1  0.0000000  0.6508444  3
  11131  11130  11137  11139     1  0.0000000  0.6508444  3
  11131  11143  11155  11156     1  0.0000000  0.6508444  3
  11131  11143  11155  11157     1  0.0000000  0.6508444  3
  11132  11131  11130  11134     1  0.0000000  0.6508444  3
  11132  11131  11130  11137     1  0.0000000  0.6508444  3
  11132  11131  11130  11159     1  0.0000000  0.6508444  3
  11132  11131  11143  11155     1  0.0000000  0.6508444  3
  11132  11131  11143  11144     1  0.0000000  0.6508444  3
  11132  11131  11143  11145     1  0.0000000  0.6508444  3
  11133  11131  11130  11134     1  0.0000000  0.6508444  3
  11133  11131  11130  11137     1  0.0000000  0.6508444  3
  11133  11131  11130  11159     1  0.0000000  0.6508444  3
  11133  11131  11143  11155     1  0.0000000  0.6508444  3
  11133  11131  11143  11144     1  0.0000000  0.6508444  3
  11133  11131  11143  11145     1  0.0000000  0.6508444  3
  11134  11130  11137  11138     1  0.0000000  0.6508444  3
  11134  11130  11137  11139     1  0.0000000  0.6508444  3
  11134  11146  11152  11153     1  0.0000000  0.6508444  3
  11134  11146  11152  11154     1  0.0000000  0.6508444  3
  11135  11134  11130  11137     1  0.0000000  0.6508444  3
  11135  11134  11130  11159     1  0.0000000  0.6508444  3
  11135  11134  11146  11152     1  0.0000000  0.6508444  3
  11135  11134  11146  11147     1  0.0000000  0.6508444  3
  11135  11134  11146  11148     1  0.0000000  0.6508444  3
  11136  11134  11130  11137     1  0.0000000  0.6508444  3
  11136  11134  11130  11159     1  0.0000000  0.6508444  3
  11136  11134  11146  11152     1  0.0000000  0.6508444  3
  11136  11134  11146  11147     1  0.0000000  0.6508444  3
  11136  11134  11146  11148     1  0.0000000  0.6508444  3
  11137  11140  11149  11150     1  0.0000000  0.6508444  3
  11137  11140  11149  11151     1  0.0000000  0.6508444  3
  11138  11137  11130  11159     1  0.0000000  0.6508444  3
  11138  11137  11140  11149     1  0.0000000  0.6508444  3
  11138  11137  11140  11141     1  0.0000000  0.6508444  3
  11138  11137  11140  11142     1  0.0000000  0.6508444  3
  11139  11137  11130  11159     1  0.0000000  0.6508444  3
  11139  11137  11140  11149     1  0.0000000  0.6508444  3
  11139  11137  11140  11141     1  0.0000000  0.6508444  3
  11139  11137  11140  11142     1  0.0000000  0.6508444  3
  11140  11137  11130  11159     1  0.0000000  0.6508444  3
  11141  11140  11149  11158     1  0.0000000  1.0460000  1
  11141  11140  11149  11158     1  0.0000000  0.0000000  3
  11141  11140  11149  11150     1  0.0000000  0.6508444  3
  11141  11140  11149  11151     1  0.0000000  0.6508444  3
  11142  11140  11149  11158     1  0.0000000  1.0460000  1
  11142  11140  11149  11158     1  0.0000000  0.0000000  3
  11142  11140  11149  11150     1  0.0000000  0.6508444  3
  11142  11140  11149  11151     1  0.0000000  0.6508444  3
  11143  11131  11130  11159     1  0.0000000  0.6508444  3
  11144  11143  11155  19819     1  0.0000000  1.0460000  1
  11144  11143  11155  19819     1  0.0000000  0.0000000  3
  11144  11143  11155  11156     1  0.0000000  0.6508444  3
  11144  11143  11155  11157     1  0.0000000  0.6508444  3
  11145  11143  11155  19819     1  0.0000000  1.0460000  1
  11145  11143  11155  19819     1  0.0000000  0.0000000  3
  11145  11143  11155  11156     1  0.0000000  0.6508444  3
  11145  11143  11155  11157     1  0.0000000  0.6508444  3
  11146  11134  11130  11159     1  0.0000000  0.6508444  3
  11147  11146  11152  19796     1  0.0000000  1.0460000  1
  11147  11146  11152  19796     1  0.0000000  0.0000000  3
  11147  11146  11152  11153     1  0.0000000  0.6508444  3
  11147  11146  11152  11154     1  0.0000000  0.6508444  3
  11148  11146  11152  19796     1  0.0000000  1.0460000  1
  11148  11146  11152  19796     1  0.0000000  0.0000000  3
  11148  11146  11152  11153     1  0.0000000  0.6508444  3
  11148  11146  11152  11154     1  0.0000000  0.6508444  3
  11152  19796  19792  19795     1  0.0000000  1.6038667  3
  11153  11152  19796  19792     1  0.0000000  1.6038667  3
  11154  11152  19796  19792     1  0.0000000  1.6038667  3
  11155  19819  19815  19818     1  0.0000000  1.6038667  3
  11156  11155  19819  19815     1  0.0000000  1.6038667  3
  11157  11155  19819  19815     1  0.0000000  1.6038667  3
  11160  11161  11173  11174     1  0.0000000  0.6508444  3
  11160  11161  11173  11175     1  0.0000000  0.6508444  3
  11160  11164  11176  11177     1  0.0000000  0.6508444  3
  11160  11164  11176  11178     1  0.0000000  0.6508444  3
  11160  11167  11170  11171     1  0.0000000  0.6508444  3
  11160  11167  11170  11172     1  0.0000000  0.6508444  3
  11161  11160  11164  11165     1  0.0000000  0.6508444  3
  11161  11160  11164  11166     1  0.0000000  0.6508444  3
  11161  11160  11167  11168     1  0.0000000  0.6508444  3
  11161  11160  11167  11169     1  0.0000000  0.6508444  3
  11161  11173  11185  11186     1  0.0000000  0.6508444  3
  11161  11173  11185  11187     1  0.0000000  0.6508444  3
  11162  11161  11160  11164     1  0.0000000  0.6508444  3
  11162  11161  11160  11167     1  0.0000000  0.6508444  3
  11162  11161  11160  11189     1  0.0000000  0.6508444  3
  11162  11161  11173  11185     1  0.0000000  0.6508444  3
  11162  11161  11173  11174     1  0.0000000  0.6508444  3
  11162  11161  11173  11175     1  0.0000000  0.6508444  3
  11163  11161  11160  11164     1  0.0000000  0.6508444  3
  11163  11161  11160  11167     1  0.0000000  0.6508444  3
  11163  11161  11160  11189     1  0.0000000  0.6508444  3
  11163  11161  11173  11185     1  0.0000000  0.6508444  3
  11163  11161  11173  11174     1  0.0000000  0.6508444  3
  11163  11161  11173  11175     1  0.0000000  0.6508444  3
  11164  11160  11167  11168     1  0.0000000  0.6508444  3
  11164  11160  11167  11169     1  0.0000000  0.6508444  3
  11164  11176  11182  11183     1  0.0000000  0.6508444  3
  11164  11176  11182  11184     1  0.0000000  0.6508444  3
  11165  11164  11160  11167     1  0.0000000  0.6508444  3
  11165  11164  11160  11189     1  0.0000000  0.6508444  3
  11165  11164  11176  11182     1  0.0000000  0.6508444  3
  11165  11164  11176  11177     1  0.0000000  0.6508444  3
  11165  11164  11176  11178     1  0.0000000  0.6508444  3
  11166  11164  11160  11167     1  0.0000000  0.6508444  3
  11166  11164  11160  11189     1  0.0000000  0.6508444  3
  11166  11164  11176  11182     1  0.0000000  0.6508444  3
  11166  11164  11176  11177     1  0.0000000  0.6508444  3
  11166  11164  11176  11178     1  0.0000000  0.6508444  3
  11167  11170  11179  11180     1  0.0000000  0.6508444  3
  11167  11170  11179  11181     1  0.0000000  0.6508444  3
  11168  11167  11160  11189     1  0.0000000  0.6508444  3
  11168  11167  11170  11179     1  0.0000000  0.6508444  3
  11168  11167  11170  11171     1  0.0000000  0.6508444  3
  11168  11167  11170  11172     1  0.0000000  0.6508444  3
  11169  11167  11160  11189     1  0.0000000  0.6508444  3
  11169  11167  11170  11179     1  0.0000000  0.6508444  3
  11169  11167  11170  11171     1  0.0000000  0.6508444  3
  11169  11167  11170  11172     1  0.0000000  0.6508444  3
  11170  11167  11160  11189     1  0.0000000  0.6508444  3
  11171  11170  11179  11188     1  0.0000000  1.0460000  1
  11171  11170  11179  11188     1  0.0000000  0.0000000  3
  11171  11170  11179  11180     1  0.0000000  0.6508444  3
  11171  11170  11179  11181     1  0.0000000  0.6508444  3
  11172  11170  11179  11188     1  0.0000000  1.0460000  1
  11172  11170  11179  11188     1  0.0000000  0.0000000  3
  11172  11170  11179  11180     1  0.0000000  0.6508444  3
  11172  11170  11179  11181     1  0.0000000  0.6508444  3
  11173  11161  11160  11189     1  0.0000000  0.6508444  3
  11174  11173  11185  19865     1  0.0000000  1.0460000  1
  11174  11173  11185  19865     1  0.0000000  0.0000000  3
  11174  11173  11185  11186     1  0.0000000  0.6508444  3
  11174  11173  11185  11187     1  0.0000000  0.6508444  3
  11175  11173  11185  19865     1  0.0000000  1.0460000  1
  11175  11173  11185  19865     1  0.0000000  0.0000000  3
  11175  11173  11185  11186     1  0.0000000  0.6508444  3
  11175  11173  11185  11187     1  0.0000000  0.6508444  3
  11176  11164  11160  11189     1  0.0000000  0.6508444  3
  11177  11176  11182  19842     1  0.0000000  1.0460000  1
  11177  11176  11182  19842     1  0.0000000  0.0000000  3
  11177  11176  11182  11183     1  0.0000000  0.6508444  3
  11177  11176  11182  11184     1  0.0000000  0.6508444  3
  11178  11176  11182  19842     1  0.0000000  1.0460000  1
  11178  11176  11182  19842     1  0.0000000  0.0000000  3
  11178  11176  11182  11183     1  0.0000000  0.6508444  3
  11178  11176  11182  11184     1  0.0000000  0.6508444  3
  11182  19842  19838  19841     1  0.0000000  1.6038667  3
  11183  11182  19842  19838     1  0.0000000  1.6038667  3
  11184  11182  19842  19838     1  0.0000000  1.6038667  3
  11185  19865  19861  19864     1  0.0000000  1.6038667  3
  11186  11185  19865  19861     1  0.0000000  1.6038667  3
  11187  11185  19865  19861     1  0.0000000  1.6038667  3
  11190  11191  11203  11204     1  0.0000000  0.6508444  3
  11190  11191  11203  11205     1  0.0000000  0.6508444  3
  11190  11194  11206  11207     1  0.0000000  0.6508444  3
  11190  11194  11206  11208     1  0.0000000  0.6508444  3
  11190  11197  11200  11201     1  0.0000000  0.6508444  3
  11190  11197  11200  11202     1  0.0000000  0.6508444  3
  11191  11190  11194  11195     1  0.0000000  0.6508444  3
  11191  11190  11194  11196     1  0.0000000  0.6508444  3
  11191  11190  11197  11198     1  0.0000000  0.6508444  3
  11191  11190  11197  11199     1  0.0000000  0.6508444  3
  11191  11203  11215  11216     1  0.0000000  0.6508444  3
  11191  11203  11215  11217     1  0.0000000  0.6508444  3
  11192  11191  11190  11194     1  0.0000000  0.6508444  3
  11192  11191  11190  11197     1  0.0000000  0.6508444  3
  11192  11191  11190  11219     1  0.0000000  0.6508444  3
  11192  11191  11203  11215     1  0.0000000  0.6508444  3
  11192  11191  11203  11204     1  0.0000000  0.6508444  3
  11192  11191  11203  11205     1  0.0000000  0.6508444  3
  11193  11191  11190  11194     1  0.0000000  0.6508444  3
  11193  11191  11190  11197     1  0.0000000  0.6508444  3
  11193  11191  11190  11219     1  0.0000000  0.6508444  3
  11193  11191  11203  11215     1  0.0000000  0.6508444  3
  11193  11191  11203  11204     1  0.0000000  0.6508444  3
  11193  11191  11203  11205     1  0.0000000  0.6508444  3
  11194  11190  11197  11198     1  0.0000000  0.6508444  3
  11194  11190  11197  11199     1  0.0000000  0.6508444  3
  11194  11206  11212  11213     1  0.0000000  0.6508444  3
  11194  11206  11212  11214     1  0.0000000  0.6508444  3
  11195  11194  11190  11197     1  0.0000000  0.6508444  3
  11195  11194  11190  11219     1  0.0000000  0.6508444  3
  11195  11194  11206  11212     1  0.0000000  0.6508444  3
  11195  11194  11206  11207     1  0.0000000  0.6508444  3
  11195  11194  11206  11208     1  0.0000000  0.6508444  3
  11196  11194  11190  11197     1  0.0000000  0.6508444  3
  11196  11194  11190  11219     1  0.0000000  0.6508444  3
  11196  11194  11206  11212     1  0.0000000  0.6508444  3
  11196  11194  11206  11207     1  0.0000000  0.6508444  3
  11196  11194  11206  11208     1  0.0000000  0.6508444  3
  11197  11200  11209  11210     1  0.0000000  0.6508444  3
  11197  11200  11209  11211     1  0.0000000  0.6508444  3
  11198  11197  11190  11219     1  0.0000000  0.6508444  3
  11198  11197  11200  11209     1  0.0000000  0.6508444  3
  11198  11197  11200  11201     1  0.0000000  0.6508444  3
  11198  11197  11200  11202     1  0.0000000  0.6508444  3
  11199  11197  11190  11219     1  0.0000000  0.6508444  3
  11199  11197  11200  11209     1  0.0000000  0.6508444  3
  11199  11197  11200  11201     1  0.0000000  0.6508444  3
  11199  11197  11200  11202     1  0.0000000  0.6508444  3
  11200  11197  11190  11219     1  0.0000000  0.6508444  3
  11201  11200  11209  11218     1  0.0000000  1.0460000  1
  11201  11200  11209  11218     1  0.0000000  0.0000000  3
  11201  11200  11209  11210     1  0.0000000  0.6508444  3
  11201  11200  11209  11211     1  0.0000000  0.6508444  3
  11202  11200  11209  11218     1  0.0000000  1.0460000  1
  11202  11200  11209  11218     1  0.0000000  0.0000000  3
  11202  11200  11209  11210     1  0.0000000  0.6508444  3
  11202  11200  11209  11211     1  0.0000000  0.6508444  3
  11203  11191  11190  11219     1  0.0000000  0.6508444  3
  11204  11203  11215  19911     1  0.0000000  1.0460000  1
  11204  11203  11215  19911     1  0.0000000  0.0000000  3
  11204  11203  11215  11216     1  0.0000000  0.6508444  3
  11204  11203  11215  11217     1  0.0000000  0.6508444  3
  11205  11203  11215  19911     1  0.0000000  1.0460000  1
  11205  11203  11215  19911     1  0.0000000  0.0000000  3
  11205  11203  11215  11216     1  0.0000000  0.6508444  3
  11205  11203  11215  11217     1  0.0000000  0.6508444  3
  11206  11194  11190  11219     1  0.0000000  0.6508444  3
  11207  11206  11212  19888     1  0.0000000  1.0460000  1
  11207  11206  11212  19888     1  0.0000000  0.0000000  3
  11207  11206  11212  11213     1  0.0000000  0.6508444  3
  11207  11206  11212  11214     1  0.0000000  0.6508444  3
  11208  11206  11212  19888     1  0.0000000  1.0460000  1
  11208  11206  11212  19888     1  0.0000000  0.0000000  3
  11208  11206  11212  11213     1  0.0000000  0.6508444  3
  11208  11206  11212  11214     1  0.0000000  0.6508444  3
  11212  19888  19884  19887     1  0.0000000  1.6038667  3
  11213  11212  19888  19884     1  0.0000000  1.6038667  3
  11214  11212  19888  19884     1  0.0000000  1.6038667  3
  11215  19911  19907  19910     1  0.0000000  1.6038667  3
  11216  11215  19911  19907     1  0.0000000  1.6038667  3
  11217  11215  19911  19907     1  0.0000000  1.6038667  3
  11220  11221  11233  11234     1  0.0000000  0.6508444  3
  11220  11221  11233  11235     1  0.0000000  0.6508444  3
  11220  11224  11236  11237     1  0.0000000  0.6508444  3
  11220  11224  11236  11238     1  0.0000000  0.6508444  3
  11220  11227  11230  11231     1  0.0000000  0.6508444  3
  11220  11227  11230  11232     1  0.0000000  0.6508444  3
  11221  11220  11224  11225     1  0.0000000  0.6508444  3
  11221  11220  11224  11226     1  0.0000000  0.6508444  3
  11221  11220  11227  11228     1  0.0000000  0.6508444  3
  11221  11220  11227  11229     1  0.0000000  0.6508444  3
  11221  11233  11245  11246     1  0.0000000  0.6508444  3
  11221  11233  11245  11247     1  0.0000000  0.6508444  3
  11222  11221  11220  11224     1  0.0000000  0.6508444  3
  11222  11221  11220  11227     1  0.0000000  0.6508444  3
  11222  11221  11220  11249     1  0.0000000  0.6508444  3
  11222  11221  11233  11245     1  0.0000000  0.6508444  3
  11222  11221  11233  11234     1  0.0000000  0.6508444  3
  11222  11221  11233  11235     1  0.0000000  0.6508444  3
  11223  11221  11220  11224     1  0.0000000  0.6508444  3
  11223  11221  11220  11227     1  0.0000000  0.6508444  3
  11223  11221  11220  11249     1  0.0000000  0.6508444  3
  11223  11221  11233  11245     1  0.0000000  0.6508444  3
  11223  11221  11233  11234     1  0.0000000  0.6508444  3
  11223  11221  11233  11235     1  0.0000000  0.6508444  3
  11224  11220  11227  11228     1  0.0000000  0.6508444  3
  11224  11220  11227  11229     1  0.0000000  0.6508444  3
  11224  11236  11242  11243     1  0.0000000  0.6508444  3
  11224  11236  11242  11244     1  0.0000000  0.6508444  3
  11225  11224  11220  11227     1  0.0000000  0.6508444  3
  11225  11224  11220  11249     1  0.0000000  0.6508444  3
  11225  11224  11236  11242     1  0.0000000  0.6508444  3
  11225  11224  11236  11237     1  0.0000000  0.6508444  3
  11225  11224  11236  11238     1  0.0000000  0.6508444  3
  11226  11224  11220  11227     1  0.0000000  0.6508444  3
  11226  11224  11220  11249     1  0.0000000  0.6508444  3
  11226  11224  11236  11242     1  0.0000000  0.6508444  3
  11226  11224  11236  11237     1  0.0000000  0.6508444  3
  11226  11224  11236  11238     1  0.0000000  0.6508444  3
  11227  11230  11239  11240     1  0.0000000  0.6508444  3
  11227  11230  11239  11241     1  0.0000000  0.6508444  3
  11228  11227  11220  11249     1  0.0000000  0.6508444  3
  11228  11227  11230  11239     1  0.0000000  0.6508444  3
  11228  11227  11230  11231     1  0.0000000  0.6508444  3
  11228  11227  11230  11232     1  0.0000000  0.6508444  3
  11229  11227  11220  11249     1  0.0000000  0.6508444  3
  11229  11227  11230  11239     1  0.0000000  0.6508444  3
  11229  11227  11230  11231     1  0.0000000  0.6508444  3
  11229  11227  11230  11232     1  0.0000000  0.6508444  3
  11230  11227  11220  11249     1  0.0000000  0.6508444  3
  11231  11230  11239  11248     1  0.0000000  1.0460000  1
  11231  11230  11239  11248     1  0.0000000  0.0000000  3
  11231  11230  11239  11240     1  0.0000000  0.6508444  3
  11231  11230  11239  11241     1  0.0000000  0.6508444  3
  11232  11230  11239  11248     1  0.0000000  1.0460000  1
  11232  11230  11239  11248     1  0.0000000  0.0000000  3
  11232  11230  11239  11240     1  0.0000000  0.6508444  3
  11232  11230  11239  11241     1  0.0000000  0.6508444  3
  11233  11221  11220  11249     1  0.0000000  0.6508444  3
  11234  11233  11245  19957     1  0.0000000  1.0460000  1
  11234  11233  11245  19957     1  0.0000000  0.0000000  3
  11234  11233  11245  11246     1  0.0000000  0.6508444  3
  11234  11233  11245  11247     1  0.0000000  0.6508444  3
  11235  11233  11245  19957     1  0.0000000  1.0460000  1
  11235  11233  11245  19957     1  0.0000000  0.0000000  3
  11235  11233  11245  11246     1  0.0000000  0.6508444  3
  11235  11233  11245  11247     1  0.0000000  0.6508444  3
  11236  11224  11220  11249     1  0.0000000  0.6508444  3
  11237  11236  11242  19934     1  0.0000000  1.0460000  1
  11237  11236  11242  19934     1  0.0000000  0.0000000  3
  11237  11236  11242  11243     1  0.0000000  0.6508444  3
  11237  11236  11242  11244     1  0.0000000  0.6508444  3
  11238  11236  11242  19934     1  0.0000000  1.0460000  1
  11238  11236  11242  19934     1  0.0000000  0.0000000  3
  11238  11236  11242  11243     1  0.0000000  0.6508444  3
  11238  11236  11242  11244     1  0.0000000  0.6508444  3
  11242  19934  19930  19933     1  0.0000000  1.6038667  3
  11243  11242  19934  19930     1  0.0000000  1.6038667  3
  11244  11242  19934  19930     1  0.0000000  1.6038667  3
  11245  19957  19953  19956     1  0.0000000  1.6038667  3
  11246  11245  19957  19953     1  0.0000000  1.6038667  3
  11247  11245  19957  19953     1  0.0000000  1.6038667  3
  11250  11251  11263  11264     1  0.0000000  0.6508444  3
  11250  11251  11263  11265     1  0.0000000  0.6508444  3
  11250  11254  11266  11267     1  0.0000000  0.6508444  3
  11250  11254  11266  11268     1  0.0000000  0.6508444  3
  11250  11257  11260  11261     1  0.0000000  0.6508444  3
  11250  11257  11260  11262     1  0.0000000  0.6508444  3
  11251  11250  11254  11255     1  0.0000000  0.6508444  3
  11251  11250  11254  11256     1  0.0000000  0.6508444  3
  11251  11250  11257  11258     1  0.0000000  0.6508444  3
  11251  11250  11257  11259     1  0.0000000  0.6508444  3
  11251  11263  11275  11276     1  0.0000000  0.6508444  3
  11251  11263  11275  11277     1  0.0000000  0.6508444  3
  11252  11251  11250  11254     1  0.0000000  0.6508444  3
  11252  11251  11250  11257     1  0.0000000  0.6508444  3
  11252  11251  11250  11279     1  0.0000000  0.6508444  3
  11252  11251  11263  11275     1  0.0000000  0.6508444  3
  11252  11251  11263  11264     1  0.0000000  0.6508444  3
  11252  11251  11263  11265     1  0.0000000  0.6508444  3
  11253  11251  11250  11254     1  0.0000000  0.6508444  3
  11253  11251  11250  11257     1  0.0000000  0.6508444  3
  11253  11251  11250  11279     1  0.0000000  0.6508444  3
  11253  11251  11263  11275     1  0.0000000  0.6508444  3
  11253  11251  11263  11264     1  0.0000000  0.6508444  3
  11253  11251  11263  11265     1  0.0000000  0.6508444  3
  11254  11250  11257  11258     1  0.0000000  0.6508444  3
  11254  11250  11257  11259     1  0.0000000  0.6508444  3
  11254  11266  11272  11273     1  0.0000000  0.6508444  3
  11254  11266  11272  11274     1  0.0000000  0.6508444  3
  11255  11254  11250  11257     1  0.0000000  0.6508444  3
  11255  11254  11250  11279     1  0.0000000  0.6508444  3
  11255  11254  11266  11272     1  0.0000000  0.6508444  3
  11255  11254  11266  11267     1  0.0000000  0.6508444  3
  11255  11254  11266  11268     1  0.0000000  0.6508444  3
  11256  11254  11250  11257     1  0.0000000  0.6508444  3
  11256  11254  11250  11279     1  0.0000000  0.6508444  3
  11256  11254  11266  11272     1  0.0000000  0.6508444  3
  11256  11254  11266  11267     1  0.0000000  0.6508444  3
  11256  11254  11266  11268     1  0.0000000  0.6508444  3
  11257  11260  11269  11270     1  0.0000000  0.6508444  3
  11257  11260  11269  11271     1  0.0000000  0.6508444  3
  11258  11257  11250  11279     1  0.0000000  0.6508444  3
  11258  11257  11260  11269     1  0.0000000  0.6508444  3
  11258  11257  11260  11261     1  0.0000000  0.6508444  3
  11258  11257  11260  11262     1  0.0000000  0.6508444  3
  11259  11257  11250  11279     1  0.0000000  0.6508444  3
  11259  11257  11260  11269     1  0.0000000  0.6508444  3
  11259  11257  11260  11261     1  0.0000000  0.6508444  3
  11259  11257  11260  11262     1  0.0000000  0.6508444  3
  11260  11257  11250  11279     1  0.0000000  0.6508444  3
  11261  11260  11269  11278     1  0.0000000  1.0460000  1
  11261  11260  11269  11278     1  0.0000000  0.0000000  3
  11261  11260  11269  11270     1  0.0000000  0.6508444  3
  11261  11260  11269  11271     1  0.0000000  0.6508444  3
  11262  11260  11269  11278     1  0.0000000  1.0460000  1
  11262  11260  11269  11278     1  0.0000000  0.0000000  3
  11262  11260  11269  11270     1  0.0000000  0.6508444  3
  11262  11260  11269  11271     1  0.0000000  0.6508444  3
  11263  11251  11250  11279     1  0.0000000  0.6508444  3
  11264  11263  11275  20003     1  0.0000000  1.0460000  1
  11264  11263  11275  20003     1  0.0000000  0.0000000  3
  11264  11263  11275  11276     1  0.0000000  0.6508444  3
  11264  11263  11275  11277     1  0.0000000  0.6508444  3
  11265  11263  11275  20003     1  0.0000000  1.0460000  1
  11265  11263  11275  20003     1  0.0000000  0.0000000  3
  11265  11263  11275  11276     1  0.0000000  0.6508444  3
  11265  11263  11275  11277     1  0.0000000  0.6508444  3
  11266  11254  11250  11279     1  0.0000000  0.6508444  3
  11267  11266  11272  19980     1  0.0000000  1.0460000  1
  11267  11266  11272  19980     1  0.0000000  0.0000000  3
  11267  11266  11272  11273     1  0.0000000  0.6508444  3
  11267  11266  11272  11274     1  0.0000000  0.6508444  3
  11268  11266  11272  19980     1  0.0000000  1.0460000  1
  11268  11266  11272  19980     1  0.0000000  0.0000000  3
  11268  11266  11272  11273     1  0.0000000  0.6508444  3
  11268  11266  11272  11274     1  0.0000000  0.6508444  3
  11272  19980  19976  19979     1  0.0000000  1.6038667  3
  11273  11272  19980  19976     1  0.0000000  1.6038667  3
  11274  11272  19980  19976     1  0.0000000  1.6038667  3
  11275  20003  19999  20002     1  0.0000000  1.6038667  3
  11276  11275  20003  19999     1  0.0000000  1.6038667  3
  11277  11275  20003  19999     1  0.0000000  1.6038667  3
  11280  11281  11293  11294     1  0.0000000  0.6508444  3
  11280  11281  11293  11295     1  0.0000000  0.6508444  3
  11280  11284  11296  11297     1  0.0000000  0.6508444  3
  11280  11284  11296  11298     1  0.0000000  0.6508444  3
  11280  11287  11290  11291     1  0.0000000  0.6508444  3
  11280  11287  11290  11292     1  0.0000000  0.6508444  3
  11281  11280  11284  11285     1  0.0000000  0.6508444  3
  11281  11280  11284  11286     1  0.0000000  0.6508444  3
  11281  11280  11287  11288     1  0.0000000  0.6508444  3
  11281  11280  11287  11289     1  0.0000000  0.6508444  3
  11281  11293  11305  11306     1  0.0000000  0.6508444  3
  11281  11293  11305  11307     1  0.0000000  0.6508444  3
  11282  11281  11280  11284     1  0.0000000  0.6508444  3
  11282  11281  11280  11287     1  0.0000000  0.6508444  3
  11282  11281  11280  11309     1  0.0000000  0.6508444  3
  11282  11281  11293  11305     1  0.0000000  0.6508444  3
  11282  11281  11293  11294     1  0.0000000  0.6508444  3
  11282  11281  11293  11295     1  0.0000000  0.6508444  3
  11283  11281  11280  11284     1  0.0000000  0.6508444  3
  11283  11281  11280  11287     1  0.0000000  0.6508444  3
  11283  11281  11280  11309     1  0.0000000  0.6508444  3
  11283  11281  11293  11305     1  0.0000000  0.6508444  3
  11283  11281  11293  11294     1  0.0000000  0.6508444  3
  11283  11281  11293  11295     1  0.0000000  0.6508444  3
  11284  11280  11287  11288     1  0.0000000  0.6508444  3
  11284  11280  11287  11289     1  0.0000000  0.6508444  3
  11284  11296  11302  11303     1  0.0000000  0.6508444  3
  11284  11296  11302  11304     1  0.0000000  0.6508444  3
  11285  11284  11280  11287     1  0.0000000  0.6508444  3
  11285  11284  11280  11309     1  0.0000000  0.6508444  3
  11285  11284  11296  11302     1  0.0000000  0.6508444  3
  11285  11284  11296  11297     1  0.0000000  0.6508444  3
  11285  11284  11296  11298     1  0.0000000  0.6508444  3
  11286  11284  11280  11287     1  0.0000000  0.6508444  3
  11286  11284  11280  11309     1  0.0000000  0.6508444  3
  11286  11284  11296  11302     1  0.0000000  0.6508444  3
  11286  11284  11296  11297     1  0.0000000  0.6508444  3
  11286  11284  11296  11298     1  0.0000000  0.6508444  3
  11287  11290  11299  11300     1  0.0000000  0.6508444  3
  11287  11290  11299  11301     1  0.0000000  0.6508444  3
  11288  11287  11280  11309     1  0.0000000  0.6508444  3
  11288  11287  11290  11299     1  0.0000000  0.6508444  3
  11288  11287  11290  11291     1  0.0000000  0.6508444  3
  11288  11287  11290  11292     1  0.0000000  0.6508444  3
  11289  11287  11280  11309     1  0.0000000  0.6508444  3
  11289  11287  11290  11299     1  0.0000000  0.6508444  3
  11289  11287  11290  11291     1  0.0000000  0.6508444  3
  11289  11287  11290  11292     1  0.0000000  0.6508444  3
  11290  11287  11280  11309     1  0.0000000  0.6508444  3
  11291  11290  11299  11308     1  0.0000000  1.0460000  1
  11291  11290  11299  11308     1  0.0000000  0.0000000  3
  11291  11290  11299  11300     1  0.0000000  0.6508444  3
  11291  11290  11299  11301     1  0.0000000  0.6508444  3
  11292  11290  11299  11308     1  0.0000000  1.0460000  1
  11292  11290  11299  11308     1  0.0000000  0.0000000  3
  11292  11290  11299  11300     1  0.0000000  0.6508444  3
  11292  11290  11299  11301     1  0.0000000  0.6508444  3
  11293  11281  11280  11309     1  0.0000000  0.6508444  3
  11294  11293  11305  20049     1  0.0000000  1.0460000  1
  11294  11293  11305  20049     1  0.0000000  0.0000000  3
  11294  11293  11305  11306     1  0.0000000  0.6508444  3
  11294  11293  11305  11307     1  0.0000000  0.6508444  3
  11295  11293  11305  20049     1  0.0000000  1.0460000  1
  11295  11293  11305  20049     1  0.0000000  0.0000000  3
  11295  11293  11305  11306     1  0.0000000  0.6508444  3
  11295  11293  11305  11307     1  0.0000000  0.6508444  3
  11296  11284  11280  11309     1  0.0000000  0.6508444  3
  11297  11296  11302  20026     1  0.0000000  1.0460000  1
  11297  11296  11302  20026     1  0.0000000  0.0000000  3
  11297  11296  11302  11303     1  0.0000000  0.6508444  3
  11297  11296  11302  11304     1  0.0000000  0.6508444  3
  11298  11296  11302  20026     1  0.0000000  1.0460000  1
  11298  11296  11302  20026     1  0.0000000  0.0000000  3
  11298  11296  11302  11303     1  0.0000000  0.6508444  3
  11298  11296  11302  11304     1  0.0000000  0.6508444  3
  11302  20026  20022  20025     1  0.0000000  1.6038667  3
  11303  11302  20026  20022     1  0.0000000  1.6038667  3
  11304  11302  20026  20022     1  0.0000000  1.6038667  3
  11305  20049  20045  20048     1  0.0000000  1.6038667  3
  11306  11305  20049  20045     1  0.0000000  1.6038667  3
  11307  11305  20049  20045     1  0.0000000  1.6038667  3
  11310  11311  11323  11324     1  0.0000000  0.6508444  3
  11310  11311  11323  11325     1  0.0000000  0.6508444  3
  11310  11314  11326  11327     1  0.0000000  0.6508444  3
  11310  11314  11326  11328     1  0.0000000  0.6508444  3
  11310  11317  11320  11321     1  0.0000000  0.6508444  3
  11310  11317  11320  11322     1  0.0000000  0.6508444  3
  11311  11310  11314  11315     1  0.0000000  0.6508444  3
  11311  11310  11314  11316     1  0.0000000  0.6508444  3
  11311  11310  11317  11318     1  0.0000000  0.6508444  3
  11311  11310  11317  11319     1  0.0000000  0.6508444  3
  11311  11323  11335  11336     1  0.0000000  0.6508444  3
  11311  11323  11335  11337     1  0.0000000  0.6508444  3
  11312  11311  11310  11314     1  0.0000000  0.6508444  3
  11312  11311  11310  11317     1  0.0000000  0.6508444  3
  11312  11311  11310  11339     1  0.0000000  0.6508444  3
  11312  11311  11323  11335     1  0.0000000  0.6508444  3
  11312  11311  11323  11324     1  0.0000000  0.6508444  3
  11312  11311  11323  11325     1  0.0000000  0.6508444  3
  11313  11311  11310  11314     1  0.0000000  0.6508444  3
  11313  11311  11310  11317     1  0.0000000  0.6508444  3
  11313  11311  11310  11339     1  0.0000000  0.6508444  3
  11313  11311  11323  11335     1  0.0000000  0.6508444  3
  11313  11311  11323  11324     1  0.0000000  0.6508444  3
  11313  11311  11323  11325     1  0.0000000  0.6508444  3
  11314  11310  11317  11318     1  0.0000000  0.6508444  3
  11314  11310  11317  11319     1  0.0000000  0.6508444  3
  11314  11326  11332  11333     1  0.0000000  0.6508444  3
  11314  11326  11332  11334     1  0.0000000  0.6508444  3
  11315  11314  11310  11317     1  0.0000000  0.6508444  3
  11315  11314  11310  11339     1  0.0000000  0.6508444  3
  11315  11314  11326  11332     1  0.0000000  0.6508444  3
  11315  11314  11326  11327     1  0.0000000  0.6508444  3
  11315  11314  11326  11328     1  0.0000000  0.6508444  3
  11316  11314  11310  11317     1  0.0000000  0.6508444  3
  11316  11314  11310  11339     1  0.0000000  0.6508444  3
  11316  11314  11326  11332     1  0.0000000  0.6508444  3
  11316  11314  11326  11327     1  0.0000000  0.6508444  3
  11316  11314  11326  11328     1  0.0000000  0.6508444  3
  11317  11320  11329  11330     1  0.0000000  0.6508444  3
  11317  11320  11329  11331     1  0.0000000  0.6508444  3
  11318  11317  11310  11339     1  0.0000000  0.6508444  3
  11318  11317  11320  11329     1  0.0000000  0.6508444  3
  11318  11317  11320  11321     1  0.0000000  0.6508444  3
  11318  11317  11320  11322     1  0.0000000  0.6508444  3
  11319  11317  11310  11339     1  0.0000000  0.6508444  3
  11319  11317  11320  11329     1  0.0000000  0.6508444  3
  11319  11317  11320  11321     1  0.0000000  0.6508444  3
  11319  11317  11320  11322     1  0.0000000  0.6508444  3
  11320  11317  11310  11339     1  0.0000000  0.6508444  3
  11321  11320  11329  11338     1  0.0000000  1.0460000  1
  11321  11320  11329  11338     1  0.0000000  0.0000000  3
  11321  11320  11329  11330     1  0.0000000  0.6508444  3
  11321  11320  11329  11331     1  0.0000000  0.6508444  3
  11322  11320  11329  11338     1  0.0000000  1.0460000  1
  11322  11320  11329  11338     1  0.0000000  0.0000000  3
  11322  11320  11329  11330     1  0.0000000  0.6508444  3
  11322  11320  11329  11331     1  0.0000000  0.6508444  3
  11323  11311  11310  11339     1  0.0000000  0.6508444  3
  11324  11323  11335  20095     1  0.0000000  1.0460000  1
  11324  11323  11335  20095     1  0.0000000  0.0000000  3
  11324  11323  11335  11336     1  0.0000000  0.6508444  3
  11324  11323  11335  11337     1  0.0000000  0.6508444  3
  11325  11323  11335  20095     1  0.0000000  1.0460000  1
  11325  11323  11335  20095     1  0.0000000  0.0000000  3
  11325  11323  11335  11336     1  0.0000000  0.6508444  3
  11325  11323  11335  11337     1  0.0000000  0.6508444  3
  11326  11314  11310  11339     1  0.0000000  0.6508444  3
  11327  11326  11332  20072     1  0.0000000  1.0460000  1
  11327  11326  11332  20072     1  0.0000000  0.0000000  3
  11327  11326  11332  11333     1  0.0000000  0.6508444  3
  11327  11326  11332  11334     1  0.0000000  0.6508444  3
  11328  11326  11332  20072     1  0.0000000  1.0460000  1
  11328  11326  11332  20072     1  0.0000000  0.0000000  3
  11328  11326  11332  11333     1  0.0000000  0.6508444  3
  11328  11326  11332  11334     1  0.0000000  0.6508444  3
  11332  20072  20068  20071     1  0.0000000  1.6038667  3
  11333  11332  20072  20068     1  0.0000000  1.6038667  3
  11334  11332  20072  20068     1  0.0000000  1.6038667  3
  11335  20095  20091  20094     1  0.0000000  1.6038667  3
  11336  11335  20095  20091     1  0.0000000  1.6038667  3
  11337  11335  20095  20091     1  0.0000000  1.6038667  3
  11340  11341  11353  11354     1  0.0000000  0.6508444  3
  11340  11341  11353  11355     1  0.0000000  0.6508444  3
  11340  11344  11356  11357     1  0.0000000  0.6508444  3
  11340  11344  11356  11358     1  0.0000000  0.6508444  3
  11340  11347  11350  11351     1  0.0000000  0.6508444  3
  11340  11347  11350  11352     1  0.0000000  0.6508444  3
  11341  11340  11344  11345     1  0.0000000  0.6508444  3
  11341  11340  11344  11346     1  0.0000000  0.6508444  3
  11341  11340  11347  11348     1  0.0000000  0.6508444  3
  11341  11340  11347  11349     1  0.0000000  0.6508444  3
  11341  11353  11365  11366     1  0.0000000  0.6508444  3
  11341  11353  11365  11367     1  0.0000000  0.6508444  3
  11342  11341  11340  11344     1  0.0000000  0.6508444  3
  11342  11341  11340  11347     1  0.0000000  0.6508444  3
  11342  11341  11340  11369     1  0.0000000  0.6508444  3
  11342  11341  11353  11365     1  0.0000000  0.6508444  3
  11342  11341  11353  11354     1  0.0000000  0.6508444  3
  11342  11341  11353  11355     1  0.0000000  0.6508444  3
  11343  11341  11340  11344     1  0.0000000  0.6508444  3
  11343  11341  11340  11347     1  0.0000000  0.6508444  3
  11343  11341  11340  11369     1  0.0000000  0.6508444  3
  11343  11341  11353  11365     1  0.0000000  0.6508444  3
  11343  11341  11353  11354     1  0.0000000  0.6508444  3
  11343  11341  11353  11355     1  0.0000000  0.6508444  3
  11344  11340  11347  11348     1  0.0000000  0.6508444  3
  11344  11340  11347  11349     1  0.0000000  0.6508444  3
  11344  11356  11362  11363     1  0.0000000  0.6508444  3
  11344  11356  11362  11364     1  0.0000000  0.6508444  3
  11345  11344  11340  11347     1  0.0000000  0.6508444  3
  11345  11344  11340  11369     1  0.0000000  0.6508444  3
  11345  11344  11356  11362     1  0.0000000  0.6508444  3
  11345  11344  11356  11357     1  0.0000000  0.6508444  3
  11345  11344  11356  11358     1  0.0000000  0.6508444  3
  11346  11344  11340  11347     1  0.0000000  0.6508444  3
  11346  11344  11340  11369     1  0.0000000  0.6508444  3
  11346  11344  11356  11362     1  0.0000000  0.6508444  3
  11346  11344  11356  11357     1  0.0000000  0.6508444  3
  11346  11344  11356  11358     1  0.0000000  0.6508444  3
  11347  11350  11359  11360     1  0.0000000  0.6508444  3
  11347  11350  11359  11361     1  0.0000000  0.6508444  3
  11348  11347  11340  11369     1  0.0000000  0.6508444  3
  11348  11347  11350  11359     1  0.0000000  0.6508444  3
  11348  11347  11350  11351     1  0.0000000  0.6508444  3
  11348  11347  11350  11352     1  0.0000000  0.6508444  3
  11349  11347  11340  11369     1  0.0000000  0.6508444  3
  11349  11347  11350  11359     1  0.0000000  0.6508444  3
  11349  11347  11350  11351     1  0.0000000  0.6508444  3
  11349  11347  11350  11352     1  0.0000000  0.6508444  3
  11350  11347  11340  11369     1  0.0000000  0.6508444  3
  11351  11350  11359  11368     1  0.0000000  1.0460000  1
  11351  11350  11359  11368     1  0.0000000  0.0000000  3
  11351  11350  11359  11360     1  0.0000000  0.6508444  3
  11351  11350  11359  11361     1  0.0000000  0.6508444  3
  11352  11350  11359  11368     1  0.0000000  1.0460000  1
  11352  11350  11359  11368     1  0.0000000  0.0000000  3
  11352  11350  11359  11360     1  0.0000000  0.6508444  3
  11352  11350  11359  11361     1  0.0000000  0.6508444  3
  11353  11341  11340  11369     1  0.0000000  0.6508444  3
  11354  11353  11365  20141     1  0.0000000  1.0460000  1
  11354  11353  11365  20141     1  0.0000000  0.0000000  3
  11354  11353  11365  11366     1  0.0000000  0.6508444  3
  11354  11353  11365  11367     1  0.0000000  0.6508444  3
  11355  11353  11365  20141     1  0.0000000  1.0460000  1
  11355  11353  11365  20141     1  0.0000000  0.0000000  3
  11355  11353  11365  11366     1  0.0000000  0.6508444  3
  11355  11353  11365  11367     1  0.0000000  0.6508444  3
  11356  11344  11340  11369     1  0.0000000  0.6508444  3
  11357  11356  11362  20118     1  0.0000000  1.0460000  1
  11357  11356  11362  20118     1  0.0000000  0.0000000  3
  11357  11356  11362  11363     1  0.0000000  0.6508444  3
  11357  11356  11362  11364     1  0.0000000  0.6508444  3
  11358  11356  11362  20118     1  0.0000000  1.0460000  1
  11358  11356  11362  20118     1  0.0000000  0.0000000  3
  11358  11356  11362  11363     1  0.0000000  0.6508444  3
  11358  11356  11362  11364     1  0.0000000  0.6508444  3
  11362  20118  20114  20117     1  0.0000000  1.6038667  3
  11363  11362  20118  20114     1  0.0000000  1.6038667  3
  11364  11362  20118  20114     1  0.0000000  1.6038667  3
  11365  20141  20137  20140     1  0.0000000  1.6038667  3
  11366  11365  20141  20137     1  0.0000000  1.6038667  3
  11367  11365  20141  20137     1  0.0000000  1.6038667  3
  11370  11371  11383  11384     1  0.0000000  0.6508444  3
  11370  11371  11383  11385     1  0.0000000  0.6508444  3
  11370  11374  11386  11387     1  0.0000000  0.6508444  3
  11370  11374  11386  11388     1  0.0000000  0.6508444  3
  11370  11377  11380  11381     1  0.0000000  0.6508444  3
  11370  11377  11380  11382     1  0.0000000  0.6508444  3
  11371  11370  11374  11375     1  0.0000000  0.6508444  3
  11371  11370  11374  11376     1  0.0000000  0.6508444  3
  11371  11370  11377  11378     1  0.0000000  0.6508444  3
  11371  11370  11377  11379     1  0.0000000  0.6508444  3
  11371  11383  11395  11396     1  0.0000000  0.6508444  3
  11371  11383  11395  11397     1  0.0000000  0.6508444  3
  11372  11371  11370  11374     1  0.0000000  0.6508444  3
  11372  11371  11370  11377     1  0.0000000  0.6508444  3
  11372  11371  11370  11399     1  0.0000000  0.6508444  3
  11372  11371  11383  11395     1  0.0000000  0.6508444  3
  11372  11371  11383  11384     1  0.0000000  0.6508444  3
  11372  11371  11383  11385     1  0.0000000  0.6508444  3
  11373  11371  11370  11374     1  0.0000000  0.6508444  3
  11373  11371  11370  11377     1  0.0000000  0.6508444  3
  11373  11371  11370  11399     1  0.0000000  0.6508444  3
  11373  11371  11383  11395     1  0.0000000  0.6508444  3
  11373  11371  11383  11384     1  0.0000000  0.6508444  3
  11373  11371  11383  11385     1  0.0000000  0.6508444  3
  11374  11370  11377  11378     1  0.0000000  0.6508444  3
  11374  11370  11377  11379     1  0.0000000  0.6508444  3
  11374  11386  11392  11393     1  0.0000000  0.6508444  3
  11374  11386  11392  11394     1  0.0000000  0.6508444  3
  11375  11374  11370  11377     1  0.0000000  0.6508444  3
  11375  11374  11370  11399     1  0.0000000  0.6508444  3
  11375  11374  11386  11392     1  0.0000000  0.6508444  3
  11375  11374  11386  11387     1  0.0000000  0.6508444  3
  11375  11374  11386  11388     1  0.0000000  0.6508444  3
  11376  11374  11370  11377     1  0.0000000  0.6508444  3
  11376  11374  11370  11399     1  0.0000000  0.6508444  3
  11376  11374  11386  11392     1  0.0000000  0.6508444  3
  11376  11374  11386  11387     1  0.0000000  0.6508444  3
  11376  11374  11386  11388     1  0.0000000  0.6508444  3
  11377  11380  11389  11390     1  0.0000000  0.6508444  3
  11377  11380  11389  11391     1  0.0000000  0.6508444  3
  11378  11377  11370  11399     1  0.0000000  0.6508444  3
  11378  11377  11380  11389     1  0.0000000  0.6508444  3
  11378  11377  11380  11381     1  0.0000000  0.6508444  3
  11378  11377  11380  11382     1  0.0000000  0.6508444  3
  11379  11377  11370  11399     1  0.0000000  0.6508444  3
  11379  11377  11380  11389     1  0.0000000  0.6508444  3
  11379  11377  11380  11381     1  0.0000000  0.6508444  3
  11379  11377  11380  11382     1  0.0000000  0.6508444  3
  11380  11377  11370  11399     1  0.0000000  0.6508444  3
  11381  11380  11389  11398     1  0.0000000  1.0460000  1
  11381  11380  11389  11398     1  0.0000000  0.0000000  3
  11381  11380  11389  11390     1  0.0000000  0.6508444  3
  11381  11380  11389  11391     1  0.0000000  0.6508444  3
  11382  11380  11389  11398     1  0.0000000  1.0460000  1
  11382  11380  11389  11398     1  0.0000000  0.0000000  3
  11382  11380  11389  11390     1  0.0000000  0.6508444  3
  11382  11380  11389  11391     1  0.0000000  0.6508444  3
  11383  11371  11370  11399     1  0.0000000  0.6508444  3
  11384  11383  11395  20187     1  0.0000000  1.0460000  1
  11384  11383  11395  20187     1  0.0000000  0.0000000  3
  11384  11383  11395  11396     1  0.0000000  0.6508444  3
  11384  11383  11395  11397     1  0.0000000  0.6508444  3
  11385  11383  11395  20187     1  0.0000000  1.0460000  1
  11385  11383  11395  20187     1  0.0000000  0.0000000  3
  11385  11383  11395  11396     1  0.0000000  0.6508444  3
  11385  11383  11395  11397     1  0.0000000  0.6508444  3
  11386  11374  11370  11399     1  0.0000000  0.6508444  3
  11387  11386  11392  20164     1  0.0000000  1.0460000  1
  11387  11386  11392  20164     1  0.0000000  0.0000000  3
  11387  11386  11392  11393     1  0.0000000  0.6508444  3
  11387  11386  11392  11394     1  0.0000000  0.6508444  3
  11388  11386  11392  20164     1  0.0000000  1.0460000  1
  11388  11386  11392  20164     1  0.0000000  0.0000000  3
  11388  11386  11392  11393     1  0.0000000  0.6508444  3
  11388  11386  11392  11394     1  0.0000000  0.6508444  3
  11392  20164  20160  20163     1  0.0000000  1.6038667  3
  11393  11392  20164  20160     1  0.0000000  1.6038667  3
  11394  11392  20164  20160     1  0.0000000  1.6038667  3
  11395  20187  20183  20186     1  0.0000000  1.6038667  3
  11396  11395  20187  20183     1  0.0000000  1.6038667  3
  11397  11395  20187  20183     1  0.0000000  1.6038667  3
  11400  11401  11413  11414     1  0.0000000  0.6508444  3
  11400  11401  11413  11415     1  0.0000000  0.6508444  3
  11400  11404  11416  11417     1  0.0000000  0.6508444  3
  11400  11404  11416  11418     1  0.0000000  0.6508444  3
  11400  11407  11410  11411     1  0.0000000  0.6508444  3
  11400  11407  11410  11412     1  0.0000000  0.6508444  3
  11401  11400  11404  11405     1  0.0000000  0.6508444  3
  11401  11400  11404  11406     1  0.0000000  0.6508444  3
  11401  11400  11407  11408     1  0.0000000  0.6508444  3
  11401  11400  11407  11409     1  0.0000000  0.6508444  3
  11401  11413  11425  11426     1  0.0000000  0.6508444  3
  11401  11413  11425  11427     1  0.0000000  0.6508444  3
  11402  11401  11400  11404     1  0.0000000  0.6508444  3
  11402  11401  11400  11407     1  0.0000000  0.6508444  3
  11402  11401  11400  11429     1  0.0000000  0.6508444  3
  11402  11401  11413  11425     1  0.0000000  0.6508444  3
  11402  11401  11413  11414     1  0.0000000  0.6508444  3
  11402  11401  11413  11415     1  0.0000000  0.6508444  3
  11403  11401  11400  11404     1  0.0000000  0.6508444  3
  11403  11401  11400  11407     1  0.0000000  0.6508444  3
  11403  11401  11400  11429     1  0.0000000  0.6508444  3
  11403  11401  11413  11425     1  0.0000000  0.6508444  3
  11403  11401  11413  11414     1  0.0000000  0.6508444  3
  11403  11401  11413  11415     1  0.0000000  0.6508444  3
  11404  11400  11407  11408     1  0.0000000  0.6508444  3
  11404  11400  11407  11409     1  0.0000000  0.6508444  3
  11404  11416  11422  11423     1  0.0000000  0.6508444  3
  11404  11416  11422  11424     1  0.0000000  0.6508444  3
  11405  11404  11400  11407     1  0.0000000  0.6508444  3
  11405  11404  11400  11429     1  0.0000000  0.6508444  3
  11405  11404  11416  11422     1  0.0000000  0.6508444  3
  11405  11404  11416  11417     1  0.0000000  0.6508444  3
  11405  11404  11416  11418     1  0.0000000  0.6508444  3
  11406  11404  11400  11407     1  0.0000000  0.6508444  3
  11406  11404  11400  11429     1  0.0000000  0.6508444  3
  11406  11404  11416  11422     1  0.0000000  0.6508444  3
  11406  11404  11416  11417     1  0.0000000  0.6508444  3
  11406  11404  11416  11418     1  0.0000000  0.6508444  3
  11407  11410  11419  11420     1  0.0000000  0.6508444  3
  11407  11410  11419  11421     1  0.0000000  0.6508444  3
  11408  11407  11400  11429     1  0.0000000  0.6508444  3
  11408  11407  11410  11419     1  0.0000000  0.6508444  3
  11408  11407  11410  11411     1  0.0000000  0.6508444  3
  11408  11407  11410  11412     1  0.0000000  0.6508444  3
  11409  11407  11400  11429     1  0.0000000  0.6508444  3
  11409  11407  11410  11419     1  0.0000000  0.6508444  3
  11409  11407  11410  11411     1  0.0000000  0.6508444  3
  11409  11407  11410  11412     1  0.0000000  0.6508444  3
  11410  11407  11400  11429     1  0.0000000  0.6508444  3
  11411  11410  11419  11428     1  0.0000000  1.0460000  1
  11411  11410  11419  11428     1  0.0000000  0.0000000  3
  11411  11410  11419  11420     1  0.0000000  0.6508444  3
  11411  11410  11419  11421     1  0.0000000  0.6508444  3
  11412  11410  11419  11428     1  0.0000000  1.0460000  1
  11412  11410  11419  11428     1  0.0000000  0.0000000  3
  11412  11410  11419  11420     1  0.0000000  0.6508444  3
  11412  11410  11419  11421     1  0.0000000  0.6508444  3
  11413  11401  11400  11429     1  0.0000000  0.6508444  3
  11414  11413  11425  20233     1  0.0000000  1.0460000  1
  11414  11413  11425  20233     1  0.0000000  0.0000000  3
  11414  11413  11425  11426     1  0.0000000  0.6508444  3
  11414  11413  11425  11427     1  0.0000000  0.6508444  3
  11415  11413  11425  20233     1  0.0000000  1.0460000  1
  11415  11413  11425  20233     1  0.0000000  0.0000000  3
  11415  11413  11425  11426     1  0.0000000  0.6508444  3
  11415  11413  11425  11427     1  0.0000000  0.6508444  3
  11416  11404  11400  11429     1  0.0000000  0.6508444  3
  11417  11416  11422  20210     1  0.0000000  1.0460000  1
  11417  11416  11422  20210     1  0.0000000  0.0000000  3
  11417  11416  11422  11423     1  0.0000000  0.6508444  3
  11417  11416  11422  11424     1  0.0000000  0.6508444  3
  11418  11416  11422  20210     1  0.0000000  1.0460000  1
  11418  11416  11422  20210     1  0.0000000  0.0000000  3
  11418  11416  11422  11423     1  0.0000000  0.6508444  3
  11418  11416  11422  11424     1  0.0000000  0.6508444  3
  11422  20210  20206  20209     1  0.0000000  1.6038667  3
  11423  11422  20210  20206     1  0.0000000  1.6038667  3
  11424  11422  20210  20206     1  0.0000000  1.6038667  3
  11425  20233  20229  20232     1  0.0000000  1.6038667  3
  11426  11425  20233  20229     1  0.0000000  1.6038667  3
  11427  11425  20233  20229     1  0.0000000  1.6038667  3
  11430  11431  11443  11444     1  0.0000000  0.6508444  3
  11430  11431  11443  11445     1  0.0000000  0.6508444  3
  11430  11434  11446  11447     1  0.0000000  0.6508444  3
  11430  11434  11446  11448     1  0.0000000  0.6508444  3
  11430  11437  11440  11441     1  0.0000000  0.6508444  3
  11430  11437  11440  11442     1  0.0000000  0.6508444  3
  11431  11430  11434  11435     1  0.0000000  0.6508444  3
  11431  11430  11434  11436     1  0.0000000  0.6508444  3
  11431  11430  11437  11438     1  0.0000000  0.6508444  3
  11431  11430  11437  11439     1  0.0000000  0.6508444  3
  11431  11443  11455  11456     1  0.0000000  0.6508444  3
  11431  11443  11455  11457     1  0.0000000  0.6508444  3
  11432  11431  11430  11434     1  0.0000000  0.6508444  3
  11432  11431  11430  11437     1  0.0000000  0.6508444  3
  11432  11431  11430  11459     1  0.0000000  0.6508444  3
  11432  11431  11443  11455     1  0.0000000  0.6508444  3
  11432  11431  11443  11444     1  0.0000000  0.6508444  3
  11432  11431  11443  11445     1  0.0000000  0.6508444  3
  11433  11431  11430  11434     1  0.0000000  0.6508444  3
  11433  11431  11430  11437     1  0.0000000  0.6508444  3
  11433  11431  11430  11459     1  0.0000000  0.6508444  3
  11433  11431  11443  11455     1  0.0000000  0.6508444  3
  11433  11431  11443  11444     1  0.0000000  0.6508444  3
  11433  11431  11443  11445     1  0.0000000  0.6508444  3
  11434  11430  11437  11438     1  0.0000000  0.6508444  3
  11434  11430  11437  11439     1  0.0000000  0.6508444  3
  11434  11446  11452  11453     1  0.0000000  0.6508444  3
  11434  11446  11452  11454     1  0.0000000  0.6508444  3
  11435  11434  11430  11437     1  0.0000000  0.6508444  3
  11435  11434  11430  11459     1  0.0000000  0.6508444  3
  11435  11434  11446  11452     1  0.0000000  0.6508444  3
  11435  11434  11446  11447     1  0.0000000  0.6508444  3
  11435  11434  11446  11448     1  0.0000000  0.6508444  3
  11436  11434  11430  11437     1  0.0000000  0.6508444  3
  11436  11434  11430  11459     1  0.0000000  0.6508444  3
  11436  11434  11446  11452     1  0.0000000  0.6508444  3
  11436  11434  11446  11447     1  0.0000000  0.6508444  3
  11436  11434  11446  11448     1  0.0000000  0.6508444  3
  11437  11440  11449  11450     1  0.0000000  0.6508444  3
  11437  11440  11449  11451     1  0.0000000  0.6508444  3
  11438  11437  11430  11459     1  0.0000000  0.6508444  3
  11438  11437  11440  11449     1  0.0000000  0.6508444  3
  11438  11437  11440  11441     1  0.0000000  0.6508444  3
  11438  11437  11440  11442     1  0.0000000  0.6508444  3
  11439  11437  11430  11459     1  0.0000000  0.6508444  3
  11439  11437  11440  11449     1  0.0000000  0.6508444  3
  11439  11437  11440  11441     1  0.0000000  0.6508444  3
  11439  11437  11440  11442     1  0.0000000  0.6508444  3
  11440  11437  11430  11459     1  0.0000000  0.6508444  3
  11441  11440  11449  11458     1  0.0000000  1.0460000  1
  11441  11440  11449  11458     1  0.0000000  0.0000000  3
  11441  11440  11449  11450     1  0.0000000  0.6508444  3
  11441  11440  11449  11451     1  0.0000000  0.6508444  3
  11442  11440  11449  11458     1  0.0000000  1.0460000  1
  11442  11440  11449  11458     1  0.0000000  0.0000000  3
  11442  11440  11449  11450     1  0.0000000  0.6508444  3
  11442  11440  11449  11451     1  0.0000000  0.6508444  3
  11443  11431  11430  11459     1  0.0000000  0.6508444  3
  11444  11443  11455  20279     1  0.0000000  1.0460000  1
  11444  11443  11455  20279     1  0.0000000  0.0000000  3
  11444  11443  11455  11456     1  0.0000000  0.6508444  3
  11444  11443  11455  11457     1  0.0000000  0.6508444  3
  11445  11443  11455  20279     1  0.0000000  1.0460000  1
  11445  11443  11455  20279     1  0.0000000  0.0000000  3
  11445  11443  11455  11456     1  0.0000000  0.6508444  3
  11445  11443  11455  11457     1  0.0000000  0.6508444  3
  11446  11434  11430  11459     1  0.0000000  0.6508444  3
  11447  11446  11452  20256     1  0.0000000  1.0460000  1
  11447  11446  11452  20256     1  0.0000000  0.0000000  3
  11447  11446  11452  11453     1  0.0000000  0.6508444  3
  11447  11446  11452  11454     1  0.0000000  0.6508444  3
  11448  11446  11452  20256     1  0.0000000  1.0460000  1
  11448  11446  11452  20256     1  0.0000000  0.0000000  3
  11448  11446  11452  11453     1  0.0000000  0.6508444  3
  11448  11446  11452  11454     1  0.0000000  0.6508444  3
  11452  20256  20252  20255     1  0.0000000  1.6038667  3
  11453  11452  20256  20252     1  0.0000000  1.6038667  3
  11454  11452  20256  20252     1  0.0000000  1.6038667  3
  11455  20279  20275  20278     1  0.0000000  1.6038667  3
  11456  11455  20279  20275     1  0.0000000  1.6038667  3
  11457  11455  20279  20275     1  0.0000000  1.6038667  3
  11460  11461  11464  11468     1  0.0000000  0.6508444  3
  11460  11461  11473  11476     1  0.0000000  1.0460000  1
  11460  11461  11473  11476     1  0.0000000  0.6694400  3
  11460  11474  11480  11481     1  0.0000000  1.0460000  1
  11460  11474  11480  11481     1  0.0000000  0.6694400  3
  11460  11482  11466  11469     1  0.0000000  1.6038667  3
  11461  11460  11474  11478     1  0.0000000  0.6508444  3
  11461  11460  11474  11479     1  0.0000000  0.6508444  3
  11461  11464  11465  11467     1  0.0000000  0.6508444  3
  11461  11464  11472  11475     1  0.0000000  1.0460000  1
  11461  11464  11472  11475     1  0.0000000  0.6694400  3
  11462  11460  11461  11464     1  0.0000000  0.6508444  3
  11462  11460  11461  11473     1  0.0000000  1.0460000  1
  11462  11460  11461  11473     1  0.0000000  0.0000000  3
  11462  11460  11461  11463     1  0.0000000  0.6508444  3
  11462  11460  11474  11480     1  0.0000000  1.0460000  1
  11462  11460  11474  11480     1  0.0000000  0.0000000  3
  11462  11460  11474  11478     1  0.0000000  0.6508444  3
  11462  11460  11474  11479     1  0.0000000  0.6508444  3
  11462  11460  11482  11466     1  0.0000000  1.6038667  3
  11463  11461  11460  11474     1  0.0000000  0.6508444  3
  11463  11461  11460  11482     1  0.0000000  1.0460000  1
  11463  11461  11460  11482     1  0.0000000  0.0000000  3
  11463  11461  11464  11465     1  0.0000000  0.6508444  3
  11463  11461  11464  11472     1  0.0000000  1.0460000  1
  11463  11461  11464  11472     1  0.0000000  0.0000000  3
  11463  11461  11464  11468     1  0.0000000  0.6508444  3
  11463  11461  11473  11476     1  0.0000000  0.6973333  3
  11464  11461  11473  11476     1  0.0000000  1.0460000  1
  11464  11461  11473  11476     1  0.0000000  0.6694400  3
  11464  11465  11466  11469     1  0.0000000  0.6508444  3
  11464  11465  11471  11477     1  0.0000000  1.0460000  1
  11464  11465  11471  11477     1  0.0000000  0.6694400  3
  11465  11464  11472  11475     1  0.0000000  1.0460000  1
  11465  11464  11472  11475     1  0.0000000  0.6694400  3
  11466  11465  11464  11468     1  0.0000000  0.6508444  3
  11466  11465  11471  11477     1  0.0000000  1.0460000  1
  11466  11465  11471  11477     1  0.0000000  0.6694400  3
  11467  11465  11464  11472     1  0.0000000  1.0460000  1
  11467  11465  11464  11472     1  0.0000000  0.0000000  3
  11467  11465  11464  11468     1  0.0000000  0.6508444  3
  11467  11465  11466  11470     1  0.0000000  1.0460000  1
  11467  11465  11466  11470     1  0.0000000  0.0000000  3
  11467  11465  11466  11482     1  0.0000000  1.0460000  1
  11467  11465  11466  11482     1  0.0000000  0.0000000  3
  11467  11465  11466  11469     1  0.0000000  0.6508444  3
  11467  11465  11471  11477     1  0.0000000  0.6973333  3
  11468  11464  11461  11473     1  0.0000000  1.0460000  1
  11468  11464  11461  11473     1  0.0000000  0.0000000  3
  11468  11464  11465  11471     1  0.0000000  1.0460000  1
  11468  11464  11465  11471     1  0.0000000  0.0000000  3
  11468  11464  11472  11475     1  0.0000000  0.6973333  3
  11469  11466  11465  11471     1  0.0000000  0.6508444  3
  11478  11474  11460  11482     1  0.0000000  1.0460000  1
  11478  11474  11460  11482     1  0.0000000  0.0000000  3
  11478  11474  11480  11481     1  0.0000000  0.6973333  3
  11479  11474  11460  11482     1  0.0000000  1.0460000  1
  11479  11474  11460  11482     1  0.0000000  0.0000000  3
  11479  11474  11480  11481     1  0.0000000  0.6973333  3
  11483  11484  11487  11491     1  0.0000000  0.6508444  3
  11483  11484  11496  11499     1  0.0000000  1.0460000  1
  11483  11484  11496  11499     1  0.0000000  0.6694400  3
  11483  11497  11503  11504     1  0.0000000  1.0460000  1
  11483  11497  11503  11504     1  0.0000000  0.6694400  3
  11483  11505  11489  11492     1  0.0000000  1.6038667  3
  11484  11487  11488  11490     1  0.0000000  0.6508444  3
  11484  11487  11495  11498     1  0.0000000  1.0460000  1
  11484  11487  11495  11498     1  0.0000000  0.6694400  3
  11484  11483  11497  11501     1  0.0000000  0.6508444  3
  11484  11483  11497  11502     1  0.0000000  0.6508444  3
  11485  11483  11484  11487     1  0.0000000  0.6508444  3
  11485  11483  11484  11496     1  0.0000000  1.0460000  1
  11485  11483  11484  11496     1  0.0000000  0.0000000  3
  11485  11483  11484  11486     1  0.0000000  0.6508444  3
  11485  11483  11497  11503     1  0.0000000  1.0460000  1
  11485  11483  11497  11503     1  0.0000000  0.0000000  3
  11485  11483  11497  11501     1  0.0000000  0.6508444  3
  11485  11483  11497  11502     1  0.0000000  0.6508444  3
  11485  11483  11505  11489     1  0.0000000  1.6038667  3
  11486  11484  11487  11488     1  0.0000000  0.6508444  3
  11486  11484  11487  11495     1  0.0000000  1.0460000  1
  11486  11484  11487  11495     1  0.0000000  0.0000000  3
  11486  11484  11487  11491     1  0.0000000  0.6508444  3
  11486  11484  11496  11499     1  0.0000000  0.6973333  3
  11486  11484  11483  11497     1  0.0000000  0.6508444  3
  11486  11484  11483  11505     1  0.0000000  1.0460000  1
  11486  11484  11483  11505     1  0.0000000  0.0000000  3
  11487  11488  11489  11492     1  0.0000000  0.6508444  3
  11487  11488  11494  11500     1  0.0000000  1.0460000  1
  11487  11488  11494  11500     1  0.0000000  0.6694400  3
  11487  11484  11496  11499     1  0.0000000  1.0460000  1
  11487  11484  11496  11499     1  0.0000000  0.6694400  3
  11488  11487  11495  11498     1  0.0000000  1.0460000  1
  11488  11487  11495  11498     1  0.0000000  0.6694400  3
  11489  11488  11494  11500     1  0.0000000  1.0460000  1
  11489  11488  11494  11500     1  0.0000000  0.6694400  3
  11489  11488  11487  11491     1  0.0000000  0.6508444  3
  11490  11488  11489  11493     1  0.0000000  1.0460000  1
  11490  11488  11489  11493     1  0.0000000  0.0000000  3
  11490  11488  11489  11505     1  0.0000000  1.0460000  1
  11490  11488  11489  11505     1  0.0000000  0.0000000  3
  11490  11488  11489  11492     1  0.0000000  0.6508444  3
  11490  11488  11494  11500     1  0.0000000  0.6973333  3
  11490  11488  11487  11495     1  0.0000000  1.0460000  1
  11490  11488  11487  11495     1  0.0000000  0.0000000  3
  11490  11488  11487  11491     1  0.0000000  0.6508444  3
  11491  11487  11488  11494     1  0.0000000  1.0460000  1
  11491  11487  11488  11494     1  0.0000000  0.0000000  3
  11491  11487  11495  11498     1  0.0000000  0.6973333  3
  11491  11487  11484  11496     1  0.0000000  1.0460000  1
  11491  11487  11484  11496     1  0.0000000  0.0000000  3
  11492  11489  11488  11494     1  0.0000000  0.6508444  3
  11501  11497  11503  11504     1  0.0000000  0.6973333  3
  11501  11497  11483  11505     1  0.0000000  1.0460000  1
  11501  11497  11483  11505     1  0.0000000  0.0000000  3
  11502  11497  11503  11504     1  0.0000000  0.6973333  3
  11502  11497  11483  11505     1  0.0000000  1.0460000  1
  11502  11497  11483  11505     1  0.0000000  0.0000000  3
  11506  11507  11510  11514     1  0.0000000  0.6508444  3
  11506  11507  11519  11522     1  0.0000000  1.0460000  1
  11506  11507  11519  11522     1  0.0000000  0.6694400  3
  11506  11520  11526  11527     1  0.0000000  1.0460000  1
  11506  11520  11526  11527     1  0.0000000  0.6694400  3
  11506  11528  11512  11515     1  0.0000000  1.6038667  3
  11507  11506  11520  11524     1  0.0000000  0.6508444  3
  11507  11506  11520  11525     1  0.0000000  0.6508444  3
  11507  11510  11511  11513     1  0.0000000  0.6508444  3
  11507  11510  11518  11521     1  0.0000000  1.0460000  1
  11507  11510  11518  11521     1  0.0000000  0.6694400  3
  11508  11506  11507  11510     1  0.0000000  0.6508444  3
  11508  11506  11507  11519     1  0.0000000  1.0460000  1
  11508  11506  11507  11519     1  0.0000000  0.0000000  3
  11508  11506  11507  11509     1  0.0000000  0.6508444  3
  11508  11506  11520  11526     1  0.0000000  1.0460000  1
  11508  11506  11520  11526     1  0.0000000  0.0000000  3
  11508  11506  11520  11524     1  0.0000000  0.6508444  3
  11508  11506  11520  11525     1  0.0000000  0.6508444  3
  11508  11506  11528  11512     1  0.0000000  1.6038667  3
  11509  11507  11506  11520     1  0.0000000  0.6508444  3
  11509  11507  11506  11528     1  0.0000000  1.0460000  1
  11509  11507  11506  11528     1  0.0000000  0.0000000  3
  11509  11507  11510  11511     1  0.0000000  0.6508444  3
  11509  11507  11510  11518     1  0.0000000  1.0460000  1
  11509  11507  11510  11518     1  0.0000000  0.0000000  3
  11509  11507  11510  11514     1  0.0000000  0.6508444  3
  11509  11507  11519  11522     1  0.0000000  0.6973333  3
  11510  11507  11519  11522     1  0.0000000  1.0460000  1
  11510  11507  11519  11522     1  0.0000000  0.6694400  3
  11510  11511  11512  11515     1  0.0000000  0.6508444  3
  11510  11511  11517  11523     1  0.0000000  1.0460000  1
  11510  11511  11517  11523     1  0.0000000  0.6694400  3
  11511  11510  11518  11521     1  0.0000000  1.0460000  1
  11511  11510  11518  11521     1  0.0000000  0.6694400  3
  11512  11511  11510  11514     1  0.0000000  0.6508444  3
  11512  11511  11517  11523     1  0.0000000  1.0460000  1
  11512  11511  11517  11523     1  0.0000000  0.6694400  3
  11513  11511  11510  11518     1  0.0000000  1.0460000  1
  11513  11511  11510  11518     1  0.0000000  0.0000000  3
  11513  11511  11510  11514     1  0.0000000  0.6508444  3
  11513  11511  11512  11516     1  0.0000000  1.0460000  1
  11513  11511  11512  11516     1  0.0000000  0.0000000  3
  11513  11511  11512  11528     1  0.0000000  1.0460000  1
  11513  11511  11512  11528     1  0.0000000  0.0000000  3
  11513  11511  11512  11515     1  0.0000000  0.6508444  3
  11513  11511  11517  11523     1  0.0000000  0.6973333  3
  11514  11510  11507  11519     1  0.0000000  1.0460000  1
  11514  11510  11507  11519     1  0.0000000  0.0000000  3
  11514  11510  11511  11517     1  0.0000000  1.0460000  1
  11514  11510  11511  11517     1  0.0000000  0.0000000  3
  11514  11510  11518  11521     1  0.0000000  0.6973333  3
  11515  11512  11511  11517     1  0.0000000  0.6508444  3
  11524  11520  11506  11528     1  0.0000000  1.0460000  1
  11524  11520  11506  11528     1  0.0000000  0.0000000  3
  11524  11520  11526  11527     1  0.0000000  0.6973333  3
  11525  11520  11506  11528     1  0.0000000  1.0460000  1
  11525  11520  11506  11528     1  0.0000000  0.0000000  3
  11525  11520  11526  11527     1  0.0000000  0.6973333  3
  11529  11530  11533  11537     1  0.0000000  0.6508444  3
  11529  11530  11542  11545     1  0.0000000  1.0460000  1
  11529  11530  11542  11545     1  0.0000000  0.6694400  3
  11529  11543  11549  11550     1  0.0000000  1.0460000  1
  11529  11543  11549  11550     1  0.0000000  0.6694400  3
  11529  11551  11535  11538     1  0.0000000  1.6038667  3
  11530  11533  11534  11536     1  0.0000000  0.6508444  3
  11530  11533  11541  11544     1  0.0000000  1.0460000  1
  11530  11533  11541  11544     1  0.0000000  0.6694400  3
  11530  11529  11543  11547     1  0.0000000  0.6508444  3
  11530  11529  11543  11548     1  0.0000000  0.6508444  3
  11531  11529  11530  11533     1  0.0000000  0.6508444  3
  11531  11529  11530  11542     1  0.0000000  1.0460000  1
  11531  11529  11530  11542     1  0.0000000  0.0000000  3
  11531  11529  11530  11532     1  0.0000000  0.6508444  3
  11531  11529  11543  11549     1  0.0000000  1.0460000  1
  11531  11529  11543  11549     1  0.0000000  0.0000000  3
  11531  11529  11543  11547     1  0.0000000  0.6508444  3
  11531  11529  11543  11548     1  0.0000000  0.6508444  3
  11531  11529  11551  11535     1  0.0000000  1.6038667  3
  11532  11530  11533  11534     1  0.0000000  0.6508444  3
  11532  11530  11533  11541     1  0.0000000  1.0460000  1
  11532  11530  11533  11541     1  0.0000000  0.0000000  3
  11532  11530  11533  11537     1  0.0000000  0.6508444  3
  11532  11530  11542  11545     1  0.0000000  0.6973333  3
  11532  11530  11529  11543     1  0.0000000  0.6508444  3
  11532  11530  11529  11551     1  0.0000000  1.0460000  1
  11532  11530  11529  11551     1  0.0000000  0.0000000  3
  11533  11534  11535  11538     1  0.0000000  0.6508444  3
  11533  11534  11540  11546     1  0.0000000  1.0460000  1
  11533  11534  11540  11546     1  0.0000000  0.6694400  3
  11533  11530  11542  11545     1  0.0000000  1.0460000  1
  11533  11530  11542  11545     1  0.0000000  0.6694400  3
  11534  11533  11541  11544     1  0.0000000  1.0460000  1
  11534  11533  11541  11544     1  0.0000000  0.6694400  3
  11535  11534  11540  11546     1  0.0000000  1.0460000  1
  11535  11534  11540  11546     1  0.0000000  0.6694400  3
  11535  11534  11533  11537     1  0.0000000  0.6508444  3
  11536  11534  11535  11539     1  0.0000000  1.0460000  1
  11536  11534  11535  11539     1  0.0000000  0.0000000  3
  11536  11534  11535  11551     1  0.0000000  1.0460000  1
  11536  11534  11535  11551     1  0.0000000  0.0000000  3
  11536  11534  11535  11538     1  0.0000000  0.6508444  3
  11536  11534  11540  11546     1  0.0000000  0.6973333  3
  11536  11534  11533  11541     1  0.0000000  1.0460000  1
  11536  11534  11533  11541     1  0.0000000  0.0000000  3
  11536  11534  11533  11537     1  0.0000000  0.6508444  3
  11537  11533  11534  11540     1  0.0000000  1.0460000  1
  11537  11533  11534  11540     1  0.0000000  0.0000000  3
  11537  11533  11541  11544     1  0.0000000  0.6973333  3
  11537  11533  11530  11542     1  0.0000000  1.0460000  1
  11537  11533  11530  11542     1  0.0000000  0.0000000  3
  11538  11535  11534  11540     1  0.0000000  0.6508444  3
  11547  11543  11549  11550     1  0.0000000  0.6973333  3
  11547  11543  11529  11551     1  0.0000000  1.0460000  1
  11547  11543  11529  11551     1  0.0000000  0.0000000  3
  11548  11543  11549  11550     1  0.0000000  0.6973333  3
  11548  11543  11529  11551     1  0.0000000  1.0460000  1
  11548  11543  11529  11551     1  0.0000000  0.0000000  3
  11552  11553  11556  11560     1  0.0000000  0.6508444  3
  11552  11553  11565  11568     1  0.0000000  1.0460000  1
  11552  11553  11565  11568     1  0.0000000  0.6694400  3
  11552  11566  11572  11573     1  0.0000000  1.0460000  1
  11552  11566  11572  11573     1  0.0000000  0.6694400  3
  11552  11574  11558  11561     1  0.0000000  1.6038667  3
  11553  11552  11566  11570     1  0.0000000  0.6508444  3
  11553  11552  11566  11571     1  0.0000000  0.6508444  3
  11553  11556  11557  11559     1  0.0000000  0.6508444  3
  11553  11556  11564  11567     1  0.0000000  1.0460000  1
  11553  11556  11564  11567     1  0.0000000  0.6694400  3
  11554  11552  11553  11556     1  0.0000000  0.6508444  3
  11554  11552  11553  11565     1  0.0000000  1.0460000  1
  11554  11552  11553  11565     1  0.0000000  0.0000000  3
  11554  11552  11553  11555     1  0.0000000  0.6508444  3
  11554  11552  11566  11572     1  0.0000000  1.0460000  1
  11554  11552  11566  11572     1  0.0000000  0.0000000  3
  11554  11552  11566  11570     1  0.0000000  0.6508444  3
  11554  11552  11566  11571     1  0.0000000  0.6508444  3
  11554  11552  11574  11558     1  0.0000000  1.6038667  3
  11555  11553  11552  11566     1  0.0000000  0.6508444  3
  11555  11553  11552  11574     1  0.0000000  1.0460000  1
  11555  11553  11552  11574     1  0.0000000  0.0000000  3
  11555  11553  11556  11557     1  0.0000000  0.6508444  3
  11555  11553  11556  11564     1  0.0000000  1.0460000  1
  11555  11553  11556  11564     1  0.0000000  0.0000000  3
  11555  11553  11556  11560     1  0.0000000  0.6508444  3
  11555  11553  11565  11568     1  0.0000000  0.6973333  3
  11556  11553  11565  11568     1  0.0000000  1.0460000  1
  11556  11553  11565  11568     1  0.0000000  0.6694400  3
  11556  11557  11558  11561     1  0.0000000  0.6508444  3
  11556  11557  11563  11569     1  0.0000000  1.0460000  1
  11556  11557  11563  11569     1  0.0000000  0.6694400  3
  11557  11556  11564  11567     1  0.0000000  1.0460000  1
  11557  11556  11564  11567     1  0.0000000  0.6694400  3
  11558  11557  11556  11560     1  0.0000000  0.6508444  3
  11558  11557  11563  11569     1  0.0000000  1.0460000  1
  11558  11557  11563  11569     1  0.0000000  0.6694400  3
  11559  11557  11556  11564     1  0.0000000  1.0460000  1
  11559  11557  11556  11564     1  0.0000000  0.0000000  3
  11559  11557  11556  11560     1  0.0000000  0.6508444  3
  11559  11557  11558  11562     1  0.0000000  1.0460000  1
  11559  11557  11558  11562     1  0.0000000  0.0000000  3
  11559  11557  11558  11574     1  0.0000000  1.0460000  1
  11559  11557  11558  11574     1  0.0000000  0.0000000  3
  11559  11557  11558  11561     1  0.0000000  0.6508444  3
  11559  11557  11563  11569     1  0.0000000  0.6973333  3
  11560  11556  11553  11565     1  0.0000000  1.0460000  1
  11560  11556  11553  11565     1  0.0000000  0.0000000  3
  11560  11556  11557  11563     1  0.0000000  1.0460000  1
  11560  11556  11557  11563     1  0.0000000  0.0000000  3
  11560  11556  11564  11567     1  0.0000000  0.6973333  3
  11561  11558  11557  11563     1  0.0000000  0.6508444  3
  11570  11566  11552  11574     1  0.0000000  1.0460000  1
  11570  11566  11552  11574     1  0.0000000  0.0000000  3
  11570  11566  11572  11573     1  0.0000000  0.6973333  3
  11571  11566  11552  11574     1  0.0000000  1.0460000  1
  11571  11566  11552  11574     1  0.0000000  0.0000000  3
  11571  11566  11572  11573     1  0.0000000  0.6973333  3
  11575  11576  11579  11583     1  0.0000000  0.6508444  3
  11575  11576  11588  11591     1  0.0000000  1.0460000  1
  11575  11576  11588  11591     1  0.0000000  0.6694400  3
  11575  11589  11595  11596     1  0.0000000  1.0460000  1
  11575  11589  11595  11596     1  0.0000000  0.6694400  3
  11575  11597  11581  11584     1  0.0000000  1.6038667  3
  11576  11579  11580  11582     1  0.0000000  0.6508444  3
  11576  11579  11587  11590     1  0.0000000  1.0460000  1
  11576  11579  11587  11590     1  0.0000000  0.6694400  3
  11576  11575  11589  11593     1  0.0000000  0.6508444  3
  11576  11575  11589  11594     1  0.0000000  0.6508444  3
  11577  11575  11576  11579     1  0.0000000  0.6508444  3
  11577  11575  11576  11588     1  0.0000000  1.0460000  1
  11577  11575  11576  11588     1  0.0000000  0.0000000  3
  11577  11575  11576  11578     1  0.0000000  0.6508444  3
  11577  11575  11589  11595     1  0.0000000  1.0460000  1
  11577  11575  11589  11595     1  0.0000000  0.0000000  3
  11577  11575  11589  11593     1  0.0000000  0.6508444  3
  11577  11575  11589  11594     1  0.0000000  0.6508444  3
  11577  11575  11597  11581     1  0.0000000  1.6038667  3
  11578  11576  11579  11580     1  0.0000000  0.6508444  3
  11578  11576  11579  11587     1  0.0000000  1.0460000  1
  11578  11576  11579  11587     1  0.0000000  0.0000000  3
  11578  11576  11579  11583     1  0.0000000  0.6508444  3
  11578  11576  11588  11591     1  0.0000000  0.6973333  3
  11578  11576  11575  11589     1  0.0000000  0.6508444  3
  11578  11576  11575  11597     1  0.0000000  1.0460000  1
  11578  11576  11575  11597     1  0.0000000  0.0000000  3
  11579  11580  11581  11584     1  0.0000000  0.6508444  3
  11579  11580  11586  11592     1  0.0000000  1.0460000  1
  11579  11580  11586  11592     1  0.0000000  0.6694400  3
  11579  11576  11588  11591     1  0.0000000  1.0460000  1
  11579  11576  11588  11591     1  0.0000000  0.6694400  3
  11580  11579  11587  11590     1  0.0000000  1.0460000  1
  11580  11579  11587  11590     1  0.0000000  0.6694400  3
  11581  11580  11586  11592     1  0.0000000  1.0460000  1
  11581  11580  11586  11592     1  0.0000000  0.6694400  3
  11581  11580  11579  11583     1  0.0000000  0.6508444  3
  11582  11580  11581  11585     1  0.0000000  1.0460000  1
  11582  11580  11581  11585     1  0.0000000  0.0000000  3
  11582  11580  11581  11597     1  0.0000000  1.0460000  1
  11582  11580  11581  11597     1  0.0000000  0.0000000  3
  11582  11580  11581  11584     1  0.0000000  0.6508444  3
  11582  11580  11586  11592     1  0.0000000  0.6973333  3
  11582  11580  11579  11587     1  0.0000000  1.0460000  1
  11582  11580  11579  11587     1  0.0000000  0.0000000  3
  11582  11580  11579  11583     1  0.0000000  0.6508444  3
  11583  11579  11580  11586     1  0.0000000  1.0460000  1
  11583  11579  11580  11586     1  0.0000000  0.0000000  3
  11583  11579  11587  11590     1  0.0000000  0.6973333  3
  11583  11579  11576  11588     1  0.0000000  1.0460000  1
  11583  11579  11576  11588     1  0.0000000  0.0000000  3
  11584  11581  11580  11586     1  0.0000000  0.6508444  3
  11593  11589  11595  11596     1  0.0000000  0.6973333  3
  11593  11589  11575  11597     1  0.0000000  1.0460000  1
  11593  11589  11575  11597     1  0.0000000  0.0000000  3
  11594  11589  11595  11596     1  0.0000000  0.6973333  3
  11594  11589  11575  11597     1  0.0000000  1.0460000  1
  11594  11589  11575  11597     1  0.0000000  0.0000000  3
  11598  11599  11602  11606     1  0.0000000  0.6508444  3
  11598  11599  11611  11614     1  0.0000000  1.0460000  1
  11598  11599  11611  11614     1  0.0000000  0.6694400  3
  11598  11612  11618  11619     1  0.0000000  1.0460000  1
  11598  11612  11618  11619     1  0.0000000  0.6694400  3
  11598  11620  11604  11607     1  0.0000000  1.6038667  3
  11599  11598  11612  11616     1  0.0000000  0.6508444  3
  11599  11598  11612  11617     1  0.0000000  0.6508444  3
  11599  11602  11603  11605     1  0.0000000  0.6508444  3
  11599  11602  11610  11613     1  0.0000000  1.0460000  1
  11599  11602  11610  11613     1  0.0000000  0.6694400  3
  11600  11598  11599  11602     1  0.0000000  0.6508444  3
  11600  11598  11599  11611     1  0.0000000  1.0460000  1
  11600  11598  11599  11611     1  0.0000000  0.0000000  3
  11600  11598  11599  11601     1  0.0000000  0.6508444  3
  11600  11598  11612  11618     1  0.0000000  1.0460000  1
  11600  11598  11612  11618     1  0.0000000  0.0000000  3
  11600  11598  11612  11616     1  0.0000000  0.6508444  3
  11600  11598  11612  11617     1  0.0000000  0.6508444  3
  11600  11598  11620  11604     1  0.0000000  1.6038667  3
  11601  11599  11598  11612     1  0.0000000  0.6508444  3
  11601  11599  11598  11620     1  0.0000000  1.0460000  1
  11601  11599  11598  11620     1  0.0000000  0.0000000  3
  11601  11599  11602  11603     1  0.0000000  0.6508444  3
  11601  11599  11602  11610     1  0.0000000  1.0460000  1
  11601  11599  11602  11610     1  0.0000000  0.0000000  3
  11601  11599  11602  11606     1  0.0000000  0.6508444  3
  11601  11599  11611  11614     1  0.0000000  0.6973333  3
  11602  11599  11611  11614     1  0.0000000  1.0460000  1
  11602  11599  11611  11614     1  0.0000000  0.6694400  3
  11602  11603  11604  11607     1  0.0000000  0.6508444  3
  11602  11603  11609  11615     1  0.0000000  1.0460000  1
  11602  11603  11609  11615     1  0.0000000  0.6694400  3
  11603  11602  11610  11613     1  0.0000000  1.0460000  1
  11603  11602  11610  11613     1  0.0000000  0.6694400  3
  11604  11603  11602  11606     1  0.0000000  0.6508444  3
  11604  11603  11609  11615     1  0.0000000  1.0460000  1
  11604  11603  11609  11615     1  0.0000000  0.6694400  3
  11605  11603  11602  11610     1  0.0000000  1.0460000  1
  11605  11603  11602  11610     1  0.0000000  0.0000000  3
  11605  11603  11602  11606     1  0.0000000  0.6508444  3
  11605  11603  11604  11608     1  0.0000000  1.0460000  1
  11605  11603  11604  11608     1  0.0000000  0.0000000  3
  11605  11603  11604  11620     1  0.0000000  1.0460000  1
  11605  11603  11604  11620     1  0.0000000  0.0000000  3
  11605  11603  11604  11607     1  0.0000000  0.6508444  3
  11605  11603  11609  11615     1  0.0000000  0.6973333  3
  11606  11602  11599  11611     1  0.0000000  1.0460000  1
  11606  11602  11599  11611     1  0.0000000  0.0000000  3
  11606  11602  11603  11609     1  0.0000000  1.0460000  1
  11606  11602  11603  11609     1  0.0000000  0.0000000  3
  11606  11602  11610  11613     1  0.0000000  0.6973333  3
  11607  11604  11603  11609     1  0.0000000  0.6508444  3
  11616  11612  11598  11620     1  0.0000000  1.0460000  1
  11616  11612  11598  11620     1  0.0000000  0.0000000  3
  11616  11612  11618  11619     1  0.0000000  0.6973333  3
  11617  11612  11598  11620     1  0.0000000  1.0460000  1
  11617  11612  11598  11620     1  0.0000000  0.0000000  3
  11617  11612  11618  11619     1  0.0000000  0.6973333  3
  11621  11622  11625  11629     1  0.0000000  0.6508444  3
  11621  11622  11634  11637     1  0.0000000  1.0460000  1
  11621  11622  11634  11637     1  0.0000000  0.6694400  3
  11621  11635  11641  11642     1  0.0000000  1.0460000  1
  11621  11635  11641  11642     1  0.0000000  0.6694400  3
  11621  11643  11627  11630     1  0.0000000  1.6038667  3
  11622  11625  11626  11628     1  0.0000000  0.6508444  3
  11622  11625  11633  11636     1  0.0000000  1.0460000  1
  11622  11625  11633  11636     1  0.0000000  0.6694400  3
  11622  11621  11635  11639     1  0.0000000  0.6508444  3
  11622  11621  11635  11640     1  0.0000000  0.6508444  3
  11623  11621  11622  11625     1  0.0000000  0.6508444  3
  11623  11621  11622  11634     1  0.0000000  1.0460000  1
  11623  11621  11622  11634     1  0.0000000  0.0000000  3
  11623  11621  11622  11624     1  0.0000000  0.6508444  3
  11623  11621  11635  11641     1  0.0000000  1.0460000  1
  11623  11621  11635  11641     1  0.0000000  0.0000000  3
  11623  11621  11635  11639     1  0.0000000  0.6508444  3
  11623  11621  11635  11640     1  0.0000000  0.6508444  3
  11623  11621  11643  11627     1  0.0000000  1.6038667  3
  11624  11622  11625  11626     1  0.0000000  0.6508444  3
  11624  11622  11625  11633     1  0.0000000  1.0460000  1
  11624  11622  11625  11633     1  0.0000000  0.0000000  3
  11624  11622  11625  11629     1  0.0000000  0.6508444  3
  11624  11622  11634  11637     1  0.0000000  0.6973333  3
  11624  11622  11621  11635     1  0.0000000  0.6508444  3
  11624  11622  11621  11643     1  0.0000000  1.0460000  1
  11624  11622  11621  11643     1  0.0000000  0.0000000  3
  11625  11626  11627  11630     1  0.0000000  0.6508444  3
  11625  11626  11632  11638     1  0.0000000  1.0460000  1
  11625  11626  11632  11638     1  0.0000000  0.6694400  3
  11625  11622  11634  11637     1  0.0000000  1.0460000  1
  11625  11622  11634  11637     1  0.0000000  0.6694400  3
  11626  11625  11633  11636     1  0.0000000  1.0460000  1
  11626  11625  11633  11636     1  0.0000000  0.6694400  3
  11627  11626  11632  11638     1  0.0000000  1.0460000  1
  11627  11626  11632  11638     1  0.0000000  0.6694400  3
  11627  11626  11625  11629     1  0.0000000  0.6508444  3
  11628  11626  11627  11631     1  0.0000000  1.0460000  1
  11628  11626  11627  11631     1  0.0000000  0.0000000  3
  11628  11626  11627  11643     1  0.0000000  1.0460000  1
  11628  11626  11627  11643     1  0.0000000  0.0000000  3
  11628  11626  11627  11630     1  0.0000000  0.6508444  3
  11628  11626  11632  11638     1  0.0000000  0.6973333  3
  11628  11626  11625  11633     1  0.0000000  1.0460000  1
  11628  11626  11625  11633     1  0.0000000  0.0000000  3
  11628  11626  11625  11629     1  0.0000000  0.6508444  3
  11629  11625  11626  11632     1  0.0000000  1.0460000  1
  11629  11625  11626  11632     1  0.0000000  0.0000000  3
  11629  11625  11633  11636     1  0.0000000  0.6973333  3
  11629  11625  11622  11634     1  0.0000000  1.0460000  1
  11629  11625  11622  11634     1  0.0000000  0.0000000  3
  11630  11627  11626  11632     1  0.0000000  0.6508444  3
  11639  11635  11641  11642     1  0.0000000  0.6973333  3
  11639  11635  11621  11643     1  0.0000000  1.0460000  1
  11639  11635  11621  11643     1  0.0000000  0.0000000  3
  11640  11635  11641  11642     1  0.0000000  0.6973333  3
  11640  11635  11621  11643     1  0.0000000  1.0460000  1
  11640  11635  11621  11643     1  0.0000000  0.0000000  3
  11644  11645  11648  11652     1  0.0000000  0.6508444  3
  11644  11645  11657  11660     1  0.0000000  1.0460000  1
  11644  11645  11657  11660     1  0.0000000  0.6694400  3
  11644  11658  11664  11665     1  0.0000000  1.0460000  1
  11644  11658  11664  11665     1  0.0000000  0.6694400  3
  11644  11666  11650  11653     1  0.0000000  1.6038667  3
  11645  11644  11658  11662     1  0.0000000  0.6508444  3
  11645  11644  11658  11663     1  0.0000000  0.6508444  3
  11645  11648  11649  11651     1  0.0000000  0.6508444  3
  11645  11648  11656  11659     1  0.0000000  1.0460000  1
  11645  11648  11656  11659     1  0.0000000  0.6694400  3
  11646  11644  11645  11648     1  0.0000000  0.6508444  3
  11646  11644  11645  11657     1  0.0000000  1.0460000  1
  11646  11644  11645  11657     1  0.0000000  0.0000000  3
  11646  11644  11645  11647     1  0.0000000  0.6508444  3
  11646  11644  11658  11664     1  0.0000000  1.0460000  1
  11646  11644  11658  11664     1  0.0000000  0.0000000  3
  11646  11644  11658  11662     1  0.0000000  0.6508444  3
  11646  11644  11658  11663     1  0.0000000  0.6508444  3
  11646  11644  11666  11650     1  0.0000000  1.6038667  3
  11647  11645  11644  11658     1  0.0000000  0.6508444  3
  11647  11645  11644  11666     1  0.0000000  1.0460000  1
  11647  11645  11644  11666     1  0.0000000  0.0000000  3
  11647  11645  11648  11649     1  0.0000000  0.6508444  3
  11647  11645  11648  11656     1  0.0000000  1.0460000  1
  11647  11645  11648  11656     1  0.0000000  0.0000000  3
  11647  11645  11648  11652     1  0.0000000  0.6508444  3
  11647  11645  11657  11660     1  0.0000000  0.6973333  3
  11648  11645  11657  11660     1  0.0000000  1.0460000  1
  11648  11645  11657  11660     1  0.0000000  0.6694400  3
  11648  11649  11650  11653     1  0.0000000  0.6508444  3
  11648  11649  11655  11661     1  0.0000000  1.0460000  1
  11648  11649  11655  11661     1  0.0000000  0.6694400  3
  11649  11648  11656  11659     1  0.0000000  1.0460000  1
  11649  11648  11656  11659     1  0.0000000  0.6694400  3
  11650  11649  11648  11652     1  0.0000000  0.6508444  3
  11650  11649  11655  11661     1  0.0000000  1.0460000  1
  11650  11649  11655  11661     1  0.0000000  0.6694400  3
  11651  11649  11648  11656     1  0.0000000  1.0460000  1
  11651  11649  11648  11656     1  0.0000000  0.0000000  3
  11651  11649  11648  11652     1  0.0000000  0.6508444  3
  11651  11649  11650  11654     1  0.0000000  1.0460000  1
  11651  11649  11650  11654     1  0.0000000  0.0000000  3
  11651  11649  11650  11666     1  0.0000000  1.0460000  1
  11651  11649  11650  11666     1  0.0000000  0.0000000  3
  11651  11649  11650  11653     1  0.0000000  0.6508444  3
  11651  11649  11655  11661     1  0.0000000  0.6973333  3
  11652  11648  11645  11657     1  0.0000000  1.0460000  1
  11652  11648  11645  11657     1  0.0000000  0.0000000  3
  11652  11648  11649  11655     1  0.0000000  1.0460000  1
  11652  11648  11649  11655     1  0.0000000  0.0000000  3
  11652  11648  11656  11659     1  0.0000000  0.6973333  3
  11653  11650  11649  11655     1  0.0000000  0.6508444  3
  11662  11658  11644  11666     1  0.0000000  1.0460000  1
  11662  11658  11644  11666     1  0.0000000  0.0000000  3
  11662  11658  11664  11665     1  0.0000000  0.6973333  3
  11663  11658  11644  11666     1  0.0000000  1.0460000  1
  11663  11658  11644  11666     1  0.0000000  0.0000000  3
  11663  11658  11664  11665     1  0.0000000  0.6973333  3
  11667  11668  11671  11675     1  0.0000000  0.6508444  3
  11667  11668  11680  11683     1  0.0000000  1.0460000  1
  11667  11668  11680  11683     1  0.0000000  0.6694400  3
  11667  11681  11687  11688     1  0.0000000  1.0460000  1
  11667  11681  11687  11688     1  0.0000000  0.6694400  3
  11667  11689  11673  11676     1  0.0000000  1.6038667  3
  11668  11671  11672  11674     1  0.0000000  0.6508444  3
  11668  11671  11679  11682     1  0.0000000  1.0460000  1
  11668  11671  11679  11682     1  0.0000000  0.6694400  3
  11668  11667  11681  11685     1  0.0000000  0.6508444  3
  11668  11667  11681  11686     1  0.0000000  0.6508444  3
  11669  11667  11668  11671     1  0.0000000  0.6508444  3
  11669  11667  11668  11680     1  0.0000000  1.0460000  1
  11669  11667  11668  11680     1  0.0000000  0.0000000  3
  11669  11667  11668  11670     1  0.0000000  0.6508444  3
  11669  11667  11681  11687     1  0.0000000  1.0460000  1
  11669  11667  11681  11687     1  0.0000000  0.0000000  3
  11669  11667  11681  11685     1  0.0000000  0.6508444  3
  11669  11667  11681  11686     1  0.0000000  0.6508444  3
  11669  11667  11689  11673     1  0.0000000  1.6038667  3
  11670  11668  11671  11672     1  0.0000000  0.6508444  3
  11670  11668  11671  11679     1  0.0000000  1.0460000  1
  11670  11668  11671  11679     1  0.0000000  0.0000000  3
  11670  11668  11671  11675     1  0.0000000  0.6508444  3
  11670  11668  11680  11683     1  0.0000000  0.6973333  3
  11670  11668  11667  11681     1  0.0000000  0.6508444  3
  11670  11668  11667  11689     1  0.0000000  1.0460000  1
  11670  11668  11667  11689     1  0.0000000  0.0000000  3
  11671  11672  11673  11676     1  0.0000000  0.6508444  3
  11671  11672  11678  11684     1  0.0000000  1.0460000  1
  11671  11672  11678  11684     1  0.0000000  0.6694400  3
  11671  11668  11680  11683     1  0.0000000  1.0460000  1
  11671  11668  11680  11683     1  0.0000000  0.6694400  3
  11672  11671  11679  11682     1  0.0000000  1.0460000  1
  11672  11671  11679  11682     1  0.0000000  0.6694400  3
  11673  11672  11678  11684     1  0.0000000  1.0460000  1
  11673  11672  11678  11684     1  0.0000000  0.6694400  3
  11673  11672  11671  11675     1  0.0000000  0.6508444  3
  11674  11672  11673  11677     1  0.0000000  1.0460000  1
  11674  11672  11673  11677     1  0.0000000  0.0000000  3
  11674  11672  11673  11689     1  0.0000000  1.0460000  1
  11674  11672  11673  11689     1  0.0000000  0.0000000  3
  11674  11672  11673  11676     1  0.0000000  0.6508444  3
  11674  11672  11678  11684     1  0.0000000  0.6973333  3
  11674  11672  11671  11679     1  0.0000000  1.0460000  1
  11674  11672  11671  11679     1  0.0000000  0.0000000  3
  11674  11672  11671  11675     1  0.0000000  0.6508444  3
  11675  11671  11672  11678     1  0.0000000  1.0460000  1
  11675  11671  11672  11678     1  0.0000000  0.0000000  3
  11675  11671  11679  11682     1  0.0000000  0.6973333  3
  11675  11671  11668  11680     1  0.0000000  1.0460000  1
  11675  11671  11668  11680     1  0.0000000  0.0000000  3
  11676  11673  11672  11678     1  0.0000000  0.6508444  3
  11685  11681  11687  11688     1  0.0000000  0.6973333  3
  11685  11681  11667  11689     1  0.0000000  1.0460000  1
  11685  11681  11667  11689     1  0.0000000  0.0000000  3
  11686  11681  11687  11688     1  0.0000000  0.6973333  3
  11686  11681  11667  11689     1  0.0000000  1.0460000  1
  11686  11681  11667  11689     1  0.0000000  0.0000000  3
  11690  11691  11694  11698     1  0.0000000  0.6508444  3
  11690  11691  11703  11706     1  0.0000000  1.0460000  1
  11690  11691  11703  11706     1  0.0000000  0.6694400  3
  11690  11704  11710  11711     1  0.0000000  1.0460000  1
  11690  11704  11710  11711     1  0.0000000  0.6694400  3
  11690  11712  11696  11699     1  0.0000000  1.6038667  3
  11691  11690  11704  11708     1  0.0000000  0.6508444  3
  11691  11690  11704  11709     1  0.0000000  0.6508444  3
  11691  11694  11695  11697     1  0.0000000  0.6508444  3
  11691  11694  11702  11705     1  0.0000000  1.0460000  1
  11691  11694  11702  11705     1  0.0000000  0.6694400  3
  11692  11690  11691  11694     1  0.0000000  0.6508444  3
  11692  11690  11691  11703     1  0.0000000  1.0460000  1
  11692  11690  11691  11703     1  0.0000000  0.0000000  3
  11692  11690  11691  11693     1  0.0000000  0.6508444  3
  11692  11690  11704  11710     1  0.0000000  1.0460000  1
  11692  11690  11704  11710     1  0.0000000  0.0000000  3
  11692  11690  11704  11708     1  0.0000000  0.6508444  3
  11692  11690  11704  11709     1  0.0000000  0.6508444  3
  11692  11690  11712  11696     1  0.0000000  1.6038667  3
  11693  11691  11690  11704     1  0.0000000  0.6508444  3
  11693  11691  11690  11712     1  0.0000000  1.0460000  1
  11693  11691  11690  11712     1  0.0000000  0.0000000  3
  11693  11691  11694  11695     1  0.0000000  0.6508444  3
  11693  11691  11694  11702     1  0.0000000  1.0460000  1
  11693  11691  11694  11702     1  0.0000000  0.0000000  3
  11693  11691  11694  11698     1  0.0000000  0.6508444  3
  11693  11691  11703  11706     1  0.0000000  0.6973333  3
  11694  11691  11703  11706     1  0.0000000  1.0460000  1
  11694  11691  11703  11706     1  0.0000000  0.6694400  3
  11694  11695  11696  11699     1  0.0000000  0.6508444  3
  11694  11695  11701  11707     1  0.0000000  1.0460000  1
  11694  11695  11701  11707     1  0.0000000  0.6694400  3
  11695  11694  11702  11705     1  0.0000000  1.0460000  1
  11695  11694  11702  11705     1  0.0000000  0.6694400  3
  11696  11695  11694  11698     1  0.0000000  0.6508444  3
  11696  11695  11701  11707     1  0.0000000  1.0460000  1
  11696  11695  11701  11707     1  0.0000000  0.6694400  3
  11697  11695  11694  11702     1  0.0000000  1.0460000  1
  11697  11695  11694  11702     1  0.0000000  0.0000000  3
  11697  11695  11694  11698     1  0.0000000  0.6508444  3
  11697  11695  11696  11700     1  0.0000000  1.0460000  1
  11697  11695  11696  11700     1  0.0000000  0.0000000  3
  11697  11695  11696  11712     1  0.0000000  1.0460000  1
  11697  11695  11696  11712     1  0.0000000  0.0000000  3
  11697  11695  11696  11699     1  0.0000000  0.6508444  3
  11697  11695  11701  11707     1  0.0000000  0.6973333  3
  11698  11694  11691  11703     1  0.0000000  1.0460000  1
  11698  11694  11691  11703     1  0.0000000  0.0000000  3
  11698  11694  11695  11701     1  0.0000000  1.0460000  1
  11698  11694  11695  11701     1  0.0000000  0.0000000  3
  11698  11694  11702  11705     1  0.0000000  0.6973333  3
  11699  11696  11695  11701     1  0.0000000  0.6508444  3
  11708  11704  11690  11712     1  0.0000000  1.0460000  1
  11708  11704  11690  11712     1  0.0000000  0.0000000  3
  11708  11704  11710  11711     1  0.0000000  0.6973333  3
  11709  11704  11690  11712     1  0.0000000  1.0460000  1
  11709  11704  11690  11712     1  0.0000000  0.0000000  3
  11709  11704  11710  11711     1  0.0000000  0.6973333  3
  11713  11714  11717  11721     1  0.0000000  0.6508444  3
  11713  11714  11726  11729     1  0.0000000  1.0460000  1
  11713  11714  11726  11729     1  0.0000000  0.6694400  3
  11713  11727  11733  11734     1  0.0000000  1.0460000  1
  11713  11727  11733  11734     1  0.0000000  0.6694400  3
  11713  11735  11719  11722     1  0.0000000  1.6038667  3
  11714  11717  11718  11720     1  0.0000000  0.6508444  3
  11714  11717  11725  11728     1  0.0000000  1.0460000  1
  11714  11717  11725  11728     1  0.0000000  0.6694400  3
  11714  11713  11727  11731     1  0.0000000  0.6508444  3
  11714  11713  11727  11732     1  0.0000000  0.6508444  3
  11715  11713  11714  11717     1  0.0000000  0.6508444  3
  11715  11713  11714  11726     1  0.0000000  1.0460000  1
  11715  11713  11714  11726     1  0.0000000  0.0000000  3
  11715  11713  11714  11716     1  0.0000000  0.6508444  3
  11715  11713  11727  11733     1  0.0000000  1.0460000  1
  11715  11713  11727  11733     1  0.0000000  0.0000000  3
  11715  11713  11727  11731     1  0.0000000  0.6508444  3
  11715  11713  11727  11732     1  0.0000000  0.6508444  3
  11715  11713  11735  11719     1  0.0000000  1.6038667  3
  11716  11714  11717  11718     1  0.0000000  0.6508444  3
  11716  11714  11717  11725     1  0.0000000  1.0460000  1
  11716  11714  11717  11725     1  0.0000000  0.0000000  3
  11716  11714  11717  11721     1  0.0000000  0.6508444  3
  11716  11714  11726  11729     1  0.0000000  0.6973333  3
  11716  11714  11713  11727     1  0.0000000  0.6508444  3
  11716  11714  11713  11735     1  0.0000000  1.0460000  1
  11716  11714  11713  11735     1  0.0000000  0.0000000  3
  11717  11718  11719  11722     1  0.0000000  0.6508444  3
  11717  11718  11724  11730     1  0.0000000  1.0460000  1
  11717  11718  11724  11730     1  0.0000000  0.6694400  3
  11717  11714  11726  11729     1  0.0000000  1.0460000  1
  11717  11714  11726  11729     1  0.0000000  0.6694400  3
  11718  11717  11725  11728     1  0.0000000  1.0460000  1
  11718  11717  11725  11728     1  0.0000000  0.6694400  3
  11719  11718  11724  11730     1  0.0000000  1.0460000  1
  11719  11718  11724  11730     1  0.0000000  0.6694400  3
  11719  11718  11717  11721     1  0.0000000  0.6508444  3
  11720  11718  11719  11723     1  0.0000000  1.0460000  1
  11720  11718  11719  11723     1  0.0000000  0.0000000  3
  11720  11718  11719  11735     1  0.0000000  1.0460000  1
  11720  11718  11719  11735     1  0.0000000  0.0000000  3
  11720  11718  11719  11722     1  0.0000000  0.6508444  3
  11720  11718  11724  11730     1  0.0000000  0.6973333  3
  11720  11718  11717  11725     1  0.0000000  1.0460000  1
  11720  11718  11717  11725     1  0.0000000  0.0000000  3
  11720  11718  11717  11721     1  0.0000000  0.6508444  3
  11721  11717  11718  11724     1  0.0000000  1.0460000  1
  11721  11717  11718  11724     1  0.0000000  0.0000000  3
  11721  11717  11725  11728     1  0.0000000  0.6973333  3
  11721  11717  11714  11726     1  0.0000000  1.0460000  1
  11721  11717  11714  11726     1  0.0000000  0.0000000  3
  11722  11719  11718  11724     1  0.0000000  0.6508444  3
  11731  11727  11733  11734     1  0.0000000  0.6973333  3
  11731  11727  11713  11735     1  0.0000000  1.0460000  1
  11731  11727  11713  11735     1  0.0000000  0.0000000  3
  11732  11727  11733  11734     1  0.0000000  0.6973333  3
  11732  11727  11713  11735     1  0.0000000  1.0460000  1
  11732  11727  11713  11735     1  0.0000000  0.0000000  3
  11736  11737  11740  11744     1  0.0000000  0.6508444  3
  11736  11737  11749  11752     1  0.0000000  1.0460000  1
  11736  11737  11749  11752     1  0.0000000  0.6694400  3
  11736  11750  11756  11757     1  0.0000000  1.0460000  1
  11736  11750  11756  11757     1  0.0000000  0.6694400  3
  11736  11758  11742  11745     1  0.0000000  1.6038667  3
  11737  11736  11750  11754     1  0.0000000  0.6508444  3
  11737  11736  11750  11755     1  0.0000000  0.6508444  3
  11737  11740  11741  11743     1  0.0000000  0.6508444  3
  11737  11740  11748  11751     1  0.0000000  1.0460000  1
  11737  11740  11748  11751     1  0.0000000  0.6694400  3
  11738  11736  11737  11740     1  0.0000000  0.6508444  3
  11738  11736  11737  11749     1  0.0000000  1.0460000  1
  11738  11736  11737  11749     1  0.0000000  0.0000000  3
  11738  11736  11737  11739     1  0.0000000  0.6508444  3
  11738  11736  11750  11756     1  0.0000000  1.0460000  1
  11738  11736  11750  11756     1  0.0000000  0.0000000  3
  11738  11736  11750  11754     1  0.0000000  0.6508444  3
  11738  11736  11750  11755     1  0.0000000  0.6508444  3
  11738  11736  11758  11742     1  0.0000000  1.6038667  3
  11739  11737  11736  11750     1  0.0000000  0.6508444  3
  11739  11737  11736  11758     1  0.0000000  1.0460000  1
  11739  11737  11736  11758     1  0.0000000  0.0000000  3
  11739  11737  11740  11741     1  0.0000000  0.6508444  3
  11739  11737  11740  11748     1  0.0000000  1.0460000  1
  11739  11737  11740  11748     1  0.0000000  0.0000000  3
  11739  11737  11740  11744     1  0.0000000  0.6508444  3
  11739  11737  11749  11752     1  0.0000000  0.6973333  3
  11740  11737  11749  11752     1  0.0000000  1.0460000  1
  11740  11737  11749  11752     1  0.0000000  0.6694400  3
  11740  11741  11742  11745     1  0.0000000  0.6508444  3
  11740  11741  11747  11753     1  0.0000000  1.0460000  1
  11740  11741  11747  11753     1  0.0000000  0.6694400  3
  11741  11740  11748  11751     1  0.0000000  1.0460000  1
  11741  11740  11748  11751     1  0.0000000  0.6694400  3
  11742  11741  11740  11744     1  0.0000000  0.6508444  3
  11742  11741  11747  11753     1  0.0000000  1.0460000  1
  11742  11741  11747  11753     1  0.0000000  0.6694400  3
  11743  11741  11740  11748     1  0.0000000  1.0460000  1
  11743  11741  11740  11748     1  0.0000000  0.0000000  3
  11743  11741  11740  11744     1  0.0000000  0.6508444  3
  11743  11741  11742  11746     1  0.0000000  1.0460000  1
  11743  11741  11742  11746     1  0.0000000  0.0000000  3
  11743  11741  11742  11758     1  0.0000000  1.0460000  1
  11743  11741  11742  11758     1  0.0000000  0.0000000  3
  11743  11741  11742  11745     1  0.0000000  0.6508444  3
  11743  11741  11747  11753     1  0.0000000  0.6973333  3
  11744  11740  11737  11749     1  0.0000000  1.0460000  1
  11744  11740  11737  11749     1  0.0000000  0.0000000  3
  11744  11740  11741  11747     1  0.0000000  1.0460000  1
  11744  11740  11741  11747     1  0.0000000  0.0000000  3
  11744  11740  11748  11751     1  0.0000000  0.6973333  3
  11745  11742  11741  11747     1  0.0000000  0.6508444  3
  11754  11750  11736  11758     1  0.0000000  1.0460000  1
  11754  11750  11736  11758     1  0.0000000  0.0000000  3
  11754  11750  11756  11757     1  0.0000000  0.6973333  3
  11755  11750  11736  11758     1  0.0000000  1.0460000  1
  11755  11750  11736  11758     1  0.0000000  0.0000000  3
  11755  11750  11756  11757     1  0.0000000  0.6973333  3
  11759  11760  11763  11767     1  0.0000000  0.6508444  3
  11759  11760  11772  11775     1  0.0000000  1.0460000  1
  11759  11760  11772  11775     1  0.0000000  0.6694400  3
  11759  11773  11779  11780     1  0.0000000  1.0460000  1
  11759  11773  11779  11780     1  0.0000000  0.6694400  3
  11759  11781  11765  11768     1  0.0000000  1.6038667  3
  11760  11763  11764  11766     1  0.0000000  0.6508444  3
  11760  11763  11771  11774     1  0.0000000  1.0460000  1
  11760  11763  11771  11774     1  0.0000000  0.6694400  3
  11760  11759  11773  11777     1  0.0000000  0.6508444  3
  11760  11759  11773  11778     1  0.0000000  0.6508444  3
  11761  11759  11760  11763     1  0.0000000  0.6508444  3
  11761  11759  11760  11772     1  0.0000000  1.0460000  1
  11761  11759  11760  11772     1  0.0000000  0.0000000  3
  11761  11759  11760  11762     1  0.0000000  0.6508444  3
  11761  11759  11773  11779     1  0.0000000  1.0460000  1
  11761  11759  11773  11779     1  0.0000000  0.0000000  3
  11761  11759  11773  11777     1  0.0000000  0.6508444  3
  11761  11759  11773  11778     1  0.0000000  0.6508444  3
  11761  11759  11781  11765     1  0.0000000  1.6038667  3
  11762  11760  11763  11764     1  0.0000000  0.6508444  3
  11762  11760  11763  11771     1  0.0000000  1.0460000  1
  11762  11760  11763  11771     1  0.0000000  0.0000000  3
  11762  11760  11763  11767     1  0.0000000  0.6508444  3
  11762  11760  11772  11775     1  0.0000000  0.6973333  3
  11762  11760  11759  11773     1  0.0000000  0.6508444  3
  11762  11760  11759  11781     1  0.0000000  1.0460000  1
  11762  11760  11759  11781     1  0.0000000  0.0000000  3
  11763  11764  11765  11768     1  0.0000000  0.6508444  3
  11763  11764  11770  11776     1  0.0000000  1.0460000  1
  11763  11764  11770  11776     1  0.0000000  0.6694400  3
  11763  11760  11772  11775     1  0.0000000  1.0460000  1
  11763  11760  11772  11775     1  0.0000000  0.6694400  3
  11764  11763  11771  11774     1  0.0000000  1.0460000  1
  11764  11763  11771  11774     1  0.0000000  0.6694400  3
  11765  11764  11770  11776     1  0.0000000  1.0460000  1
  11765  11764  11770  11776     1  0.0000000  0.6694400  3
  11765  11764  11763  11767     1  0.0000000  0.6508444  3
  11766  11764  11765  11769     1  0.0000000  1.0460000  1
  11766  11764  11765  11769     1  0.0000000  0.0000000  3
  11766  11764  11765  11781     1  0.0000000  1.0460000  1
  11766  11764  11765  11781     1  0.0000000  0.0000000  3
  11766  11764  11765  11768     1  0.0000000  0.6508444  3
  11766  11764  11770  11776     1  0.0000000  0.6973333  3
  11766  11764  11763  11771     1  0.0000000  1.0460000  1
  11766  11764  11763  11771     1  0.0000000  0.0000000  3
  11766  11764  11763  11767     1  0.0000000  0.6508444  3
  11767  11763  11764  11770     1  0.0000000  1.0460000  1
  11767  11763  11764  11770     1  0.0000000  0.0000000  3
  11767  11763  11771  11774     1  0.0000000  0.6973333  3
  11767  11763  11760  11772     1  0.0000000  1.0460000  1
  11767  11763  11760  11772     1  0.0000000  0.0000000  3
  11768  11765  11764  11770     1  0.0000000  0.6508444  3
  11777  11773  11779  11780     1  0.0000000  0.6973333  3
  11777  11773  11759  11781     1  0.0000000  1.0460000  1
  11777  11773  11759  11781     1  0.0000000  0.0000000  3
  11778  11773  11779  11780     1  0.0000000  0.6973333  3
  11778  11773  11759  11781     1  0.0000000  1.0460000  1
  11778  11773  11759  11781     1  0.0000000  0.0000000  3
  11782  11783  11786  11790     1  0.0000000  0.6508444  3
  11782  11783  11795  11798     1  0.0000000  1.0460000  1
  11782  11783  11795  11798     1  0.0000000  0.6694400  3
  11782  11796  11802  11803     1  0.0000000  1.0460000  1
  11782  11796  11802  11803     1  0.0000000  0.6694400  3
  11782  11804  11788  11791     1  0.0000000  1.6038667  3
  11783  11782  11796  11800     1  0.0000000  0.6508444  3
  11783  11782  11796  11801     1  0.0000000  0.6508444  3
  11783  11786  11787  11789     1  0.0000000  0.6508444  3
  11783  11786  11794  11797     1  0.0000000  1.0460000  1
  11783  11786  11794  11797     1  0.0000000  0.6694400  3
  11784  11782  11783  11786     1  0.0000000  0.6508444  3
  11784  11782  11783  11795     1  0.0000000  1.0460000  1
  11784  11782  11783  11795     1  0.0000000  0.0000000  3
  11784  11782  11783  11785     1  0.0000000  0.6508444  3
  11784  11782  11796  11802     1  0.0000000  1.0460000  1
  11784  11782  11796  11802     1  0.0000000  0.0000000  3
  11784  11782  11796  11800     1  0.0000000  0.6508444  3
  11784  11782  11796  11801     1  0.0000000  0.6508444  3
  11784  11782  11804  11788     1  0.0000000  1.6038667  3
  11785  11783  11782  11796     1  0.0000000  0.6508444  3
  11785  11783  11782  11804     1  0.0000000  1.0460000  1
  11785  11783  11782  11804     1  0.0000000  0.0000000  3
  11785  11783  11786  11787     1  0.0000000  0.6508444  3
  11785  11783  11786  11794     1  0.0000000  1.0460000  1
  11785  11783  11786  11794     1  0.0000000  0.0000000  3
  11785  11783  11786  11790     1  0.0000000  0.6508444  3
  11785  11783  11795  11798     1  0.0000000  0.6973333  3
  11786  11783  11795  11798     1  0.0000000  1.0460000  1
  11786  11783  11795  11798     1  0.0000000  0.6694400  3
  11786  11787  11788  11791     1  0.0000000  0.6508444  3
  11786  11787  11793  11799     1  0.0000000  1.0460000  1
  11786  11787  11793  11799     1  0.0000000  0.6694400  3
  11787  11786  11794  11797     1  0.0000000  1.0460000  1
  11787  11786  11794  11797     1  0.0000000  0.6694400  3
  11788  11787  11786  11790     1  0.0000000  0.6508444  3
  11788  11787  11793  11799     1  0.0000000  1.0460000  1
  11788  11787  11793  11799     1  0.0000000  0.6694400  3
  11789  11787  11786  11794     1  0.0000000  1.0460000  1
  11789  11787  11786  11794     1  0.0000000  0.0000000  3
  11789  11787  11786  11790     1  0.0000000  0.6508444  3
  11789  11787  11788  11792     1  0.0000000  1.0460000  1
  11789  11787  11788  11792     1  0.0000000  0.0000000  3
  11789  11787  11788  11804     1  0.0000000  1.0460000  1
  11789  11787  11788  11804     1  0.0000000  0.0000000  3
  11789  11787  11788  11791     1  0.0000000  0.6508444  3
  11789  11787  11793  11799     1  0.0000000  0.6973333  3
  11790  11786  11783  11795     1  0.0000000  1.0460000  1
  11790  11786  11783  11795     1  0.0000000  0.0000000  3
  11790  11786  11787  11793     1  0.0000000  1.0460000  1
  11790  11786  11787  11793     1  0.0000000  0.0000000  3
  11790  11786  11794  11797     1  0.0000000  0.6973333  3
  11791  11788  11787  11793     1  0.0000000  0.6508444  3
  11800  11796  11782  11804     1  0.0000000  1.0460000  1
  11800  11796  11782  11804     1  0.0000000  0.0000000  3
  11800  11796  11802  11803     1  0.0000000  0.6973333  3
  11801  11796  11782  11804     1  0.0000000  1.0460000  1
  11801  11796  11782  11804     1  0.0000000  0.0000000  3
  11801  11796  11802  11803     1  0.0000000  0.6973333  3
  11805  11806  11809  11813     1  0.0000000  0.6508444  3
  11805  11806  11818  11821     1  0.0000000  1.0460000  1
  11805  11806  11818  11821     1  0.0000000  0.6694400  3
  11805  11819  11825  11826     1  0.0000000  1.0460000  1
  11805  11819  11825  11826     1  0.0000000  0.6694400  3
  11805  11827  11811  11814     1  0.0000000  1.6038667  3
  11806  11809  11810  11812     1  0.0000000  0.6508444  3
  11806  11809  11817  11820     1  0.0000000  1.0460000  1
  11806  11809  11817  11820     1  0.0000000  0.6694400  3
  11806  11805  11819  11823     1  0.0000000  0.6508444  3
  11806  11805  11819  11824     1  0.0000000  0.6508444  3
  11807  11805  11806  11809     1  0.0000000  0.6508444  3
  11807  11805  11806  11818     1  0.0000000  1.0460000  1
  11807  11805  11806  11818     1  0.0000000  0.0000000  3
  11807  11805  11806  11808     1  0.0000000  0.6508444  3
  11807  11805  11819  11825     1  0.0000000  1.0460000  1
  11807  11805  11819  11825     1  0.0000000  0.0000000  3
  11807  11805  11819  11823     1  0.0000000  0.6508444  3
  11807  11805  11819  11824     1  0.0000000  0.6508444  3
  11807  11805  11827  11811     1  0.0000000  1.6038667  3
  11808  11806  11809  11810     1  0.0000000  0.6508444  3
  11808  11806  11809  11817     1  0.0000000  1.0460000  1
  11808  11806  11809  11817     1  0.0000000  0.0000000  3
  11808  11806  11809  11813     1  0.0000000  0.6508444  3
  11808  11806  11818  11821     1  0.0000000  0.6973333  3
  11808  11806  11805  11819     1  0.0000000  0.6508444  3
  11808  11806  11805  11827     1  0.0000000  1.0460000  1
  11808  11806  11805  11827     1  0.0000000  0.0000000  3
  11809  11810  11811  11814     1  0.0000000  0.6508444  3
  11809  11810  11816  11822     1  0.0000000  1.0460000  1
  11809  11810  11816  11822     1  0.0000000  0.6694400  3
  11809  11806  11818  11821     1  0.0000000  1.0460000  1
  11809  11806  11818  11821     1  0.0000000  0.6694400  3
  11810  11809  11817  11820     1  0.0000000  1.0460000  1
  11810  11809  11817  11820     1  0.0000000  0.6694400  3
  11811  11810  11816  11822     1  0.0000000  1.0460000  1
  11811  11810  11816  11822     1  0.0000000  0.6694400  3
  11811  11810  11809  11813     1  0.0000000  0.6508444  3
  11812  11810  11811  11815     1  0.0000000  1.0460000  1
  11812  11810  11811  11815     1  0.0000000  0.0000000  3
  11812  11810  11811  11827     1  0.0000000  1.0460000  1
  11812  11810  11811  11827     1  0.0000000  0.0000000  3
  11812  11810  11811  11814     1  0.0000000  0.6508444  3
  11812  11810  11816  11822     1  0.0000000  0.6973333  3
  11812  11810  11809  11817     1  0.0000000  1.0460000  1
  11812  11810  11809  11817     1  0.0000000  0.0000000  3
  11812  11810  11809  11813     1  0.0000000  0.6508444  3
  11813  11809  11810  11816     1  0.0000000  1.0460000  1
  11813  11809  11810  11816     1  0.0000000  0.0000000  3
  11813  11809  11817  11820     1  0.0000000  0.6973333  3
  11813  11809  11806  11818     1  0.0000000  1.0460000  1
  11813  11809  11806  11818     1  0.0000000  0.0000000  3
  11814  11811  11810  11816     1  0.0000000  0.6508444  3
  11823  11819  11825  11826     1  0.0000000  0.6973333  3
  11823  11819  11805  11827     1  0.0000000  1.0460000  1
  11823  11819  11805  11827     1  0.0000000  0.0000000  3
  11824  11819  11825  11826     1  0.0000000  0.6973333  3
  11824  11819  11805  11827     1  0.0000000  1.0460000  1
  11824  11819  11805  11827     1  0.0000000  0.0000000  3
  11828  11829  11832  11836     1  0.0000000  0.6508444  3
  11828  11829  11841  11844     1  0.0000000  1.0460000  1
  11828  11829  11841  11844     1  0.0000000  0.6694400  3
  11828  11842  11848  11849     1  0.0000000  1.0460000  1
  11828  11842  11848  11849     1  0.0000000  0.6694400  3
  11828  11850  11834  11837     1  0.0000000  1.6038667  3
  11829  11828  11842  11846     1  0.0000000  0.6508444  3
  11829  11828  11842  11847     1  0.0000000  0.6508444  3
  11829  11832  11833  11835     1  0.0000000  0.6508444  3
  11829  11832  11840  11843     1  0.0000000  1.0460000  1
  11829  11832  11840  11843     1  0.0000000  0.6694400  3
  11830  11828  11829  11832     1  0.0000000  0.6508444  3
  11830  11828  11829  11841     1  0.0000000  1.0460000  1
  11830  11828  11829  11841     1  0.0000000  0.0000000  3
  11830  11828  11829  11831     1  0.0000000  0.6508444  3
  11830  11828  11842  11848     1  0.0000000  1.0460000  1
  11830  11828  11842  11848     1  0.0000000  0.0000000  3
  11830  11828  11842  11846     1  0.0000000  0.6508444  3
  11830  11828  11842  11847     1  0.0000000  0.6508444  3
  11830  11828  11850  11834     1  0.0000000  1.6038667  3
  11831  11829  11828  11842     1  0.0000000  0.6508444  3
  11831  11829  11828  11850     1  0.0000000  1.0460000  1
  11831  11829  11828  11850     1  0.0000000  0.0000000  3
  11831  11829  11832  11833     1  0.0000000  0.6508444  3
  11831  11829  11832  11840     1  0.0000000  1.0460000  1
  11831  11829  11832  11840     1  0.0000000  0.0000000  3
  11831  11829  11832  11836     1  0.0000000  0.6508444  3
  11831  11829  11841  11844     1  0.0000000  0.6973333  3
  11832  11829  11841  11844     1  0.0000000  1.0460000  1
  11832  11829  11841  11844     1  0.0000000  0.6694400  3
  11832  11833  11834  11837     1  0.0000000  0.6508444  3
  11832  11833  11839  11845     1  0.0000000  1.0460000  1
  11832  11833  11839  11845     1  0.0000000  0.6694400  3
  11833  11832  11840  11843     1  0.0000000  1.0460000  1
  11833  11832  11840  11843     1  0.0000000  0.6694400  3
  11834  11833  11832  11836     1  0.0000000  0.6508444  3
  11834  11833  11839  11845     1  0.0000000  1.0460000  1
  11834  11833  11839  11845     1  0.0000000  0.6694400  3
  11835  11833  11832  11840     1  0.0000000  1.0460000  1
  11835  11833  11832  11840     1  0.0000000  0.0000000  3
  11835  11833  11832  11836     1  0.0000000  0.6508444  3
  11835  11833  11834  11838     1  0.0000000  1.0460000  1
  11835  11833  11834  11838     1  0.0000000  0.0000000  3
  11835  11833  11834  11850     1  0.0000000  1.0460000  1
  11835  11833  11834  11850     1  0.0000000  0.0000000  3
  11835  11833  11834  11837     1  0.0000000  0.6508444  3
  11835  11833  11839  11845     1  0.0000000  0.6973333  3
  11836  11832  11829  11841     1  0.0000000  1.0460000  1
  11836  11832  11829  11841     1  0.0000000  0.0000000  3
  11836  11832  11833  11839     1  0.0000000  1.0460000  1
  11836  11832  11833  11839     1  0.0000000  0.0000000  3
  11836  11832  11840  11843     1  0.0000000  0.6973333  3
  11837  11834  11833  11839     1  0.0000000  0.6508444  3
  11846  11842  11828  11850     1  0.0000000  1.0460000  1
  11846  11842  11828  11850     1  0.0000000  0.0000000  3
  11846  11842  11848  11849     1  0.0000000  0.6973333  3
  11847  11842  11828  11850     1  0.0000000  1.0460000  1
  11847  11842  11828  11850     1  0.0000000  0.0000000  3
  11847  11842  11848  11849     1  0.0000000  0.6973333  3
  11851  11852  11855  11859     1  0.0000000  0.6508444  3
  11851  11852  11864  11867     1  0.0000000  1.0460000  1
  11851  11852  11864  11867     1  0.0000000  0.6694400  3
  11851  11865  11871  11872     1  0.0000000  1.0460000  1
  11851  11865  11871  11872     1  0.0000000  0.6694400  3
  11851  11873  11857  11860     1  0.0000000  1.6038667  3
  11852  11855  11856  11858     1  0.0000000  0.6508444  3
  11852  11855  11863  11866     1  0.0000000  1.0460000  1
  11852  11855  11863  11866     1  0.0000000  0.6694400  3
  11852  11851  11865  11869     1  0.0000000  0.6508444  3
  11852  11851  11865  11870     1  0.0000000  0.6508444  3
  11853  11851  11852  11855     1  0.0000000  0.6508444  3
  11853  11851  11852  11864     1  0.0000000  1.0460000  1
  11853  11851  11852  11864     1  0.0000000  0.0000000  3
  11853  11851  11852  11854     1  0.0000000  0.6508444  3
  11853  11851  11865  11871     1  0.0000000  1.0460000  1
  11853  11851  11865  11871     1  0.0000000  0.0000000  3
  11853  11851  11865  11869     1  0.0000000  0.6508444  3
  11853  11851  11865  11870     1  0.0000000  0.6508444  3
  11853  11851  11873  11857     1  0.0000000  1.6038667  3
  11854  11852  11855  11856     1  0.0000000  0.6508444  3
  11854  11852  11855  11863     1  0.0000000  1.0460000  1
  11854  11852  11855  11863     1  0.0000000  0.0000000  3
  11854  11852  11855  11859     1  0.0000000  0.6508444  3
  11854  11852  11864  11867     1  0.0000000  0.6973333  3
  11854  11852  11851  11865     1  0.0000000  0.6508444  3
  11854  11852  11851  11873     1  0.0000000  1.0460000  1
  11854  11852  11851  11873     1  0.0000000  0.0000000  3
  11855  11856  11857  11860     1  0.0000000  0.6508444  3
  11855  11856  11862  11868     1  0.0000000  1.0460000  1
  11855  11856  11862  11868     1  0.0000000  0.6694400  3
  11855  11852  11864  11867     1  0.0000000  1.0460000  1
  11855  11852  11864  11867     1  0.0000000  0.6694400  3
  11856  11855  11863  11866     1  0.0000000  1.0460000  1
  11856  11855  11863  11866     1  0.0000000  0.6694400  3
  11857  11856  11862  11868     1  0.0000000  1.0460000  1
  11857  11856  11862  11868     1  0.0000000  0.6694400  3
  11857  11856  11855  11859     1  0.0000000  0.6508444  3
  11858  11856  11857  11861     1  0.0000000  1.0460000  1
  11858  11856  11857  11861     1  0.0000000  0.0000000  3
  11858  11856  11857  11873     1  0.0000000  1.0460000  1
  11858  11856  11857  11873     1  0.0000000  0.0000000  3
  11858  11856  11857  11860     1  0.0000000  0.6508444  3
  11858  11856  11862  11868     1  0.0000000  0.6973333  3
  11858  11856  11855  11863     1  0.0000000  1.0460000  1
  11858  11856  11855  11863     1  0.0000000  0.0000000  3
  11858  11856  11855  11859     1  0.0000000  0.6508444  3
  11859  11855  11856  11862     1  0.0000000  1.0460000  1
  11859  11855  11856  11862     1  0.0000000  0.0000000  3
  11859  11855  11863  11866     1  0.0000000  0.6973333  3
  11859  11855  11852  11864     1  0.0000000  1.0460000  1
  11859  11855  11852  11864     1  0.0000000  0.0000000  3
  11860  11857  11856  11862     1  0.0000000  0.6508444  3
  11869  11865  11871  11872     1  0.0000000  0.6973333  3
  11869  11865  11851  11873     1  0.0000000  1.0460000  1
  11869  11865  11851  11873     1  0.0000000  0.0000000  3
  11870  11865  11871  11872     1  0.0000000  0.6973333  3
  11870  11865  11851  11873     1  0.0000000  1.0460000  1
  11870  11865  11851  11873     1  0.0000000  0.0000000  3
  11874  11875  11878  11882     1  0.0000000  0.6508444  3
  11874  11875  11887  11890     1  0.0000000  1.0460000  1
  11874  11875  11887  11890     1  0.0000000  0.6694400  3
  11874  11888  11894  11895     1  0.0000000  1.0460000  1
  11874  11888  11894  11895     1  0.0000000  0.6694400  3
  11874  11896  11880  11883     1  0.0000000  1.6038667  3
  11875  11874  11888  11892     1  0.0000000  0.6508444  3
  11875  11874  11888  11893     1  0.0000000  0.6508444  3
  11875  11878  11879  11881     1  0.0000000  0.6508444  3
  11875  11878  11886  11889     1  0.0000000  1.0460000  1
  11875  11878  11886  11889     1  0.0000000  0.6694400  3
  11876  11874  11875  11878     1  0.0000000  0.6508444  3
  11876  11874  11875  11887     1  0.0000000  1.0460000  1
  11876  11874  11875  11887     1  0.0000000  0.0000000  3
  11876  11874  11875  11877     1  0.0000000  0.6508444  3
  11876  11874  11888  11894     1  0.0000000  1.0460000  1
  11876  11874  11888  11894     1  0.0000000  0.0000000  3
  11876  11874  11888  11892     1  0.0000000  0.6508444  3
  11876  11874  11888  11893     1  0.0000000  0.6508444  3
  11876  11874  11896  11880     1  0.0000000  1.6038667  3
  11877  11875  11874  11888     1  0.0000000  0.6508444  3
  11877  11875  11874  11896     1  0.0000000  1.0460000  1
  11877  11875  11874  11896     1  0.0000000  0.0000000  3
  11877  11875  11878  11879     1  0.0000000  0.6508444  3
  11877  11875  11878  11886     1  0.0000000  1.0460000  1
  11877  11875  11878  11886     1  0.0000000  0.0000000  3
  11877  11875  11878  11882     1  0.0000000  0.6508444  3
  11877  11875  11887  11890     1  0.0000000  0.6973333  3
  11878  11875  11887  11890     1  0.0000000  1.0460000  1
  11878  11875  11887  11890     1  0.0000000  0.6694400  3
  11878  11879  11880  11883     1  0.0000000  0.6508444  3
  11878  11879  11885  11891     1  0.0000000  1.0460000  1
  11878  11879  11885  11891     1  0.0000000  0.6694400  3
  11879  11878  11886  11889     1  0.0000000  1.0460000  1
  11879  11878  11886  11889     1  0.0000000  0.6694400  3
  11880  11879  11878  11882     1  0.0000000  0.6508444  3
  11880  11879  11885  11891     1  0.0000000  1.0460000  1
  11880  11879  11885  11891     1  0.0000000  0.6694400  3
  11881  11879  11878  11886     1  0.0000000  1.0460000  1
  11881  11879  11878  11886     1  0.0000000  0.0000000  3
  11881  11879  11878  11882     1  0.0000000  0.6508444  3
  11881  11879  11880  11884     1  0.0000000  1.0460000  1
  11881  11879  11880  11884     1  0.0000000  0.0000000  3
  11881  11879  11880  11896     1  0.0000000  1.0460000  1
  11881  11879  11880  11896     1  0.0000000  0.0000000  3
  11881  11879  11880  11883     1  0.0000000  0.6508444  3
  11881  11879  11885  11891     1  0.0000000  0.6973333  3
  11882  11878  11875  11887     1  0.0000000  1.0460000  1
  11882  11878  11875  11887     1  0.0000000  0.0000000  3
  11882  11878  11879  11885     1  0.0000000  1.0460000  1
  11882  11878  11879  11885     1  0.0000000  0.0000000  3
  11882  11878  11886  11889     1  0.0000000  0.6973333  3
  11883  11880  11879  11885     1  0.0000000  0.6508444  3
  11892  11888  11874  11896     1  0.0000000  1.0460000  1
  11892  11888  11874  11896     1  0.0000000  0.0000000  3
  11892  11888  11894  11895     1  0.0000000  0.6973333  3
  11893  11888  11874  11896     1  0.0000000  1.0460000  1
  11893  11888  11874  11896     1  0.0000000  0.0000000  3
  11893  11888  11894  11895     1  0.0000000  0.6973333  3
  11897  11898  11901  11905     1  0.0000000  0.6508444  3
  11897  11898  11910  11913     1  0.0000000  1.0460000  1
  11897  11898  11910  11913     1  0.0000000  0.6694400  3
  11897  11911  11917  11918     1  0.0000000  1.0460000  1
  11897  11911  11917  11918     1  0.0000000  0.6694400  3
  11897  11919  11903  11906     1  0.0000000  1.6038667  3
  11898  11901  11902  11904     1  0.0000000  0.6508444  3
  11898  11901  11909  11912     1  0.0000000  1.0460000  1
  11898  11901  11909  11912     1  0.0000000  0.6694400  3
  11898  11897  11911  11915     1  0.0000000  0.6508444  3
  11898  11897  11911  11916     1  0.0000000  0.6508444  3
  11899  11897  11898  11901     1  0.0000000  0.6508444  3
  11899  11897  11898  11910     1  0.0000000  1.0460000  1
  11899  11897  11898  11910     1  0.0000000  0.0000000  3
  11899  11897  11898  11900     1  0.0000000  0.6508444  3
  11899  11897  11911  11917     1  0.0000000  1.0460000  1
  11899  11897  11911  11917     1  0.0000000  0.0000000  3
  11899  11897  11911  11915     1  0.0000000  0.6508444  3
  11899  11897  11911  11916     1  0.0000000  0.6508444  3
  11899  11897  11919  11903     1  0.0000000  1.6038667  3
  11900  11898  11901  11902     1  0.0000000  0.6508444  3
  11900  11898  11901  11909     1  0.0000000  1.0460000  1
  11900  11898  11901  11909     1  0.0000000  0.0000000  3
  11900  11898  11901  11905     1  0.0000000  0.6508444  3
  11900  11898  11910  11913     1  0.0000000  0.6973333  3
  11900  11898  11897  11911     1  0.0000000  0.6508444  3
  11900  11898  11897  11919     1  0.0000000  1.0460000  1
  11900  11898  11897  11919     1  0.0000000  0.0000000  3
  11901  11902  11903  11906     1  0.0000000  0.6508444  3
  11901  11902  11908  11914     1  0.0000000  1.0460000  1
  11901  11902  11908  11914     1  0.0000000  0.6694400  3
  11901  11898  11910  11913     1  0.0000000  1.0460000  1
  11901  11898  11910  11913     1  0.0000000  0.6694400  3
  11902  11901  11909  11912     1  0.0000000  1.0460000  1
  11902  11901  11909  11912     1  0.0000000  0.6694400  3
  11903  11902  11908  11914     1  0.0000000  1.0460000  1
  11903  11902  11908  11914     1  0.0000000  0.6694400  3
  11903  11902  11901  11905     1  0.0000000  0.6508444  3
  11904  11902  11903  11907     1  0.0000000  1.0460000  1
  11904  11902  11903  11907     1  0.0000000  0.0000000  3
  11904  11902  11903  11919     1  0.0000000  1.0460000  1
  11904  11902  11903  11919     1  0.0000000  0.0000000  3
  11904  11902  11903  11906     1  0.0000000  0.6508444  3
  11904  11902  11908  11914     1  0.0000000  0.6973333  3
  11904  11902  11901  11909     1  0.0000000  1.0460000  1
  11904  11902  11901  11909     1  0.0000000  0.0000000  3
  11904  11902  11901  11905     1  0.0000000  0.6508444  3
  11905  11901  11902  11908     1  0.0000000  1.0460000  1
  11905  11901  11902  11908     1  0.0000000  0.0000000  3
  11905  11901  11909  11912     1  0.0000000  0.6973333  3
  11905  11901  11898  11910     1  0.0000000  1.0460000  1
  11905  11901  11898  11910     1  0.0000000  0.0000000  3
  11906  11903  11902  11908     1  0.0000000  0.6508444  3
  11915  11911  11917  11918     1  0.0000000  0.6973333  3
  11915  11911  11897  11919     1  0.0000000  1.0460000  1
  11915  11911  11897  11919     1  0.0000000  0.0000000  3
  11916  11911  11917  11918     1  0.0000000  0.6973333  3
  11916  11911  11897  11919     1  0.0000000  1.0460000  1
  11916  11911  11897  11919     1  0.0000000  0.0000000  3
  11920  11921  11924  11928     1  0.0000000  0.6508444  3
  11920  11921  11933  11936     1  0.0000000  1.0460000  1
  11920  11921  11933  11936     1  0.0000000  0.6694400  3
  11920  11934  11940  11941     1  0.0000000  1.0460000  1
  11920  11934  11940  11941     1  0.0000000  0.6694400  3
  11920  11942  11926  11929     1  0.0000000  1.6038667  3
  11921  11920  11934  11938     1  0.0000000  0.6508444  3
  11921  11920  11934  11939     1  0.0000000  0.6508444  3
  11921  11924  11925  11927     1  0.0000000  0.6508444  3
  11921  11924  11932  11935     1  0.0000000  1.0460000  1
  11921  11924  11932  11935     1  0.0000000  0.6694400  3
  11922  11920  11921  11924     1  0.0000000  0.6508444  3
  11922  11920  11921  11933     1  0.0000000  1.0460000  1
  11922  11920  11921  11933     1  0.0000000  0.0000000  3
  11922  11920  11921  11923     1  0.0000000  0.6508444  3
  11922  11920  11934  11940     1  0.0000000  1.0460000  1
  11922  11920  11934  11940     1  0.0000000  0.0000000  3
  11922  11920  11934  11938     1  0.0000000  0.6508444  3
  11922  11920  11934  11939     1  0.0000000  0.6508444  3
  11922  11920  11942  11926     1  0.0000000  1.6038667  3
  11923  11921  11920  11934     1  0.0000000  0.6508444  3
  11923  11921  11920  11942     1  0.0000000  1.0460000  1
  11923  11921  11920  11942     1  0.0000000  0.0000000  3
  11923  11921  11924  11925     1  0.0000000  0.6508444  3
  11923  11921  11924  11932     1  0.0000000  1.0460000  1
  11923  11921  11924  11932     1  0.0000000  0.0000000  3
  11923  11921  11924  11928     1  0.0000000  0.6508444  3
  11923  11921  11933  11936     1  0.0000000  0.6973333  3
  11924  11921  11933  11936     1  0.0000000  1.0460000  1
  11924  11921  11933  11936     1  0.0000000  0.6694400  3
  11924  11925  11926  11929     1  0.0000000  0.6508444  3
  11924  11925  11931  11937     1  0.0000000  1.0460000  1
  11924  11925  11931  11937     1  0.0000000  0.6694400  3
  11925  11924  11932  11935     1  0.0000000  1.0460000  1
  11925  11924  11932  11935     1  0.0000000  0.6694400  3
  11926  11925  11924  11928     1  0.0000000  0.6508444  3
  11926  11925  11931  11937     1  0.0000000  1.0460000  1
  11926  11925  11931  11937     1  0.0000000  0.6694400  3
  11927  11925  11924  11932     1  0.0000000  1.0460000  1
  11927  11925  11924  11932     1  0.0000000  0.0000000  3
  11927  11925  11924  11928     1  0.0000000  0.6508444  3
  11927  11925  11926  11930     1  0.0000000  1.0460000  1
  11927  11925  11926  11930     1  0.0000000  0.0000000  3
  11927  11925  11926  11942     1  0.0000000  1.0460000  1
  11927  11925  11926  11942     1  0.0000000  0.0000000  3
  11927  11925  11926  11929     1  0.0000000  0.6508444  3
  11927  11925  11931  11937     1  0.0000000  0.6973333  3
  11928  11924  11921  11933     1  0.0000000  1.0460000  1
  11928  11924  11921  11933     1  0.0000000  0.0000000  3
  11928  11924  11925  11931     1  0.0000000  1.0460000  1
  11928  11924  11925  11931     1  0.0000000  0.0000000  3
  11928  11924  11932  11935     1  0.0000000  0.6973333  3
  11929  11926  11925  11931     1  0.0000000  0.6508444  3
  11938  11934  11920  11942     1  0.0000000  1.0460000  1
  11938  11934  11920  11942     1  0.0000000  0.0000000  3
  11938  11934  11940  11941     1  0.0000000  0.6973333  3
  11939  11934  11920  11942     1  0.0000000  1.0460000  1
  11939  11934  11920  11942     1  0.0000000  0.0000000  3
  11939  11934  11940  11941     1  0.0000000  0.6973333  3
  11943  11944  11947  11951     1  0.0000000  0.6508444  3
  11943  11944  11956  11959     1  0.0000000  1.0460000  1
  11943  11944  11956  11959     1  0.0000000  0.6694400  3
  11943  11957  11963  11964     1  0.0000000  1.0460000  1
  11943  11957  11963  11964     1  0.0000000  0.6694400  3
  11943  11965  11949  11952     1  0.0000000  1.6038667  3
  11944  11947  11948  11950     1  0.0000000  0.6508444  3
  11944  11947  11955  11958     1  0.0000000  1.0460000  1
  11944  11947  11955  11958     1  0.0000000  0.6694400  3
  11944  11943  11957  11961     1  0.0000000  0.6508444  3
  11944  11943  11957  11962     1  0.0000000  0.6508444  3
  11945  11943  11944  11947     1  0.0000000  0.6508444  3
  11945  11943  11944  11956     1  0.0000000  1.0460000  1
  11945  11943  11944  11956     1  0.0000000  0.0000000  3
  11945  11943  11944  11946     1  0.0000000  0.6508444  3
  11945  11943  11957  11963     1  0.0000000  1.0460000  1
  11945  11943  11957  11963     1  0.0000000  0.0000000  3
  11945  11943  11957  11961     1  0.0000000  0.6508444  3
  11945  11943  11957  11962     1  0.0000000  0.6508444  3
  11945  11943  11965  11949     1  0.0000000  1.6038667  3
  11946  11944  11947  11948     1  0.0000000  0.6508444  3
  11946  11944  11947  11955     1  0.0000000  1.0460000  1
  11946  11944  11947  11955     1  0.0000000  0.0000000  3
  11946  11944  11947  11951     1  0.0000000  0.6508444  3
  11946  11944  11956  11959     1  0.0000000  0.6973333  3
  11946  11944  11943  11957     1  0.0000000  0.6508444  3
  11946  11944  11943  11965     1  0.0000000  1.0460000  1
  11946  11944  11943  11965     1  0.0000000  0.0000000  3
  11947  11948  11949  11952     1  0.0000000  0.6508444  3
  11947  11948  11954  11960     1  0.0000000  1.0460000  1
  11947  11948  11954  11960     1  0.0000000  0.6694400  3
  11947  11944  11956  11959     1  0.0000000  1.0460000  1
  11947  11944  11956  11959     1  0.0000000  0.6694400  3
  11948  11947  11955  11958     1  0.0000000  1.0460000  1
  11948  11947  11955  11958     1  0.0000000  0.6694400  3
  11949  11948  11954  11960     1  0.0000000  1.0460000  1
  11949  11948  11954  11960     1  0.0000000  0.6694400  3
  11949  11948  11947  11951     1  0.0000000  0.6508444  3
  11950  11948  11949  11953     1  0.0000000  1.0460000  1
  11950  11948  11949  11953     1  0.0000000  0.0000000  3
  11950  11948  11949  11965     1  0.0000000  1.0460000  1
  11950  11948  11949  11965     1  0.0000000  0.0000000  3
  11950  11948  11949  11952     1  0.0000000  0.6508444  3
  11950  11948  11954  11960     1  0.0000000  0.6973333  3
  11950  11948  11947  11955     1  0.0000000  1.0460000  1
  11950  11948  11947  11955     1  0.0000000  0.0000000  3
  11950  11948  11947  11951     1  0.0000000  0.6508444  3
  11951  11947  11948  11954     1  0.0000000  1.0460000  1
  11951  11947  11948  11954     1  0.0000000  0.0000000  3
  11951  11947  11955  11958     1  0.0000000  0.6973333  3
  11951  11947  11944  11956     1  0.0000000  1.0460000  1
  11951  11947  11944  11956     1  0.0000000  0.0000000  3
  11952  11949  11948  11954     1  0.0000000  0.6508444  3
  11961  11957  11963  11964     1  0.0000000  0.6973333  3
  11961  11957  11943  11965     1  0.0000000  1.0460000  1
  11961  11957  11943  11965     1  0.0000000  0.0000000  3
  11962  11957  11963  11964     1  0.0000000  0.6973333  3
  11962  11957  11943  11965     1  0.0000000  1.0460000  1
  11962  11957  11943  11965     1  0.0000000  0.0000000  3
  11966  11967  11970  11974     1  0.0000000  0.6508444  3
  11966  11967  11979  11982     1  0.0000000  1.0460000  1
  11966  11967  11979  11982     1  0.0000000  0.6694400  3
  11966  11980  11986  11987     1  0.0000000  1.0460000  1
  11966  11980  11986  11987     1  0.0000000  0.6694400  3
  11966  11988  11972  11975     1  0.0000000  1.6038667  3
  11967  11966  11980  11984     1  0.0000000  0.6508444  3
  11967  11966  11980  11985     1  0.0000000  0.6508444  3
  11967  11970  11971  11973     1  0.0000000  0.6508444  3
  11967  11970  11978  11981     1  0.0000000  1.0460000  1
  11967  11970  11978  11981     1  0.0000000  0.6694400  3
  11968  11966  11967  11970     1  0.0000000  0.6508444  3
  11968  11966  11967  11979     1  0.0000000  1.0460000  1
  11968  11966  11967  11979     1  0.0000000  0.0000000  3
  11968  11966  11967  11969     1  0.0000000  0.6508444  3
  11968  11966  11980  11986     1  0.0000000  1.0460000  1
  11968  11966  11980  11986     1  0.0000000  0.0000000  3
  11968  11966  11980  11984     1  0.0000000  0.6508444  3
  11968  11966  11980  11985     1  0.0000000  0.6508444  3
  11968  11966  11988  11972     1  0.0000000  1.6038667  3
  11969  11967  11966  11980     1  0.0000000  0.6508444  3
  11969  11967  11966  11988     1  0.0000000  1.0460000  1
  11969  11967  11966  11988     1  0.0000000  0.0000000  3
  11969  11967  11970  11971     1  0.0000000  0.6508444  3
  11969  11967  11970  11978     1  0.0000000  1.0460000  1
  11969  11967  11970  11978     1  0.0000000  0.0000000  3
  11969  11967  11970  11974     1  0.0000000  0.6508444  3
  11969  11967  11979  11982     1  0.0000000  0.6973333  3
  11970  11967  11979  11982     1  0.0000000  1.0460000  1
  11970  11967  11979  11982     1  0.0000000  0.6694400  3
  11970  11971  11972  11975     1  0.0000000  0.6508444  3
  11970  11971  11977  11983     1  0.0000000  1.0460000  1
  11970  11971  11977  11983     1  0.0000000  0.6694400  3
  11971  11970  11978  11981     1  0.0000000  1.0460000  1
  11971  11970  11978  11981     1  0.0000000  0.6694400  3
  11972  11971  11970  11974     1  0.0000000  0.6508444  3
  11972  11971  11977  11983     1  0.0000000  1.0460000  1
  11972  11971  11977  11983     1  0.0000000  0.6694400  3
  11973  11971  11970  11978     1  0.0000000  1.0460000  1
  11973  11971  11970  11978     1  0.0000000  0.0000000  3
  11973  11971  11970  11974     1  0.0000000  0.6508444  3
  11973  11971  11972  11976     1  0.0000000  1.0460000  1
  11973  11971  11972  11976     1  0.0000000  0.0000000  3
  11973  11971  11972  11988     1  0.0000000  1.0460000  1
  11973  11971  11972  11988     1  0.0000000  0.0000000  3
  11973  11971  11972  11975     1  0.0000000  0.6508444  3
  11973  11971  11977  11983     1  0.0000000  0.6973333  3
  11974  11970  11967  11979     1  0.0000000  1.0460000  1
  11974  11970  11967  11979     1  0.0000000  0.0000000  3
  11974  11970  11971  11977     1  0.0000000  1.0460000  1
  11974  11970  11971  11977     1  0.0000000  0.0000000  3
  11974  11970  11978  11981     1  0.0000000  0.6973333  3
  11975  11972  11971  11977     1  0.0000000  0.6508444  3
  11984  11980  11966  11988     1  0.0000000  1.0460000  1
  11984  11980  11966  11988     1  0.0000000  0.0000000  3
  11984  11980  11986  11987     1  0.0000000  0.6973333  3
  11985  11980  11966  11988     1  0.0000000  1.0460000  1
  11985  11980  11966  11988     1  0.0000000  0.0000000  3
  11985  11980  11986  11987     1  0.0000000  0.6973333  3
  11989  11990  11993  11997     1  0.0000000  0.6508444  3
  11989  11990  12002  12005     1  0.0000000  1.0460000  1
  11989  11990  12002  12005     1  0.0000000  0.6694400  3
  11989  12003  12009  12010     1  0.0000000  1.0460000  1
  11989  12003  12009  12010     1  0.0000000  0.6694400  3
  11989  12011  11995  11998     1  0.0000000  1.6038667  3
  11990  11993  11994  11996     1  0.0000000  0.6508444  3
  11990  11993  12001  12004     1  0.0000000  1.0460000  1
  11990  11993  12001  12004     1  0.0000000  0.6694400  3
  11990  11989  12003  12007     1  0.0000000  0.6508444  3
  11990  11989  12003  12008     1  0.0000000  0.6508444  3
  11991  11989  11990  11993     1  0.0000000  0.6508444  3
  11991  11989  11990  12002     1  0.0000000  1.0460000  1
  11991  11989  11990  12002     1  0.0000000  0.0000000  3
  11991  11989  11990  11992     1  0.0000000  0.6508444  3
  11991  11989  12003  12009     1  0.0000000  1.0460000  1
  11991  11989  12003  12009     1  0.0000000  0.0000000  3
  11991  11989  12003  12007     1  0.0000000  0.6508444  3
  11991  11989  12003  12008     1  0.0000000  0.6508444  3
  11991  11989  12011  11995     1  0.0000000  1.6038667  3
  11992  11990  11993  11994     1  0.0000000  0.6508444  3
  11992  11990  11993  12001     1  0.0000000  1.0460000  1
  11992  11990  11993  12001     1  0.0000000  0.0000000  3
  11992  11990  11993  11997     1  0.0000000  0.6508444  3
  11992  11990  12002  12005     1  0.0000000  0.6973333  3
  11992  11990  11989  12003     1  0.0000000  0.6508444  3
  11992  11990  11989  12011     1  0.0000000  1.0460000  1
  11992  11990  11989  12011     1  0.0000000  0.0000000  3
  11993  11994  11995  11998     1  0.0000000  0.6508444  3
  11993  11994  12000  12006     1  0.0000000  1.0460000  1
  11993  11994  12000  12006     1  0.0000000  0.6694400  3
  11993  11990  12002  12005     1  0.0000000  1.0460000  1
  11993  11990  12002  12005     1  0.0000000  0.6694400  3
  11994  11993  12001  12004     1  0.0000000  1.0460000  1
  11994  11993  12001  12004     1  0.0000000  0.6694400  3
  11995  11994  12000  12006     1  0.0000000  1.0460000  1
  11995  11994  12000  12006     1  0.0000000  0.6694400  3
  11995  11994  11993  11997     1  0.0000000  0.6508444  3
  11996  11994  11995  11999     1  0.0000000  1.0460000  1
  11996  11994  11995  11999     1  0.0000000  0.0000000  3
  11996  11994  11995  12011     1  0.0000000  1.0460000  1
  11996  11994  11995  12011     1  0.0000000  0.0000000  3
  11996  11994  11995  11998     1  0.0000000  0.6508444  3
  11996  11994  12000  12006     1  0.0000000  0.6973333  3
  11996  11994  11993  12001     1  0.0000000  1.0460000  1
  11996  11994  11993  12001     1  0.0000000  0.0000000  3
  11996  11994  11993  11997     1  0.0000000  0.6508444  3
  11997  11993  11994  12000     1  0.0000000  1.0460000  1
  11997  11993  11994  12000     1  0.0000000  0.0000000  3
  11997  11993  12001  12004     1  0.0000000  0.6973333  3
  11997  11993  11990  12002     1  0.0000000  1.0460000  1
  11997  11993  11990  12002     1  0.0000000  0.0000000  3
  11998  11995  11994  12000     1  0.0000000  0.6508444  3
  12007  12003  12009  12010     1  0.0000000  0.6973333  3
  12007  12003  11989  12011     1  0.0000000  1.0460000  1
  12007  12003  11989  12011     1  0.0000000  0.0000000  3
  12008  12003  12009  12010     1  0.0000000  0.6973333  3
  12008  12003  11989  12011     1  0.0000000  1.0460000  1
  12008  12003  11989  12011     1  0.0000000  0.0000000  3
  12012  12013  12016  12020     1  0.0000000  0.6508444  3
  12012  12013  12025  12028     1  0.0000000  1.0460000  1
  12012  12013  12025  12028     1  0.0000000  0.6694400  3
  12012  12026  12032  12033     1  0.0000000  1.0460000  1
  12012  12026  12032  12033     1  0.0000000  0.6694400  3
  12012  12034  12018  12021     1  0.0000000  1.6038667  3
  12013  12012  12026  12030     1  0.0000000  0.6508444  3
  12013  12012  12026  12031     1  0.0000000  0.6508444  3
  12013  12016  12017  12019     1  0.0000000  0.6508444  3
  12013  12016  12024  12027     1  0.0000000  1.0460000  1
  12013  12016  12024  12027     1  0.0000000  0.6694400  3
  12014  12012  12013  12016     1  0.0000000  0.6508444  3
  12014  12012  12013  12025     1  0.0000000  1.0460000  1
  12014  12012  12013  12025     1  0.0000000  0.0000000  3
  12014  12012  12013  12015     1  0.0000000  0.6508444  3
  12014  12012  12026  12032     1  0.0000000  1.0460000  1
  12014  12012  12026  12032     1  0.0000000  0.0000000  3
  12014  12012  12026  12030     1  0.0000000  0.6508444  3
  12014  12012  12026  12031     1  0.0000000  0.6508444  3
  12014  12012  12034  12018     1  0.0000000  1.6038667  3
  12015  12013  12012  12026     1  0.0000000  0.6508444  3
  12015  12013  12012  12034     1  0.0000000  1.0460000  1
  12015  12013  12012  12034     1  0.0000000  0.0000000  3
  12015  12013  12016  12017     1  0.0000000  0.6508444  3
  12015  12013  12016  12024     1  0.0000000  1.0460000  1
  12015  12013  12016  12024     1  0.0000000  0.0000000  3
  12015  12013  12016  12020     1  0.0000000  0.6508444  3
  12015  12013  12025  12028     1  0.0000000  0.6973333  3
  12016  12013  12025  12028     1  0.0000000  1.0460000  1
  12016  12013  12025  12028     1  0.0000000  0.6694400  3
  12016  12017  12018  12021     1  0.0000000  0.6508444  3
  12016  12017  12023  12029     1  0.0000000  1.0460000  1
  12016  12017  12023  12029     1  0.0000000  0.6694400  3
  12017  12016  12024  12027     1  0.0000000  1.0460000  1
  12017  12016  12024  12027     1  0.0000000  0.6694400  3
  12018  12017  12016  12020     1  0.0000000  0.6508444  3
  12018  12017  12023  12029     1  0.0000000  1.0460000  1
  12018  12017  12023  12029     1  0.0000000  0.6694400  3
  12019  12017  12016  12024     1  0.0000000  1.0460000  1
  12019  12017  12016  12024     1  0.0000000  0.0000000  3
  12019  12017  12016  12020     1  0.0000000  0.6508444  3
  12019  12017  12018  12022     1  0.0000000  1.0460000  1
  12019  12017  12018  12022     1  0.0000000  0.0000000  3
  12019  12017  12018  12034     1  0.0000000  1.0460000  1
  12019  12017  12018  12034     1  0.0000000  0.0000000  3
  12019  12017  12018  12021     1  0.0000000  0.6508444  3
  12019  12017  12023  12029     1  0.0000000  0.6973333  3
  12020  12016  12013  12025     1  0.0000000  1.0460000  1
  12020  12016  12013  12025     1  0.0000000  0.0000000  3
  12020  12016  12017  12023     1  0.0000000  1.0460000  1
  12020  12016  12017  12023     1  0.0000000  0.0000000  3
  12020  12016  12024  12027     1  0.0000000  0.6973333  3
  12021  12018  12017  12023     1  0.0000000  0.6508444  3
  12030  12026  12012  12034     1  0.0000000  1.0460000  1
  12030  12026  12012  12034     1  0.0000000  0.0000000  3
  12030  12026  12032  12033     1  0.0000000  0.6973333  3
  12031  12026  12012  12034     1  0.0000000  1.0460000  1
  12031  12026  12012  12034     1  0.0000000  0.0000000  3
  12031  12026  12032  12033     1  0.0000000  0.6973333  3
  12035  12036  12039  12043     1  0.0000000  0.6508444  3
  12035  12036  12048  12051     1  0.0000000  1.0460000  1
  12035  12036  12048  12051     1  0.0000000  0.6694400  3
  12035  12049  12055  12056     1  0.0000000  1.0460000  1
  12035  12049  12055  12056     1  0.0000000  0.6694400  3
  12035  12057  12041  12044     1  0.0000000  1.6038667  3
  12036  12039  12040  12042     1  0.0000000  0.6508444  3
  12036  12039  12047  12050     1  0.0000000  1.0460000  1
  12036  12039  12047  12050     1  0.0000000  0.6694400  3
  12036  12035  12049  12053     1  0.0000000  0.6508444  3
  12036  12035  12049  12054     1  0.0000000  0.6508444  3
  12037  12035  12036  12039     1  0.0000000  0.6508444  3
  12037  12035  12036  12048     1  0.0000000  1.0460000  1
  12037  12035  12036  12048     1  0.0000000  0.0000000  3
  12037  12035  12036  12038     1  0.0000000  0.6508444  3
  12037  12035  12049  12055     1  0.0000000  1.0460000  1
  12037  12035  12049  12055     1  0.0000000  0.0000000  3
  12037  12035  12049  12053     1  0.0000000  0.6508444  3
  12037  12035  12049  12054     1  0.0000000  0.6508444  3
  12037  12035  12057  12041     1  0.0000000  1.6038667  3
  12038  12036  12039  12040     1  0.0000000  0.6508444  3
  12038  12036  12039  12047     1  0.0000000  1.0460000  1
  12038  12036  12039  12047     1  0.0000000  0.0000000  3
  12038  12036  12039  12043     1  0.0000000  0.6508444  3
  12038  12036  12048  12051     1  0.0000000  0.6973333  3
  12038  12036  12035  12049     1  0.0000000  0.6508444  3
  12038  12036  12035  12057     1  0.0000000  1.0460000  1
  12038  12036  12035  12057     1  0.0000000  0.0000000  3
  12039  12040  12041  12044     1  0.0000000  0.6508444  3
  12039  12040  12046  12052     1  0.0000000  1.0460000  1
  12039  12040  12046  12052     1  0.0000000  0.6694400  3
  12039  12036  12048  12051     1  0.0000000  1.0460000  1
  12039  12036  12048  12051     1  0.0000000  0.6694400  3
  12040  12039  12047  12050     1  0.0000000  1.0460000  1
  12040  12039  12047  12050     1  0.0000000  0.6694400  3
  12041  12040  12046  12052     1  0.0000000  1.0460000  1
  12041  12040  12046  12052     1  0.0000000  0.6694400  3
  12041  12040  12039  12043     1  0.0000000  0.6508444  3
  12042  12040  12041  12045     1  0.0000000  1.0460000  1
  12042  12040  12041  12045     1  0.0000000  0.0000000  3
  12042  12040  12041  12057     1  0.0000000  1.0460000  1
  12042  12040  12041  12057     1  0.0000000  0.0000000  3
  12042  12040  12041  12044     1  0.0000000  0.6508444  3
  12042  12040  12046  12052     1  0.0000000  0.6973333  3
  12042  12040  12039  12047     1  0.0000000  1.0460000  1
  12042  12040  12039  12047     1  0.0000000  0.0000000  3
  12042  12040  12039  12043     1  0.0000000  0.6508444  3
  12043  12039  12040  12046     1  0.0000000  1.0460000  1
  12043  12039  12040  12046     1  0.0000000  0.0000000  3
  12043  12039  12047  12050     1  0.0000000  0.6973333  3
  12043  12039  12036  12048     1  0.0000000  1.0460000  1
  12043  12039  12036  12048     1  0.0000000  0.0000000  3
  12044  12041  12040  12046     1  0.0000000  0.6508444  3
  12053  12049  12055  12056     1  0.0000000  0.6973333  3
  12053  12049  12035  12057     1  0.0000000  1.0460000  1
  12053  12049  12035  12057     1  0.0000000  0.0000000  3
  12054  12049  12055  12056     1  0.0000000  0.6973333  3
  12054  12049  12035  12057     1  0.0000000  1.0460000  1
  12054  12049  12035  12057     1  0.0000000  0.0000000  3
  12058  12059  12062  12066     1  0.0000000  0.6508444  3
  12058  12059  12071  12074     1  0.0000000  1.0460000  1
  12058  12059  12071  12074     1  0.0000000  0.6694400  3
  12058  12072  12078  12079     1  0.0000000  1.0460000  1
  12058  12072  12078  12079     1  0.0000000  0.6694400  3
  12058  12080  12064  12067     1  0.0000000  1.6038667  3
  12059  12058  12072  12076     1  0.0000000  0.6508444  3
  12059  12058  12072  12077     1  0.0000000  0.6508444  3
  12059  12062  12063  12065     1  0.0000000  0.6508444  3
  12059  12062  12070  12073     1  0.0000000  1.0460000  1
  12059  12062  12070  12073     1  0.0000000  0.6694400  3
  12060  12058  12059  12062     1  0.0000000  0.6508444  3
  12060  12058  12059  12071     1  0.0000000  1.0460000  1
  12060  12058  12059  12071     1  0.0000000  0.0000000  3
  12060  12058  12059  12061     1  0.0000000  0.6508444  3
  12060  12058  12072  12078     1  0.0000000  1.0460000  1
  12060  12058  12072  12078     1  0.0000000  0.0000000  3
  12060  12058  12072  12076     1  0.0000000  0.6508444  3
  12060  12058  12072  12077     1  0.0000000  0.6508444  3
  12060  12058  12080  12064     1  0.0000000  1.6038667  3
  12061  12059  12058  12072     1  0.0000000  0.6508444  3
  12061  12059  12058  12080     1  0.0000000  1.0460000  1
  12061  12059  12058  12080     1  0.0000000  0.0000000  3
  12061  12059  12062  12063     1  0.0000000  0.6508444  3
  12061  12059  12062  12070     1  0.0000000  1.0460000  1
  12061  12059  12062  12070     1  0.0000000  0.0000000  3
  12061  12059  12062  12066     1  0.0000000  0.6508444  3
  12061  12059  12071  12074     1  0.0000000  0.6973333  3
  12062  12059  12071  12074     1  0.0000000  1.0460000  1
  12062  12059  12071  12074     1  0.0000000  0.6694400  3
  12062  12063  12064  12067     1  0.0000000  0.6508444  3
  12062  12063  12069  12075     1  0.0000000  1.0460000  1
  12062  12063  12069  12075     1  0.0000000  0.6694400  3
  12063  12062  12070  12073     1  0.0000000  1.0460000  1
  12063  12062  12070  12073     1  0.0000000  0.6694400  3
  12064  12063  12062  12066     1  0.0000000  0.6508444  3
  12064  12063  12069  12075     1  0.0000000  1.0460000  1
  12064  12063  12069  12075     1  0.0000000  0.6694400  3
  12065  12063  12062  12070     1  0.0000000  1.0460000  1
  12065  12063  12062  12070     1  0.0000000  0.0000000  3
  12065  12063  12062  12066     1  0.0000000  0.6508444  3
  12065  12063  12064  12068     1  0.0000000  1.0460000  1
  12065  12063  12064  12068     1  0.0000000  0.0000000  3
  12065  12063  12064  12080     1  0.0000000  1.0460000  1
  12065  12063  12064  12080     1  0.0000000  0.0000000  3
  12065  12063  12064  12067     1  0.0000000  0.6508444  3
  12065  12063  12069  12075     1  0.0000000  0.6973333  3
  12066  12062  12059  12071     1  0.0000000  1.0460000  1
  12066  12062  12059  12071     1  0.0000000  0.0000000  3
  12066  12062  12063  12069     1  0.0000000  1.0460000  1
  12066  12062  12063  12069     1  0.0000000  0.0000000  3
  12066  12062  12070  12073     1  0.0000000  0.6973333  3
  12067  12064  12063  12069     1  0.0000000  0.6508444  3
  12076  12072  12058  12080     1  0.0000000  1.0460000  1
  12076  12072  12058  12080     1  0.0000000  0.0000000  3
  12076  12072  12078  12079     1  0.0000000  0.6973333  3
  12077  12072  12058  12080     1  0.0000000  1.0460000  1
  12077  12072  12058  12080     1  0.0000000  0.0000000  3
  12077  12072  12078  12079     1  0.0000000  0.6973333  3
  12081  12082  12085  12089     1  0.0000000  0.6508444  3
  12081  12082  12094  12097     1  0.0000000  1.0460000  1
  12081  12082  12094  12097     1  0.0000000  0.6694400  3
  12081  12095  12101  12102     1  0.0000000  1.0460000  1
  12081  12095  12101  12102     1  0.0000000  0.6694400  3
  12081  12103  12087  12090     1  0.0000000  1.6038667  3
  12082  12085  12086  12088     1  0.0000000  0.6508444  3
  12082  12085  12093  12096     1  0.0000000  1.0460000  1
  12082  12085  12093  12096     1  0.0000000  0.6694400  3
  12082  12081  12095  12099     1  0.0000000  0.6508444  3
  12082  12081  12095  12100     1  0.0000000  0.6508444  3
  12083  12081  12082  12085     1  0.0000000  0.6508444  3
  12083  12081  12082  12094     1  0.0000000  1.0460000  1
  12083  12081  12082  12094     1  0.0000000  0.0000000  3
  12083  12081  12082  12084     1  0.0000000  0.6508444  3
  12083  12081  12095  12101     1  0.0000000  1.0460000  1
  12083  12081  12095  12101     1  0.0000000  0.0000000  3
  12083  12081  12095  12099     1  0.0000000  0.6508444  3
  12083  12081  12095  12100     1  0.0000000  0.6508444  3
  12083  12081  12103  12087     1  0.0000000  1.6038667  3
  12084  12082  12085  12086     1  0.0000000  0.6508444  3
  12084  12082  12085  12093     1  0.0000000  1.0460000  1
  12084  12082  12085  12093     1  0.0000000  0.0000000  3
  12084  12082  12085  12089     1  0.0000000  0.6508444  3
  12084  12082  12094  12097     1  0.0000000  0.6973333  3
  12084  12082  12081  12095     1  0.0000000  0.6508444  3
  12084  12082  12081  12103     1  0.0000000  1.0460000  1
  12084  12082  12081  12103     1  0.0000000  0.0000000  3
  12085  12086  12087  12090     1  0.0000000  0.6508444  3
  12085  12086  12092  12098     1  0.0000000  1.0460000  1
  12085  12086  12092  12098     1  0.0000000  0.6694400  3
  12085  12082  12094  12097     1  0.0000000  1.0460000  1
  12085  12082  12094  12097     1  0.0000000  0.6694400  3
  12086  12085  12093  12096     1  0.0000000  1.0460000  1
  12086  12085  12093  12096     1  0.0000000  0.6694400  3
  12087  12086  12092  12098     1  0.0000000  1.0460000  1
  12087  12086  12092  12098     1  0.0000000  0.6694400  3
  12087  12086  12085  12089     1  0.0000000  0.6508444  3
  12088  12086  12087  12091     1  0.0000000  1.0460000  1
  12088  12086  12087  12091     1  0.0000000  0.0000000  3
  12088  12086  12087  12103     1  0.0000000  1.0460000  1
  12088  12086  12087  12103     1  0.0000000  0.0000000  3
  12088  12086  12087  12090     1  0.0000000  0.6508444  3
  12088  12086  12092  12098     1  0.0000000  0.6973333  3
  12088  12086  12085  12093     1  0.0000000  1.0460000  1
  12088  12086  12085  12093     1  0.0000000  0.0000000  3
  12088  12086  12085  12089     1  0.0000000  0.6508444  3
  12089  12085  12086  12092     1  0.0000000  1.0460000  1
  12089  12085  12086  12092     1  0.0000000  0.0000000  3
  12089  12085  12093  12096     1  0.0000000  0.6973333  3
  12089  12085  12082  12094     1  0.0000000  1.0460000  1
  12089  12085  12082  12094     1  0.0000000  0.0000000  3
  12090  12087  12086  12092     1  0.0000000  0.6508444  3
  12099  12095  12101  12102     1  0.0000000  0.6973333  3
  12099  12095  12081  12103     1  0.0000000  1.0460000  1
  12099  12095  12081  12103     1  0.0000000  0.0000000  3
  12100  12095  12101  12102     1  0.0000000  0.6973333  3
  12100  12095  12081  12103     1  0.0000000  1.0460000  1
  12100  12095  12081  12103     1  0.0000000  0.0000000  3
  12104  12105  12108  12112     1  0.0000000  0.6508444  3
  12104  12105  12117  12120     1  0.0000000  1.0460000  1
  12104  12105  12117  12120     1  0.0000000  0.6694400  3
  12104  12118  12124  12125     1  0.0000000  1.0460000  1
  12104  12118  12124  12125     1  0.0000000  0.6694400  3
  12104  12126  12110  12113     1  0.0000000  1.6038667  3
  12105  12104  12118  12122     1  0.0000000  0.6508444  3
  12105  12104  12118  12123     1  0.0000000  0.6508444  3
  12105  12108  12109  12111     1  0.0000000  0.6508444  3
  12105  12108  12116  12119     1  0.0000000  1.0460000  1
  12105  12108  12116  12119     1  0.0000000  0.6694400  3
  12106  12104  12105  12108     1  0.0000000  0.6508444  3
  12106  12104  12105  12117     1  0.0000000  1.0460000  1
  12106  12104  12105  12117     1  0.0000000  0.0000000  3
  12106  12104  12105  12107     1  0.0000000  0.6508444  3
  12106  12104  12118  12124     1  0.0000000  1.0460000  1
  12106  12104  12118  12124     1  0.0000000  0.0000000  3
  12106  12104  12118  12122     1  0.0000000  0.6508444  3
  12106  12104  12118  12123     1  0.0000000  0.6508444  3
  12106  12104  12126  12110     1  0.0000000  1.6038667  3
  12107  12105  12104  12118     1  0.0000000  0.6508444  3
  12107  12105  12104  12126     1  0.0000000  1.0460000  1
  12107  12105  12104  12126     1  0.0000000  0.0000000  3
  12107  12105  12108  12109     1  0.0000000  0.6508444  3
  12107  12105  12108  12116     1  0.0000000  1.0460000  1
  12107  12105  12108  12116     1  0.0000000  0.0000000  3
  12107  12105  12108  12112     1  0.0000000  0.6508444  3
  12107  12105  12117  12120     1  0.0000000  0.6973333  3
  12108  12105  12117  12120     1  0.0000000  1.0460000  1
  12108  12105  12117  12120     1  0.0000000  0.6694400  3
  12108  12109  12110  12113     1  0.0000000  0.6508444  3
  12108  12109  12115  12121     1  0.0000000  1.0460000  1
  12108  12109  12115  12121     1  0.0000000  0.6694400  3
  12109  12108  12116  12119     1  0.0000000  1.0460000  1
  12109  12108  12116  12119     1  0.0000000  0.6694400  3
  12110  12109  12108  12112     1  0.0000000  0.6508444  3
  12110  12109  12115  12121     1  0.0000000  1.0460000  1
  12110  12109  12115  12121     1  0.0000000  0.6694400  3
  12111  12109  12108  12116     1  0.0000000  1.0460000  1
  12111  12109  12108  12116     1  0.0000000  0.0000000  3
  12111  12109  12108  12112     1  0.0000000  0.6508444  3
  12111  12109  12110  12114     1  0.0000000  1.0460000  1
  12111  12109  12110  12114     1  0.0000000  0.0000000  3
  12111  12109  12110  12126     1  0.0000000  1.0460000  1
  12111  12109  12110  12126     1  0.0000000  0.0000000  3
  12111  12109  12110  12113     1  0.0000000  0.6508444  3
  12111  12109  12115  12121     1  0.0000000  0.6973333  3
  12112  12108  12105  12117     1  0.0000000  1.0460000  1
  12112  12108  12105  12117     1  0.0000000  0.0000000  3
  12112  12108  12109  12115     1  0.0000000  1.0460000  1
  12112  12108  12109  12115     1  0.0000000  0.0000000  3
  12112  12108  12116  12119     1  0.0000000  0.6973333  3
  12113  12110  12109  12115     1  0.0000000  0.6508444  3
  12122  12118  12104  12126     1  0.0000000  1.0460000  1
  12122  12118  12104  12126     1  0.0000000  0.0000000  3
  12122  12118  12124  12125     1  0.0000000  0.6973333  3
  12123  12118  12104  12126     1  0.0000000  1.0460000  1
  12123  12118  12104  12126     1  0.0000000  0.0000000  3
  12123  12118  12124  12125     1  0.0000000  0.6973333  3
  12127  12128  12131  12135     1  0.0000000  0.6508444  3
  12127  12128  12140  12143     1  0.0000000  1.0460000  1
  12127  12128  12140  12143     1  0.0000000  0.6694400  3
  12127  12141  12147  12148     1  0.0000000  1.0460000  1
  12127  12141  12147  12148     1  0.0000000  0.6694400  3
  12127  12149  12133  12136     1  0.0000000  1.6038667  3
  12128  12131  12132  12134     1  0.0000000  0.6508444  3
  12128  12131  12139  12142     1  0.0000000  1.0460000  1
  12128  12131  12139  12142     1  0.0000000  0.6694400  3
  12128  12127  12141  12145     1  0.0000000  0.6508444  3
  12128  12127  12141  12146     1  0.0000000  0.6508444  3
  12129  12127  12128  12131     1  0.0000000  0.6508444  3
  12129  12127  12128  12140     1  0.0000000  1.0460000  1
  12129  12127  12128  12140     1  0.0000000  0.0000000  3
  12129  12127  12128  12130     1  0.0000000  0.6508444  3
  12129  12127  12141  12147     1  0.0000000  1.0460000  1
  12129  12127  12141  12147     1  0.0000000  0.0000000  3
  12129  12127  12141  12145     1  0.0000000  0.6508444  3
  12129  12127  12141  12146     1  0.0000000  0.6508444  3
  12129  12127  12149  12133     1  0.0000000  1.6038667  3
  12130  12128  12131  12132     1  0.0000000  0.6508444  3
  12130  12128  12131  12139     1  0.0000000  1.0460000  1
  12130  12128  12131  12139     1  0.0000000  0.0000000  3
  12130  12128  12131  12135     1  0.0000000  0.6508444  3
  12130  12128  12140  12143     1  0.0000000  0.6973333  3
  12130  12128  12127  12141     1  0.0000000  0.6508444  3
  12130  12128  12127  12149     1  0.0000000  1.0460000  1
  12130  12128  12127  12149     1  0.0000000  0.0000000  3
  12131  12132  12133  12136     1  0.0000000  0.6508444  3
  12131  12132  12138  12144     1  0.0000000  1.0460000  1
  12131  12132  12138  12144     1  0.0000000  0.6694400  3
  12131  12128  12140  12143     1  0.0000000  1.0460000  1
  12131  12128  12140  12143     1  0.0000000  0.6694400  3
  12132  12131  12139  12142     1  0.0000000  1.0460000  1
  12132  12131  12139  12142     1  0.0000000  0.6694400  3
  12133  12132  12138  12144     1  0.0000000  1.0460000  1
  12133  12132  12138  12144     1  0.0000000  0.6694400  3
  12133  12132  12131  12135     1  0.0000000  0.6508444  3
  12134  12132  12133  12137     1  0.0000000  1.0460000  1
  12134  12132  12133  12137     1  0.0000000  0.0000000  3
  12134  12132  12133  12149     1  0.0000000  1.0460000  1
  12134  12132  12133  12149     1  0.0000000  0.0000000  3
  12134  12132  12133  12136     1  0.0000000  0.6508444  3
  12134  12132  12138  12144     1  0.0000000  0.6973333  3
  12134  12132  12131  12139     1  0.0000000  1.0460000  1
  12134  12132  12131  12139     1  0.0000000  0.0000000  3
  12134  12132  12131  12135     1  0.0000000  0.6508444  3
  12135  12131  12132  12138     1  0.0000000  1.0460000  1
  12135  12131  12132  12138     1  0.0000000  0.0000000  3
  12135  12131  12139  12142     1  0.0000000  0.6973333  3
  12135  12131  12128  12140     1  0.0000000  1.0460000  1
  12135  12131  12128  12140     1  0.0000000  0.0000000  3
  12136  12133  12132  12138     1  0.0000000  0.6508444  3
  12145  12141  12147  12148     1  0.0000000  0.6973333  3
  12145  12141  12127  12149     1  0.0000000  1.0460000  1
  12145  12141  12127  12149     1  0.0000000  0.0000000  3
  12146  12141  12147  12148     1  0.0000000  0.6973333  3
  12146  12141  12127  12149     1  0.0000000  1.0460000  1
  12146  12141  12127  12149     1  0.0000000  0.0000000  3
  12150  12151  12154  12158     1  0.0000000  0.6508444  3
  12150  12151  12163  12166     1  0.0000000  1.0460000  1
  12150  12151  12163  12166     1  0.0000000  0.6694400  3
  12150  12164  12170  12171     1  0.0000000  1.0460000  1
  12150  12164  12170  12171     1  0.0000000  0.6694400  3
  12150  12172  12156  12159     1  0.0000000  1.6038667  3
  12151  12150  12164  12168     1  0.0000000  0.6508444  3
  12151  12150  12164  12169     1  0.0000000  0.6508444  3
  12151  12154  12155  12157     1  0.0000000  0.6508444  3
  12151  12154  12162  12165     1  0.0000000  1.0460000  1
  12151  12154  12162  12165     1  0.0000000  0.6694400  3
  12152  12150  12151  12154     1  0.0000000  0.6508444  3
  12152  12150  12151  12163     1  0.0000000  1.0460000  1
  12152  12150  12151  12163     1  0.0000000  0.0000000  3
  12152  12150  12151  12153     1  0.0000000  0.6508444  3
  12152  12150  12164  12170     1  0.0000000  1.0460000  1
  12152  12150  12164  12170     1  0.0000000  0.0000000  3
  12152  12150  12164  12168     1  0.0000000  0.6508444  3
  12152  12150  12164  12169     1  0.0000000  0.6508444  3
  12152  12150  12172  12156     1  0.0000000  1.6038667  3
  12153  12151  12150  12164     1  0.0000000  0.6508444  3
  12153  12151  12150  12172     1  0.0000000  1.0460000  1
  12153  12151  12150  12172     1  0.0000000  0.0000000  3
  12153  12151  12154  12155     1  0.0000000  0.6508444  3
  12153  12151  12154  12162     1  0.0000000  1.0460000  1
  12153  12151  12154  12162     1  0.0000000  0.0000000  3
  12153  12151  12154  12158     1  0.0000000  0.6508444  3
  12153  12151  12163  12166     1  0.0000000  0.6973333  3
  12154  12151  12163  12166     1  0.0000000  1.0460000  1
  12154  12151  12163  12166     1  0.0000000  0.6694400  3
  12154  12155  12156  12159     1  0.0000000  0.6508444  3
  12154  12155  12161  12167     1  0.0000000  1.0460000  1
  12154  12155  12161  12167     1  0.0000000  0.6694400  3
  12155  12154  12162  12165     1  0.0000000  1.0460000  1
  12155  12154  12162  12165     1  0.0000000  0.6694400  3
  12156  12155  12154  12158     1  0.0000000  0.6508444  3
  12156  12155  12161  12167     1  0.0000000  1.0460000  1
  12156  12155  12161  12167     1  0.0000000  0.6694400  3
  12157  12155  12154  12162     1  0.0000000  1.0460000  1
  12157  12155  12154  12162     1  0.0000000  0.0000000  3
  12157  12155  12154  12158     1  0.0000000  0.6508444  3
  12157  12155  12156  12160     1  0.0000000  1.0460000  1
  12157  12155  12156  12160     1  0.0000000  0.0000000  3
  12157  12155  12156  12172     1  0.0000000  1.0460000  1
  12157  12155  12156  12172     1  0.0000000  0.0000000  3
  12157  12155  12156  12159     1  0.0000000  0.6508444  3
  12157  12155  12161  12167     1  0.0000000  0.6973333  3
  12158  12154  12151  12163     1  0.0000000  1.0460000  1
  12158  12154  12151  12163     1  0.0000000  0.0000000  3
  12158  12154  12155  12161     1  0.0000000  1.0460000  1
  12158  12154  12155  12161     1  0.0000000  0.0000000  3
  12158  12154  12162  12165     1  0.0000000  0.6973333  3
  12159  12156  12155  12161     1  0.0000000  0.6508444  3
  12168  12164  12150  12172     1  0.0000000  1.0460000  1
  12168  12164  12150  12172     1  0.0000000  0.0000000  3
  12168  12164  12170  12171     1  0.0000000  0.6973333  3
  12169  12164  12150  12172     1  0.0000000  1.0460000  1
  12169  12164  12150  12172     1  0.0000000  0.0000000  3
  12169  12164  12170  12171     1  0.0000000  0.6973333  3
  12173  12174  12177  12181     1  0.0000000  0.6508444  3
  12173  12174  12186  12189     1  0.0000000  1.0460000  1
  12173  12174  12186  12189     1  0.0000000  0.6694400  3
  12173  12187  12193  12194     1  0.0000000  1.0460000  1
  12173  12187  12193  12194     1  0.0000000  0.6694400  3
  12173  12195  12179  12182     1  0.0000000  1.6038667  3
  12174  12177  12178  12180     1  0.0000000  0.6508444  3
  12174  12177  12185  12188     1  0.0000000  1.0460000  1
  12174  12177  12185  12188     1  0.0000000  0.6694400  3
  12174  12173  12187  12191     1  0.0000000  0.6508444  3
  12174  12173  12187  12192     1  0.0000000  0.6508444  3
  12175  12173  12174  12177     1  0.0000000  0.6508444  3
  12175  12173  12174  12186     1  0.0000000  1.0460000  1
  12175  12173  12174  12186     1  0.0000000  0.0000000  3
  12175  12173  12174  12176     1  0.0000000  0.6508444  3
  12175  12173  12187  12193     1  0.0000000  1.0460000  1
  12175  12173  12187  12193     1  0.0000000  0.0000000  3
  12175  12173  12187  12191     1  0.0000000  0.6508444  3
  12175  12173  12187  12192     1  0.0000000  0.6508444  3
  12175  12173  12195  12179     1  0.0000000  1.6038667  3
  12176  12174  12177  12178     1  0.0000000  0.6508444  3
  12176  12174  12177  12185     1  0.0000000  1.0460000  1
  12176  12174  12177  12185     1  0.0000000  0.0000000  3
  12176  12174  12177  12181     1  0.0000000  0.6508444  3
  12176  12174  12186  12189     1  0.0000000  0.6973333  3
  12176  12174  12173  12187     1  0.0000000  0.6508444  3
  12176  12174  12173  12195     1  0.0000000  1.0460000  1
  12176  12174  12173  12195     1  0.0000000  0.0000000  3
  12177  12178  12179  12182     1  0.0000000  0.6508444  3
  12177  12178  12184  12190     1  0.0000000  1.0460000  1
  12177  12178  12184  12190     1  0.0000000  0.6694400  3
  12177  12174  12186  12189     1  0.0000000  1.0460000  1
  12177  12174  12186  12189     1  0.0000000  0.6694400  3
  12178  12177  12185  12188     1  0.0000000  1.0460000  1
  12178  12177  12185  12188     1  0.0000000  0.6694400  3
  12179  12178  12184  12190     1  0.0000000  1.0460000  1
  12179  12178  12184  12190     1  0.0000000  0.6694400  3
  12179  12178  12177  12181     1  0.0000000  0.6508444  3
  12180  12178  12179  12183     1  0.0000000  1.0460000  1
  12180  12178  12179  12183     1  0.0000000  0.0000000  3
  12180  12178  12179  12195     1  0.0000000  1.0460000  1
  12180  12178  12179  12195     1  0.0000000  0.0000000  3
  12180  12178  12179  12182     1  0.0000000  0.6508444  3
  12180  12178  12184  12190     1  0.0000000  0.6973333  3
  12180  12178  12177  12185     1  0.0000000  1.0460000  1
  12180  12178  12177  12185     1  0.0000000  0.0000000  3
  12180  12178  12177  12181     1  0.0000000  0.6508444  3
  12181  12177  12178  12184     1  0.0000000  1.0460000  1
  12181  12177  12178  12184     1  0.0000000  0.0000000  3
  12181  12177  12185  12188     1  0.0000000  0.6973333  3
  12181  12177  12174  12186     1  0.0000000  1.0460000  1
  12181  12177  12174  12186     1  0.0000000  0.0000000  3
  12182  12179  12178  12184     1  0.0000000  0.6508444  3
  12191  12187  12193  12194     1  0.0000000  0.6973333  3
  12191  12187  12173  12195     1  0.0000000  1.0460000  1
  12191  12187  12173  12195     1  0.0000000  0.0000000  3
  12192  12187  12193  12194     1  0.0000000  0.6973333  3
  12192  12187  12173  12195     1  0.0000000  1.0460000  1
  12192  12187  12173  12195     1  0.0000000  0.0000000  3
  12196  12197  12200  12204     1  0.0000000  0.6508444  3
  12196  12197  12209  12212     1  0.0000000  1.0460000  1
  12196  12197  12209  12212     1  0.0000000  0.6694400  3
  12196  12210  12216  12217     1  0.0000000  1.0460000  1
  12196  12210  12216  12217     1  0.0000000  0.6694400  3
  12196  12218  12202  12205     1  0.0000000  1.6038667  3
  12197  12196  12210  12214     1  0.0000000  0.6508444  3
  12197  12196  12210  12215     1  0.0000000  0.6508444  3
  12197  12200  12201  12203     1  0.0000000  0.6508444  3
  12197  12200  12208  12211     1  0.0000000  1.0460000  1
  12197  12200  12208  12211     1  0.0000000  0.6694400  3
  12198  12196  12197  12200     1  0.0000000  0.6508444  3
  12198  12196  12197  12209     1  0.0000000  1.0460000  1
  12198  12196  12197  12209     1  0.0000000  0.0000000  3
  12198  12196  12197  12199     1  0.0000000  0.6508444  3
  12198  12196  12210  12216     1  0.0000000  1.0460000  1
  12198  12196  12210  12216     1  0.0000000  0.0000000  3
  12198  12196  12210  12214     1  0.0000000  0.6508444  3
  12198  12196  12210  12215     1  0.0000000  0.6508444  3
  12198  12196  12218  12202     1  0.0000000  1.6038667  3
  12199  12197  12196  12210     1  0.0000000  0.6508444  3
  12199  12197  12196  12218     1  0.0000000  1.0460000  1
  12199  12197  12196  12218     1  0.0000000  0.0000000  3
  12199  12197  12200  12201     1  0.0000000  0.6508444  3
  12199  12197  12200  12208     1  0.0000000  1.0460000  1
  12199  12197  12200  12208     1  0.0000000  0.0000000  3
  12199  12197  12200  12204     1  0.0000000  0.6508444  3
  12199  12197  12209  12212     1  0.0000000  0.6973333  3
  12200  12197  12209  12212     1  0.0000000  1.0460000  1
  12200  12197  12209  12212     1  0.0000000  0.6694400  3
  12200  12201  12202  12205     1  0.0000000  0.6508444  3
  12200  12201  12207  12213     1  0.0000000  1.0460000  1
  12200  12201  12207  12213     1  0.0000000  0.6694400  3
  12201  12200  12208  12211     1  0.0000000  1.0460000  1
  12201  12200  12208  12211     1  0.0000000  0.6694400  3
  12202  12201  12200  12204     1  0.0000000  0.6508444  3
  12202  12201  12207  12213     1  0.0000000  1.0460000  1
  12202  12201  12207  12213     1  0.0000000  0.6694400  3
  12203  12201  12200  12208     1  0.0000000  1.0460000  1
  12203  12201  12200  12208     1  0.0000000  0.0000000  3
  12203  12201  12200  12204     1  0.0000000  0.6508444  3
  12203  12201  12202  12206     1  0.0000000  1.0460000  1
  12203  12201  12202  12206     1  0.0000000  0.0000000  3
  12203  12201  12202  12218     1  0.0000000  1.0460000  1
  12203  12201  12202  12218     1  0.0000000  0.0000000  3
  12203  12201  12202  12205     1  0.0000000  0.6508444  3
  12203  12201  12207  12213     1  0.0000000  0.6973333  3
  12204  12200  12197  12209     1  0.0000000  1.0460000  1
  12204  12200  12197  12209     1  0.0000000  0.0000000  3
  12204  12200  12201  12207     1  0.0000000  1.0460000  1
  12204  12200  12201  12207     1  0.0000000  0.0000000  3
  12204  12200  12208  12211     1  0.0000000  0.6973333  3
  12205  12202  12201  12207     1  0.0000000  0.6508444  3
  12214  12210  12196  12218     1  0.0000000  1.0460000  1
  12214  12210  12196  12218     1  0.0000000  0.0000000  3
  12214  12210  12216  12217     1  0.0000000  0.6973333  3
  12215  12210  12196  12218     1  0.0000000  1.0460000  1
  12215  12210  12196  12218     1  0.0000000  0.0000000  3
  12215  12210  12216  12217     1  0.0000000  0.6973333  3
  12219  12220  12223  12227     1  0.0000000  0.6508444  3
  12219  12220  12232  12235     1  0.0000000  1.0460000  1
  12219  12220  12232  12235     1  0.0000000  0.6694400  3
  12219  12233  12239  12240     1  0.0000000  1.0460000  1
  12219  12233  12239  12240     1  0.0000000  0.6694400  3
  12219  12241  12225  12228     1  0.0000000  1.6038667  3
  12220  12223  12224  12226     1  0.0000000  0.6508444  3
  12220  12223  12231  12234     1  0.0000000  1.0460000  1
  12220  12223  12231  12234     1  0.0000000  0.6694400  3
  12220  12219  12233  12237     1  0.0000000  0.6508444  3
  12220  12219  12233  12238     1  0.0000000  0.6508444  3
  12221  12219  12220  12223     1  0.0000000  0.6508444  3
  12221  12219  12220  12232     1  0.0000000  1.0460000  1
  12221  12219  12220  12232     1  0.0000000  0.0000000  3
  12221  12219  12220  12222     1  0.0000000  0.6508444  3
  12221  12219  12233  12239     1  0.0000000  1.0460000  1
  12221  12219  12233  12239     1  0.0000000  0.0000000  3
  12221  12219  12233  12237     1  0.0000000  0.6508444  3
  12221  12219  12233  12238     1  0.0000000  0.6508444  3
  12221  12219  12241  12225     1  0.0000000  1.6038667  3
  12222  12220  12223  12224     1  0.0000000  0.6508444  3
  12222  12220  12223  12231     1  0.0000000  1.0460000  1
  12222  12220  12223  12231     1  0.0000000  0.0000000  3
  12222  12220  12223  12227     1  0.0000000  0.6508444  3
  12222  12220  12232  12235     1  0.0000000  0.6973333  3
  12222  12220  12219  12233     1  0.0000000  0.6508444  3
  12222  12220  12219  12241     1  0.0000000  1.0460000  1
  12222  12220  12219  12241     1  0.0000000  0.0000000  3
  12223  12224  12225  12228     1  0.0000000  0.6508444  3
  12223  12224  12230  12236     1  0.0000000  1.0460000  1
  12223  12224  12230  12236     1  0.0000000  0.6694400  3
  12223  12220  12232  12235     1  0.0000000  1.0460000  1
  12223  12220  12232  12235     1  0.0000000  0.6694400  3
  12224  12223  12231  12234     1  0.0000000  1.0460000  1
  12224  12223  12231  12234     1  0.0000000  0.6694400  3
  12225  12224  12230  12236     1  0.0000000  1.0460000  1
  12225  12224  12230  12236     1  0.0000000  0.6694400  3
  12225  12224  12223  12227     1  0.0000000  0.6508444  3
  12226  12224  12225  12229     1  0.0000000  1.0460000  1
  12226  12224  12225  12229     1  0.0000000  0.0000000  3
  12226  12224  12225  12241     1  0.0000000  1.0460000  1
  12226  12224  12225  12241     1  0.0000000  0.0000000  3
  12226  12224  12225  12228     1  0.0000000  0.6508444  3
  12226  12224  12230  12236     1  0.0000000  0.6973333  3
  12226  12224  12223  12231     1  0.0000000  1.0460000  1
  12226  12224  12223  12231     1  0.0000000  0.0000000  3
  12226  12224  12223  12227     1  0.0000000  0.6508444  3
  12227  12223  12224  12230     1  0.0000000  1.0460000  1
  12227  12223  12224  12230     1  0.0000000  0.0000000  3
  12227  12223  12231  12234     1  0.0000000  0.6973333  3
  12227  12223  12220  12232     1  0.0000000  1.0460000  1
  12227  12223  12220  12232     1  0.0000000  0.0000000  3
  12228  12225  12224  12230     1  0.0000000  0.6508444  3
  12237  12233  12239  12240     1  0.0000000  0.6973333  3
  12237  12233  12219  12241     1  0.0000000  1.0460000  1
  12237  12233  12219  12241     1  0.0000000  0.0000000  3
  12238  12233  12239  12240     1  0.0000000  0.6973333  3
  12238  12233  12219  12241     1  0.0000000  1.0460000  1
  12238  12233  12219  12241     1  0.0000000  0.0000000  3
  12242  12243  12246  12250     1  0.0000000  0.6508444  3
  12242  12243  12255  12258     1  0.0000000  1.0460000  1
  12242  12243  12255  12258     1  0.0000000  0.6694400  3
  12242  12256  12262  12263     1  0.0000000  1.0460000  1
  12242  12256  12262  12263     1  0.0000000  0.6694400  3
  12242  12264  12248  12251     1  0.0000000  1.6038667  3
  12243  12242  12256  12260     1  0.0000000  0.6508444  3
  12243  12242  12256  12261     1  0.0000000  0.6508444  3
  12243  12246  12247  12249     1  0.0000000  0.6508444  3
  12243  12246  12254  12257     1  0.0000000  1.0460000  1
  12243  12246  12254  12257     1  0.0000000  0.6694400  3
  12244  12242  12243  12246     1  0.0000000  0.6508444  3
  12244  12242  12243  12255     1  0.0000000  1.0460000  1
  12244  12242  12243  12255     1  0.0000000  0.0000000  3
  12244  12242  12243  12245     1  0.0000000  0.6508444  3
  12244  12242  12256  12262     1  0.0000000  1.0460000  1
  12244  12242  12256  12262     1  0.0000000  0.0000000  3
  12244  12242  12256  12260     1  0.0000000  0.6508444  3
  12244  12242  12256  12261     1  0.0000000  0.6508444  3
  12244  12242  12264  12248     1  0.0000000  1.6038667  3
  12245  12243  12242  12256     1  0.0000000  0.6508444  3
  12245  12243  12242  12264     1  0.0000000  1.0460000  1
  12245  12243  12242  12264     1  0.0000000  0.0000000  3
  12245  12243  12246  12247     1  0.0000000  0.6508444  3
  12245  12243  12246  12254     1  0.0000000  1.0460000  1
  12245  12243  12246  12254     1  0.0000000  0.0000000  3
  12245  12243  12246  12250     1  0.0000000  0.6508444  3
  12245  12243  12255  12258     1  0.0000000  0.6973333  3
  12246  12243  12255  12258     1  0.0000000  1.0460000  1
  12246  12243  12255  12258     1  0.0000000  0.6694400  3
  12246  12247  12248  12251     1  0.0000000  0.6508444  3
  12246  12247  12253  12259     1  0.0000000  1.0460000  1
  12246  12247  12253  12259     1  0.0000000  0.6694400  3
  12247  12246  12254  12257     1  0.0000000  1.0460000  1
  12247  12246  12254  12257     1  0.0000000  0.6694400  3
  12248  12247  12246  12250     1  0.0000000  0.6508444  3
  12248  12247  12253  12259     1  0.0000000  1.0460000  1
  12248  12247  12253  12259     1  0.0000000  0.6694400  3
  12249  12247  12246  12254     1  0.0000000  1.0460000  1
  12249  12247  12246  12254     1  0.0000000  0.0000000  3
  12249  12247  12246  12250     1  0.0000000  0.6508444  3
  12249  12247  12248  12252     1  0.0000000  1.0460000  1
  12249  12247  12248  12252     1  0.0000000  0.0000000  3
  12249  12247  12248  12264     1  0.0000000  1.0460000  1
  12249  12247  12248  12264     1  0.0000000  0.0000000  3
  12249  12247  12248  12251     1  0.0000000  0.6508444  3
  12249  12247  12253  12259     1  0.0000000  0.6973333  3
  12250  12246  12243  12255     1  0.0000000  1.0460000  1
  12250  12246  12243  12255     1  0.0000000  0.0000000  3
  12250  12246  12247  12253     1  0.0000000  1.0460000  1
  12250  12246  12247  12253     1  0.0000000  0.0000000  3
  12250  12246  12254  12257     1  0.0000000  0.6973333  3
  12251  12248  12247  12253     1  0.0000000  0.6508444  3
  12260  12256  12242  12264     1  0.0000000  1.0460000  1
  12260  12256  12242  12264     1  0.0000000  0.0000000  3
  12260  12256  12262  12263     1  0.0000000  0.6973333  3
  12261  12256  12242  12264     1  0.0000000  1.0460000  1
  12261  12256  12242  12264     1  0.0000000  0.0000000  3
  12261  12256  12262  12263     1  0.0000000  0.6973333  3
  12265  12266  12269  12273     1  0.0000000  0.6508444  3
  12265  12266  12278  12281     1  0.0000000  1.0460000  1
  12265  12266  12278  12281     1  0.0000000  0.6694400  3
  12265  12279  12285  12286     1  0.0000000  1.0460000  1
  12265  12279  12285  12286     1  0.0000000  0.6694400  3
  12265  12287  12271  12274     1  0.0000000  1.6038667  3
  12266  12269  12270  12272     1  0.0000000  0.6508444  3
  12266  12269  12277  12280     1  0.0000000  1.0460000  1
  12266  12269  12277  12280     1  0.0000000  0.6694400  3
  12266  12265  12279  12283     1  0.0000000  0.6508444  3
  12266  12265  12279  12284     1  0.0000000  0.6508444  3
  12267  12265  12266  12269     1  0.0000000  0.6508444  3
  12267  12265  12266  12278     1  0.0000000  1.0460000  1
  12267  12265  12266  12278     1  0.0000000  0.0000000  3
  12267  12265  12266  12268     1  0.0000000  0.6508444  3
  12267  12265  12279  12285     1  0.0000000  1.0460000  1
  12267  12265  12279  12285     1  0.0000000  0.0000000  3
  12267  12265  12279  12283     1  0.0000000  0.6508444  3
  12267  12265  12279  12284     1  0.0000000  0.6508444  3
  12267  12265  12287  12271     1  0.0000000  1.6038667  3
  12268  12266  12269  12270     1  0.0000000  0.6508444  3
  12268  12266  12269  12277     1  0.0000000  1.0460000  1
  12268  12266  12269  12277     1  0.0000000  0.0000000  3
  12268  12266  12269  12273     1  0.0000000  0.6508444  3
  12268  12266  12278  12281     1  0.0000000  0.6973333  3
  12268  12266  12265  12279     1  0.0000000  0.6508444  3
  12268  12266  12265  12287     1  0.0000000  1.0460000  1
  12268  12266  12265  12287     1  0.0000000  0.0000000  3
  12269  12270  12271  12274     1  0.0000000  0.6508444  3
  12269  12270  12276  12282     1  0.0000000  1.0460000  1
  12269  12270  12276  12282     1  0.0000000  0.6694400  3
  12269  12266  12278  12281     1  0.0000000  1.0460000  1
  12269  12266  12278  12281     1  0.0000000  0.6694400  3
  12270  12269  12277  12280     1  0.0000000  1.0460000  1
  12270  12269  12277  12280     1  0.0000000  0.6694400  3
  12271  12270  12276  12282     1  0.0000000  1.0460000  1
  12271  12270  12276  12282     1  0.0000000  0.6694400  3
  12271  12270  12269  12273     1  0.0000000  0.6508444  3
  12272  12270  12271  12275     1  0.0000000  1.0460000  1
  12272  12270  12271  12275     1  0.0000000  0.0000000  3
  12272  12270  12271  12287     1  0.0000000  1.0460000  1
  12272  12270  12271  12287     1  0.0000000  0.0000000  3
  12272  12270  12271  12274     1  0.0000000  0.6508444  3
  12272  12270  12276  12282     1  0.0000000  0.6973333  3
  12272  12270  12269  12277     1  0.0000000  1.0460000  1
  12272  12270  12269  12277     1  0.0000000  0.0000000  3
  12272  12270  12269  12273     1  0.0000000  0.6508444  3
  12273  12269  12270  12276     1  0.0000000  1.0460000  1
  12273  12269  12270  12276     1  0.0000000  0.0000000  3
  12273  12269  12277  12280     1  0.0000000  0.6973333  3
  12273  12269  12266  12278     1  0.0000000  1.0460000  1
  12273  12269  12266  12278     1  0.0000000  0.0000000  3
  12274  12271  12270  12276     1  0.0000000  0.6508444  3
  12283  12279  12285  12286     1  0.0000000  0.6973333  3
  12283  12279  12265  12287     1  0.0000000  1.0460000  1
  12283  12279  12265  12287     1  0.0000000  0.0000000  3
  12284  12279  12285  12286     1  0.0000000  0.6973333  3
  12284  12279  12265  12287     1  0.0000000  1.0460000  1
  12284  12279  12265  12287     1  0.0000000  0.0000000  3
  12288  12289  12292  12296     1  0.0000000  0.6508444  3
  12288  12289  12301  12304     1  0.0000000  1.0460000  1
  12288  12289  12301  12304     1  0.0000000  0.6694400  3
  12288  12302  12308  12309     1  0.0000000  1.0460000  1
  12288  12302  12308  12309     1  0.0000000  0.6694400  3
  12288  12310  12294  12297     1  0.0000000  1.6038667  3
  12289  12288  12302  12306     1  0.0000000  0.6508444  3
  12289  12288  12302  12307     1  0.0000000  0.6508444  3
  12289  12292  12293  12295     1  0.0000000  0.6508444  3
  12289  12292  12300  12303     1  0.0000000  1.0460000  1
  12289  12292  12300  12303     1  0.0000000  0.6694400  3
  12290  12288  12289  12292     1  0.0000000  0.6508444  3
  12290  12288  12289  12301     1  0.0000000  1.0460000  1
  12290  12288  12289  12301     1  0.0000000  0.0000000  3
  12290  12288  12289  12291     1  0.0000000  0.6508444  3
  12290  12288  12302  12308     1  0.0000000  1.0460000  1
  12290  12288  12302  12308     1  0.0000000  0.0000000  3
  12290  12288  12302  12306     1  0.0000000  0.6508444  3
  12290  12288  12302  12307     1  0.0000000  0.6508444  3
  12290  12288  12310  12294     1  0.0000000  1.6038667  3
  12291  12289  12288  12302     1  0.0000000  0.6508444  3
  12291  12289  12288  12310     1  0.0000000  1.0460000  1
  12291  12289  12288  12310     1  0.0000000  0.0000000  3
  12291  12289  12292  12293     1  0.0000000  0.6508444  3
  12291  12289  12292  12300     1  0.0000000  1.0460000  1
  12291  12289  12292  12300     1  0.0000000  0.0000000  3
  12291  12289  12292  12296     1  0.0000000  0.6508444  3
  12291  12289  12301  12304     1  0.0000000  0.6973333  3
  12292  12289  12301  12304     1  0.0000000  1.0460000  1
  12292  12289  12301  12304     1  0.0000000  0.6694400  3
  12292  12293  12294  12297     1  0.0000000  0.6508444  3
  12292  12293  12299  12305     1  0.0000000  1.0460000  1
  12292  12293  12299  12305     1  0.0000000  0.6694400  3
  12293  12292  12300  12303     1  0.0000000  1.0460000  1
  12293  12292  12300  12303     1  0.0000000  0.6694400  3
  12294  12293  12292  12296     1  0.0000000  0.6508444  3
  12294  12293  12299  12305     1  0.0000000  1.0460000  1
  12294  12293  12299  12305     1  0.0000000  0.6694400  3
  12295  12293  12292  12300     1  0.0000000  1.0460000  1
  12295  12293  12292  12300     1  0.0000000  0.0000000  3
  12295  12293  12292  12296     1  0.0000000  0.6508444  3
  12295  12293  12294  12298     1  0.0000000  1.0460000  1
  12295  12293  12294  12298     1  0.0000000  0.0000000  3
  12295  12293  12294  12310     1  0.0000000  1.0460000  1
  12295  12293  12294  12310     1  0.0000000  0.0000000  3
  12295  12293  12294  12297     1  0.0000000  0.6508444  3
  12295  12293  12299  12305     1  0.0000000  0.6973333  3
  12296  12292  12289  12301     1  0.0000000  1.0460000  1
  12296  12292  12289  12301     1  0.0000000  0.0000000  3
  12296  12292  12293  12299     1  0.0000000  1.0460000  1
  12296  12292  12293  12299     1  0.0000000  0.0000000  3
  12296  12292  12300  12303     1  0.0000000  0.6973333  3
  12297  12294  12293  12299     1  0.0000000  0.6508444  3
  12306  12302  12288  12310     1  0.0000000  1.0460000  1
  12306  12302  12288  12310     1  0.0000000  0.0000000  3
  12306  12302  12308  12309     1  0.0000000  0.6973333  3
  12307  12302  12288  12310     1  0.0000000  1.0460000  1
  12307  12302  12288  12310     1  0.0000000  0.0000000  3
  12307  12302  12308  12309     1  0.0000000  0.6973333  3
  12311  12312  12315  12319     1  0.0000000  0.6508444  3
  12311  12312  12324  12327     1  0.0000000  1.0460000  1
  12311  12312  12324  12327     1  0.0000000  0.6694400  3
  12311  12325  12331  12332     1  0.0000000  1.0460000  1
  12311  12325  12331  12332     1  0.0000000  0.6694400  3
  12311  12333  12317  12320     1  0.0000000  1.6038667  3
  12312  12315  12316  12318     1  0.0000000  0.6508444  3
  12312  12315  12323  12326     1  0.0000000  1.0460000  1
  12312  12315  12323  12326     1  0.0000000  0.6694400  3
  12312  12311  12325  12329     1  0.0000000  0.6508444  3
  12312  12311  12325  12330     1  0.0000000  0.6508444  3
  12313  12311  12312  12315     1  0.0000000  0.6508444  3
  12313  12311  12312  12324     1  0.0000000  1.0460000  1
  12313  12311  12312  12324     1  0.0000000  0.0000000  3
  12313  12311  12312  12314     1  0.0000000  0.6508444  3
  12313  12311  12325  12331     1  0.0000000  1.0460000  1
  12313  12311  12325  12331     1  0.0000000  0.0000000  3
  12313  12311  12325  12329     1  0.0000000  0.6508444  3
  12313  12311  12325  12330     1  0.0000000  0.6508444  3
  12313  12311  12333  12317     1  0.0000000  1.6038667  3
  12314  12312  12315  12316     1  0.0000000  0.6508444  3
  12314  12312  12315  12323     1  0.0000000  1.0460000  1
  12314  12312  12315  12323     1  0.0000000  0.0000000  3
  12314  12312  12315  12319     1  0.0000000  0.6508444  3
  12314  12312  12324  12327     1  0.0000000  0.6973333  3
  12314  12312  12311  12325     1  0.0000000  0.6508444  3
  12314  12312  12311  12333     1  0.0000000  1.0460000  1
  12314  12312  12311  12333     1  0.0000000  0.0000000  3
  12315  12316  12317  12320     1  0.0000000  0.6508444  3
  12315  12316  12322  12328     1  0.0000000  1.0460000  1
  12315  12316  12322  12328     1  0.0000000  0.6694400  3
  12315  12312  12324  12327     1  0.0000000  1.0460000  1
  12315  12312  12324  12327     1  0.0000000  0.6694400  3
  12316  12315  12323  12326     1  0.0000000  1.0460000  1
  12316  12315  12323  12326     1  0.0000000  0.6694400  3
  12317  12316  12322  12328     1  0.0000000  1.0460000  1
  12317  12316  12322  12328     1  0.0000000  0.6694400  3
  12317  12316  12315  12319     1  0.0000000  0.6508444  3
  12318  12316  12317  12321     1  0.0000000  1.0460000  1
  12318  12316  12317  12321     1  0.0000000  0.0000000  3
  12318  12316  12317  12333     1  0.0000000  1.0460000  1
  12318  12316  12317  12333     1  0.0000000  0.0000000  3
  12318  12316  12317  12320     1  0.0000000  0.6508444  3
  12318  12316  12322  12328     1  0.0000000  0.6973333  3
  12318  12316  12315  12323     1  0.0000000  1.0460000  1
  12318  12316  12315  12323     1  0.0000000  0.0000000  3
  12318  12316  12315  12319     1  0.0000000  0.6508444  3
  12319  12315  12316  12322     1  0.0000000  1.0460000  1
  12319  12315  12316  12322     1  0.0000000  0.0000000  3
  12319  12315  12323  12326     1  0.0000000  0.6973333  3
  12319  12315  12312  12324     1  0.0000000  1.0460000  1
  12319  12315  12312  12324     1  0.0000000  0.0000000  3
  12320  12317  12316  12322     1  0.0000000  0.6508444  3
  12329  12325  12331  12332     1  0.0000000  0.6973333  3
  12329  12325  12311  12333     1  0.0000000  1.0460000  1
  12329  12325  12311  12333     1  0.0000000  0.0000000  3
  12330  12325  12331  12332     1  0.0000000  0.6973333  3
  12330  12325  12311  12333     1  0.0000000  1.0460000  1
  12330  12325  12311  12333     1  0.0000000  0.0000000  3
  12334  12335  12338  12342     1  0.0000000  0.6508444  3
  12334  12335  12347  12350     1  0.0000000  1.0460000  1
  12334  12335  12347  12350     1  0.0000000  0.6694400  3
  12334  12348  12354  12355     1  0.0000000  1.0460000  1
  12334  12348  12354  12355     1  0.0000000  0.6694400  3
  12334  12356  12340  12343     1  0.0000000  1.6038667  3
  12335  12334  12348  12352     1  0.0000000  0.6508444  3
  12335  12334  12348  12353     1  0.0000000  0.6508444  3
  12335  12338  12339  12341     1  0.0000000  0.6508444  3
  12335  12338  12346  12349     1  0.0000000  1.0460000  1
  12335  12338  12346  12349     1  0.0000000  0.6694400  3
  12336  12334  12335  12338     1  0.0000000  0.6508444  3
  12336  12334  12335  12347     1  0.0000000  1.0460000  1
  12336  12334  12335  12347     1  0.0000000  0.0000000  3
  12336  12334  12335  12337     1  0.0000000  0.6508444  3
  12336  12334  12348  12354     1  0.0000000  1.0460000  1
  12336  12334  12348  12354     1  0.0000000  0.0000000  3
  12336  12334  12348  12352     1  0.0000000  0.6508444  3
  12336  12334  12348  12353     1  0.0000000  0.6508444  3
  12336  12334  12356  12340     1  0.0000000  1.6038667  3
  12337  12335  12334  12348     1  0.0000000  0.6508444  3
  12337  12335  12334  12356     1  0.0000000  1.0460000  1
  12337  12335  12334  12356     1  0.0000000  0.0000000  3
  12337  12335  12338  12339     1  0.0000000  0.6508444  3
  12337  12335  12338  12346     1  0.0000000  1.0460000  1
  12337  12335  12338  12346     1  0.0000000  0.0000000  3
  12337  12335  12338  12342     1  0.0000000  0.6508444  3
  12337  12335  12347  12350     1  0.0000000  0.6973333  3
  12338  12335  12347  12350     1  0.0000000  1.0460000  1
  12338  12335  12347  12350     1  0.0000000  0.6694400  3
  12338  12339  12340  12343     1  0.0000000  0.6508444  3
  12338  12339  12345  12351     1  0.0000000  1.0460000  1
  12338  12339  12345  12351     1  0.0000000  0.6694400  3
  12339  12338  12346  12349     1  0.0000000  1.0460000  1
  12339  12338  12346  12349     1  0.0000000  0.6694400  3
  12340  12339  12338  12342     1  0.0000000  0.6508444  3
  12340  12339  12345  12351     1  0.0000000  1.0460000  1
  12340  12339  12345  12351     1  0.0000000  0.6694400  3
  12341  12339  12338  12346     1  0.0000000  1.0460000  1
  12341  12339  12338  12346     1  0.0000000  0.0000000  3
  12341  12339  12338  12342     1  0.0000000  0.6508444  3
  12341  12339  12340  12344     1  0.0000000  1.0460000  1
  12341  12339  12340  12344     1  0.0000000  0.0000000  3
  12341  12339  12340  12356     1  0.0000000  1.0460000  1
  12341  12339  12340  12356     1  0.0000000  0.0000000  3
  12341  12339  12340  12343     1  0.0000000  0.6508444  3
  12341  12339  12345  12351     1  0.0000000  0.6973333  3
  12342  12338  12335  12347     1  0.0000000  1.0460000  1
  12342  12338  12335  12347     1  0.0000000  0.0000000  3
  12342  12338  12339  12345     1  0.0000000  1.0460000  1
  12342  12338  12339  12345     1  0.0000000  0.0000000  3
  12342  12338  12346  12349     1  0.0000000  0.6973333  3
  12343  12340  12339  12345     1  0.0000000  0.6508444  3
  12352  12348  12334  12356     1  0.0000000  1.0460000  1
  12352  12348  12334  12356     1  0.0000000  0.0000000  3
  12352  12348  12354  12355     1  0.0000000  0.6973333  3
  12353  12348  12334  12356     1  0.0000000  1.0460000  1
  12353  12348  12334  12356     1  0.0000000  0.0000000  3
  12353  12348  12354  12355     1  0.0000000  0.6973333  3
  12357  12358  12361  12365     1  0.0000000  0.6508444  3
  12357  12358  12370  12373     1  0.0000000  1.0460000  1
  12357  12358  12370  12373     1  0.0000000  0.6694400  3
  12357  12371  12377  12378     1  0.0000000  1.0460000  1
  12357  12371  12377  12378     1  0.0000000  0.6694400  3
  12357  12379  12363  12366     1  0.0000000  1.6038667  3
  12358  12361  12362  12364     1  0.0000000  0.6508444  3
  12358  12361  12369  12372     1  0.0000000  1.0460000  1
  12358  12361  12369  12372     1  0.0000000  0.6694400  3
  12358  12357  12371  12375     1  0.0000000  0.6508444  3
  12358  12357  12371  12376     1  0.0000000  0.6508444  3
  12359  12357  12358  12361     1  0.0000000  0.6508444  3
  12359  12357  12358  12370     1  0.0000000  1.0460000  1
  12359  12357  12358  12370     1  0.0000000  0.0000000  3
  12359  12357  12358  12360     1  0.0000000  0.6508444  3
  12359  12357  12371  12377     1  0.0000000  1.0460000  1
  12359  12357  12371  12377     1  0.0000000  0.0000000  3
  12359  12357  12371  12375     1  0.0000000  0.6508444  3
  12359  12357  12371  12376     1  0.0000000  0.6508444  3
  12359  12357  12379  12363     1  0.0000000  1.6038667  3
  12360  12358  12361  12362     1  0.0000000  0.6508444  3
  12360  12358  12361  12369     1  0.0000000  1.0460000  1
  12360  12358  12361  12369     1  0.0000000  0.0000000  3
  12360  12358  12361  12365     1  0.0000000  0.6508444  3
  12360  12358  12370  12373     1  0.0000000  0.6973333  3
  12360  12358  12357  12371     1  0.0000000  0.6508444  3
  12360  12358  12357  12379     1  0.0000000  1.0460000  1
  12360  12358  12357  12379     1  0.0000000  0.0000000  3
  12361  12362  12363  12366     1  0.0000000  0.6508444  3
  12361  12362  12368  12374     1  0.0000000  1.0460000  1
  12361  12362  12368  12374     1  0.0000000  0.6694400  3
  12361  12358  12370  12373     1  0.0000000  1.0460000  1
  12361  12358  12370  12373     1  0.0000000  0.6694400  3
  12362  12361  12369  12372     1  0.0000000  1.0460000  1
  12362  12361  12369  12372     1  0.0000000  0.6694400  3
  12363  12362  12368  12374     1  0.0000000  1.0460000  1
  12363  12362  12368  12374     1  0.0000000  0.6694400  3
  12363  12362  12361  12365     1  0.0000000  0.6508444  3
  12364  12362  12363  12367     1  0.0000000  1.0460000  1
  12364  12362  12363  12367     1  0.0000000  0.0000000  3
  12364  12362  12363  12379     1  0.0000000  1.0460000  1
  12364  12362  12363  12379     1  0.0000000  0.0000000  3
  12364  12362  12363  12366     1  0.0000000  0.6508444  3
  12364  12362  12368  12374     1  0.0000000  0.6973333  3
  12364  12362  12361  12369     1  0.0000000  1.0460000  1
  12364  12362  12361  12369     1  0.0000000  0.0000000  3
  12364  12362  12361  12365     1  0.0000000  0.6508444  3
  12365  12361  12362  12368     1  0.0000000  1.0460000  1
  12365  12361  12362  12368     1  0.0000000  0.0000000  3
  12365  12361  12369  12372     1  0.0000000  0.6973333  3
  12365  12361  12358  12370     1  0.0000000  1.0460000  1
  12365  12361  12358  12370     1  0.0000000  0.0000000  3
  12366  12363  12362  12368     1  0.0000000  0.6508444  3
  12375  12371  12377  12378     1  0.0000000  0.6973333  3
  12375  12371  12357  12379     1  0.0000000  1.0460000  1
  12375  12371  12357  12379     1  0.0000000  0.0000000  3
  12376  12371  12377  12378     1  0.0000000  0.6973333  3
  12376  12371  12357  12379     1  0.0000000  1.0460000  1
  12376  12371  12357  12379     1  0.0000000  0.0000000  3
  12380  12381  12384  12388     1  0.0000000  0.6508444  3
  12380  12381  12393  12396     1  0.0000000  1.0460000  1
  12380  12381  12393  12396     1  0.0000000  0.6694400  3
  12380  12394  12400  12401     1  0.0000000  1.0460000  1
  12380  12394  12400  12401     1  0.0000000  0.6694400  3
  12380  12402  12386  12389     1  0.0000000  1.6038667  3
  12381  12380  12394  12398     1  0.0000000  0.6508444  3
  12381  12380  12394  12399     1  0.0000000  0.6508444  3
  12381  12384  12385  12387     1  0.0000000  0.6508444  3
  12381  12384  12392  12395     1  0.0000000  1.0460000  1
  12381  12384  12392  12395     1  0.0000000  0.6694400  3
  12382  12380  12381  12384     1  0.0000000  0.6508444  3
  12382  12380  12381  12393     1  0.0000000  1.0460000  1
  12382  12380  12381  12393     1  0.0000000  0.0000000  3
  12382  12380  12381  12383     1  0.0000000  0.6508444  3
  12382  12380  12394  12400     1  0.0000000  1.0460000  1
  12382  12380  12394  12400     1  0.0000000  0.0000000  3
  12382  12380  12394  12398     1  0.0000000  0.6508444  3
  12382  12380  12394  12399     1  0.0000000  0.6508444  3
  12382  12380  12402  12386     1  0.0000000  1.6038667  3
  12383  12381  12380  12394     1  0.0000000  0.6508444  3
  12383  12381  12380  12402     1  0.0000000  1.0460000  1
  12383  12381  12380  12402     1  0.0000000  0.0000000  3
  12383  12381  12384  12385     1  0.0000000  0.6508444  3
  12383  12381  12384  12392     1  0.0000000  1.0460000  1
  12383  12381  12384  12392     1  0.0000000  0.0000000  3
  12383  12381  12384  12388     1  0.0000000  0.6508444  3
  12383  12381  12393  12396     1  0.0000000  0.6973333  3
  12384  12381  12393  12396     1  0.0000000  1.0460000  1
  12384  12381  12393  12396     1  0.0000000  0.6694400  3
  12384  12385  12386  12389     1  0.0000000  0.6508444  3
  12384  12385  12391  12397     1  0.0000000  1.0460000  1
  12384  12385  12391  12397     1  0.0000000  0.6694400  3
  12385  12384  12392  12395     1  0.0000000  1.0460000  1
  12385  12384  12392  12395     1  0.0000000  0.6694400  3
  12386  12385  12384  12388     1  0.0000000  0.6508444  3
  12386  12385  12391  12397     1  0.0000000  1.0460000  1
  12386  12385  12391  12397     1  0.0000000  0.6694400  3
  12387  12385  12384  12392     1  0.0000000  1.0460000  1
  12387  12385  12384  12392     1  0.0000000  0.0000000  3
  12387  12385  12384  12388     1  0.0000000  0.6508444  3
  12387  12385  12386  12390     1  0.0000000  1.0460000  1
  12387  12385  12386  12390     1  0.0000000  0.0000000  3
  12387  12385  12386  12402     1  0.0000000  1.0460000  1
  12387  12385  12386  12402     1  0.0000000  0.0000000  3
  12387  12385  12386  12389     1  0.0000000  0.6508444  3
  12387  12385  12391  12397     1  0.0000000  0.6973333  3
  12388  12384  12381  12393     1  0.0000000  1.0460000  1
  12388  12384  12381  12393     1  0.0000000  0.0000000  3
  12388  12384  12385  12391     1  0.0000000  1.0460000  1
  12388  12384  12385  12391     1  0.0000000  0.0000000  3
  12388  12384  12392  12395     1  0.0000000  0.6973333  3
  12389  12386  12385  12391     1  0.0000000  0.6508444  3
  12398  12394  12380  12402     1  0.0000000  1.0460000  1
  12398  12394  12380  12402     1  0.0000000  0.0000000  3
  12398  12394  12400  12401     1  0.0000000  0.6973333  3
  12399  12394  12380  12402     1  0.0000000  1.0460000  1
  12399  12394  12380  12402     1  0.0000000  0.0000000  3
  12399  12394  12400  12401     1  0.0000000  0.6973333  3
  12403  12404  12407  12411     1  0.0000000  0.6508444  3
  12403  12404  12416  12419     1  0.0000000  1.0460000  1
  12403  12404  12416  12419     1  0.0000000  0.6694400  3
  12403  12417  12423  12424     1  0.0000000  1.0460000  1
  12403  12417  12423  12424     1  0.0000000  0.6694400  3
  12403  12425  12409  12412     1  0.0000000  1.6038667  3
  12404  12407  12408  12410     1  0.0000000  0.6508444  3
  12404  12407  12415  12418     1  0.0000000  1.0460000  1
  12404  12407  12415  12418     1  0.0000000  0.6694400  3
  12404  12403  12417  12421     1  0.0000000  0.6508444  3
  12404  12403  12417  12422     1  0.0000000  0.6508444  3
  12405  12403  12404  12407     1  0.0000000  0.6508444  3
  12405  12403  12404  12416     1  0.0000000  1.0460000  1
  12405  12403  12404  12416     1  0.0000000  0.0000000  3
  12405  12403  12404  12406     1  0.0000000  0.6508444  3
  12405  12403  12417  12423     1  0.0000000  1.0460000  1
  12405  12403  12417  12423     1  0.0000000  0.0000000  3
  12405  12403  12417  12421     1  0.0000000  0.6508444  3
  12405  12403  12417  12422     1  0.0000000  0.6508444  3
  12405  12403  12425  12409     1  0.0000000  1.6038667  3
  12406  12404  12407  12408     1  0.0000000  0.6508444  3
  12406  12404  12407  12415     1  0.0000000  1.0460000  1
  12406  12404  12407  12415     1  0.0000000  0.0000000  3
  12406  12404  12407  12411     1  0.0000000  0.6508444  3
  12406  12404  12416  12419     1  0.0000000  0.6973333  3
  12406  12404  12403  12417     1  0.0000000  0.6508444  3
  12406  12404  12403  12425     1  0.0000000  1.0460000  1
  12406  12404  12403  12425     1  0.0000000  0.0000000  3
  12407  12408  12409  12412     1  0.0000000  0.6508444  3
  12407  12408  12414  12420     1  0.0000000  1.0460000  1
  12407  12408  12414  12420     1  0.0000000  0.6694400  3
  12407  12404  12416  12419     1  0.0000000  1.0460000  1
  12407  12404  12416  12419     1  0.0000000  0.6694400  3
  12408  12407  12415  12418     1  0.0000000  1.0460000  1
  12408  12407  12415  12418     1  0.0000000  0.6694400  3
  12409  12408  12414  12420     1  0.0000000  1.0460000  1
  12409  12408  12414  12420     1  0.0000000  0.6694400  3
  12409  12408  12407  12411     1  0.0000000  0.6508444  3
  12410  12408  12409  12413     1  0.0000000  1.0460000  1
  12410  12408  12409  12413     1  0.0000000  0.0000000  3
  12410  12408  12409  12425     1  0.0000000  1.0460000  1
  12410  12408  12409  12425     1  0.0000000  0.0000000  3
  12410  12408  12409  12412     1  0.0000000  0.6508444  3
  12410  12408  12414  12420     1  0.0000000  0.6973333  3
  12410  12408  12407  12415     1  0.0000000  1.0460000  1
  12410  12408  12407  12415     1  0.0000000  0.0000000  3
  12410  12408  12407  12411     1  0.0000000  0.6508444  3
  12411  12407  12408  12414     1  0.0000000  1.0460000  1
  12411  12407  12408  12414     1  0.0000000  0.0000000  3
  12411  12407  12415  12418     1  0.0000000  0.6973333  3
  12411  12407  12404  12416     1  0.0000000  1.0460000  1
  12411  12407  12404  12416     1  0.0000000  0.0000000  3
  12412  12409  12408  12414     1  0.0000000  0.6508444  3
  12421  12417  12423  12424     1  0.0000000  0.6973333  3
  12421  12417  12403  12425     1  0.0000000  1.0460000  1
  12421  12417  12403  12425     1  0.0000000  0.0000000  3
  12422  12417  12423  12424     1  0.0000000  0.6973333  3
  12422  12417  12403  12425     1  0.0000000  1.0460000  1
  12422  12417  12403  12425     1  0.0000000  0.0000000  3
  12426  12427  12430  12434     1  0.0000000  0.6508444  3
  12426  12427  12439  12442     1  0.0000000  1.0460000  1
  12426  12427  12439  12442     1  0.0000000  0.6694400  3
  12426  12440  12446  12447     1  0.0000000  1.0460000  1
  12426  12440  12446  12447     1  0.0000000  0.6694400  3
  12426  12448  12432  12435     1  0.0000000  1.6038667  3
  12427  12426  12440  12444     1  0.0000000  0.6508444  3
  12427  12426  12440  12445     1  0.0000000  0.6508444  3
  12427  12430  12431  12433     1  0.0000000  0.6508444  3
  12427  12430  12438  12441     1  0.0000000  1.0460000  1
  12427  12430  12438  12441     1  0.0000000  0.6694400  3
  12428  12426  12427  12430     1  0.0000000  0.6508444  3
  12428  12426  12427  12439     1  0.0000000  1.0460000  1
  12428  12426  12427  12439     1  0.0000000  0.0000000  3
  12428  12426  12427  12429     1  0.0000000  0.6508444  3
  12428  12426  12440  12446     1  0.0000000  1.0460000  1
  12428  12426  12440  12446     1  0.0000000  0.0000000  3
  12428  12426  12440  12444     1  0.0000000  0.6508444  3
  12428  12426  12440  12445     1  0.0000000  0.6508444  3
  12428  12426  12448  12432     1  0.0000000  1.6038667  3
  12429  12427  12426  12440     1  0.0000000  0.6508444  3
  12429  12427  12426  12448     1  0.0000000  1.0460000  1
  12429  12427  12426  12448     1  0.0000000  0.0000000  3
  12429  12427  12430  12431     1  0.0000000  0.6508444  3
  12429  12427  12430  12438     1  0.0000000  1.0460000  1
  12429  12427  12430  12438     1  0.0000000  0.0000000  3
  12429  12427  12430  12434     1  0.0000000  0.6508444  3
  12429  12427  12439  12442     1  0.0000000  0.6973333  3
  12430  12427  12439  12442     1  0.0000000  1.0460000  1
  12430  12427  12439  12442     1  0.0000000  0.6694400  3
  12430  12431  12432  12435     1  0.0000000  0.6508444  3
  12430  12431  12437  12443     1  0.0000000  1.0460000  1
  12430  12431  12437  12443     1  0.0000000  0.6694400  3
  12431  12430  12438  12441     1  0.0000000  1.0460000  1
  12431  12430  12438  12441     1  0.0000000  0.6694400  3
  12432  12431  12430  12434     1  0.0000000  0.6508444  3
  12432  12431  12437  12443     1  0.0000000  1.0460000  1
  12432  12431  12437  12443     1  0.0000000  0.6694400  3
  12433  12431  12430  12438     1  0.0000000  1.0460000  1
  12433  12431  12430  12438     1  0.0000000  0.0000000  3
  12433  12431  12430  12434     1  0.0000000  0.6508444  3
  12433  12431  12432  12436     1  0.0000000  1.0460000  1
  12433  12431  12432  12436     1  0.0000000  0.0000000  3
  12433  12431  12432  12448     1  0.0000000  1.0460000  1
  12433  12431  12432  12448     1  0.0000000  0.0000000  3
  12433  12431  12432  12435     1  0.0000000  0.6508444  3
  12433  12431  12437  12443     1  0.0000000  0.6973333  3
  12434  12430  12427  12439     1  0.0000000  1.0460000  1
  12434  12430  12427  12439     1  0.0000000  0.0000000  3
  12434  12430  12431  12437     1  0.0000000  1.0460000  1
  12434  12430  12431  12437     1  0.0000000  0.0000000  3
  12434  12430  12438  12441     1  0.0000000  0.6973333  3
  12435  12432  12431  12437     1  0.0000000  0.6508444  3
  12444  12440  12426  12448     1  0.0000000  1.0460000  1
  12444  12440  12426  12448     1  0.0000000  0.0000000  3
  12444  12440  12446  12447     1  0.0000000  0.6973333  3
  12445  12440  12426  12448     1  0.0000000  1.0460000  1
  12445  12440  12426  12448     1  0.0000000  0.0000000  3
  12445  12440  12446  12447     1  0.0000000  0.6973333  3
  12449  12450  12453  12457     1  0.0000000  0.6508444  3
  12449  12450  12462  12465     1  0.0000000  1.0460000  1
  12449  12450  12462  12465     1  0.0000000  0.6694400  3
  12449  12463  12469  12470     1  0.0000000  1.0460000  1
  12449  12463  12469  12470     1  0.0000000  0.6694400  3
  12449  12471  12455  12458     1  0.0000000  1.6038667  3
  12450  12453  12454  12456     1  0.0000000  0.6508444  3
  12450  12453  12461  12464     1  0.0000000  1.0460000  1
  12450  12453  12461  12464     1  0.0000000  0.6694400  3
  12450  12449  12463  12467     1  0.0000000  0.6508444  3
  12450  12449  12463  12468     1  0.0000000  0.6508444  3
  12451  12449  12450  12453     1  0.0000000  0.6508444  3
  12451  12449  12450  12462     1  0.0000000  1.0460000  1
  12451  12449  12450  12462     1  0.0000000  0.0000000  3
  12451  12449  12450  12452     1  0.0000000  0.6508444  3
  12451  12449  12463  12469     1  0.0000000  1.0460000  1
  12451  12449  12463  12469     1  0.0000000  0.0000000  3
  12451  12449  12463  12467     1  0.0000000  0.6508444  3
  12451  12449  12463  12468     1  0.0000000  0.6508444  3
  12451  12449  12471  12455     1  0.0000000  1.6038667  3
  12452  12450  12453  12454     1  0.0000000  0.6508444  3
  12452  12450  12453  12461     1  0.0000000  1.0460000  1
  12452  12450  12453  12461     1  0.0000000  0.0000000  3
  12452  12450  12453  12457     1  0.0000000  0.6508444  3
  12452  12450  12462  12465     1  0.0000000  0.6973333  3
  12452  12450  12449  12463     1  0.0000000  0.6508444  3
  12452  12450  12449  12471     1  0.0000000  1.0460000  1
  12452  12450  12449  12471     1  0.0000000  0.0000000  3
  12453  12454  12455  12458     1  0.0000000  0.6508444  3
  12453  12454  12460  12466     1  0.0000000  1.0460000  1
  12453  12454  12460  12466     1  0.0000000  0.6694400  3
  12453  12450  12462  12465     1  0.0000000  1.0460000  1
  12453  12450  12462  12465     1  0.0000000  0.6694400  3
  12454  12453  12461  12464     1  0.0000000  1.0460000  1
  12454  12453  12461  12464     1  0.0000000  0.6694400  3
  12455  12454  12460  12466     1  0.0000000  1.0460000  1
  12455  12454  12460  12466     1  0.0000000  0.6694400  3
  12455  12454  12453  12457     1  0.0000000  0.6508444  3
  12456  12454  12455  12459     1  0.0000000  1.0460000  1
  12456  12454  12455  12459     1  0.0000000  0.0000000  3
  12456  12454  12455  12471     1  0.0000000  1.0460000  1
  12456  12454  12455  12471     1  0.0000000  0.0000000  3
  12456  12454  12455  12458     1  0.0000000  0.6508444  3
  12456  12454  12460  12466     1  0.0000000  0.6973333  3
  12456  12454  12453  12461     1  0.0000000  1.0460000  1
  12456  12454  12453  12461     1  0.0000000  0.0000000  3
  12456  12454  12453  12457     1  0.0000000  0.6508444  3
  12457  12453  12454  12460     1  0.0000000  1.0460000  1
  12457  12453  12454  12460     1  0.0000000  0.0000000  3
  12457  12453  12461  12464     1  0.0000000  0.6973333  3
  12457  12453  12450  12462     1  0.0000000  1.0460000  1
  12457  12453  12450  12462     1  0.0000000  0.0000000  3
  12458  12455  12454  12460     1  0.0000000  0.6508444  3
  12467  12463  12469  12470     1  0.0000000  0.6973333  3
  12467  12463  12449  12471     1  0.0000000  1.0460000  1
  12467  12463  12449  12471     1  0.0000000  0.0000000  3
  12468  12463  12469  12470     1  0.0000000  0.6973333  3
  12468  12463  12449  12471     1  0.0000000  1.0460000  1
  12468  12463  12449  12471     1  0.0000000  0.0000000  3
  12472  12473  12476  12480     1  0.0000000  0.6508444  3
  12472  12473  12485  12488     1  0.0000000  1.0460000  1
  12472  12473  12485  12488     1  0.0000000  0.6694400  3
  12472  12486  12492  12493     1  0.0000000  1.0460000  1
  12472  12486  12492  12493     1  0.0000000  0.6694400  3
  12472  12494  12478  12481     1  0.0000000  1.6038667  3
  12473  12472  12486  12490     1  0.0000000  0.6508444  3
  12473  12472  12486  12491     1  0.0000000  0.6508444  3
  12473  12476  12477  12479     1  0.0000000  0.6508444  3
  12473  12476  12484  12487     1  0.0000000  1.0460000  1
  12473  12476  12484  12487     1  0.0000000  0.6694400  3
  12474  12472  12473  12476     1  0.0000000  0.6508444  3
  12474  12472  12473  12485     1  0.0000000  1.0460000  1
  12474  12472  12473  12485     1  0.0000000  0.0000000  3
  12474  12472  12473  12475     1  0.0000000  0.6508444  3
  12474  12472  12486  12492     1  0.0000000  1.0460000  1
  12474  12472  12486  12492     1  0.0000000  0.0000000  3
  12474  12472  12486  12490     1  0.0000000  0.6508444  3
  12474  12472  12486  12491     1  0.0000000  0.6508444  3
  12474  12472  12494  12478     1  0.0000000  1.6038667  3
  12475  12473  12472  12486     1  0.0000000  0.6508444  3
  12475  12473  12472  12494     1  0.0000000  1.0460000  1
  12475  12473  12472  12494     1  0.0000000  0.0000000  3
  12475  12473  12476  12477     1  0.0000000  0.6508444  3
  12475  12473  12476  12484     1  0.0000000  1.0460000  1
  12475  12473  12476  12484     1  0.0000000  0.0000000  3
  12475  12473  12476  12480     1  0.0000000  0.6508444  3
  12475  12473  12485  12488     1  0.0000000  0.6973333  3
  12476  12473  12485  12488     1  0.0000000  1.0460000  1
  12476  12473  12485  12488     1  0.0000000  0.6694400  3
  12476  12477  12478  12481     1  0.0000000  0.6508444  3
  12476  12477  12483  12489     1  0.0000000  1.0460000  1
  12476  12477  12483  12489     1  0.0000000  0.6694400  3
  12477  12476  12484  12487     1  0.0000000  1.0460000  1
  12477  12476  12484  12487     1  0.0000000  0.6694400  3
  12478  12477  12476  12480     1  0.0000000  0.6508444  3
  12478  12477  12483  12489     1  0.0000000  1.0460000  1
  12478  12477  12483  12489     1  0.0000000  0.6694400  3
  12479  12477  12476  12484     1  0.0000000  1.0460000  1
  12479  12477  12476  12484     1  0.0000000  0.0000000  3
  12479  12477  12476  12480     1  0.0000000  0.6508444  3
  12479  12477  12478  12482     1  0.0000000  1.0460000  1
  12479  12477  12478  12482     1  0.0000000  0.0000000  3
  12479  12477  12478  12494     1  0.0000000  1.0460000  1
  12479  12477  12478  12494     1  0.0000000  0.0000000  3
  12479  12477  12478  12481     1  0.0000000  0.6508444  3
  12479  12477  12483  12489     1  0.0000000  0.6973333  3
  12480  12476  12473  12485     1  0.0000000  1.0460000  1
  12480  12476  12473  12485     1  0.0000000  0.0000000  3
  12480  12476  12477  12483     1  0.0000000  1.0460000  1
  12480  12476  12477  12483     1  0.0000000  0.0000000  3
  12480  12476  12484  12487     1  0.0000000  0.6973333  3
  12481  12478  12477  12483     1  0.0000000  0.6508444  3
  12490  12486  12472  12494     1  0.0000000  1.0460000  1
  12490  12486  12472  12494     1  0.0000000  0.0000000  3
  12490  12486  12492  12493     1  0.0000000  0.6973333  3
  12491  12486  12472  12494     1  0.0000000  1.0460000  1
  12491  12486  12472  12494     1  0.0000000  0.0000000  3
  12491  12486  12492  12493     1  0.0000000  0.6973333  3
  12495  12496  12499  12503     1  0.0000000  0.6508444  3
  12495  12496  12508  12511     1  0.0000000  1.0460000  1
  12495  12496  12508  12511     1  0.0000000  0.6694400  3
  12495  12509  12515  12516     1  0.0000000  1.0460000  1
  12495  12509  12515  12516     1  0.0000000  0.6694400  3
  12495  12517  12501  12504     1  0.0000000  1.6038667  3
  12496  12499  12500  12502     1  0.0000000  0.6508444  3
  12496  12499  12507  12510     1  0.0000000  1.0460000  1
  12496  12499  12507  12510     1  0.0000000  0.6694400  3
  12496  12495  12509  12513     1  0.0000000  0.6508444  3
  12496  12495  12509  12514     1  0.0000000  0.6508444  3
  12497  12495  12496  12499     1  0.0000000  0.6508444  3
  12497  12495  12496  12508     1  0.0000000  1.0460000  1
  12497  12495  12496  12508     1  0.0000000  0.0000000  3
  12497  12495  12496  12498     1  0.0000000  0.6508444  3
  12497  12495  12509  12515     1  0.0000000  1.0460000  1
  12497  12495  12509  12515     1  0.0000000  0.0000000  3
  12497  12495  12509  12513     1  0.0000000  0.6508444  3
  12497  12495  12509  12514     1  0.0000000  0.6508444  3
  12497  12495  12517  12501     1  0.0000000  1.6038667  3
  12498  12496  12499  12500     1  0.0000000  0.6508444  3
  12498  12496  12499  12507     1  0.0000000  1.0460000  1
  12498  12496  12499  12507     1  0.0000000  0.0000000  3
  12498  12496  12499  12503     1  0.0000000  0.6508444  3
  12498  12496  12508  12511     1  0.0000000  0.6973333  3
  12498  12496  12495  12509     1  0.0000000  0.6508444  3
  12498  12496  12495  12517     1  0.0000000  1.0460000  1
  12498  12496  12495  12517     1  0.0000000  0.0000000  3
  12499  12500  12501  12504     1  0.0000000  0.6508444  3
  12499  12500  12506  12512     1  0.0000000  1.0460000  1
  12499  12500  12506  12512     1  0.0000000  0.6694400  3
  12499  12496  12508  12511     1  0.0000000  1.0460000  1
  12499  12496  12508  12511     1  0.0000000  0.6694400  3
  12500  12499  12507  12510     1  0.0000000  1.0460000  1
  12500  12499  12507  12510     1  0.0000000  0.6694400  3
  12501  12500  12506  12512     1  0.0000000  1.0460000  1
  12501  12500  12506  12512     1  0.0000000  0.6694400  3
  12501  12500  12499  12503     1  0.0000000  0.6508444  3
  12502  12500  12501  12505     1  0.0000000  1.0460000  1
  12502  12500  12501  12505     1  0.0000000  0.0000000  3
  12502  12500  12501  12517     1  0.0000000  1.0460000  1
  12502  12500  12501  12517     1  0.0000000  0.0000000  3
  12502  12500  12501  12504     1  0.0000000  0.6508444  3
  12502  12500  12506  12512     1  0.0000000  0.6973333  3
  12502  12500  12499  12507     1  0.0000000  1.0460000  1
  12502  12500  12499  12507     1  0.0000000  0.0000000  3
  12502  12500  12499  12503     1  0.0000000  0.6508444  3
  12503  12499  12500  12506     1  0.0000000  1.0460000  1
  12503  12499  12500  12506     1  0.0000000  0.0000000  3
  12503  12499  12507  12510     1  0.0000000  0.6973333  3
  12503  12499  12496  12508     1  0.0000000  1.0460000  1
  12503  12499  12496  12508     1  0.0000000  0.0000000  3
  12504  12501  12500  12506     1  0.0000000  0.6508444  3
  12513  12509  12515  12516     1  0.0000000  0.6973333  3
  12513  12509  12495  12517     1  0.0000000  1.0460000  1
  12513  12509  12495  12517     1  0.0000000  0.0000000  3
  12514  12509  12515  12516     1  0.0000000  0.6973333  3
  12514  12509  12495  12517     1  0.0000000  1.0460000  1
  12514  12509  12495  12517     1  0.0000000  0.0000000  3
  12518  12519  12522  12526     1  0.0000000  0.6508444  3
  12518  12519  12531  12534     1  0.0000000  1.0460000  1
  12518  12519  12531  12534     1  0.0000000  0.6694400  3
  12518  12532  12538  12539     1  0.0000000  1.0460000  1
  12518  12532  12538  12539     1  0.0000000  0.6694400  3
  12518  12540  12524  12527     1  0.0000000  1.6038667  3
  12519  12518  12532  12536     1  0.0000000  0.6508444  3
  12519  12518  12532  12537     1  0.0000000  0.6508444  3
  12519  12522  12523  12525     1  0.0000000  0.6508444  3
  12519  12522  12530  12533     1  0.0000000  1.0460000  1
  12519  12522  12530  12533     1  0.0000000  0.6694400  3
  12520  12518  12519  12522     1  0.0000000  0.6508444  3
  12520  12518  12519  12531     1  0.0000000  1.0460000  1
  12520  12518  12519  12531     1  0.0000000  0.0000000  3
  12520  12518  12519  12521     1  0.0000000  0.6508444  3
  12520  12518  12532  12538     1  0.0000000  1.0460000  1
  12520  12518  12532  12538     1  0.0000000  0.0000000  3
  12520  12518  12532  12536     1  0.0000000  0.6508444  3
  12520  12518  12532  12537     1  0.0000000  0.6508444  3
  12520  12518  12540  12524     1  0.0000000  1.6038667  3
  12521  12519  12518  12532     1  0.0000000  0.6508444  3
  12521  12519  12518  12540     1  0.0000000  1.0460000  1
  12521  12519  12518  12540     1  0.0000000  0.0000000  3
  12521  12519  12522  12523     1  0.0000000  0.6508444  3
  12521  12519  12522  12530     1  0.0000000  1.0460000  1
  12521  12519  12522  12530     1  0.0000000  0.0000000  3
  12521  12519  12522  12526     1  0.0000000  0.6508444  3
  12521  12519  12531  12534     1  0.0000000  0.6973333  3
  12522  12519  12531  12534     1  0.0000000  1.0460000  1
  12522  12519  12531  12534     1  0.0000000  0.6694400  3
  12522  12523  12524  12527     1  0.0000000  0.6508444  3
  12522  12523  12529  12535     1  0.0000000  1.0460000  1
  12522  12523  12529  12535     1  0.0000000  0.6694400  3
  12523  12522  12530  12533     1  0.0000000  1.0460000  1
  12523  12522  12530  12533     1  0.0000000  0.6694400  3
  12524  12523  12522  12526     1  0.0000000  0.6508444  3
  12524  12523  12529  12535     1  0.0000000  1.0460000  1
  12524  12523  12529  12535     1  0.0000000  0.6694400  3
  12525  12523  12522  12530     1  0.0000000  1.0460000  1
  12525  12523  12522  12530     1  0.0000000  0.0000000  3
  12525  12523  12522  12526     1  0.0000000  0.6508444  3
  12525  12523  12524  12528     1  0.0000000  1.0460000  1
  12525  12523  12524  12528     1  0.0000000  0.0000000  3
  12525  12523  12524  12540     1  0.0000000  1.0460000  1
  12525  12523  12524  12540     1  0.0000000  0.0000000  3
  12525  12523  12524  12527     1  0.0000000  0.6508444  3
  12525  12523  12529  12535     1  0.0000000  0.6973333  3
  12526  12522  12519  12531     1  0.0000000  1.0460000  1
  12526  12522  12519  12531     1  0.0000000  0.0000000  3
  12526  12522  12523  12529     1  0.0000000  1.0460000  1
  12526  12522  12523  12529     1  0.0000000  0.0000000  3
  12526  12522  12530  12533     1  0.0000000  0.6973333  3
  12527  12524  12523  12529     1  0.0000000  0.6508444  3
  12536  12532  12518  12540     1  0.0000000  1.0460000  1
  12536  12532  12518  12540     1  0.0000000  0.0000000  3
  12536  12532  12538  12539     1  0.0000000  0.6973333  3
  12537  12532  12518  12540     1  0.0000000  1.0460000  1
  12537  12532  12518  12540     1  0.0000000  0.0000000  3
  12537  12532  12538  12539     1  0.0000000  0.6973333  3
  12541  12542  12545  12549     1  0.0000000  0.6508444  3
  12541  12542  12554  12557     1  0.0000000  1.0460000  1
  12541  12542  12554  12557     1  0.0000000  0.6694400  3
  12541  12555  12561  12562     1  0.0000000  1.0460000  1
  12541  12555  12561  12562     1  0.0000000  0.6694400  3
  12541  12563  12547  12550     1  0.0000000  1.6038667  3
  12542  12545  12546  12548     1  0.0000000  0.6508444  3
  12542  12545  12553  12556     1  0.0000000  1.0460000  1
  12542  12545  12553  12556     1  0.0000000  0.6694400  3
  12542  12541  12555  12559     1  0.0000000  0.6508444  3
  12542  12541  12555  12560     1  0.0000000  0.6508444  3
  12543  12541  12542  12545     1  0.0000000  0.6508444  3
  12543  12541  12542  12554     1  0.0000000  1.0460000  1
  12543  12541  12542  12554     1  0.0000000  0.0000000  3
  12543  12541  12542  12544     1  0.0000000  0.6508444  3
  12543  12541  12555  12561     1  0.0000000  1.0460000  1
  12543  12541  12555  12561     1  0.0000000  0.0000000  3
  12543  12541  12555  12559     1  0.0000000  0.6508444  3
  12543  12541  12555  12560     1  0.0000000  0.6508444  3
  12543  12541  12563  12547     1  0.0000000  1.6038667  3
  12544  12542  12545  12546     1  0.0000000  0.6508444  3
  12544  12542  12545  12553     1  0.0000000  1.0460000  1
  12544  12542  12545  12553     1  0.0000000  0.0000000  3
  12544  12542  12545  12549     1  0.0000000  0.6508444  3
  12544  12542  12554  12557     1  0.0000000  0.6973333  3
  12544  12542  12541  12555     1  0.0000000  0.6508444  3
  12544  12542  12541  12563     1  0.0000000  1.0460000  1
  12544  12542  12541  12563     1  0.0000000  0.0000000  3
  12545  12546  12547  12550     1  0.0000000  0.6508444  3
  12545  12546  12552  12558     1  0.0000000  1.0460000  1
  12545  12546  12552  12558     1  0.0000000  0.6694400  3
  12545  12542  12554  12557     1  0.0000000  1.0460000  1
  12545  12542  12554  12557     1  0.0000000  0.6694400  3
  12546  12545  12553  12556     1  0.0000000  1.0460000  1
  12546  12545  12553  12556     1  0.0000000  0.6694400  3
  12547  12546  12552  12558     1  0.0000000  1.0460000  1
  12547  12546  12552  12558     1  0.0000000  0.6694400  3
  12547  12546  12545  12549     1  0.0000000  0.6508444  3
  12548  12546  12547  12551     1  0.0000000  1.0460000  1
  12548  12546  12547  12551     1  0.0000000  0.0000000  3
  12548  12546  12547  12563     1  0.0000000  1.0460000  1
  12548  12546  12547  12563     1  0.0000000  0.0000000  3
  12548  12546  12547  12550     1  0.0000000  0.6508444  3
  12548  12546  12552  12558     1  0.0000000  0.6973333  3
  12548  12546  12545  12553     1  0.0000000  1.0460000  1
  12548  12546  12545  12553     1  0.0000000  0.0000000  3
  12548  12546  12545  12549     1  0.0000000  0.6508444  3
  12549  12545  12546  12552     1  0.0000000  1.0460000  1
  12549  12545  12546  12552     1  0.0000000  0.0000000  3
  12549  12545  12553  12556     1  0.0000000  0.6973333  3
  12549  12545  12542  12554     1  0.0000000  1.0460000  1
  12549  12545  12542  12554     1  0.0000000  0.0000000  3
  12550  12547  12546  12552     1  0.0000000  0.6508444  3
  12559  12555  12561  12562     1  0.0000000  0.6973333  3
  12559  12555  12541  12563     1  0.0000000  1.0460000  1
  12559  12555  12541  12563     1  0.0000000  0.0000000  3
  12560  12555  12561  12562     1  0.0000000  0.6973333  3
  12560  12555  12541  12563     1  0.0000000  1.0460000  1
  12560  12555  12541  12563     1  0.0000000  0.0000000  3
  12564  12565  12568  12572     1  0.0000000  0.6508444  3
  12564  12565  12577  12580     1  0.0000000  1.0460000  1
  12564  12565  12577  12580     1  0.0000000  0.6694400  3
  12564  12578  12584  12585     1  0.0000000  1.0460000  1
  12564  12578  12584  12585     1  0.0000000  0.6694400  3
  12564  12586  12570  12573     1  0.0000000  1.6038667  3
  12565  12564  12578  12582     1  0.0000000  0.6508444  3
  12565  12564  12578  12583     1  0.0000000  0.6508444  3
  12565  12568  12569  12571     1  0.0000000  0.6508444  3
  12565  12568  12576  12579     1  0.0000000  1.0460000  1
  12565  12568  12576  12579     1  0.0000000  0.6694400  3
  12566  12564  12565  12568     1  0.0000000  0.6508444  3
  12566  12564  12565  12577     1  0.0000000  1.0460000  1
  12566  12564  12565  12577     1  0.0000000  0.0000000  3
  12566  12564  12565  12567     1  0.0000000  0.6508444  3
  12566  12564  12578  12584     1  0.0000000  1.0460000  1
  12566  12564  12578  12584     1  0.0000000  0.0000000  3
  12566  12564  12578  12582     1  0.0000000  0.6508444  3
  12566  12564  12578  12583     1  0.0000000  0.6508444  3
  12566  12564  12586  12570     1  0.0000000  1.6038667  3
  12567  12565  12564  12578     1  0.0000000  0.6508444  3
  12567  12565  12564  12586     1  0.0000000  1.0460000  1
  12567  12565  12564  12586     1  0.0000000  0.0000000  3
  12567  12565  12568  12569     1  0.0000000  0.6508444  3
  12567  12565  12568  12576     1  0.0000000  1.0460000  1
  12567  12565  12568  12576     1  0.0000000  0.0000000  3
  12567  12565  12568  12572     1  0.0000000  0.6508444  3
  12567  12565  12577  12580     1  0.0000000  0.6973333  3
  12568  12565  12577  12580     1  0.0000000  1.0460000  1
  12568  12565  12577  12580     1  0.0000000  0.6694400  3
  12568  12569  12570  12573     1  0.0000000  0.6508444  3
  12568  12569  12575  12581     1  0.0000000  1.0460000  1
  12568  12569  12575  12581     1  0.0000000  0.6694400  3
  12569  12568  12576  12579     1  0.0000000  1.0460000  1
  12569  12568  12576  12579     1  0.0000000  0.6694400  3
  12570  12569  12568  12572     1  0.0000000  0.6508444  3
  12570  12569  12575  12581     1  0.0000000  1.0460000  1
  12570  12569  12575  12581     1  0.0000000  0.6694400  3
  12571  12569  12568  12576     1  0.0000000  1.0460000  1
  12571  12569  12568  12576     1  0.0000000  0.0000000  3
  12571  12569  12568  12572     1  0.0000000  0.6508444  3
  12571  12569  12570  12574     1  0.0000000  1.0460000  1
  12571  12569  12570  12574     1  0.0000000  0.0000000  3
  12571  12569  12570  12586     1  0.0000000  1.0460000  1
  12571  12569  12570  12586     1  0.0000000  0.0000000  3
  12571  12569  12570  12573     1  0.0000000  0.6508444  3
  12571  12569  12575  12581     1  0.0000000  0.6973333  3
  12572  12568  12565  12577     1  0.0000000  1.0460000  1
  12572  12568  12565  12577     1  0.0000000  0.0000000  3
  12572  12568  12569  12575     1  0.0000000  1.0460000  1
  12572  12568  12569  12575     1  0.0000000  0.0000000  3
  12572  12568  12576  12579     1  0.0000000  0.6973333  3
  12573  12570  12569  12575     1  0.0000000  0.6508444  3
  12582  12578  12564  12586     1  0.0000000  1.0460000  1
  12582  12578  12564  12586     1  0.0000000  0.0000000  3
  12582  12578  12584  12585     1  0.0000000  0.6973333  3
  12583  12578  12564  12586     1  0.0000000  1.0460000  1
  12583  12578  12564  12586     1  0.0000000  0.0000000  3
  12583  12578  12584  12585     1  0.0000000  0.6973333  3
  12587  12588  12591  12595     1  0.0000000  0.6508444  3
  12587  12588  12600  12603     1  0.0000000  1.0460000  1
  12587  12588  12600  12603     1  0.0000000  0.6694400  3
  12587  12601  12607  12608     1  0.0000000  1.0460000  1
  12587  12601  12607  12608     1  0.0000000  0.6694400  3
  12587  12609  12593  12596     1  0.0000000  1.6038667  3
  12588  12591  12592  12594     1  0.0000000  0.6508444  3
  12588  12591  12599  12602     1  0.0000000  1.0460000  1
  12588  12591  12599  12602     1  0.0000000  0.6694400  3
  12588  12587  12601  12605     1  0.0000000  0.6508444  3
  12588  12587  12601  12606     1  0.0000000  0.6508444  3
  12589  12587  12588  12591     1  0.0000000  0.6508444  3
  12589  12587  12588  12600     1  0.0000000  1.0460000  1
  12589  12587  12588  12600     1  0.0000000  0.0000000  3
  12589  12587  12588  12590     1  0.0000000  0.6508444  3
  12589  12587  12601  12607     1  0.0000000  1.0460000  1
  12589  12587  12601  12607     1  0.0000000  0.0000000  3
  12589  12587  12601  12605     1  0.0000000  0.6508444  3
  12589  12587  12601  12606     1  0.0000000  0.6508444  3
  12589  12587  12609  12593     1  0.0000000  1.6038667  3
  12590  12588  12591  12592     1  0.0000000  0.6508444  3
  12590  12588  12591  12599     1  0.0000000  1.0460000  1
  12590  12588  12591  12599     1  0.0000000  0.0000000  3
  12590  12588  12591  12595     1  0.0000000  0.6508444  3
  12590  12588  12600  12603     1  0.0000000  0.6973333  3
  12590  12588  12587  12601     1  0.0000000  0.6508444  3
  12590  12588  12587  12609     1  0.0000000  1.0460000  1
  12590  12588  12587  12609     1  0.0000000  0.0000000  3
  12591  12592  12593  12596     1  0.0000000  0.6508444  3
  12591  12592  12598  12604     1  0.0000000  1.0460000  1
  12591  12592  12598  12604     1  0.0000000  0.6694400  3
  12591  12588  12600  12603     1  0.0000000  1.0460000  1
  12591  12588  12600  12603     1  0.0000000  0.6694400  3
  12592  12591  12599  12602     1  0.0000000  1.0460000  1
  12592  12591  12599  12602     1  0.0000000  0.6694400  3
  12593  12592  12598  12604     1  0.0000000  1.0460000  1
  12593  12592  12598  12604     1  0.0000000  0.6694400  3
  12593  12592  12591  12595     1  0.0000000  0.6508444  3
  12594  12592  12593  12597     1  0.0000000  1.0460000  1
  12594  12592  12593  12597     1  0.0000000  0.0000000  3
  12594  12592  12593  12609     1  0.0000000  1.0460000  1
  12594  12592  12593  12609     1  0.0000000  0.0000000  3
  12594  12592  12593  12596     1  0.0000000  0.6508444  3
  12594  12592  12598  12604     1  0.0000000  0.6973333  3
  12594  12592  12591  12599     1  0.0000000  1.0460000  1
  12594  12592  12591  12599     1  0.0000000  0.0000000  3
  12594  12592  12591  12595     1  0.0000000  0.6508444  3
  12595  12591  12592  12598     1  0.0000000  1.0460000  1
  12595  12591  12592  12598     1  0.0000000  0.0000000  3
  12595  12591  12599  12602     1  0.0000000  0.6973333  3
  12595  12591  12588  12600     1  0.0000000  1.0460000  1
  12595  12591  12588  12600     1  0.0000000  0.0000000  3
  12596  12593  12592  12598     1  0.0000000  0.6508444  3
  12605  12601  12607  12608     1  0.0000000  0.6973333  3
  12605  12601  12587  12609     1  0.0000000  1.0460000  1
  12605  12601  12587  12609     1  0.0000000  0.0000000  3
  12606  12601  12607  12608     1  0.0000000  0.6973333  3
  12606  12601  12587  12609     1  0.0000000  1.0460000  1
  12606  12601  12587  12609     1  0.0000000  0.0000000  3
  12610  12611  12614  12618     1  0.0000000  0.6508444  3
  12610  12611  12623  12626     1  0.0000000  1.0460000  1
  12610  12611  12623  12626     1  0.0000000  0.6694400  3
  12610  12624  12630  12631     1  0.0000000  1.0460000  1
  12610  12624  12630  12631     1  0.0000000  0.6694400  3
  12610  12632  12616  12619     1  0.0000000  1.6038667  3
  12611  12610  12624  12628     1  0.0000000  0.6508444  3
  12611  12610  12624  12629     1  0.0000000  0.6508444  3
  12611  12614  12615  12617     1  0.0000000  0.6508444  3
  12611  12614  12622  12625     1  0.0000000  1.0460000  1
  12611  12614  12622  12625     1  0.0000000  0.6694400  3
  12612  12610  12611  12614     1  0.0000000  0.6508444  3
  12612  12610  12611  12623     1  0.0000000  1.0460000  1
  12612  12610  12611  12623     1  0.0000000  0.0000000  3
  12612  12610  12611  12613     1  0.0000000  0.6508444  3
  12612  12610  12624  12630     1  0.0000000  1.0460000  1
  12612  12610  12624  12630     1  0.0000000  0.0000000  3
  12612  12610  12624  12628     1  0.0000000  0.6508444  3
  12612  12610  12624  12629     1  0.0000000  0.6508444  3
  12612  12610  12632  12616     1  0.0000000  1.6038667  3
  12613  12611  12610  12624     1  0.0000000  0.6508444  3
  12613  12611  12610  12632     1  0.0000000  1.0460000  1
  12613  12611  12610  12632     1  0.0000000  0.0000000  3
  12613  12611  12614  12615     1  0.0000000  0.6508444  3
  12613  12611  12614  12622     1  0.0000000  1.0460000  1
  12613  12611  12614  12622     1  0.0000000  0.0000000  3
  12613  12611  12614  12618     1  0.0000000  0.6508444  3
  12613  12611  12623  12626     1  0.0000000  0.6973333  3
  12614  12611  12623  12626     1  0.0000000  1.0460000  1
  12614  12611  12623  12626     1  0.0000000  0.6694400  3
  12614  12615  12616  12619     1  0.0000000  0.6508444  3
  12614  12615  12621  12627     1  0.0000000  1.0460000  1
  12614  12615  12621  12627     1  0.0000000  0.6694400  3
  12615  12614  12622  12625     1  0.0000000  1.0460000  1
  12615  12614  12622  12625     1  0.0000000  0.6694400  3
  12616  12615  12614  12618     1  0.0000000  0.6508444  3
  12616  12615  12621  12627     1  0.0000000  1.0460000  1
  12616  12615  12621  12627     1  0.0000000  0.6694400  3
  12617  12615  12614  12622     1  0.0000000  1.0460000  1
  12617  12615  12614  12622     1  0.0000000  0.0000000  3
  12617  12615  12614  12618     1  0.0000000  0.6508444  3
  12617  12615  12616  12620     1  0.0000000  1.0460000  1
  12617  12615  12616  12620     1  0.0000000  0.0000000  3
  12617  12615  12616  12632     1  0.0000000  1.0460000  1
  12617  12615  12616  12632     1  0.0000000  0.0000000  3
  12617  12615  12616  12619     1  0.0000000  0.6508444  3
  12617  12615  12621  12627     1  0.0000000  0.6973333  3
  12618  12614  12611  12623     1  0.0000000  1.0460000  1
  12618  12614  12611  12623     1  0.0000000  0.0000000  3
  12618  12614  12615  12621     1  0.0000000  1.0460000  1
  12618  12614  12615  12621     1  0.0000000  0.0000000  3
  12618  12614  12622  12625     1  0.0000000  0.6973333  3
  12619  12616  12615  12621     1  0.0000000  0.6508444  3
  12628  12624  12610  12632     1  0.0000000  1.0460000  1
  12628  12624  12610  12632     1  0.0000000  0.0000000  3
  12628  12624  12630  12631     1  0.0000000  0.6973333  3
  12629  12624  12610  12632     1  0.0000000  1.0460000  1
  12629  12624  12610  12632     1  0.0000000  0.0000000  3
  12629  12624  12630  12631     1  0.0000000  0.6973333  3
  12633  12634  12637  12641     1  0.0000000  0.6508444  3
  12633  12634  12646  12649     1  0.0000000  1.0460000  1
  12633  12634  12646  12649     1  0.0000000  0.6694400  3
  12633  12647  12653  12654     1  0.0000000  1.0460000  1
  12633  12647  12653  12654     1  0.0000000  0.6694400  3
  12633  12655  12639  12642     1  0.0000000  1.6038667  3
  12634  12637  12638  12640     1  0.0000000  0.6508444  3
  12634  12637  12645  12648     1  0.0000000  1.0460000  1
  12634  12637  12645  12648     1  0.0000000  0.6694400  3
  12634  12633  12647  12651     1  0.0000000  0.6508444  3
  12634  12633  12647  12652     1  0.0000000  0.6508444  3
  12635  12633  12634  12637     1  0.0000000  0.6508444  3
  12635  12633  12634  12646     1  0.0000000  1.0460000  1
  12635  12633  12634  12646     1  0.0000000  0.0000000  3
  12635  12633  12634  12636     1  0.0000000  0.6508444  3
  12635  12633  12647  12653     1  0.0000000  1.0460000  1
  12635  12633  12647  12653     1  0.0000000  0.0000000  3
  12635  12633  12647  12651     1  0.0000000  0.6508444  3
  12635  12633  12647  12652     1  0.0000000  0.6508444  3
  12635  12633  12655  12639     1  0.0000000  1.6038667  3
  12636  12634  12637  12638     1  0.0000000  0.6508444  3
  12636  12634  12637  12645     1  0.0000000  1.0460000  1
  12636  12634  12637  12645     1  0.0000000  0.0000000  3
  12636  12634  12637  12641     1  0.0000000  0.6508444  3
  12636  12634  12646  12649     1  0.0000000  0.6973333  3
  12636  12634  12633  12647     1  0.0000000  0.6508444  3
  12636  12634  12633  12655     1  0.0000000  1.0460000  1
  12636  12634  12633  12655     1  0.0000000  0.0000000  3
  12637  12638  12639  12642     1  0.0000000  0.6508444  3
  12637  12638  12644  12650     1  0.0000000  1.0460000  1
  12637  12638  12644  12650     1  0.0000000  0.6694400  3
  12637  12634  12646  12649     1  0.0000000  1.0460000  1
  12637  12634  12646  12649     1  0.0000000  0.6694400  3
  12638  12637  12645  12648     1  0.0000000  1.0460000  1
  12638  12637  12645  12648     1  0.0000000  0.6694400  3
  12639  12638  12644  12650     1  0.0000000  1.0460000  1
  12639  12638  12644  12650     1  0.0000000  0.6694400  3
  12639  12638  12637  12641     1  0.0000000  0.6508444  3
  12640  12638  12639  12643     1  0.0000000  1.0460000  1
  12640  12638  12639  12643     1  0.0000000  0.0000000  3
  12640  12638  12639  12655     1  0.0000000  1.0460000  1
  12640  12638  12639  12655     1  0.0000000  0.0000000  3
  12640  12638  12639  12642     1  0.0000000  0.6508444  3
  12640  12638  12644  12650     1  0.0000000  0.6973333  3
  12640  12638  12637  12645     1  0.0000000  1.0460000  1
  12640  12638  12637  12645     1  0.0000000  0.0000000  3
  12640  12638  12637  12641     1  0.0000000  0.6508444  3
  12641  12637  12638  12644     1  0.0000000  1.0460000  1
  12641  12637  12638  12644     1  0.0000000  0.0000000  3
  12641  12637  12645  12648     1  0.0000000  0.6973333  3
  12641  12637  12634  12646     1  0.0000000  1.0460000  1
  12641  12637  12634  12646     1  0.0000000  0.0000000  3
  12642  12639  12638  12644     1  0.0000000  0.6508444  3
  12651  12647  12653  12654     1  0.0000000  0.6973333  3
  12651  12647  12633  12655     1  0.0000000  1.0460000  1
  12651  12647  12633  12655     1  0.0000000  0.0000000  3
  12652  12647  12653  12654     1  0.0000000  0.6973333  3
  12652  12647  12633  12655     1  0.0000000  1.0460000  1
  12652  12647  12633  12655     1  0.0000000  0.0000000  3
  12656  12657  12660  12664     1  0.0000000  0.6508444  3
  12656  12657  12669  12672     1  0.0000000  1.0460000  1
  12656  12657  12669  12672     1  0.0000000  0.6694400  3
  12656  12670  12676  12677     1  0.0000000  1.0460000  1
  12656  12670  12676  12677     1  0.0000000  0.6694400  3
  12656  12678  12662  12665     1  0.0000000  1.6038667  3
  12657  12656  12670  12674     1  0.0000000  0.6508444  3
  12657  12656  12670  12675     1  0.0000000  0.6508444  3
  12657  12660  12661  12663     1  0.0000000  0.6508444  3
  12657  12660  12668  12671     1  0.0000000  1.0460000  1
  12657  12660  12668  12671     1  0.0000000  0.6694400  3
  12658  12656  12657  12660     1  0.0000000  0.6508444  3
  12658  12656  12657  12669     1  0.0000000  1.0460000  1
  12658  12656  12657  12669     1  0.0000000  0.0000000  3
  12658  12656  12657  12659     1  0.0000000  0.6508444  3
  12658  12656  12670  12676     1  0.0000000  1.0460000  1
  12658  12656  12670  12676     1  0.0000000  0.0000000  3
  12658  12656  12670  12674     1  0.0000000  0.6508444  3
  12658  12656  12670  12675     1  0.0000000  0.6508444  3
  12658  12656  12678  12662     1  0.0000000  1.6038667  3
  12659  12657  12656  12670     1  0.0000000  0.6508444  3
  12659  12657  12656  12678     1  0.0000000  1.0460000  1
  12659  12657  12656  12678     1  0.0000000  0.0000000  3
  12659  12657  12660  12661     1  0.0000000  0.6508444  3
  12659  12657  12660  12668     1  0.0000000  1.0460000  1
  12659  12657  12660  12668     1  0.0000000  0.0000000  3
  12659  12657  12660  12664     1  0.0000000  0.6508444  3
  12659  12657  12669  12672     1  0.0000000  0.6973333  3
  12660  12657  12669  12672     1  0.0000000  1.0460000  1
  12660  12657  12669  12672     1  0.0000000  0.6694400  3
  12660  12661  12662  12665     1  0.0000000  0.6508444  3
  12660  12661  12667  12673     1  0.0000000  1.0460000  1
  12660  12661  12667  12673     1  0.0000000  0.6694400  3
  12661  12660  12668  12671     1  0.0000000  1.0460000  1
  12661  12660  12668  12671     1  0.0000000  0.6694400  3
  12662  12661  12660  12664     1  0.0000000  0.6508444  3
  12662  12661  12667  12673     1  0.0000000  1.0460000  1
  12662  12661  12667  12673     1  0.0000000  0.6694400  3
  12663  12661  12660  12668     1  0.0000000  1.0460000  1
  12663  12661  12660  12668     1  0.0000000  0.0000000  3
  12663  12661  12660  12664     1  0.0000000  0.6508444  3
  12663  12661  12662  12666     1  0.0000000  1.0460000  1
  12663  12661  12662  12666     1  0.0000000  0.0000000  3
  12663  12661  12662  12678     1  0.0000000  1.0460000  1
  12663  12661  12662  12678     1  0.0000000  0.0000000  3
  12663  12661  12662  12665     1  0.0000000  0.6508444  3
  12663  12661  12667  12673     1  0.0000000  0.6973333  3
  12664  12660  12657  12669     1  0.0000000  1.0460000  1
  12664  12660  12657  12669     1  0.0000000  0.0000000  3
  12664  12660  12661  12667     1  0.0000000  1.0460000  1
  12664  12660  12661  12667     1  0.0000000  0.0000000  3
  12664  12660  12668  12671     1  0.0000000  0.6973333  3
  12665  12662  12661  12667     1  0.0000000  0.6508444  3
  12674  12670  12656  12678     1  0.0000000  1.0460000  1
  12674  12670  12656  12678     1  0.0000000  0.0000000  3
  12674  12670  12676  12677     1  0.0000000  0.6973333  3
  12675  12670  12656  12678     1  0.0000000  1.0460000  1
  12675  12670  12656  12678     1  0.0000000  0.0000000  3
  12675  12670  12676  12677     1  0.0000000  0.6973333  3
  12679  12680  12683  12687     1  0.0000000  0.6508444  3
  12679  12680  12692  12695     1  0.0000000  1.0460000  1
  12679  12680  12692  12695     1  0.0000000  0.6694400  3
  12679  12693  12699  12700     1  0.0000000  1.0460000  1
  12679  12693  12699  12700     1  0.0000000  0.6694400  3
  12679  12701  12685  12688     1  0.0000000  1.6038667  3
  12680  12683  12684  12686     1  0.0000000  0.6508444  3
  12680  12683  12691  12694     1  0.0000000  1.0460000  1
  12680  12683  12691  12694     1  0.0000000  0.6694400  3
  12680  12679  12693  12697     1  0.0000000  0.6508444  3
  12680  12679  12693  12698     1  0.0000000  0.6508444  3
  12681  12679  12680  12683     1  0.0000000  0.6508444  3
  12681  12679  12680  12692     1  0.0000000  1.0460000  1
  12681  12679  12680  12692     1  0.0000000  0.0000000  3
  12681  12679  12680  12682     1  0.0000000  0.6508444  3
  12681  12679  12693  12699     1  0.0000000  1.0460000  1
  12681  12679  12693  12699     1  0.0000000  0.0000000  3
  12681  12679  12693  12697     1  0.0000000  0.6508444  3
  12681  12679  12693  12698     1  0.0000000  0.6508444  3
  12681  12679  12701  12685     1  0.0000000  1.6038667  3
  12682  12680  12683  12684     1  0.0000000  0.6508444  3
  12682  12680  12683  12691     1  0.0000000  1.0460000  1
  12682  12680  12683  12691     1  0.0000000  0.0000000  3
  12682  12680  12683  12687     1  0.0000000  0.6508444  3
  12682  12680  12692  12695     1  0.0000000  0.6973333  3
  12682  12680  12679  12693     1  0.0000000  0.6508444  3
  12682  12680  12679  12701     1  0.0000000  1.0460000  1
  12682  12680  12679  12701     1  0.0000000  0.0000000  3
  12683  12684  12685  12688     1  0.0000000  0.6508444  3
  12683  12684  12690  12696     1  0.0000000  1.0460000  1
  12683  12684  12690  12696     1  0.0000000  0.6694400  3
  12683  12680  12692  12695     1  0.0000000  1.0460000  1
  12683  12680  12692  12695     1  0.0000000  0.6694400  3
  12684  12683  12691  12694     1  0.0000000  1.0460000  1
  12684  12683  12691  12694     1  0.0000000  0.6694400  3
  12685  12684  12690  12696     1  0.0000000  1.0460000  1
  12685  12684  12690  12696     1  0.0000000  0.6694400  3
  12685  12684  12683  12687     1  0.0000000  0.6508444  3
  12686  12684  12685  12689     1  0.0000000  1.0460000  1
  12686  12684  12685  12689     1  0.0000000  0.0000000  3
  12686  12684  12685  12701     1  0.0000000  1.0460000  1
  12686  12684  12685  12701     1  0.0000000  0.0000000  3
  12686  12684  12685  12688     1  0.0000000  0.6508444  3
  12686  12684  12690  12696     1  0.0000000  0.6973333  3
  12686  12684  12683  12691     1  0.0000000  1.0460000  1
  12686  12684  12683  12691     1  0.0000000  0.0000000  3
  12686  12684  12683  12687     1  0.0000000  0.6508444  3
  12687  12683  12684  12690     1  0.0000000  1.0460000  1
  12687  12683  12684  12690     1  0.0000000  0.0000000  3
  12687  12683  12691  12694     1  0.0000000  0.6973333  3
  12687  12683  12680  12692     1  0.0000000  1.0460000  1
  12687  12683  12680  12692     1  0.0000000  0.0000000  3
  12688  12685  12684  12690     1  0.0000000  0.6508444  3
  12697  12693  12699  12700     1  0.0000000  0.6973333  3
  12697  12693  12679  12701     1  0.0000000  1.0460000  1
  12697  12693  12679  12701     1  0.0000000  0.0000000  3
  12698  12693  12699  12700     1  0.0000000  0.6973333  3
  12698  12693  12679  12701     1  0.0000000  1.0460000  1
  12698  12693  12679  12701     1  0.0000000  0.0000000  3
  12702  12703  12706  12710     1  0.0000000  0.6508444  3
  12702  12703  12715  12718     1  0.0000000  1.0460000  1
  12702  12703  12715  12718     1  0.0000000  0.6694400  3
  12702  12716  12722  12723     1  0.0000000  1.0460000  1
  12702  12716  12722  12723     1  0.0000000  0.6694400  3
  12702  12724  12708  12711     1  0.0000000  1.6038667  3
  12703  12702  12716  12720     1  0.0000000  0.6508444  3
  12703  12702  12716  12721     1  0.0000000  0.6508444  3
  12703  12706  12707  12709     1  0.0000000  0.6508444  3
  12703  12706  12714  12717     1  0.0000000  1.0460000  1
  12703  12706  12714  12717     1  0.0000000  0.6694400  3
  12704  12702  12703  12706     1  0.0000000  0.6508444  3
  12704  12702  12703  12715     1  0.0000000  1.0460000  1
  12704  12702  12703  12715     1  0.0000000  0.0000000  3
  12704  12702  12703  12705     1  0.0000000  0.6508444  3
  12704  12702  12716  12722     1  0.0000000  1.0460000  1
  12704  12702  12716  12722     1  0.0000000  0.0000000  3
  12704  12702  12716  12720     1  0.0000000  0.6508444  3
  12704  12702  12716  12721     1  0.0000000  0.6508444  3
  12704  12702  12724  12708     1  0.0000000  1.6038667  3
  12705  12703  12702  12716     1  0.0000000  0.6508444  3
  12705  12703  12702  12724     1  0.0000000  1.0460000  1
  12705  12703  12702  12724     1  0.0000000  0.0000000  3
  12705  12703  12706  12707     1  0.0000000  0.6508444  3
  12705  12703  12706  12714     1  0.0000000  1.0460000  1
  12705  12703  12706  12714     1  0.0000000  0.0000000  3
  12705  12703  12706  12710     1  0.0000000  0.6508444  3
  12705  12703  12715  12718     1  0.0000000  0.6973333  3
  12706  12703  12715  12718     1  0.0000000  1.0460000  1
  12706  12703  12715  12718     1  0.0000000  0.6694400  3
  12706  12707  12708  12711     1  0.0000000  0.6508444  3
  12706  12707  12713  12719     1  0.0000000  1.0460000  1
  12706  12707  12713  12719     1  0.0000000  0.6694400  3
  12707  12706  12714  12717     1  0.0000000  1.0460000  1
  12707  12706  12714  12717     1  0.0000000  0.6694400  3
  12708  12707  12706  12710     1  0.0000000  0.6508444  3
  12708  12707  12713  12719     1  0.0000000  1.0460000  1
  12708  12707  12713  12719     1  0.0000000  0.6694400  3
  12709  12707  12706  12714     1  0.0000000  1.0460000  1
  12709  12707  12706  12714     1  0.0000000  0.0000000  3
  12709  12707  12706  12710     1  0.0000000  0.6508444  3
  12709  12707  12708  12712     1  0.0000000  1.0460000  1
  12709  12707  12708  12712     1  0.0000000  0.0000000  3
  12709  12707  12708  12724     1  0.0000000  1.0460000  1
  12709  12707  12708  12724     1  0.0000000  0.0000000  3
  12709  12707  12708  12711     1  0.0000000  0.6508444  3
  12709  12707  12713  12719     1  0.0000000  0.6973333  3
  12710  12706  12703  12715     1  0.0000000  1.0460000  1
  12710  12706  12703  12715     1  0.0000000  0.0000000  3
  12710  12706  12707  12713     1  0.0000000  1.0460000  1
  12710  12706  12707  12713     1  0.0000000  0.0000000  3
  12710  12706  12714  12717     1  0.0000000  0.6973333  3
  12711  12708  12707  12713     1  0.0000000  0.6508444  3
  12720  12716  12702  12724     1  0.0000000  1.0460000  1
  12720  12716  12702  12724     1  0.0000000  0.0000000  3
  12720  12716  12722  12723     1  0.0000000  0.6973333  3
  12721  12716  12702  12724     1  0.0000000  1.0460000  1
  12721  12716  12702  12724     1  0.0000000  0.0000000  3
  12721  12716  12722  12723     1  0.0000000  0.6973333  3
  12725  12726  12729  12733     1  0.0000000  0.6508444  3
  12725  12726  12738  12741     1  0.0000000  1.0460000  1
  12725  12726  12738  12741     1  0.0000000  0.6694400  3
  12725  12739  12745  12746     1  0.0000000  1.0460000  1
  12725  12739  12745  12746     1  0.0000000  0.6694400  3
  12725  12747  12731  12734     1  0.0000000  1.6038667  3
  12726  12729  12730  12732     1  0.0000000  0.6508444  3
  12726  12729  12737  12740     1  0.0000000  1.0460000  1
  12726  12729  12737  12740     1  0.0000000  0.6694400  3
  12726  12725  12739  12743     1  0.0000000  0.6508444  3
  12726  12725  12739  12744     1  0.0000000  0.6508444  3
  12727  12725  12726  12729     1  0.0000000  0.6508444  3
  12727  12725  12726  12738     1  0.0000000  1.0460000  1
  12727  12725  12726  12738     1  0.0000000  0.0000000  3
  12727  12725  12726  12728     1  0.0000000  0.6508444  3
  12727  12725  12739  12745     1  0.0000000  1.0460000  1
  12727  12725  12739  12745     1  0.0000000  0.0000000  3
  12727  12725  12739  12743     1  0.0000000  0.6508444  3
  12727  12725  12739  12744     1  0.0000000  0.6508444  3
  12727  12725  12747  12731     1  0.0000000  1.6038667  3
  12728  12726  12729  12730     1  0.0000000  0.6508444  3
  12728  12726  12729  12737     1  0.0000000  1.0460000  1
  12728  12726  12729  12737     1  0.0000000  0.0000000  3
  12728  12726  12729  12733     1  0.0000000  0.6508444  3
  12728  12726  12738  12741     1  0.0000000  0.6973333  3
  12728  12726  12725  12739     1  0.0000000  0.6508444  3
  12728  12726  12725  12747     1  0.0000000  1.0460000  1
  12728  12726  12725  12747     1  0.0000000  0.0000000  3
  12729  12730  12731  12734     1  0.0000000  0.6508444  3
  12729  12730  12736  12742     1  0.0000000  1.0460000  1
  12729  12730  12736  12742     1  0.0000000  0.6694400  3
  12729  12726  12738  12741     1  0.0000000  1.0460000  1
  12729  12726  12738  12741     1  0.0000000  0.6694400  3
  12730  12729  12737  12740     1  0.0000000  1.0460000  1
  12730  12729  12737  12740     1  0.0000000  0.6694400  3
  12731  12730  12736  12742     1  0.0000000  1.0460000  1
  12731  12730  12736  12742     1  0.0000000  0.6694400  3
  12731  12730  12729  12733     1  0.0000000  0.6508444  3
  12732  12730  12731  12735     1  0.0000000  1.0460000  1
  12732  12730  12731  12735     1  0.0000000  0.0000000  3
  12732  12730  12731  12747     1  0.0000000  1.0460000  1
  12732  12730  12731  12747     1  0.0000000  0.0000000  3
  12732  12730  12731  12734     1  0.0000000  0.6508444  3
  12732  12730  12736  12742     1  0.0000000  0.6973333  3
  12732  12730  12729  12737     1  0.0000000  1.0460000  1
  12732  12730  12729  12737     1  0.0000000  0.0000000  3
  12732  12730  12729  12733     1  0.0000000  0.6508444  3
  12733  12729  12730  12736     1  0.0000000  1.0460000  1
  12733  12729  12730  12736     1  0.0000000  0.0000000  3
  12733  12729  12737  12740     1  0.0000000  0.6973333  3
  12733  12729  12726  12738     1  0.0000000  1.0460000  1
  12733  12729  12726  12738     1  0.0000000  0.0000000  3
  12734  12731  12730  12736     1  0.0000000  0.6508444  3
  12743  12739  12745  12746     1  0.0000000  0.6973333  3
  12743  12739  12725  12747     1  0.0000000  1.0460000  1
  12743  12739  12725  12747     1  0.0000000  0.0000000  3
  12744  12739  12745  12746     1  0.0000000  0.6973333  3
  12744  12739  12725  12747     1  0.0000000  1.0460000  1
  12744  12739  12725  12747     1  0.0000000  0.0000000  3
  12748  12749  12752  12756     1  0.0000000  0.6508444  3
  12748  12749  12761  12764     1  0.0000000  1.0460000  1
  12748  12749  12761  12764     1  0.0000000  0.6694400  3
  12748  12762  12768  12769     1  0.0000000  1.0460000  1
  12748  12762  12768  12769     1  0.0000000  0.6694400  3
  12748  12770  12754  12757     1  0.0000000  1.6038667  3
  12749  12748  12762  12766     1  0.0000000  0.6508444  3
  12749  12748  12762  12767     1  0.0000000  0.6508444  3
  12749  12752  12753  12755     1  0.0000000  0.6508444  3
  12749  12752  12760  12763     1  0.0000000  1.0460000  1
  12749  12752  12760  12763     1  0.0000000  0.6694400  3
  12750  12748  12749  12752     1  0.0000000  0.6508444  3
  12750  12748  12749  12761     1  0.0000000  1.0460000  1
  12750  12748  12749  12761     1  0.0000000  0.0000000  3
  12750  12748  12749  12751     1  0.0000000  0.6508444  3
  12750  12748  12762  12768     1  0.0000000  1.0460000  1
  12750  12748  12762  12768     1  0.0000000  0.0000000  3
  12750  12748  12762  12766     1  0.0000000  0.6508444  3
  12750  12748  12762  12767     1  0.0000000  0.6508444  3
  12750  12748  12770  12754     1  0.0000000  1.6038667  3
  12751  12749  12748  12762     1  0.0000000  0.6508444  3
  12751  12749  12748  12770     1  0.0000000  1.0460000  1
  12751  12749  12748  12770     1  0.0000000  0.0000000  3
  12751  12749  12752  12753     1  0.0000000  0.6508444  3
  12751  12749  12752  12760     1  0.0000000  1.0460000  1
  12751  12749  12752  12760     1  0.0000000  0.0000000  3
  12751  12749  12752  12756     1  0.0000000  0.6508444  3
  12751  12749  12761  12764     1  0.0000000  0.6973333  3
  12752  12749  12761  12764     1  0.0000000  1.0460000  1
  12752  12749  12761  12764     1  0.0000000  0.6694400  3
  12752  12753  12754  12757     1  0.0000000  0.6508444  3
  12752  12753  12759  12765     1  0.0000000  1.0460000  1
  12752  12753  12759  12765     1  0.0000000  0.6694400  3
  12753  12752  12760  12763     1  0.0000000  1.0460000  1
  12753  12752  12760  12763     1  0.0000000  0.6694400  3
  12754  12753  12752  12756     1  0.0000000  0.6508444  3
  12754  12753  12759  12765     1  0.0000000  1.0460000  1
  12754  12753  12759  12765     1  0.0000000  0.6694400  3
  12755  12753  12752  12760     1  0.0000000  1.0460000  1
  12755  12753  12752  12760     1  0.0000000  0.0000000  3
  12755  12753  12752  12756     1  0.0000000  0.6508444  3
  12755  12753  12754  12758     1  0.0000000  1.0460000  1
  12755  12753  12754  12758     1  0.0000000  0.0000000  3
  12755  12753  12754  12770     1  0.0000000  1.0460000  1
  12755  12753  12754  12770     1  0.0000000  0.0000000  3
  12755  12753  12754  12757     1  0.0000000  0.6508444  3
  12755  12753  12759  12765     1  0.0000000  0.6973333  3
  12756  12752  12749  12761     1  0.0000000  1.0460000  1
  12756  12752  12749  12761     1  0.0000000  0.0000000  3
  12756  12752  12753  12759     1  0.0000000  1.0460000  1
  12756  12752  12753  12759     1  0.0000000  0.0000000  3
  12756  12752  12760  12763     1  0.0000000  0.6973333  3
  12757  12754  12753  12759     1  0.0000000  0.6508444  3
  12766  12762  12748  12770     1  0.0000000  1.0460000  1
  12766  12762  12748  12770     1  0.0000000  0.0000000  3
  12766  12762  12768  12769     1  0.0000000  0.6973333  3
  12767  12762  12748  12770     1  0.0000000  1.0460000  1
  12767  12762  12748  12770     1  0.0000000  0.0000000  3
  12767  12762  12768  12769     1  0.0000000  0.6973333  3
  12771  12772  12775  12779     1  0.0000000  0.6508444  3
  12771  12772  12784  12787     1  0.0000000  1.0460000  1
  12771  12772  12784  12787     1  0.0000000  0.6694400  3
  12771  12785  12791  12792     1  0.0000000  1.0460000  1
  12771  12785  12791  12792     1  0.0000000  0.6694400  3
  12771  12793  12777  12780     1  0.0000000  1.6038667  3
  12772  12775  12776  12778     1  0.0000000  0.6508444  3
  12772  12775  12783  12786     1  0.0000000  1.0460000  1
  12772  12775  12783  12786     1  0.0000000  0.6694400  3
  12772  12771  12785  12789     1  0.0000000  0.6508444  3
  12772  12771  12785  12790     1  0.0000000  0.6508444  3
  12773  12771  12772  12775     1  0.0000000  0.6508444  3
  12773  12771  12772  12784     1  0.0000000  1.0460000  1
  12773  12771  12772  12784     1  0.0000000  0.0000000  3
  12773  12771  12772  12774     1  0.0000000  0.6508444  3
  12773  12771  12785  12791     1  0.0000000  1.0460000  1
  12773  12771  12785  12791     1  0.0000000  0.0000000  3
  12773  12771  12785  12789     1  0.0000000  0.6508444  3
  12773  12771  12785  12790     1  0.0000000  0.6508444  3
  12773  12771  12793  12777     1  0.0000000  1.6038667  3
  12774  12772  12775  12776     1  0.0000000  0.6508444  3
  12774  12772  12775  12783     1  0.0000000  1.0460000  1
  12774  12772  12775  12783     1  0.0000000  0.0000000  3
  12774  12772  12775  12779     1  0.0000000  0.6508444  3
  12774  12772  12784  12787     1  0.0000000  0.6973333  3
  12774  12772  12771  12785     1  0.0000000  0.6508444  3
  12774  12772  12771  12793     1  0.0000000  1.0460000  1
  12774  12772  12771  12793     1  0.0000000  0.0000000  3
  12775  12776  12777  12780     1  0.0000000  0.6508444  3
  12775  12776  12782  12788     1  0.0000000  1.0460000  1
  12775  12776  12782  12788     1  0.0000000  0.6694400  3
  12775  12772  12784  12787     1  0.0000000  1.0460000  1
  12775  12772  12784  12787     1  0.0000000  0.6694400  3
  12776  12775  12783  12786     1  0.0000000  1.0460000  1
  12776  12775  12783  12786     1  0.0000000  0.6694400  3
  12777  12776  12782  12788     1  0.0000000  1.0460000  1
  12777  12776  12782  12788     1  0.0000000  0.6694400  3
  12777  12776  12775  12779     1  0.0000000  0.6508444  3
  12778  12776  12777  12781     1  0.0000000  1.0460000  1
  12778  12776  12777  12781     1  0.0000000  0.0000000  3
  12778  12776  12777  12793     1  0.0000000  1.0460000  1
  12778  12776  12777  12793     1  0.0000000  0.0000000  3
  12778  12776  12777  12780     1  0.0000000  0.6508444  3
  12778  12776  12782  12788     1  0.0000000  0.6973333  3
  12778  12776  12775  12783     1  0.0000000  1.0460000  1
  12778  12776  12775  12783     1  0.0000000  0.0000000  3
  12778  12776  12775  12779     1  0.0000000  0.6508444  3
  12779  12775  12776  12782     1  0.0000000  1.0460000  1
  12779  12775  12776  12782     1  0.0000000  0.0000000  3
  12779  12775  12783  12786     1  0.0000000  0.6973333  3
  12779  12775  12772  12784     1  0.0000000  1.0460000  1
  12779  12775  12772  12784     1  0.0000000  0.0000000  3
  12780  12777  12776  12782     1  0.0000000  0.6508444  3
  12789  12785  12791  12792     1  0.0000000  0.6973333  3
  12789  12785  12771  12793     1  0.0000000  1.0460000  1
  12789  12785  12771  12793     1  0.0000000  0.0000000  3
  12790  12785  12791  12792     1  0.0000000  0.6973333  3
  12790  12785  12771  12793     1  0.0000000  1.0460000  1
  12790  12785  12771  12793     1  0.0000000  0.0000000  3
  12794  12795  12798  12802     1  0.0000000  0.6508444  3
  12794  12795  12807  12810     1  0.0000000  1.0460000  1
  12794  12795  12807  12810     1  0.0000000  0.6694400  3
  12794  12808  12814  12815     1  0.0000000  1.0460000  1
  12794  12808  12814  12815     1  0.0000000  0.6694400  3
  12794  12816  12800  12803     1  0.0000000  1.6038667  3
  12795  12794  12808  12812     1  0.0000000  0.6508444  3
  12795  12794  12808  12813     1  0.0000000  0.6508444  3
  12795  12798  12799  12801     1  0.0000000  0.6508444  3
  12795  12798  12806  12809     1  0.0000000  1.0460000  1
  12795  12798  12806  12809     1  0.0000000  0.6694400  3
  12796  12794  12795  12798     1  0.0000000  0.6508444  3
  12796  12794  12795  12807     1  0.0000000  1.0460000  1
  12796  12794  12795  12807     1  0.0000000  0.0000000  3
  12796  12794  12795  12797     1  0.0000000  0.6508444  3
  12796  12794  12808  12814     1  0.0000000  1.0460000  1
  12796  12794  12808  12814     1  0.0000000  0.0000000  3
  12796  12794  12808  12812     1  0.0000000  0.6508444  3
  12796  12794  12808  12813     1  0.0000000  0.6508444  3
  12796  12794  12816  12800     1  0.0000000  1.6038667  3
  12797  12795  12794  12808     1  0.0000000  0.6508444  3
  12797  12795  12794  12816     1  0.0000000  1.0460000  1
  12797  12795  12794  12816     1  0.0000000  0.0000000  3
  12797  12795  12798  12799     1  0.0000000  0.6508444  3
  12797  12795  12798  12806     1  0.0000000  1.0460000  1
  12797  12795  12798  12806     1  0.0000000  0.0000000  3
  12797  12795  12798  12802     1  0.0000000  0.6508444  3
  12797  12795  12807  12810     1  0.0000000  0.6973333  3
  12798  12795  12807  12810     1  0.0000000  1.0460000  1
  12798  12795  12807  12810     1  0.0000000  0.6694400  3
  12798  12799  12800  12803     1  0.0000000  0.6508444  3
  12798  12799  12805  12811     1  0.0000000  1.0460000  1
  12798  12799  12805  12811     1  0.0000000  0.6694400  3
  12799  12798  12806  12809     1  0.0000000  1.0460000  1
  12799  12798  12806  12809     1  0.0000000  0.6694400  3
  12800  12799  12798  12802     1  0.0000000  0.6508444  3
  12800  12799  12805  12811     1  0.0000000  1.0460000  1
  12800  12799  12805  12811     1  0.0000000  0.6694400  3
  12801  12799  12798  12806     1  0.0000000  1.0460000  1
  12801  12799  12798  12806     1  0.0000000  0.0000000  3
  12801  12799  12798  12802     1  0.0000000  0.6508444  3
  12801  12799  12800  12804     1  0.0000000  1.0460000  1
  12801  12799  12800  12804     1  0.0000000  0.0000000  3
  12801  12799  12800  12816     1  0.0000000  1.0460000  1
  12801  12799  12800  12816     1  0.0000000  0.0000000  3
  12801  12799  12800  12803     1  0.0000000  0.6508444  3
  12801  12799  12805  12811     1  0.0000000  0.6973333  3
  12802  12798  12795  12807     1  0.0000000  1.0460000  1
  12802  12798  12795  12807     1  0.0000000  0.0000000  3
  12802  12798  12799  12805     1  0.0000000  1.0460000  1
  12802  12798  12799  12805     1  0.0000000  0.0000000  3
  12802  12798  12806  12809     1  0.0000000  0.6973333  3
  12803  12800  12799  12805     1  0.0000000  0.6508444  3
  12812  12808  12794  12816     1  0.0000000  1.0460000  1
  12812  12808  12794  12816     1  0.0000000  0.0000000  3
  12812  12808  12814  12815     1  0.0000000  0.6973333  3
  12813  12808  12794  12816     1  0.0000000  1.0460000  1
  12813  12808  12794  12816     1  0.0000000  0.0000000  3
  12813  12808  12814  12815     1  0.0000000  0.6973333  3
  12817  12818  12821  12825     1  0.0000000  0.6508444  3
  12817  12818  12830  12833     1  0.0000000  1.0460000  1
  12817  12818  12830  12833     1  0.0000000  0.6694400  3
  12817  12831  12837  12838     1  0.0000000  1.0460000  1
  12817  12831  12837  12838     1  0.0000000  0.6694400  3
  12817  12839  12823  12826     1  0.0000000  1.6038667  3
  12818  12821  12822  12824     1  0.0000000  0.6508444  3
  12818  12821  12829  12832     1  0.0000000  1.0460000  1
  12818  12821  12829  12832     1  0.0000000  0.6694400  3
  12818  12817  12831  12835     1  0.0000000  0.6508444  3
  12818  12817  12831  12836     1  0.0000000  0.6508444  3
  12819  12817  12818  12821     1  0.0000000  0.6508444  3
  12819  12817  12818  12830     1  0.0000000  1.0460000  1
  12819  12817  12818  12830     1  0.0000000  0.0000000  3
  12819  12817  12818  12820     1  0.0000000  0.6508444  3
  12819  12817  12831  12837     1  0.0000000  1.0460000  1
  12819  12817  12831  12837     1  0.0000000  0.0000000  3
  12819  12817  12831  12835     1  0.0000000  0.6508444  3
  12819  12817  12831  12836     1  0.0000000  0.6508444  3
  12819  12817  12839  12823     1  0.0000000  1.6038667  3
  12820  12818  12821  12822     1  0.0000000  0.6508444  3
  12820  12818  12821  12829     1  0.0000000  1.0460000  1
  12820  12818  12821  12829     1  0.0000000  0.0000000  3
  12820  12818  12821  12825     1  0.0000000  0.6508444  3
  12820  12818  12830  12833     1  0.0000000  0.6973333  3
  12820  12818  12817  12831     1  0.0000000  0.6508444  3
  12820  12818  12817  12839     1  0.0000000  1.0460000  1
  12820  12818  12817  12839     1  0.0000000  0.0000000  3
  12821  12822  12823  12826     1  0.0000000  0.6508444  3
  12821  12822  12828  12834     1  0.0000000  1.0460000  1
  12821  12822  12828  12834     1  0.0000000  0.6694400  3
  12821  12818  12830  12833     1  0.0000000  1.0460000  1
  12821  12818  12830  12833     1  0.0000000  0.6694400  3
  12822  12821  12829  12832     1  0.0000000  1.0460000  1
  12822  12821  12829  12832     1  0.0000000  0.6694400  3
  12823  12822  12828  12834     1  0.0000000  1.0460000  1
  12823  12822  12828  12834     1  0.0000000  0.6694400  3
  12823  12822  12821  12825     1  0.0000000  0.6508444  3
  12824  12822  12823  12827     1  0.0000000  1.0460000  1
  12824  12822  12823  12827     1  0.0000000  0.0000000  3
  12824  12822  12823  12839     1  0.0000000  1.0460000  1
  12824  12822  12823  12839     1  0.0000000  0.0000000  3
  12824  12822  12823  12826     1  0.0000000  0.6508444  3
  12824  12822  12828  12834     1  0.0000000  0.6973333  3
  12824  12822  12821  12829     1  0.0000000  1.0460000  1
  12824  12822  12821  12829     1  0.0000000  0.0000000  3
  12824  12822  12821  12825     1  0.0000000  0.6508444  3
  12825  12821  12822  12828     1  0.0000000  1.0460000  1
  12825  12821  12822  12828     1  0.0000000  0.0000000  3
  12825  12821  12829  12832     1  0.0000000  0.6973333  3
  12825  12821  12818  12830     1  0.0000000  1.0460000  1
  12825  12821  12818  12830     1  0.0000000  0.0000000  3
  12826  12823  12822  12828     1  0.0000000  0.6508444  3
  12835  12831  12837  12838     1  0.0000000  0.6973333  3
  12835  12831  12817  12839     1  0.0000000  1.0460000  1
  12835  12831  12817  12839     1  0.0000000  0.0000000  3
  12836  12831  12837  12838     1  0.0000000  0.6973333  3
  12836  12831  12817  12839     1  0.0000000  1.0460000  1
  12836  12831  12817  12839     1  0.0000000  0.0000000  3
  12840  12841  12844  12848     1  0.0000000  0.6508444  3
  12840  12841  12853  12856     1  0.0000000  1.0460000  1
  12840  12841  12853  12856     1  0.0000000  0.6694400  3
  12840  12854  12860  12861     1  0.0000000  1.0460000  1
  12840  12854  12860  12861     1  0.0000000  0.6694400  3
  12840  12862  12846  12849     1  0.0000000  1.6038667  3
  12841  12840  12854  12858     1  0.0000000  0.6508444  3
  12841  12840  12854  12859     1  0.0000000  0.6508444  3
  12841  12844  12845  12847     1  0.0000000  0.6508444  3
  12841  12844  12852  12855     1  0.0000000  1.0460000  1
  12841  12844  12852  12855     1  0.0000000  0.6694400  3
  12842  12840  12841  12844     1  0.0000000  0.6508444  3
  12842  12840  12841  12853     1  0.0000000  1.0460000  1
  12842  12840  12841  12853     1  0.0000000  0.0000000  3
  12842  12840  12841  12843     1  0.0000000  0.6508444  3
  12842  12840  12854  12860     1  0.0000000  1.0460000  1
  12842  12840  12854  12860     1  0.0000000  0.0000000  3
  12842  12840  12854  12858     1  0.0000000  0.6508444  3
  12842  12840  12854  12859     1  0.0000000  0.6508444  3
  12842  12840  12862  12846     1  0.0000000  1.6038667  3
  12843  12841  12840  12854     1  0.0000000  0.6508444  3
  12843  12841  12840  12862     1  0.0000000  1.0460000  1
  12843  12841  12840  12862     1  0.0000000  0.0000000  3
  12843  12841  12844  12845     1  0.0000000  0.6508444  3
  12843  12841  12844  12852     1  0.0000000  1.0460000  1
  12843  12841  12844  12852     1  0.0000000  0.0000000  3
  12843  12841  12844  12848     1  0.0000000  0.6508444  3
  12843  12841  12853  12856     1  0.0000000  0.6973333  3
  12844  12841  12853  12856     1  0.0000000  1.0460000  1
  12844  12841  12853  12856     1  0.0000000  0.6694400  3
  12844  12845  12846  12849     1  0.0000000  0.6508444  3
  12844  12845  12851  12857     1  0.0000000  1.0460000  1
  12844  12845  12851  12857     1  0.0000000  0.6694400  3
  12845  12844  12852  12855     1  0.0000000  1.0460000  1
  12845  12844  12852  12855     1  0.0000000  0.6694400  3
  12846  12845  12844  12848     1  0.0000000  0.6508444  3
  12846  12845  12851  12857     1  0.0000000  1.0460000  1
  12846  12845  12851  12857     1  0.0000000  0.6694400  3
  12847  12845  12844  12852     1  0.0000000  1.0460000  1
  12847  12845  12844  12852     1  0.0000000  0.0000000  3
  12847  12845  12844  12848     1  0.0000000  0.6508444  3
  12847  12845  12846  12850     1  0.0000000  1.0460000  1
  12847  12845  12846  12850     1  0.0000000  0.0000000  3
  12847  12845  12846  12862     1  0.0000000  1.0460000  1
  12847  12845  12846  12862     1  0.0000000  0.0000000  3
  12847  12845  12846  12849     1  0.0000000  0.6508444  3
  12847  12845  12851  12857     1  0.0000000  0.6973333  3
  12848  12844  12841  12853     1  0.0000000  1.0460000  1
  12848  12844  12841  12853     1  0.0000000  0.0000000  3
  12848  12844  12845  12851     1  0.0000000  1.0460000  1
  12848  12844  12845  12851     1  0.0000000  0.0000000  3
  12848  12844  12852  12855     1  0.0000000  0.6973333  3
  12849  12846  12845  12851     1  0.0000000  0.6508444  3
  12858  12854  12840  12862     1  0.0000000  1.0460000  1
  12858  12854  12840  12862     1  0.0000000  0.0000000  3
  12858  12854  12860  12861     1  0.0000000  0.6973333  3
  12859  12854  12840  12862     1  0.0000000  1.0460000  1
  12859  12854  12840  12862     1  0.0000000  0.0000000  3
  12859  12854  12860  12861     1  0.0000000  0.6973333  3
  12863  12864  12867  12871     1  0.0000000  0.6508444  3
  12863  12864  12876  12879     1  0.0000000  1.0460000  1
  12863  12864  12876  12879     1  0.0000000  0.6694400  3
  12863  12877  12883  12884     1  0.0000000  1.0460000  1
  12863  12877  12883  12884     1  0.0000000  0.6694400  3
  12863  12885  12869  12872     1  0.0000000  1.6038667  3
  12864  12867  12868  12870     1  0.0000000  0.6508444  3
  12864  12867  12875  12878     1  0.0000000  1.0460000  1
  12864  12867  12875  12878     1  0.0000000  0.6694400  3
  12864  12863  12877  12881     1  0.0000000  0.6508444  3
  12864  12863  12877  12882     1  0.0000000  0.6508444  3
  12865  12863  12864  12867     1  0.0000000  0.6508444  3
  12865  12863  12864  12876     1  0.0000000  1.0460000  1
  12865  12863  12864  12876     1  0.0000000  0.0000000  3
  12865  12863  12864  12866     1  0.0000000  0.6508444  3
  12865  12863  12877  12883     1  0.0000000  1.0460000  1
  12865  12863  12877  12883     1  0.0000000  0.0000000  3
  12865  12863  12877  12881     1  0.0000000  0.6508444  3
  12865  12863  12877  12882     1  0.0000000  0.6508444  3
  12865  12863  12885  12869     1  0.0000000  1.6038667  3
  12866  12864  12867  12868     1  0.0000000  0.6508444  3
  12866  12864  12867  12875     1  0.0000000  1.0460000  1
  12866  12864  12867  12875     1  0.0000000  0.0000000  3
  12866  12864  12867  12871     1  0.0000000  0.6508444  3
  12866  12864  12876  12879     1  0.0000000  0.6973333  3
  12866  12864  12863  12877     1  0.0000000  0.6508444  3
  12866  12864  12863  12885     1  0.0000000  1.0460000  1
  12866  12864  12863  12885     1  0.0000000  0.0000000  3
  12867  12868  12869  12872     1  0.0000000  0.6508444  3
  12867  12868  12874  12880     1  0.0000000  1.0460000  1
  12867  12868  12874  12880     1  0.0000000  0.6694400  3
  12867  12864  12876  12879     1  0.0000000  1.0460000  1
  12867  12864  12876  12879     1  0.0000000  0.6694400  3
  12868  12867  12875  12878     1  0.0000000  1.0460000  1
  12868  12867  12875  12878     1  0.0000000  0.6694400  3
  12869  12868  12874  12880     1  0.0000000  1.0460000  1
  12869  12868  12874  12880     1  0.0000000  0.6694400  3
  12869  12868  12867  12871     1  0.0000000  0.6508444  3
  12870  12868  12869  12873     1  0.0000000  1.0460000  1
  12870  12868  12869  12873     1  0.0000000  0.0000000  3
  12870  12868  12869  12885     1  0.0000000  1.0460000  1
  12870  12868  12869  12885     1  0.0000000  0.0000000  3
  12870  12868  12869  12872     1  0.0000000  0.6508444  3
  12870  12868  12874  12880     1  0.0000000  0.6973333  3
  12870  12868  12867  12875     1  0.0000000  1.0460000  1
  12870  12868  12867  12875     1  0.0000000  0.0000000  3
  12870  12868  12867  12871     1  0.0000000  0.6508444  3
  12871  12867  12868  12874     1  0.0000000  1.0460000  1
  12871  12867  12868  12874     1  0.0000000  0.0000000  3
  12871  12867  12875  12878     1  0.0000000  0.6973333  3
  12871  12867  12864  12876     1  0.0000000  1.0460000  1
  12871  12867  12864  12876     1  0.0000000  0.0000000  3
  12872  12869  12868  12874     1  0.0000000  0.6508444  3
  12881  12877  12883  12884     1  0.0000000  0.6973333  3
  12881  12877  12863  12885     1  0.0000000  1.0460000  1
  12881  12877  12863  12885     1  0.0000000  0.0000000  3
  12882  12877  12883  12884     1  0.0000000  0.6973333  3
  12882  12877  12863  12885     1  0.0000000  1.0460000  1
  12882  12877  12863  12885     1  0.0000000  0.0000000  3
  12886  12887  12890  12894     1  0.0000000  0.6508444  3
  12886  12887  12899  12902     1  0.0000000  1.0460000  1
  12886  12887  12899  12902     1  0.0000000  0.6694400  3
  12886  12900  12906  12907     1  0.0000000  1.0460000  1
  12886  12900  12906  12907     1  0.0000000  0.6694400  3
  12886  12908  12892  12895     1  0.0000000  1.6038667  3
  12887  12886  12900  12904     1  0.0000000  0.6508444  3
  12887  12886  12900  12905     1  0.0000000  0.6508444  3
  12887  12890  12891  12893     1  0.0000000  0.6508444  3
  12887  12890  12898  12901     1  0.0000000  1.0460000  1
  12887  12890  12898  12901     1  0.0000000  0.6694400  3
  12888  12886  12887  12890     1  0.0000000  0.6508444  3
  12888  12886  12887  12899     1  0.0000000  1.0460000  1
  12888  12886  12887  12899     1  0.0000000  0.0000000  3
  12888  12886  12887  12889     1  0.0000000  0.6508444  3
  12888  12886  12900  12906     1  0.0000000  1.0460000  1
  12888  12886  12900  12906     1  0.0000000  0.0000000  3
  12888  12886  12900  12904     1  0.0000000  0.6508444  3
  12888  12886  12900  12905     1  0.0000000  0.6508444  3
  12888  12886  12908  12892     1  0.0000000  1.6038667  3
  12889  12887  12886  12900     1  0.0000000  0.6508444  3
  12889  12887  12886  12908     1  0.0000000  1.0460000  1
  12889  12887  12886  12908     1  0.0000000  0.0000000  3
  12889  12887  12890  12891     1  0.0000000  0.6508444  3
  12889  12887  12890  12898     1  0.0000000  1.0460000  1
  12889  12887  12890  12898     1  0.0000000  0.0000000  3
  12889  12887  12890  12894     1  0.0000000  0.6508444  3
  12889  12887  12899  12902     1  0.0000000  0.6973333  3
  12890  12887  12899  12902     1  0.0000000  1.0460000  1
  12890  12887  12899  12902     1  0.0000000  0.6694400  3
  12890  12891  12892  12895     1  0.0000000  0.6508444  3
  12890  12891  12897  12903     1  0.0000000  1.0460000  1
  12890  12891  12897  12903     1  0.0000000  0.6694400  3
  12891  12890  12898  12901     1  0.0000000  1.0460000  1
  12891  12890  12898  12901     1  0.0000000  0.6694400  3
  12892  12891  12890  12894     1  0.0000000  0.6508444  3
  12892  12891  12897  12903     1  0.0000000  1.0460000  1
  12892  12891  12897  12903     1  0.0000000  0.6694400  3
  12893  12891  12890  12898     1  0.0000000  1.0460000  1
  12893  12891  12890  12898     1  0.0000000  0.0000000  3
  12893  12891  12890  12894     1  0.0000000  0.6508444  3
  12893  12891  12892  12896     1  0.0000000  1.0460000  1
  12893  12891  12892  12896     1  0.0000000  0.0000000  3
  12893  12891  12892  12908     1  0.0000000  1.0460000  1
  12893  12891  12892  12908     1  0.0000000  0.0000000  3
  12893  12891  12892  12895     1  0.0000000  0.6508444  3
  12893  12891  12897  12903     1  0.0000000  0.6973333  3
  12894  12890  12887  12899     1  0.0000000  1.0460000  1
  12894  12890  12887  12899     1  0.0000000  0.0000000  3
  12894  12890  12891  12897     1  0.0000000  1.0460000  1
  12894  12890  12891  12897     1  0.0000000  0.0000000  3
  12894  12890  12898  12901     1  0.0000000  0.6973333  3
  12895  12892  12891  12897     1  0.0000000  0.6508444  3
  12904  12900  12886  12908     1  0.0000000  1.0460000  1
  12904  12900  12886  12908     1  0.0000000  0.0000000  3
  12904  12900  12906  12907     1  0.0000000  0.6973333  3
  12905  12900  12886  12908     1  0.0000000  1.0460000  1
  12905  12900  12886  12908     1  0.0000000  0.0000000  3
  12905  12900  12906  12907     1  0.0000000  0.6973333  3
  12909  12910  12913  12917     1  0.0000000  0.6508444  3
  12909  12910  12922  12925     1  0.0000000  1.0460000  1
  12909  12910  12922  12925     1  0.0000000  0.6694400  3
  12909  12923  12929  12930     1  0.0000000  1.0460000  1
  12909  12923  12929  12930     1  0.0000000  0.6694400  3
  12909  12931  12915  12918     1  0.0000000  1.6038667  3
  12910  12913  12914  12916     1  0.0000000  0.6508444  3
  12910  12913  12921  12924     1  0.0000000  1.0460000  1
  12910  12913  12921  12924     1  0.0000000  0.6694400  3
  12910  12909  12923  12927     1  0.0000000  0.6508444  3
  12910  12909  12923  12928     1  0.0000000  0.6508444  3
  12911  12909  12910  12913     1  0.0000000  0.6508444  3
  12911  12909  12910  12922     1  0.0000000  1.0460000  1
  12911  12909  12910  12922     1  0.0000000  0.0000000  3
  12911  12909  12910  12912     1  0.0000000  0.6508444  3
  12911  12909  12923  12929     1  0.0000000  1.0460000  1
  12911  12909  12923  12929     1  0.0000000  0.0000000  3
  12911  12909  12923  12927     1  0.0000000  0.6508444  3
  12911  12909  12923  12928     1  0.0000000  0.6508444  3
  12911  12909  12931  12915     1  0.0000000  1.6038667  3
  12912  12910  12913  12914     1  0.0000000  0.6508444  3
  12912  12910  12913  12921     1  0.0000000  1.0460000  1
  12912  12910  12913  12921     1  0.0000000  0.0000000  3
  12912  12910  12913  12917     1  0.0000000  0.6508444  3
  12912  12910  12922  12925     1  0.0000000  0.6973333  3
  12912  12910  12909  12923     1  0.0000000  0.6508444  3
  12912  12910  12909  12931     1  0.0000000  1.0460000  1
  12912  12910  12909  12931     1  0.0000000  0.0000000  3
  12913  12914  12915  12918     1  0.0000000  0.6508444  3
  12913  12914  12920  12926     1  0.0000000  1.0460000  1
  12913  12914  12920  12926     1  0.0000000  0.6694400  3
  12913  12910  12922  12925     1  0.0000000  1.0460000  1
  12913  12910  12922  12925     1  0.0000000  0.6694400  3
  12914  12913  12921  12924     1  0.0000000  1.0460000  1
  12914  12913  12921  12924     1  0.0000000  0.6694400  3
  12915  12914  12920  12926     1  0.0000000  1.0460000  1
  12915  12914  12920  12926     1  0.0000000  0.6694400  3
  12915  12914  12913  12917     1  0.0000000  0.6508444  3
  12916  12914  12915  12919     1  0.0000000  1.0460000  1
  12916  12914  12915  12919     1  0.0000000  0.0000000  3
  12916  12914  12915  12931     1  0.0000000  1.0460000  1
  12916  12914  12915  12931     1  0.0000000  0.0000000  3
  12916  12914  12915  12918     1  0.0000000  0.6508444  3
  12916  12914  12920  12926     1  0.0000000  0.6973333  3
  12916  12914  12913  12921     1  0.0000000  1.0460000  1
  12916  12914  12913  12921     1  0.0000000  0.0000000  3
  12916  12914  12913  12917     1  0.0000000  0.6508444  3
  12917  12913  12914  12920     1  0.0000000  1.0460000  1
  12917  12913  12914  12920     1  0.0000000  0.0000000  3
  12917  12913  12921  12924     1  0.0000000  0.6973333  3
  12917  12913  12910  12922     1  0.0000000  1.0460000  1
  12917  12913  12910  12922     1  0.0000000  0.0000000  3
  12918  12915  12914  12920     1  0.0000000  0.6508444  3
  12927  12923  12929  12930     1  0.0000000  0.6973333  3
  12927  12923  12909  12931     1  0.0000000  1.0460000  1
  12927  12923  12909  12931     1  0.0000000  0.0000000  3
  12928  12923  12929  12930     1  0.0000000  0.6973333  3
  12928  12923  12909  12931     1  0.0000000  1.0460000  1
  12928  12923  12909  12931     1  0.0000000  0.0000000  3
  12932  12933  12936  12940     1  0.0000000  0.6508444  3
  12932  12933  12945  12948     1  0.0000000  1.0460000  1
  12932  12933  12945  12948     1  0.0000000  0.6694400  3
  12932  12946  12952  12953     1  0.0000000  1.0460000  1
  12932  12946  12952  12953     1  0.0000000  0.6694400  3
  12932  12954  12938  12941     1  0.0000000  1.6038667  3
  12933  12932  12946  12950     1  0.0000000  0.6508444  3
  12933  12932  12946  12951     1  0.0000000  0.6508444  3
  12933  12936  12937  12939     1  0.0000000  0.6508444  3
  12933  12936  12944  12947     1  0.0000000  1.0460000  1
  12933  12936  12944  12947     1  0.0000000  0.6694400  3
  12934  12932  12933  12936     1  0.0000000  0.6508444  3
  12934  12932  12933  12945     1  0.0000000  1.0460000  1
  12934  12932  12933  12945     1  0.0000000  0.0000000  3
  12934  12932  12933  12935     1  0.0000000  0.6508444  3
  12934  12932  12946  12952     1  0.0000000  1.0460000  1
  12934  12932  12946  12952     1  0.0000000  0.0000000  3
  12934  12932  12946  12950     1  0.0000000  0.6508444  3
  12934  12932  12946  12951     1  0.0000000  0.6508444  3
  12934  12932  12954  12938     1  0.0000000  1.6038667  3
  12935  12933  12932  12946     1  0.0000000  0.6508444  3
  12935  12933  12932  12954     1  0.0000000  1.0460000  1
  12935  12933  12932  12954     1  0.0000000  0.0000000  3
  12935  12933  12936  12937     1  0.0000000  0.6508444  3
  12935  12933  12936  12944     1  0.0000000  1.0460000  1
  12935  12933  12936  12944     1  0.0000000  0.0000000  3
  12935  12933  12936  12940     1  0.0000000  0.6508444  3
  12935  12933  12945  12948     1  0.0000000  0.6973333  3
  12936  12933  12945  12948     1  0.0000000  1.0460000  1
  12936  12933  12945  12948     1  0.0000000  0.6694400  3
  12936  12937  12938  12941     1  0.0000000  0.6508444  3
  12936  12937  12943  12949     1  0.0000000  1.0460000  1
  12936  12937  12943  12949     1  0.0000000  0.6694400  3
  12937  12936  12944  12947     1  0.0000000  1.0460000  1
  12937  12936  12944  12947     1  0.0000000  0.6694400  3
  12938  12937  12936  12940     1  0.0000000  0.6508444  3
  12938  12937  12943  12949     1  0.0000000  1.0460000  1
  12938  12937  12943  12949     1  0.0000000  0.6694400  3
  12939  12937  12936  12944     1  0.0000000  1.0460000  1
  12939  12937  12936  12944     1  0.0000000  0.0000000  3
  12939  12937  12936  12940     1  0.0000000  0.6508444  3
  12939  12937  12938  12942     1  0.0000000  1.0460000  1
  12939  12937  12938  12942     1  0.0000000  0.0000000  3
  12939  12937  12938  12954     1  0.0000000  1.0460000  1
  12939  12937  12938  12954     1  0.0000000  0.0000000  3
  12939  12937  12938  12941     1  0.0000000  0.6508444  3
  12939  12937  12943  12949     1  0.0000000  0.6973333  3
  12940  12936  12933  12945     1  0.0000000  1.0460000  1
  12940  12936  12933  12945     1  0.0000000  0.0000000  3
  12940  12936  12937  12943     1  0.0000000  1.0460000  1
  12940  12936  12937  12943     1  0.0000000  0.0000000  3
  12940  12936  12944  12947     1  0.0000000  0.6973333  3
  12941  12938  12937  12943     1  0.0000000  0.6508444  3
  12950  12946  12932  12954     1  0.0000000  1.0460000  1
  12950  12946  12932  12954     1  0.0000000  0.0000000  3
  12950  12946  12952  12953     1  0.0000000  0.6973333  3
  12951  12946  12932  12954     1  0.0000000  1.0460000  1
  12951  12946  12932  12954     1  0.0000000  0.0000000  3
  12951  12946  12952  12953     1  0.0000000  0.6973333  3
  12955  12956  12959  12963     1  0.0000000  0.6508444  3
  12955  12956  12968  12971     1  0.0000000  1.0460000  1
  12955  12956  12968  12971     1  0.0000000  0.6694400  3
  12955  12969  12975  12976     1  0.0000000  1.0460000  1
  12955  12969  12975  12976     1  0.0000000  0.6694400  3
  12955  12977  12961  12964     1  0.0000000  1.6038667  3
  12956  12959  12960  12962     1  0.0000000  0.6508444  3
  12956  12959  12967  12970     1  0.0000000  1.0460000  1
  12956  12959  12967  12970     1  0.0000000  0.6694400  3
  12956  12955  12969  12973     1  0.0000000  0.6508444  3
  12956  12955  12969  12974     1  0.0000000  0.6508444  3
  12957  12955  12956  12959     1  0.0000000  0.6508444  3
  12957  12955  12956  12968     1  0.0000000  1.0460000  1
  12957  12955  12956  12968     1  0.0000000  0.0000000  3
  12957  12955  12956  12958     1  0.0000000  0.6508444  3
  12957  12955  12969  12975     1  0.0000000  1.0460000  1
  12957  12955  12969  12975     1  0.0000000  0.0000000  3
  12957  12955  12969  12973     1  0.0000000  0.6508444  3
  12957  12955  12969  12974     1  0.0000000  0.6508444  3
  12957  12955  12977  12961     1  0.0000000  1.6038667  3
  12958  12956  12959  12960     1  0.0000000  0.6508444  3
  12958  12956  12959  12967     1  0.0000000  1.0460000  1
  12958  12956  12959  12967     1  0.0000000  0.0000000  3
  12958  12956  12959  12963     1  0.0000000  0.6508444  3
  12958  12956  12968  12971     1  0.0000000  0.6973333  3
  12958  12956  12955  12969     1  0.0000000  0.6508444  3
  12958  12956  12955  12977     1  0.0000000  1.0460000  1
  12958  12956  12955  12977     1  0.0000000  0.0000000  3
  12959  12960  12961  12964     1  0.0000000  0.6508444  3
  12959  12960  12966  12972     1  0.0000000  1.0460000  1
  12959  12960  12966  12972     1  0.0000000  0.6694400  3
  12959  12956  12968  12971     1  0.0000000  1.0460000  1
  12959  12956  12968  12971     1  0.0000000  0.6694400  3
  12960  12959  12967  12970     1  0.0000000  1.0460000  1
  12960  12959  12967  12970     1  0.0000000  0.6694400  3
  12961  12960  12966  12972     1  0.0000000  1.0460000  1
  12961  12960  12966  12972     1  0.0000000  0.6694400  3
  12961  12960  12959  12963     1  0.0000000  0.6508444  3
  12962  12960  12961  12965     1  0.0000000  1.0460000  1
  12962  12960  12961  12965     1  0.0000000  0.0000000  3
  12962  12960  12961  12977     1  0.0000000  1.0460000  1
  12962  12960  12961  12977     1  0.0000000  0.0000000  3
  12962  12960  12961  12964     1  0.0000000  0.6508444  3
  12962  12960  12966  12972     1  0.0000000  0.6973333  3
  12962  12960  12959  12967     1  0.0000000  1.0460000  1
  12962  12960  12959  12967     1  0.0000000  0.0000000  3
  12962  12960  12959  12963     1  0.0000000  0.6508444  3
  12963  12959  12960  12966     1  0.0000000  1.0460000  1
  12963  12959  12960  12966     1  0.0000000  0.0000000  3
  12963  12959  12967  12970     1  0.0000000  0.6973333  3
  12963  12959  12956  12968     1  0.0000000  1.0460000  1
  12963  12959  12956  12968     1  0.0000000  0.0000000  3
  12964  12961  12960  12966     1  0.0000000  0.6508444  3
  12973  12969  12975  12976     1  0.0000000  0.6973333  3
  12973  12969  12955  12977     1  0.0000000  1.0460000  1
  12973  12969  12955  12977     1  0.0000000  0.0000000  3
  12974  12969  12975  12976     1  0.0000000  0.6973333  3
  12974  12969  12955  12977     1  0.0000000  1.0460000  1
  12974  12969  12955  12977     1  0.0000000  0.0000000  3
  12978  12979  12982  12986     1  0.0000000  0.6508444  3
  12978  12979  12991  12994     1  0.0000000  1.0460000  1
  12978  12979  12991  12994     1  0.0000000  0.6694400  3
  12978  12992  12998  12999     1  0.0000000  1.0460000  1
  12978  12992  12998  12999     1  0.0000000  0.6694400  3
  12978  13000  12984  12987     1  0.0000000  1.6038667  3
  12979  12978  12992  12996     1  0.0000000  0.6508444  3
  12979  12978  12992  12997     1  0.0000000  0.6508444  3
  12979  12982  12983  12985     1  0.0000000  0.6508444  3
  12979  12982  12990  12993     1  0.0000000  1.0460000  1
  12979  12982  12990  12993     1  0.0000000  0.6694400  3
  12980  12978  12979  12982     1  0.0000000  0.6508444  3
  12980  12978  12979  12991     1  0.0000000  1.0460000  1
  12980  12978  12979  12991     1  0.0000000  0.0000000  3
  12980  12978  12979  12981     1  0.0000000  0.6508444  3
  12980  12978  12992  12998     1  0.0000000  1.0460000  1
  12980  12978  12992  12998     1  0.0000000  0.0000000  3
  12980  12978  12992  12996     1  0.0000000  0.6508444  3
  12980  12978  12992  12997     1  0.0000000  0.6508444  3
  12980  12978  13000  12984     1  0.0000000  1.6038667  3
  12981  12979  12978  12992     1  0.0000000  0.6508444  3
  12981  12979  12978  13000     1  0.0000000  1.0460000  1
  12981  12979  12978  13000     1  0.0000000  0.0000000  3
  12981  12979  12982  12983     1  0.0000000  0.6508444  3
  12981  12979  12982  12990     1  0.0000000  1.0460000  1
  12981  12979  12982  12990     1  0.0000000  0.0000000  3
  12981  12979  12982  12986     1  0.0000000  0.6508444  3
  12981  12979  12991  12994     1  0.0000000  0.6973333  3
  12982  12979  12991  12994     1  0.0000000  1.0460000  1
  12982  12979  12991  12994     1  0.0000000  0.6694400  3
  12982  12983  12984  12987     1  0.0000000  0.6508444  3
  12982  12983  12989  12995     1  0.0000000  1.0460000  1
  12982  12983  12989  12995     1  0.0000000  0.6694400  3
  12983  12982  12990  12993     1  0.0000000  1.0460000  1
  12983  12982  12990  12993     1  0.0000000  0.6694400  3
  12984  12983  12982  12986     1  0.0000000  0.6508444  3
  12984  12983  12989  12995     1  0.0000000  1.0460000  1
  12984  12983  12989  12995     1  0.0000000  0.6694400  3
  12985  12983  12982  12990     1  0.0000000  1.0460000  1
  12985  12983  12982  12990     1  0.0000000  0.0000000  3
  12985  12983  12982  12986     1  0.0000000  0.6508444  3
  12985  12983  12984  12988     1  0.0000000  1.0460000  1
  12985  12983  12984  12988     1  0.0000000  0.0000000  3
  12985  12983  12984  13000     1  0.0000000  1.0460000  1
  12985  12983  12984  13000     1  0.0000000  0.0000000  3
  12985  12983  12984  12987     1  0.0000000  0.6508444  3
  12985  12983  12989  12995     1  0.0000000  0.6973333  3
  12986  12982  12979  12991     1  0.0000000  1.0460000  1
  12986  12982  12979  12991     1  0.0000000  0.0000000  3
  12986  12982  12983  12989     1  0.0000000  1.0460000  1
  12986  12982  12983  12989     1  0.0000000  0.0000000  3
  12986  12982  12990  12993     1  0.0000000  0.6973333  3
  12987  12984  12983  12989     1  0.0000000  0.6508444  3
  12996  12992  12978  13000     1  0.0000000  1.0460000  1
  12996  12992  12978  13000     1  0.0000000  0.0000000  3
  12996  12992  12998  12999     1  0.0000000  0.6973333  3
  12997  12992  12978  13000     1  0.0000000  1.0460000  1
  12997  12992  12978  13000     1  0.0000000  0.0000000  3
  12997  12992  12998  12999     1  0.0000000  0.6973333  3
  13001  13002  13005  13009     1  0.0000000  0.6508444  3
  13001  13002  13014  13017     1  0.0000000  1.0460000  1
  13001  13002  13014  13017     1  0.0000000  0.6694400  3
  13001  13015  13021  13022     1  0.0000000  1.0460000  1
  13001  13015  13021  13022     1  0.0000000  0.6694400  3
  13001  13023  13007  13010     1  0.0000000  1.6038667  3
  13002  13005  13006  13008     1  0.0000000  0.6508444  3
  13002  13005  13013  13016     1  0.0000000  1.0460000  1
  13002  13005  13013  13016     1  0.0000000  0.6694400  3
  13002  13001  13015  13019     1  0.0000000  0.6508444  3
  13002  13001  13015  13020     1  0.0000000  0.6508444  3
  13003  13001  13002  13005     1  0.0000000  0.6508444  3
  13003  13001  13002  13014     1  0.0000000  1.0460000  1
  13003  13001  13002  13014     1  0.0000000  0.0000000  3
  13003  13001  13002  13004     1  0.0000000  0.6508444  3
  13003  13001  13015  13021     1  0.0000000  1.0460000  1
  13003  13001  13015  13021     1  0.0000000  0.0000000  3
  13003  13001  13015  13019     1  0.0000000  0.6508444  3
  13003  13001  13015  13020     1  0.0000000  0.6508444  3
  13003  13001  13023  13007     1  0.0000000  1.6038667  3
  13004  13002  13005  13006     1  0.0000000  0.6508444  3
  13004  13002  13005  13013     1  0.0000000  1.0460000  1
  13004  13002  13005  13013     1  0.0000000  0.0000000  3
  13004  13002  13005  13009     1  0.0000000  0.6508444  3
  13004  13002  13014  13017     1  0.0000000  0.6973333  3
  13004  13002  13001  13015     1  0.0000000  0.6508444  3
  13004  13002  13001  13023     1  0.0000000  1.0460000  1
  13004  13002  13001  13023     1  0.0000000  0.0000000  3
  13005  13006  13007  13010     1  0.0000000  0.6508444  3
  13005  13006  13012  13018     1  0.0000000  1.0460000  1
  13005  13006  13012  13018     1  0.0000000  0.6694400  3
  13005  13002  13014  13017     1  0.0000000  1.0460000  1
  13005  13002  13014  13017     1  0.0000000  0.6694400  3
  13006  13005  13013  13016     1  0.0000000  1.0460000  1
  13006  13005  13013  13016     1  0.0000000  0.6694400  3
  13007  13006  13012  13018     1  0.0000000  1.0460000  1
  13007  13006  13012  13018     1  0.0000000  0.6694400  3
  13007  13006  13005  13009     1  0.0000000  0.6508444  3
  13008  13006  13007  13011     1  0.0000000  1.0460000  1
  13008  13006  13007  13011     1  0.0000000  0.0000000  3
  13008  13006  13007  13023     1  0.0000000  1.0460000  1
  13008  13006  13007  13023     1  0.0000000  0.0000000  3
  13008  13006  13007  13010     1  0.0000000  0.6508444  3
  13008  13006  13012  13018     1  0.0000000  0.6973333  3
  13008  13006  13005  13013     1  0.0000000  1.0460000  1
  13008  13006  13005  13013     1  0.0000000  0.0000000  3
  13008  13006  13005  13009     1  0.0000000  0.6508444  3
  13009  13005  13006  13012     1  0.0000000  1.0460000  1
  13009  13005  13006  13012     1  0.0000000  0.0000000  3
  13009  13005  13013  13016     1  0.0000000  0.6973333  3
  13009  13005  13002  13014     1  0.0000000  1.0460000  1
  13009  13005  13002  13014     1  0.0000000  0.0000000  3
  13010  13007  13006  13012     1  0.0000000  0.6508444  3
  13019  13015  13021  13022     1  0.0000000  0.6973333  3
  13019  13015  13001  13023     1  0.0000000  1.0460000  1
  13019  13015  13001  13023     1  0.0000000  0.0000000  3
  13020  13015  13021  13022     1  0.0000000  0.6973333  3
  13020  13015  13001  13023     1  0.0000000  1.0460000  1
  13020  13015  13001  13023     1  0.0000000  0.0000000  3
  13024  13025  13028  13032     1  0.0000000  0.6508444  3
  13024  13025  13037  13040     1  0.0000000  1.0460000  1
  13024  13025  13037  13040     1  0.0000000  0.6694400  3
  13024  13038  13044  13045     1  0.0000000  1.0460000  1
  13024  13038  13044  13045     1  0.0000000  0.6694400  3
  13024  13046  13030  13033     1  0.0000000  1.6038667  3
  13025  13024  13038  13042     1  0.0000000  0.6508444  3
  13025  13024  13038  13043     1  0.0000000  0.6508444  3
  13025  13028  13029  13031     1  0.0000000  0.6508444  3
  13025  13028  13036  13039     1  0.0000000  1.0460000  1
  13025  13028  13036  13039     1  0.0000000  0.6694400  3
  13026  13024  13025  13028     1  0.0000000  0.6508444  3
  13026  13024  13025  13037     1  0.0000000  1.0460000  1
  13026  13024  13025  13037     1  0.0000000  0.0000000  3
  13026  13024  13025  13027     1  0.0000000  0.6508444  3
  13026  13024  13038  13044     1  0.0000000  1.0460000  1
  13026  13024  13038  13044     1  0.0000000  0.0000000  3
  13026  13024  13038  13042     1  0.0000000  0.6508444  3
  13026  13024  13038  13043     1  0.0000000  0.6508444  3
  13026  13024  13046  13030     1  0.0000000  1.6038667  3
  13027  13025  13024  13038     1  0.0000000  0.6508444  3
  13027  13025  13024  13046     1  0.0000000  1.0460000  1
  13027  13025  13024  13046     1  0.0000000  0.0000000  3
  13027  13025  13028  13029     1  0.0000000  0.6508444  3
  13027  13025  13028  13036     1  0.0000000  1.0460000  1
  13027  13025  13028  13036     1  0.0000000  0.0000000  3
  13027  13025  13028  13032     1  0.0000000  0.6508444  3
  13027  13025  13037  13040     1  0.0000000  0.6973333  3
  13028  13025  13037  13040     1  0.0000000  1.0460000  1
  13028  13025  13037  13040     1  0.0000000  0.6694400  3
  13028  13029  13030  13033     1  0.0000000  0.6508444  3
  13028  13029  13035  13041     1  0.0000000  1.0460000  1
  13028  13029  13035  13041     1  0.0000000  0.6694400  3
  13029  13028  13036  13039     1  0.0000000  1.0460000  1
  13029  13028  13036  13039     1  0.0000000  0.6694400  3
  13030  13029  13028  13032     1  0.0000000  0.6508444  3
  13030  13029  13035  13041     1  0.0000000  1.0460000  1
  13030  13029  13035  13041     1  0.0000000  0.6694400  3
  13031  13029  13028  13036     1  0.0000000  1.0460000  1
  13031  13029  13028  13036     1  0.0000000  0.0000000  3
  13031  13029  13028  13032     1  0.0000000  0.6508444  3
  13031  13029  13030  13034     1  0.0000000  1.0460000  1
  13031  13029  13030  13034     1  0.0000000  0.0000000  3
  13031  13029  13030  13046     1  0.0000000  1.0460000  1
  13031  13029  13030  13046     1  0.0000000  0.0000000  3
  13031  13029  13030  13033     1  0.0000000  0.6508444  3
  13031  13029  13035  13041     1  0.0000000  0.6973333  3
  13032  13028  13025  13037     1  0.0000000  1.0460000  1
  13032  13028  13025  13037     1  0.0000000  0.0000000  3
  13032  13028  13029  13035     1  0.0000000  1.0460000  1
  13032  13028  13029  13035     1  0.0000000  0.0000000  3
  13032  13028  13036  13039     1  0.0000000  0.6973333  3
  13033  13030  13029  13035     1  0.0000000  0.6508444  3
  13042  13038  13024  13046     1  0.0000000  1.0460000  1
  13042  13038  13024  13046     1  0.0000000  0.0000000  3
  13042  13038  13044  13045     1  0.0000000  0.6973333  3
  13043  13038  13024  13046     1  0.0000000  1.0460000  1
  13043  13038  13024  13046     1  0.0000000  0.0000000  3
  13043  13038  13044  13045     1  0.0000000  0.6973333  3
  13047  13048  13051  13055     1  0.0000000  0.6508444  3
  13047  13048  13060  13063     1  0.0000000  1.0460000  1
  13047  13048  13060  13063     1  0.0000000  0.6694400  3
  13047  13061  13067  13068     1  0.0000000  1.0460000  1
  13047  13061  13067  13068     1  0.0000000  0.6694400  3
  13047  13069  13053  13056     1  0.0000000  1.6038667  3
  13048  13051  13052  13054     1  0.0000000  0.6508444  3
  13048  13051  13059  13062     1  0.0000000  1.0460000  1
  13048  13051  13059  13062     1  0.0000000  0.6694400  3
  13048  13047  13061  13065     1  0.0000000  0.6508444  3
  13048  13047  13061  13066     1  0.0000000  0.6508444  3
  13049  13047  13048  13051     1  0.0000000  0.6508444  3
  13049  13047  13048  13060     1  0.0000000  1.0460000  1
  13049  13047  13048  13060     1  0.0000000  0.0000000  3
  13049  13047  13048  13050     1  0.0000000  0.6508444  3
  13049  13047  13061  13067     1  0.0000000  1.0460000  1
  13049  13047  13061  13067     1  0.0000000  0.0000000  3
  13049  13047  13061  13065     1  0.0000000  0.6508444  3
  13049  13047  13061  13066     1  0.0000000  0.6508444  3
  13049  13047  13069  13053     1  0.0000000  1.6038667  3
  13050  13048  13051  13052     1  0.0000000  0.6508444  3
  13050  13048  13051  13059     1  0.0000000  1.0460000  1
  13050  13048  13051  13059     1  0.0000000  0.0000000  3
  13050  13048  13051  13055     1  0.0000000  0.6508444  3
  13050  13048  13060  13063     1  0.0000000  0.6973333  3
  13050  13048  13047  13061     1  0.0000000  0.6508444  3
  13050  13048  13047  13069     1  0.0000000  1.0460000  1
  13050  13048  13047  13069     1  0.0000000  0.0000000  3
  13051  13052  13053  13056     1  0.0000000  0.6508444  3
  13051  13052  13058  13064     1  0.0000000  1.0460000  1
  13051  13052  13058  13064     1  0.0000000  0.6694400  3
  13051  13048  13060  13063     1  0.0000000  1.0460000  1
  13051  13048  13060  13063     1  0.0000000  0.6694400  3
  13052  13051  13059  13062     1  0.0000000  1.0460000  1
  13052  13051  13059  13062     1  0.0000000  0.6694400  3
  13053  13052  13058  13064     1  0.0000000  1.0460000  1
  13053  13052  13058  13064     1  0.0000000  0.6694400  3
  13053  13052  13051  13055     1  0.0000000  0.6508444  3
  13054  13052  13053  13057     1  0.0000000  1.0460000  1
  13054  13052  13053  13057     1  0.0000000  0.0000000  3
  13054  13052  13053  13069     1  0.0000000  1.0460000  1
  13054  13052  13053  13069     1  0.0000000  0.0000000  3
  13054  13052  13053  13056     1  0.0000000  0.6508444  3
  13054  13052  13058  13064     1  0.0000000  0.6973333  3
  13054  13052  13051  13059     1  0.0000000  1.0460000  1
  13054  13052  13051  13059     1  0.0000000  0.0000000  3
  13054  13052  13051  13055     1  0.0000000  0.6508444  3
  13055  13051  13052  13058     1  0.0000000  1.0460000  1
  13055  13051  13052  13058     1  0.0000000  0.0000000  3
  13055  13051  13059  13062     1  0.0000000  0.6973333  3
  13055  13051  13048  13060     1  0.0000000  1.0460000  1
  13055  13051  13048  13060     1  0.0000000  0.0000000  3
  13056  13053  13052  13058     1  0.0000000  0.6508444  3
  13065  13061  13067  13068     1  0.0000000  0.6973333  3
  13065  13061  13047  13069     1  0.0000000  1.0460000  1
  13065  13061  13047  13069     1  0.0000000  0.0000000  3
  13066  13061  13067  13068     1  0.0000000  0.6973333  3
  13066  13061  13047  13069     1  0.0000000  1.0460000  1
  13066  13061  13047  13069     1  0.0000000  0.0000000  3
  13070  13071  13074  13078     1  0.0000000  0.6508444  3
  13070  13071  13083  13086     1  0.0000000  1.0460000  1
  13070  13071  13083  13086     1  0.0000000  0.6694400  3
  13070  13084  13090  13091     1  0.0000000  1.0460000  1
  13070  13084  13090  13091     1  0.0000000  0.6694400  3
  13070  13092  13076  13079     1  0.0000000  1.6038667  3
  13071  13070  13084  13088     1  0.0000000  0.6508444  3
  13071  13070  13084  13089     1  0.0000000  0.6508444  3
  13071  13074  13075  13077     1  0.0000000  0.6508444  3
  13071  13074  13082  13085     1  0.0000000  1.0460000  1
  13071  13074  13082  13085     1  0.0000000  0.6694400  3
  13072  13070  13071  13074     1  0.0000000  0.6508444  3
  13072  13070  13071  13083     1  0.0000000  1.0460000  1
  13072  13070  13071  13083     1  0.0000000  0.0000000  3
  13072  13070  13071  13073     1  0.0000000  0.6508444  3
  13072  13070  13084  13090     1  0.0000000  1.0460000  1
  13072  13070  13084  13090     1  0.0000000  0.0000000  3
  13072  13070  13084  13088     1  0.0000000  0.6508444  3
  13072  13070  13084  13089     1  0.0000000  0.6508444  3
  13072  13070  13092  13076     1  0.0000000  1.6038667  3
  13073  13071  13070  13084     1  0.0000000  0.6508444  3
  13073  13071  13070  13092     1  0.0000000  1.0460000  1
  13073  13071  13070  13092     1  0.0000000  0.0000000  3
  13073  13071  13074  13075     1  0.0000000  0.6508444  3
  13073  13071  13074  13082     1  0.0000000  1.0460000  1
  13073  13071  13074  13082     1  0.0000000  0.0000000  3
  13073  13071  13074  13078     1  0.0000000  0.6508444  3
  13073  13071  13083  13086     1  0.0000000  0.6973333  3
  13074  13071  13083  13086     1  0.0000000  1.0460000  1
  13074  13071  13083  13086     1  0.0000000  0.6694400  3
  13074  13075  13076  13079     1  0.0000000  0.6508444  3
  13074  13075  13081  13087     1  0.0000000  1.0460000  1
  13074  13075  13081  13087     1  0.0000000  0.6694400  3
  13075  13074  13082  13085     1  0.0000000  1.0460000  1
  13075  13074  13082  13085     1  0.0000000  0.6694400  3
  13076  13075  13074  13078     1  0.0000000  0.6508444  3
  13076  13075  13081  13087     1  0.0000000  1.0460000  1
  13076  13075  13081  13087     1  0.0000000  0.6694400  3
  13077  13075  13074  13082     1  0.0000000  1.0460000  1
  13077  13075  13074  13082     1  0.0000000  0.0000000  3
  13077  13075  13074  13078     1  0.0000000  0.6508444  3
  13077  13075  13076  13080     1  0.0000000  1.0460000  1
  13077  13075  13076  13080     1  0.0000000  0.0000000  3
  13077  13075  13076  13092     1  0.0000000  1.0460000  1
  13077  13075  13076  13092     1  0.0000000  0.0000000  3
  13077  13075  13076  13079     1  0.0000000  0.6508444  3
  13077  13075  13081  13087     1  0.0000000  0.6973333  3
  13078  13074  13071  13083     1  0.0000000  1.0460000  1
  13078  13074  13071  13083     1  0.0000000  0.0000000  3
  13078  13074  13075  13081     1  0.0000000  1.0460000  1
  13078  13074  13075  13081     1  0.0000000  0.0000000  3
  13078  13074  13082  13085     1  0.0000000  0.6973333  3
  13079  13076  13075  13081     1  0.0000000  0.6508444  3
  13088  13084  13070  13092     1  0.0000000  1.0460000  1
  13088  13084  13070  13092     1  0.0000000  0.0000000  3
  13088  13084  13090  13091     1  0.0000000  0.6973333  3
  13089  13084  13070  13092     1  0.0000000  1.0460000  1
  13089  13084  13070  13092     1  0.0000000  0.0000000  3
  13089  13084  13090  13091     1  0.0000000  0.6973333  3
  13093  13094  13097  13101     1  0.0000000  0.6508444  3
  13093  13094  13106  13109     1  0.0000000  1.0460000  1
  13093  13094  13106  13109     1  0.0000000  0.6694400  3
  13093  13107  13113  13114     1  0.0000000  1.0460000  1
  13093  13107  13113  13114     1  0.0000000  0.6694400  3
  13093  13115  13099  13102     1  0.0000000  1.6038667  3
  13094  13097  13098  13100     1  0.0000000  0.6508444  3
  13094  13097  13105  13108     1  0.0000000  1.0460000  1
  13094  13097  13105  13108     1  0.0000000  0.6694400  3
  13094  13093  13107  13111     1  0.0000000  0.6508444  3
  13094  13093  13107  13112     1  0.0000000  0.6508444  3
  13095  13093  13094  13097     1  0.0000000  0.6508444  3
  13095  13093  13094  13106     1  0.0000000  1.0460000  1
  13095  13093  13094  13106     1  0.0000000  0.0000000  3
  13095  13093  13094  13096     1  0.0000000  0.6508444  3
  13095  13093  13107  13113     1  0.0000000  1.0460000  1
  13095  13093  13107  13113     1  0.0000000  0.0000000  3
  13095  13093  13107  13111     1  0.0000000  0.6508444  3
  13095  13093  13107  13112     1  0.0000000  0.6508444  3
  13095  13093  13115  13099     1  0.0000000  1.6038667  3
  13096  13094  13097  13098     1  0.0000000  0.6508444  3
  13096  13094  13097  13105     1  0.0000000  1.0460000  1
  13096  13094  13097  13105     1  0.0000000  0.0000000  3
  13096  13094  13097  13101     1  0.0000000  0.6508444  3
  13096  13094  13106  13109     1  0.0000000  0.6973333  3
  13096  13094  13093  13107     1  0.0000000  0.6508444  3
  13096  13094  13093  13115     1  0.0000000  1.0460000  1
  13096  13094  13093  13115     1  0.0000000  0.0000000  3
  13097  13098  13099  13102     1  0.0000000  0.6508444  3
  13097  13098  13104  13110     1  0.0000000  1.0460000  1
  13097  13098  13104  13110     1  0.0000000  0.6694400  3
  13097  13094  13106  13109     1  0.0000000  1.0460000  1
  13097  13094  13106  13109     1  0.0000000  0.6694400  3
  13098  13097  13105  13108     1  0.0000000  1.0460000  1
  13098  13097  13105  13108     1  0.0000000  0.6694400  3
  13099  13098  13104  13110     1  0.0000000  1.0460000  1
  13099  13098  13104  13110     1  0.0000000  0.6694400  3
  13099  13098  13097  13101     1  0.0000000  0.6508444  3
  13100  13098  13099  13103     1  0.0000000  1.0460000  1
  13100  13098  13099  13103     1  0.0000000  0.0000000  3
  13100  13098  13099  13115     1  0.0000000  1.0460000  1
  13100  13098  13099  13115     1  0.0000000  0.0000000  3
  13100  13098  13099  13102     1  0.0000000  0.6508444  3
  13100  13098  13104  13110     1  0.0000000  0.6973333  3
  13100  13098  13097  13105     1  0.0000000  1.0460000  1
  13100  13098  13097  13105     1  0.0000000  0.0000000  3
  13100  13098  13097  13101     1  0.0000000  0.6508444  3
  13101  13097  13098  13104     1  0.0000000  1.0460000  1
  13101  13097  13098  13104     1  0.0000000  0.0000000  3
  13101  13097  13105  13108     1  0.0000000  0.6973333  3
  13101  13097  13094  13106     1  0.0000000  1.0460000  1
  13101  13097  13094  13106     1  0.0000000  0.0000000  3
  13102  13099  13098  13104     1  0.0000000  0.6508444  3
  13111  13107  13113  13114     1  0.0000000  0.6973333  3
  13111  13107  13093  13115     1  0.0000000  1.0460000  1
  13111  13107  13093  13115     1  0.0000000  0.0000000  3
  13112  13107  13113  13114     1  0.0000000  0.6973333  3
  13112  13107  13093  13115     1  0.0000000  1.0460000  1
  13112  13107  13093  13115     1  0.0000000  0.0000000  3
  13116  13117  13120  13124     1  0.0000000  0.6508444  3
  13116  13117  13129  13132     1  0.0000000  1.0460000  1
  13116  13117  13129  13132     1  0.0000000  0.6694400  3
  13116  13130  13136  13137     1  0.0000000  1.0460000  1
  13116  13130  13136  13137     1  0.0000000  0.6694400  3
  13116  13138  13122  13125     1  0.0000000  1.6038667  3
  13117  13116  13130  13134     1  0.0000000  0.6508444  3
  13117  13116  13130  13135     1  0.0000000  0.6508444  3
  13117  13120  13121  13123     1  0.0000000  0.6508444  3
  13117  13120  13128  13131     1  0.0000000  1.0460000  1
  13117  13120  13128  13131     1  0.0000000  0.6694400  3
  13118  13116  13117  13120     1  0.0000000  0.6508444  3
  13118  13116  13117  13129     1  0.0000000  1.0460000  1
  13118  13116  13117  13129     1  0.0000000  0.0000000  3
  13118  13116  13117  13119     1  0.0000000  0.6508444  3
  13118  13116  13130  13136     1  0.0000000  1.0460000  1
  13118  13116  13130  13136     1  0.0000000  0.0000000  3
  13118  13116  13130  13134     1  0.0000000  0.6508444  3
  13118  13116  13130  13135     1  0.0000000  0.6508444  3
  13118  13116  13138  13122     1  0.0000000  1.6038667  3
  13119  13117  13116  13130     1  0.0000000  0.6508444  3
  13119  13117  13116  13138     1  0.0000000  1.0460000  1
  13119  13117  13116  13138     1  0.0000000  0.0000000  3
  13119  13117  13120  13121     1  0.0000000  0.6508444  3
  13119  13117  13120  13128     1  0.0000000  1.0460000  1
  13119  13117  13120  13128     1  0.0000000  0.0000000  3
  13119  13117  13120  13124     1  0.0000000  0.6508444  3
  13119  13117  13129  13132     1  0.0000000  0.6973333  3
  13120  13117  13129  13132     1  0.0000000  1.0460000  1
  13120  13117  13129  13132     1  0.0000000  0.6694400  3
  13120  13121  13122  13125     1  0.0000000  0.6508444  3
  13120  13121  13127  13133     1  0.0000000  1.0460000  1
  13120  13121  13127  13133     1  0.0000000  0.6694400  3
  13121  13120  13128  13131     1  0.0000000  1.0460000  1
  13121  13120  13128  13131     1  0.0000000  0.6694400  3
  13122  13121  13120  13124     1  0.0000000  0.6508444  3
  13122  13121  13127  13133     1  0.0000000  1.0460000  1
  13122  13121  13127  13133     1  0.0000000  0.6694400  3
  13123  13121  13120  13128     1  0.0000000  1.0460000  1
  13123  13121  13120  13128     1  0.0000000  0.0000000  3
  13123  13121  13120  13124     1  0.0000000  0.6508444  3
  13123  13121  13122  13126     1  0.0000000  1.0460000  1
  13123  13121  13122  13126     1  0.0000000  0.0000000  3
  13123  13121  13122  13138     1  0.0000000  1.0460000  1
  13123  13121  13122  13138     1  0.0000000  0.0000000  3
  13123  13121  13122  13125     1  0.0000000  0.6508444  3
  13123  13121  13127  13133     1  0.0000000  0.6973333  3
  13124  13120  13117  13129     1  0.0000000  1.0460000  1
  13124  13120  13117  13129     1  0.0000000  0.0000000  3
  13124  13120  13121  13127     1  0.0000000  1.0460000  1
  13124  13120  13121  13127     1  0.0000000  0.0000000  3
  13124  13120  13128  13131     1  0.0000000  0.6973333  3
  13125  13122  13121  13127     1  0.0000000  0.6508444  3
  13134  13130  13116  13138     1  0.0000000  1.0460000  1
  13134  13130  13116  13138     1  0.0000000  0.0000000  3
  13134  13130  13136  13137     1  0.0000000  0.6973333  3
  13135  13130  13116  13138     1  0.0000000  1.0460000  1
  13135  13130  13116  13138     1  0.0000000  0.0000000  3
  13135  13130  13136  13137     1  0.0000000  0.6973333  3
  13139  13140  13143  13147     1  0.0000000  0.6508444  3
  13139  13140  13152  13155     1  0.0000000  1.0460000  1
  13139  13140  13152  13155     1  0.0000000  0.6694400  3
  13139  13153  13159  13160     1  0.0000000  1.0460000  1
  13139  13153  13159  13160     1  0.0000000  0.6694400  3
  13139  13161  13145  13148     1  0.0000000  1.6038667  3
  13140  13143  13144  13146     1  0.0000000  0.6508444  3
  13140  13143  13151  13154     1  0.0000000  1.0460000  1
  13140  13143  13151  13154     1  0.0000000  0.6694400  3
  13140  13139  13153  13157     1  0.0000000  0.6508444  3
  13140  13139  13153  13158     1  0.0000000  0.6508444  3
  13141  13139  13140  13143     1  0.0000000  0.6508444  3
  13141  13139  13140  13152     1  0.0000000  1.0460000  1
  13141  13139  13140  13152     1  0.0000000  0.0000000  3
  13141  13139  13140  13142     1  0.0000000  0.6508444  3
  13141  13139  13153  13159     1  0.0000000  1.0460000  1
  13141  13139  13153  13159     1  0.0000000  0.0000000  3
  13141  13139  13153  13157     1  0.0000000  0.6508444  3
  13141  13139  13153  13158     1  0.0000000  0.6508444  3
  13141  13139  13161  13145     1  0.0000000  1.6038667  3
  13142  13140  13143  13144     1  0.0000000  0.6508444  3
  13142  13140  13143  13151     1  0.0000000  1.0460000  1
  13142  13140  13143  13151     1  0.0000000  0.0000000  3
  13142  13140  13143  13147     1  0.0000000  0.6508444  3
  13142  13140  13152  13155     1  0.0000000  0.6973333  3
  13142  13140  13139  13153     1  0.0000000  0.6508444  3
  13142  13140  13139  13161     1  0.0000000  1.0460000  1
  13142  13140  13139  13161     1  0.0000000  0.0000000  3
  13143  13144  13145  13148     1  0.0000000  0.6508444  3
  13143  13144  13150  13156     1  0.0000000  1.0460000  1
  13143  13144  13150  13156     1  0.0000000  0.6694400  3
  13143  13140  13152  13155     1  0.0000000  1.0460000  1
  13143  13140  13152  13155     1  0.0000000  0.6694400  3
  13144  13143  13151  13154     1  0.0000000  1.0460000  1
  13144  13143  13151  13154     1  0.0000000  0.6694400  3
  13145  13144  13150  13156     1  0.0000000  1.0460000  1
  13145  13144  13150  13156     1  0.0000000  0.6694400  3
  13145  13144  13143  13147     1  0.0000000  0.6508444  3
  13146  13144  13145  13149     1  0.0000000  1.0460000  1
  13146  13144  13145  13149     1  0.0000000  0.0000000  3
  13146  13144  13145  13161     1  0.0000000  1.0460000  1
  13146  13144  13145  13161     1  0.0000000  0.0000000  3
  13146  13144  13145  13148     1  0.0000000  0.6508444  3
  13146  13144  13150  13156     1  0.0000000  0.6973333  3
  13146  13144  13143  13151     1  0.0000000  1.0460000  1
  13146  13144  13143  13151     1  0.0000000  0.0000000  3
  13146  13144  13143  13147     1  0.0000000  0.6508444  3
  13147  13143  13144  13150     1  0.0000000  1.0460000  1
  13147  13143  13144  13150     1  0.0000000  0.0000000  3
  13147  13143  13151  13154     1  0.0000000  0.6973333  3
  13147  13143  13140  13152     1  0.0000000  1.0460000  1
  13147  13143  13140  13152     1  0.0000000  0.0000000  3
  13148  13145  13144  13150     1  0.0000000  0.6508444  3
  13157  13153  13159  13160     1  0.0000000  0.6973333  3
  13157  13153  13139  13161     1  0.0000000  1.0460000  1
  13157  13153  13139  13161     1  0.0000000  0.0000000  3
  13158  13153  13159  13160     1  0.0000000  0.6973333  3
  13158  13153  13139  13161     1  0.0000000  1.0460000  1
  13158  13153  13139  13161     1  0.0000000  0.0000000  3
  13162  13163  13166  13170     1  0.0000000  0.6508444  3
  13162  13163  13175  13178     1  0.0000000  1.0460000  1
  13162  13163  13175  13178     1  0.0000000  0.6694400  3
  13162  13176  13182  13183     1  0.0000000  1.0460000  1
  13162  13176  13182  13183     1  0.0000000  0.6694400  3
  13162  13184  13168  13171     1  0.0000000  1.6038667  3
  13163  13162  13176  13180     1  0.0000000  0.6508444  3
  13163  13162  13176  13181     1  0.0000000  0.6508444  3
  13163  13166  13167  13169     1  0.0000000  0.6508444  3
  13163  13166  13174  13177     1  0.0000000  1.0460000  1
  13163  13166  13174  13177     1  0.0000000  0.6694400  3
  13164  13162  13163  13166     1  0.0000000  0.6508444  3
  13164  13162  13163  13175     1  0.0000000  1.0460000  1
  13164  13162  13163  13175     1  0.0000000  0.0000000  3
  13164  13162  13163  13165     1  0.0000000  0.6508444  3
  13164  13162  13176  13182     1  0.0000000  1.0460000  1
  13164  13162  13176  13182     1  0.0000000  0.0000000  3
  13164  13162  13176  13180     1  0.0000000  0.6508444  3
  13164  13162  13176  13181     1  0.0000000  0.6508444  3
  13164  13162  13184  13168     1  0.0000000  1.6038667  3
  13165  13163  13162  13176     1  0.0000000  0.6508444  3
  13165  13163  13162  13184     1  0.0000000  1.0460000  1
  13165  13163  13162  13184     1  0.0000000  0.0000000  3
  13165  13163  13166  13167     1  0.0000000  0.6508444  3
  13165  13163  13166  13174     1  0.0000000  1.0460000  1
  13165  13163  13166  13174     1  0.0000000  0.0000000  3
  13165  13163  13166  13170     1  0.0000000  0.6508444  3
  13165  13163  13175  13178     1  0.0000000  0.6973333  3
  13166  13163  13175  13178     1  0.0000000  1.0460000  1
  13166  13163  13175  13178     1  0.0000000  0.6694400  3
  13166  13167  13168  13171     1  0.0000000  0.6508444  3
  13166  13167  13173  13179     1  0.0000000  1.0460000  1
  13166  13167  13173  13179     1  0.0000000  0.6694400  3
  13167  13166  13174  13177     1  0.0000000  1.0460000  1
  13167  13166  13174  13177     1  0.0000000  0.6694400  3
  13168  13167  13166  13170     1  0.0000000  0.6508444  3
  13168  13167  13173  13179     1  0.0000000  1.0460000  1
  13168  13167  13173  13179     1  0.0000000  0.6694400  3
  13169  13167  13166  13174     1  0.0000000  1.0460000  1
  13169  13167  13166  13174     1  0.0000000  0.0000000  3
  13169  13167  13166  13170     1  0.0000000  0.6508444  3
  13169  13167  13168  13172     1  0.0000000  1.0460000  1
  13169  13167  13168  13172     1  0.0000000  0.0000000  3
  13169  13167  13168  13184     1  0.0000000  1.0460000  1
  13169  13167  13168  13184     1  0.0000000  0.0000000  3
  13169  13167  13168  13171     1  0.0000000  0.6508444  3
  13169  13167  13173  13179     1  0.0000000  0.6973333  3
  13170  13166  13163  13175     1  0.0000000  1.0460000  1
  13170  13166  13163  13175     1  0.0000000  0.0000000  3
  13170  13166  13167  13173     1  0.0000000  1.0460000  1
  13170  13166  13167  13173     1  0.0000000  0.0000000  3
  13170  13166  13174  13177     1  0.0000000  0.6973333  3
  13171  13168  13167  13173     1  0.0000000  0.6508444  3
  13180  13176  13162  13184     1  0.0000000  1.0460000  1
  13180  13176  13162  13184     1  0.0000000  0.0000000  3
  13180  13176  13182  13183     1  0.0000000  0.6973333  3
  13181  13176  13162  13184     1  0.0000000  1.0460000  1
  13181  13176  13162  13184     1  0.0000000  0.0000000  3
  13181  13176  13182  13183     1  0.0000000  0.6973333  3
  13185  13186  13189  13193     1  0.0000000  0.6508444  3
  13185  13186  13198  13201     1  0.0000000  1.0460000  1
  13185  13186  13198  13201     1  0.0000000  0.6694400  3
  13185  13199  13205  13206     1  0.0000000  1.0460000  1
  13185  13199  13205  13206     1  0.0000000  0.6694400  3
  13185  13207  13191  13194     1  0.0000000  1.6038667  3
  13186  13189  13190  13192     1  0.0000000  0.6508444  3
  13186  13189  13197  13200     1  0.0000000  1.0460000  1
  13186  13189  13197  13200     1  0.0000000  0.6694400  3
  13186  13185  13199  13203     1  0.0000000  0.6508444  3
  13186  13185  13199  13204     1  0.0000000  0.6508444  3
  13187  13185  13186  13189     1  0.0000000  0.6508444  3
  13187  13185  13186  13198     1  0.0000000  1.0460000  1
  13187  13185  13186  13198     1  0.0000000  0.0000000  3
  13187  13185  13186  13188     1  0.0000000  0.6508444  3
  13187  13185  13199  13205     1  0.0000000  1.0460000  1
  13187  13185  13199  13205     1  0.0000000  0.0000000  3
  13187  13185  13199  13203     1  0.0000000  0.6508444  3
  13187  13185  13199  13204     1  0.0000000  0.6508444  3
  13187  13185  13207  13191     1  0.0000000  1.6038667  3
  13188  13186  13189  13190     1  0.0000000  0.6508444  3
  13188  13186  13189  13197     1  0.0000000  1.0460000  1
  13188  13186  13189  13197     1  0.0000000  0.0000000  3
  13188  13186  13189  13193     1  0.0000000  0.6508444  3
  13188  13186  13198  13201     1  0.0000000  0.6973333  3
  13188  13186  13185  13199     1  0.0000000  0.6508444  3
  13188  13186  13185  13207     1  0.0000000  1.0460000  1
  13188  13186  13185  13207     1  0.0000000  0.0000000  3
  13189  13190  13191  13194     1  0.0000000  0.6508444  3
  13189  13190  13196  13202     1  0.0000000  1.0460000  1
  13189  13190  13196  13202     1  0.0000000  0.6694400  3
  13189  13186  13198  13201     1  0.0000000  1.0460000  1
  13189  13186  13198  13201     1  0.0000000  0.6694400  3
  13190  13189  13197  13200     1  0.0000000  1.0460000  1
  13190  13189  13197  13200     1  0.0000000  0.6694400  3
  13191  13190  13196  13202     1  0.0000000  1.0460000  1
  13191  13190  13196  13202     1  0.0000000  0.6694400  3
  13191  13190  13189  13193     1  0.0000000  0.6508444  3
  13192  13190  13191  13195     1  0.0000000  1.0460000  1
  13192  13190  13191  13195     1  0.0000000  0.0000000  3
  13192  13190  13191  13207     1  0.0000000  1.0460000  1
  13192  13190  13191  13207     1  0.0000000  0.0000000  3
  13192  13190  13191  13194     1  0.0000000  0.6508444  3
  13192  13190  13196  13202     1  0.0000000  0.6973333  3
  13192  13190  13189  13197     1  0.0000000  1.0460000  1
  13192  13190  13189  13197     1  0.0000000  0.0000000  3
  13192  13190  13189  13193     1  0.0000000  0.6508444  3
  13193  13189  13190  13196     1  0.0000000  1.0460000  1
  13193  13189  13190  13196     1  0.0000000  0.0000000  3
  13193  13189  13197  13200     1  0.0000000  0.6973333  3
  13193  13189  13186  13198     1  0.0000000  1.0460000  1
  13193  13189  13186  13198     1  0.0000000  0.0000000  3
  13194  13191  13190  13196     1  0.0000000  0.6508444  3
  13203  13199  13205  13206     1  0.0000000  0.6973333  3
  13203  13199  13185  13207     1  0.0000000  1.0460000  1
  13203  13199  13185  13207     1  0.0000000  0.0000000  3
  13204  13199  13205  13206     1  0.0000000  0.6973333  3
  13204  13199  13185  13207     1  0.0000000  1.0460000  1
  13204  13199  13185  13207     1  0.0000000  0.0000000  3
  13208  13209  13212  13216     1  0.0000000  0.6508444  3
  13208  13209  13221  13224     1  0.0000000  1.0460000  1
  13208  13209  13221  13224     1  0.0000000  0.6694400  3
  13208  13222  13228  13229     1  0.0000000  1.0460000  1
  13208  13222  13228  13229     1  0.0000000  0.6694400  3
  13208  13230  13214  13217     1  0.0000000  1.6038667  3
  13209  13208  13222  13226     1  0.0000000  0.6508444  3
  13209  13208  13222  13227     1  0.0000000  0.6508444  3
  13209  13212  13213  13215     1  0.0000000  0.6508444  3
  13209  13212  13220  13223     1  0.0000000  1.0460000  1
  13209  13212  13220  13223     1  0.0000000  0.6694400  3
  13210  13208  13209  13212     1  0.0000000  0.6508444  3
  13210  13208  13209  13221     1  0.0000000  1.0460000  1
  13210  13208  13209  13221     1  0.0000000  0.0000000  3
  13210  13208  13209  13211     1  0.0000000  0.6508444  3
  13210  13208  13222  13228     1  0.0000000  1.0460000  1
  13210  13208  13222  13228     1  0.0000000  0.0000000  3
  13210  13208  13222  13226     1  0.0000000  0.6508444  3
  13210  13208  13222  13227     1  0.0000000  0.6508444  3
  13210  13208  13230  13214     1  0.0000000  1.6038667  3
  13211  13209  13208  13222     1  0.0000000  0.6508444  3
  13211  13209  13208  13230     1  0.0000000  1.0460000  1
  13211  13209  13208  13230     1  0.0000000  0.0000000  3
  13211  13209  13212  13213     1  0.0000000  0.6508444  3
  13211  13209  13212  13220     1  0.0000000  1.0460000  1
  13211  13209  13212  13220     1  0.0000000  0.0000000  3
  13211  13209  13212  13216     1  0.0000000  0.6508444  3
  13211  13209  13221  13224     1  0.0000000  0.6973333  3
  13212  13209  13221  13224     1  0.0000000  1.0460000  1
  13212  13209  13221  13224     1  0.0000000  0.6694400  3
  13212  13213  13214  13217     1  0.0000000  0.6508444  3
  13212  13213  13219  13225     1  0.0000000  1.0460000  1
  13212  13213  13219  13225     1  0.0000000  0.6694400  3
  13213  13212  13220  13223     1  0.0000000  1.0460000  1
  13213  13212  13220  13223     1  0.0000000  0.6694400  3
  13214  13213  13212  13216     1  0.0000000  0.6508444  3
  13214  13213  13219  13225     1  0.0000000  1.0460000  1
  13214  13213  13219  13225     1  0.0000000  0.6694400  3
  13215  13213  13212  13220     1  0.0000000  1.0460000  1
  13215  13213  13212  13220     1  0.0000000  0.0000000  3
  13215  13213  13212  13216     1  0.0000000  0.6508444  3
  13215  13213  13214  13218     1  0.0000000  1.0460000  1
  13215  13213  13214  13218     1  0.0000000  0.0000000  3
  13215  13213  13214  13230     1  0.0000000  1.0460000  1
  13215  13213  13214  13230     1  0.0000000  0.0000000  3
  13215  13213  13214  13217     1  0.0000000  0.6508444  3
  13215  13213  13219  13225     1  0.0000000  0.6973333  3
  13216  13212  13209  13221     1  0.0000000  1.0460000  1
  13216  13212  13209  13221     1  0.0000000  0.0000000  3
  13216  13212  13213  13219     1  0.0000000  1.0460000  1
  13216  13212  13213  13219     1  0.0000000  0.0000000  3
  13216  13212  13220  13223     1  0.0000000  0.6973333  3
  13217  13214  13213  13219     1  0.0000000  0.6508444  3
  13226  13222  13208  13230     1  0.0000000  1.0460000  1
  13226  13222  13208  13230     1  0.0000000  0.0000000  3
  13226  13222  13228  13229     1  0.0000000  0.6973333  3
  13227  13222  13208  13230     1  0.0000000  1.0460000  1
  13227  13222  13208  13230     1  0.0000000  0.0000000  3
  13227  13222  13228  13229     1  0.0000000  0.6973333  3
  13231  13232  13235  13239     1  0.0000000  0.6508444  3
  13231  13232  13244  13247     1  0.0000000  1.0460000  1
  13231  13232  13244  13247     1  0.0000000  0.6694400  3
  13231  13245  13251  13252     1  0.0000000  1.0460000  1
  13231  13245  13251  13252     1  0.0000000  0.6694400  3
  13231  13253  13237  13240     1  0.0000000  1.6038667  3
  13232  13235  13236  13238     1  0.0000000  0.6508444  3
  13232  13235  13243  13246     1  0.0000000  1.0460000  1
  13232  13235  13243  13246     1  0.0000000  0.6694400  3
  13232  13231  13245  13249     1  0.0000000  0.6508444  3
  13232  13231  13245  13250     1  0.0000000  0.6508444  3
  13233  13231  13232  13235     1  0.0000000  0.6508444  3
  13233  13231  13232  13244     1  0.0000000  1.0460000  1
  13233  13231  13232  13244     1  0.0000000  0.0000000  3
  13233  13231  13232  13234     1  0.0000000  0.6508444  3
  13233  13231  13245  13251     1  0.0000000  1.0460000  1
  13233  13231  13245  13251     1  0.0000000  0.0000000  3
  13233  13231  13245  13249     1  0.0000000  0.6508444  3
  13233  13231  13245  13250     1  0.0000000  0.6508444  3
  13233  13231  13253  13237     1  0.0000000  1.6038667  3
  13234  13232  13235  13236     1  0.0000000  0.6508444  3
  13234  13232  13235  13243     1  0.0000000  1.0460000  1
  13234  13232  13235  13243     1  0.0000000  0.0000000  3
  13234  13232  13235  13239     1  0.0000000  0.6508444  3
  13234  13232  13244  13247     1  0.0000000  0.6973333  3
  13234  13232  13231  13245     1  0.0000000  0.6508444  3
  13234  13232  13231  13253     1  0.0000000  1.0460000  1
  13234  13232  13231  13253     1  0.0000000  0.0000000  3
  13235  13236  13237  13240     1  0.0000000  0.6508444  3
  13235  13236  13242  13248     1  0.0000000  1.0460000  1
  13235  13236  13242  13248     1  0.0000000  0.6694400  3
  13235  13232  13244  13247     1  0.0000000  1.0460000  1
  13235  13232  13244  13247     1  0.0000000  0.6694400  3
  13236  13235  13243  13246     1  0.0000000  1.0460000  1
  13236  13235  13243  13246     1  0.0000000  0.6694400  3
  13237  13236  13242  13248     1  0.0000000  1.0460000  1
  13237  13236  13242  13248     1  0.0000000  0.6694400  3
  13237  13236  13235  13239     1  0.0000000  0.6508444  3
  13238  13236  13237  13241     1  0.0000000  1.0460000  1
  13238  13236  13237  13241     1  0.0000000  0.0000000  3
  13238  13236  13237  13253     1  0.0000000  1.0460000  1
  13238  13236  13237  13253     1  0.0000000  0.0000000  3
  13238  13236  13237  13240     1  0.0000000  0.6508444  3
  13238  13236  13242  13248     1  0.0000000  0.6973333  3
  13238  13236  13235  13243     1  0.0000000  1.0460000  1
  13238  13236  13235  13243     1  0.0000000  0.0000000  3
  13238  13236  13235  13239     1  0.0000000  0.6508444  3
  13239  13235  13236  13242     1  0.0000000  1.0460000  1
  13239  13235  13236  13242     1  0.0000000  0.0000000  3
  13239  13235  13243  13246     1  0.0000000  0.6973333  3
  13239  13235  13232  13244     1  0.0000000  1.0460000  1
  13239  13235  13232  13244     1  0.0000000  0.0000000  3
  13240  13237  13236  13242     1  0.0000000  0.6508444  3
  13249  13245  13251  13252     1  0.0000000  0.6973333  3
  13249  13245  13231  13253     1  0.0000000  1.0460000  1
  13249  13245  13231  13253     1  0.0000000  0.0000000  3
  13250  13245  13251  13252     1  0.0000000  0.6973333  3
  13250  13245  13231  13253     1  0.0000000  1.0460000  1
  13250  13245  13231  13253     1  0.0000000  0.0000000  3
  13254  13255  13258  13262     1  0.0000000  0.6508444  3
  13254  13255  13267  13270     1  0.0000000  1.0460000  1
  13254  13255  13267  13270     1  0.0000000  0.6694400  3
  13254  13268  13274  13275     1  0.0000000  1.0460000  1
  13254  13268  13274  13275     1  0.0000000  0.6694400  3
  13254  13276  13260  13263     1  0.0000000  1.6038667  3
  13255  13254  13268  13272     1  0.0000000  0.6508444  3
  13255  13254  13268  13273     1  0.0000000  0.6508444  3
  13255  13258  13259  13261     1  0.0000000  0.6508444  3
  13255  13258  13266  13269     1  0.0000000  1.0460000  1
  13255  13258  13266  13269     1  0.0000000  0.6694400  3
  13256  13254  13255  13258     1  0.0000000  0.6508444  3
  13256  13254  13255  13267     1  0.0000000  1.0460000  1
  13256  13254  13255  13267     1  0.0000000  0.0000000  3
  13256  13254  13255  13257     1  0.0000000  0.6508444  3
  13256  13254  13268  13274     1  0.0000000  1.0460000  1
  13256  13254  13268  13274     1  0.0000000  0.0000000  3
  13256  13254  13268  13272     1  0.0000000  0.6508444  3
  13256  13254  13268  13273     1  0.0000000  0.6508444  3
  13256  13254  13276  13260     1  0.0000000  1.6038667  3
  13257  13255  13254  13268     1  0.0000000  0.6508444  3
  13257  13255  13254  13276     1  0.0000000  1.0460000  1
  13257  13255  13254  13276     1  0.0000000  0.0000000  3
  13257  13255  13258  13259     1  0.0000000  0.6508444  3
  13257  13255  13258  13266     1  0.0000000  1.0460000  1
  13257  13255  13258  13266     1  0.0000000  0.0000000  3
  13257  13255  13258  13262     1  0.0000000  0.6508444  3
  13257  13255  13267  13270     1  0.0000000  0.6973333  3
  13258  13255  13267  13270     1  0.0000000  1.0460000  1
  13258  13255  13267  13270     1  0.0000000  0.6694400  3
  13258  13259  13260  13263     1  0.0000000  0.6508444  3
  13258  13259  13265  13271     1  0.0000000  1.0460000  1
  13258  13259  13265  13271     1  0.0000000  0.6694400  3
  13259  13258  13266  13269     1  0.0000000  1.0460000  1
  13259  13258  13266  13269     1  0.0000000  0.6694400  3
  13260  13259  13258  13262     1  0.0000000  0.6508444  3
  13260  13259  13265  13271     1  0.0000000  1.0460000  1
  13260  13259  13265  13271     1  0.0000000  0.6694400  3
  13261  13259  13258  13266     1  0.0000000  1.0460000  1
  13261  13259  13258  13266     1  0.0000000  0.0000000  3
  13261  13259  13258  13262     1  0.0000000  0.6508444  3
  13261  13259  13260  13264     1  0.0000000  1.0460000  1
  13261  13259  13260  13264     1  0.0000000  0.0000000  3
  13261  13259  13260  13276     1  0.0000000  1.0460000  1
  13261  13259  13260  13276     1  0.0000000  0.0000000  3
  13261  13259  13260  13263     1  0.0000000  0.6508444  3
  13261  13259  13265  13271     1  0.0000000  0.6973333  3
  13262  13258  13255  13267     1  0.0000000  1.0460000  1
  13262  13258  13255  13267     1  0.0000000  0.0000000  3
  13262  13258  13259  13265     1  0.0000000  1.0460000  1
  13262  13258  13259  13265     1  0.0000000  0.0000000  3
  13262  13258  13266  13269     1  0.0000000  0.6973333  3
  13263  13260  13259  13265     1  0.0000000  0.6508444  3
  13272  13268  13254  13276     1  0.0000000  1.0460000  1
  13272  13268  13254  13276     1  0.0000000  0.0000000  3
  13272  13268  13274  13275     1  0.0000000  0.6973333  3
  13273  13268  13254  13276     1  0.0000000  1.0460000  1
  13273  13268  13254  13276     1  0.0000000  0.0000000  3
  13273  13268  13274  13275     1  0.0000000  0.6973333  3
  13277  13278  13281  13285     1  0.0000000  0.6508444  3
  13277  13278  13290  13293     1  0.0000000  1.0460000  1
  13277  13278  13290  13293     1  0.0000000  0.6694400  3
  13277  13291  13297  13298     1  0.0000000  1.0460000  1
  13277  13291  13297  13298     1  0.0000000  0.6694400  3
  13277  13299  13283  13286     1  0.0000000  1.6038667  3
  13278  13281  13282  13284     1  0.0000000  0.6508444  3
  13278  13281  13289  13292     1  0.0000000  1.0460000  1
  13278  13281  13289  13292     1  0.0000000  0.6694400  3
  13278  13277  13291  13295     1  0.0000000  0.6508444  3
  13278  13277  13291  13296     1  0.0000000  0.6508444  3
  13279  13277  13278  13281     1  0.0000000  0.6508444  3
  13279  13277  13278  13290     1  0.0000000  1.0460000  1
  13279  13277  13278  13290     1  0.0000000  0.0000000  3
  13279  13277  13278  13280     1  0.0000000  0.6508444  3
  13279  13277  13291  13297     1  0.0000000  1.0460000  1
  13279  13277  13291  13297     1  0.0000000  0.0000000  3
  13279  13277  13291  13295     1  0.0000000  0.6508444  3
  13279  13277  13291  13296     1  0.0000000  0.6508444  3
  13279  13277  13299  13283     1  0.0000000  1.6038667  3
  13280  13278  13281  13282     1  0.0000000  0.6508444  3
  13280  13278  13281  13289     1  0.0000000  1.0460000  1
  13280  13278  13281  13289     1  0.0000000  0.0000000  3
  13280  13278  13281  13285     1  0.0000000  0.6508444  3
  13280  13278  13290  13293     1  0.0000000  0.6973333  3
  13280  13278  13277  13291     1  0.0000000  0.6508444  3
  13280  13278  13277  13299     1  0.0000000  1.0460000  1
  13280  13278  13277  13299     1  0.0000000  0.0000000  3
  13281  13282  13283  13286     1  0.0000000  0.6508444  3
  13281  13282  13288  13294     1  0.0000000  1.0460000  1
  13281  13282  13288  13294     1  0.0000000  0.6694400  3
  13281  13278  13290  13293     1  0.0000000  1.0460000  1
  13281  13278  13290  13293     1  0.0000000  0.6694400  3
  13282  13281  13289  13292     1  0.0000000  1.0460000  1
  13282  13281  13289  13292     1  0.0000000  0.6694400  3
  13283  13282  13288  13294     1  0.0000000  1.0460000  1
  13283  13282  13288  13294     1  0.0000000  0.6694400  3
  13283  13282  13281  13285     1  0.0000000  0.6508444  3
  13284  13282  13283  13287     1  0.0000000  1.0460000  1
  13284  13282  13283  13287     1  0.0000000  0.0000000  3
  13284  13282  13283  13299     1  0.0000000  1.0460000  1
  13284  13282  13283  13299     1  0.0000000  0.0000000  3
  13284  13282  13283  13286     1  0.0000000  0.6508444  3
  13284  13282  13288  13294     1  0.0000000  0.6973333  3
  13284  13282  13281  13289     1  0.0000000  1.0460000  1
  13284  13282  13281  13289     1  0.0000000  0.0000000  3
  13284  13282  13281  13285     1  0.0000000  0.6508444  3
  13285  13281  13282  13288     1  0.0000000  1.0460000  1
  13285  13281  13282  13288     1  0.0000000  0.0000000  3
  13285  13281  13289  13292     1  0.0000000  0.6973333  3
  13285  13281  13278  13290     1  0.0000000  1.0460000  1
  13285  13281  13278  13290     1  0.0000000  0.0000000  3
  13286  13283  13282  13288     1  0.0000000  0.6508444  3
  13295  13291  13297  13298     1  0.0000000  0.6973333  3
  13295  13291  13277  13299     1  0.0000000  1.0460000  1
  13295  13291  13277  13299     1  0.0000000  0.0000000  3
  13296  13291  13297  13298     1  0.0000000  0.6973333  3
  13296  13291  13277  13299     1  0.0000000  1.0460000  1
  13296  13291  13277  13299     1  0.0000000  0.0000000  3
  13300  13301  13304  13308     1  0.0000000  0.6508444  3
  13300  13301  13313  13316     1  0.0000000  1.0460000  1
  13300  13301  13313  13316     1  0.0000000  0.6694400  3
  13300  13314  13320  13321     1  0.0000000  1.0460000  1
  13300  13314  13320  13321     1  0.0000000  0.6694400  3
  13300  13322  13306  13309     1  0.0000000  1.6038667  3
  13301  13300  13314  13318     1  0.0000000  0.6508444  3
  13301  13300  13314  13319     1  0.0000000  0.6508444  3
  13301  13304  13305  13307     1  0.0000000  0.6508444  3
  13301  13304  13312  13315     1  0.0000000  1.0460000  1
  13301  13304  13312  13315     1  0.0000000  0.6694400  3
  13302  13300  13301  13304     1  0.0000000  0.6508444  3
  13302  13300  13301  13313     1  0.0000000  1.0460000  1
  13302  13300  13301  13313     1  0.0000000  0.0000000  3
  13302  13300  13301  13303     1  0.0000000  0.6508444  3
  13302  13300  13314  13320     1  0.0000000  1.0460000  1
  13302  13300  13314  13320     1  0.0000000  0.0000000  3
  13302  13300  13314  13318     1  0.0000000  0.6508444  3
  13302  13300  13314  13319     1  0.0000000  0.6508444  3
  13302  13300  13322  13306     1  0.0000000  1.6038667  3
  13303  13301  13300  13314     1  0.0000000  0.6508444  3
  13303  13301  13300  13322     1  0.0000000  1.0460000  1
  13303  13301  13300  13322     1  0.0000000  0.0000000  3
  13303  13301  13304  13305     1  0.0000000  0.6508444  3
  13303  13301  13304  13312     1  0.0000000  1.0460000  1
  13303  13301  13304  13312     1  0.0000000  0.0000000  3
  13303  13301  13304  13308     1  0.0000000  0.6508444  3
  13303  13301  13313  13316     1  0.0000000  0.6973333  3
  13304  13301  13313  13316     1  0.0000000  1.0460000  1
  13304  13301  13313  13316     1  0.0000000  0.6694400  3
  13304  13305  13306  13309     1  0.0000000  0.6508444  3
  13304  13305  13311  13317     1  0.0000000  1.0460000  1
  13304  13305  13311  13317     1  0.0000000  0.6694400  3
  13305  13304  13312  13315     1  0.0000000  1.0460000  1
  13305  13304  13312  13315     1  0.0000000  0.6694400  3
  13306  13305  13304  13308     1  0.0000000  0.6508444  3
  13306  13305  13311  13317     1  0.0000000  1.0460000  1
  13306  13305  13311  13317     1  0.0000000  0.6694400  3
  13307  13305  13304  13312     1  0.0000000  1.0460000  1
  13307  13305  13304  13312     1  0.0000000  0.0000000  3
  13307  13305  13304  13308     1  0.0000000  0.6508444  3
  13307  13305  13306  13310     1  0.0000000  1.0460000  1
  13307  13305  13306  13310     1  0.0000000  0.0000000  3
  13307  13305  13306  13322     1  0.0000000  1.0460000  1
  13307  13305  13306  13322     1  0.0000000  0.0000000  3
  13307  13305  13306  13309     1  0.0000000  0.6508444  3
  13307  13305  13311  13317     1  0.0000000  0.6973333  3
  13308  13304  13301  13313     1  0.0000000  1.0460000  1
  13308  13304  13301  13313     1  0.0000000  0.0000000  3
  13308  13304  13305  13311     1  0.0000000  1.0460000  1
  13308  13304  13305  13311     1  0.0000000  0.0000000  3
  13308  13304  13312  13315     1  0.0000000  0.6973333  3
  13309  13306  13305  13311     1  0.0000000  0.6508444  3
  13318  13314  13300  13322     1  0.0000000  1.0460000  1
  13318  13314  13300  13322     1  0.0000000  0.0000000  3
  13318  13314  13320  13321     1  0.0000000  0.6973333  3
  13319  13314  13300  13322     1  0.0000000  1.0460000  1
  13319  13314  13300  13322     1  0.0000000  0.0000000  3
  13319  13314  13320  13321     1  0.0000000  0.6973333  3
  13323  13324  13327  13331     1  0.0000000  0.6508444  3
  13323  13324  13336  13339     1  0.0000000  1.0460000  1
  13323  13324  13336  13339     1  0.0000000  0.6694400  3
  13323  13337  13343  13344     1  0.0000000  1.0460000  1
  13323  13337  13343  13344     1  0.0000000  0.6694400  3
  13323  13345  13329  13332     1  0.0000000  1.6038667  3
  13324  13327  13328  13330     1  0.0000000  0.6508444  3
  13324  13327  13335  13338     1  0.0000000  1.0460000  1
  13324  13327  13335  13338     1  0.0000000  0.6694400  3
  13324  13323  13337  13341     1  0.0000000  0.6508444  3
  13324  13323  13337  13342     1  0.0000000  0.6508444  3
  13325  13323  13324  13327     1  0.0000000  0.6508444  3
  13325  13323  13324  13336     1  0.0000000  1.0460000  1
  13325  13323  13324  13336     1  0.0000000  0.0000000  3
  13325  13323  13324  13326     1  0.0000000  0.6508444  3
  13325  13323  13337  13343     1  0.0000000  1.0460000  1
  13325  13323  13337  13343     1  0.0000000  0.0000000  3
  13325  13323  13337  13341     1  0.0000000  0.6508444  3
  13325  13323  13337  13342     1  0.0000000  0.6508444  3
  13325  13323  13345  13329     1  0.0000000  1.6038667  3
  13326  13324  13327  13328     1  0.0000000  0.6508444  3
  13326  13324  13327  13335     1  0.0000000  1.0460000  1
  13326  13324  13327  13335     1  0.0000000  0.0000000  3
  13326  13324  13327  13331     1  0.0000000  0.6508444  3
  13326  13324  13336  13339     1  0.0000000  0.6973333  3
  13326  13324  13323  13337     1  0.0000000  0.6508444  3
  13326  13324  13323  13345     1  0.0000000  1.0460000  1
  13326  13324  13323  13345     1  0.0000000  0.0000000  3
  13327  13328  13329  13332     1  0.0000000  0.6508444  3
  13327  13328  13334  13340     1  0.0000000  1.0460000  1
  13327  13328  13334  13340     1  0.0000000  0.6694400  3
  13327  13324  13336  13339     1  0.0000000  1.0460000  1
  13327  13324  13336  13339     1  0.0000000  0.6694400  3
  13328  13327  13335  13338     1  0.0000000  1.0460000  1
  13328  13327  13335  13338     1  0.0000000  0.6694400  3
  13329  13328  13334  13340     1  0.0000000  1.0460000  1
  13329  13328  13334  13340     1  0.0000000  0.6694400  3
  13329  13328  13327  13331     1  0.0000000  0.6508444  3
  13330  13328  13329  13333     1  0.0000000  1.0460000  1
  13330  13328  13329  13333     1  0.0000000  0.0000000  3
  13330  13328  13329  13345     1  0.0000000  1.0460000  1
  13330  13328  13329  13345     1  0.0000000  0.0000000  3
  13330  13328  13329  13332     1  0.0000000  0.6508444  3
  13330  13328  13334  13340     1  0.0000000  0.6973333  3
  13330  13328  13327  13335     1  0.0000000  1.0460000  1
  13330  13328  13327  13335     1  0.0000000  0.0000000  3
  13330  13328  13327  13331     1  0.0000000  0.6508444  3
  13331  13327  13328  13334     1  0.0000000  1.0460000  1
  13331  13327  13328  13334     1  0.0000000  0.0000000  3
  13331  13327  13335  13338     1  0.0000000  0.6973333  3
  13331  13327  13324  13336     1  0.0000000  1.0460000  1
  13331  13327  13324  13336     1  0.0000000  0.0000000  3
  13332  13329  13328  13334     1  0.0000000  0.6508444  3
  13341  13337  13343  13344     1  0.0000000  0.6973333  3
  13341  13337  13323  13345     1  0.0000000  1.0460000  1
  13341  13337  13323  13345     1  0.0000000  0.0000000  3
  13342  13337  13343  13344     1  0.0000000  0.6973333  3
  13342  13337  13323  13345     1  0.0000000  1.0460000  1
  13342  13337  13323  13345     1  0.0000000  0.0000000  3
  13346  13347  13350  13354     1  0.0000000  0.6508444  3
  13346  13347  13359  13362     1  0.0000000  1.0460000  1
  13346  13347  13359  13362     1  0.0000000  0.6694400  3
  13346  13360  13366  13367     1  0.0000000  1.0460000  1
  13346  13360  13366  13367     1  0.0000000  0.6694400  3
  13346  13368  13352  13355     1  0.0000000  1.6038667  3
  13347  13346  13360  13364     1  0.0000000  0.6508444  3
  13347  13346  13360  13365     1  0.0000000  0.6508444  3
  13347  13350  13351  13353     1  0.0000000  0.6508444  3
  13347  13350  13358  13361     1  0.0000000  1.0460000  1
  13347  13350  13358  13361     1  0.0000000  0.6694400  3
  13348  13346  13347  13350     1  0.0000000  0.6508444  3
  13348  13346  13347  13359     1  0.0000000  1.0460000  1
  13348  13346  13347  13359     1  0.0000000  0.0000000  3
  13348  13346  13347  13349     1  0.0000000  0.6508444  3
  13348  13346  13360  13366     1  0.0000000  1.0460000  1
  13348  13346  13360  13366     1  0.0000000  0.0000000  3
  13348  13346  13360  13364     1  0.0000000  0.6508444  3
  13348  13346  13360  13365     1  0.0000000  0.6508444  3
  13348  13346  13368  13352     1  0.0000000  1.6038667  3
  13349  13347  13346  13360     1  0.0000000  0.6508444  3
  13349  13347  13346  13368     1  0.0000000  1.0460000  1
  13349  13347  13346  13368     1  0.0000000  0.0000000  3
  13349  13347  13350  13351     1  0.0000000  0.6508444  3
  13349  13347  13350  13358     1  0.0000000  1.0460000  1
  13349  13347  13350  13358     1  0.0000000  0.0000000  3
  13349  13347  13350  13354     1  0.0000000  0.6508444  3
  13349  13347  13359  13362     1  0.0000000  0.6973333  3
  13350  13347  13359  13362     1  0.0000000  1.0460000  1
  13350  13347  13359  13362     1  0.0000000  0.6694400  3
  13350  13351  13352  13355     1  0.0000000  0.6508444  3
  13350  13351  13357  13363     1  0.0000000  1.0460000  1
  13350  13351  13357  13363     1  0.0000000  0.6694400  3
  13351  13350  13358  13361     1  0.0000000  1.0460000  1
  13351  13350  13358  13361     1  0.0000000  0.6694400  3
  13352  13351  13350  13354     1  0.0000000  0.6508444  3
  13352  13351  13357  13363     1  0.0000000  1.0460000  1
  13352  13351  13357  13363     1  0.0000000  0.6694400  3
  13353  13351  13350  13358     1  0.0000000  1.0460000  1
  13353  13351  13350  13358     1  0.0000000  0.0000000  3
  13353  13351  13350  13354     1  0.0000000  0.6508444  3
  13353  13351  13352  13356     1  0.0000000  1.0460000  1
  13353  13351  13352  13356     1  0.0000000  0.0000000  3
  13353  13351  13352  13368     1  0.0000000  1.0460000  1
  13353  13351  13352  13368     1  0.0000000  0.0000000  3
  13353  13351  13352  13355     1  0.0000000  0.6508444  3
  13353  13351  13357  13363     1  0.0000000  0.6973333  3
  13354  13350  13347  13359     1  0.0000000  1.0460000  1
  13354  13350  13347  13359     1  0.0000000  0.0000000  3
  13354  13350  13351  13357     1  0.0000000  1.0460000  1
  13354  13350  13351  13357     1  0.0000000  0.0000000  3
  13354  13350  13358  13361     1  0.0000000  0.6973333  3
  13355  13352  13351  13357     1  0.0000000  0.6508444  3
  13364  13360  13346  13368     1  0.0000000  1.0460000  1
  13364  13360  13346  13368     1  0.0000000  0.0000000  3
  13364  13360  13366  13367     1  0.0000000  0.6973333  3
  13365  13360  13346  13368     1  0.0000000  1.0460000  1
  13365  13360  13346  13368     1  0.0000000  0.0000000  3
  13365  13360  13366  13367     1  0.0000000  0.6973333  3
  13369  13370  13373  13377     1  0.0000000  0.6508444  3
  13369  13370  13382  13385     1  0.0000000  1.0460000  1
  13369  13370  13382  13385     1  0.0000000  0.6694400  3
  13369  13383  13389  13390     1  0.0000000  1.0460000  1
  13369  13383  13389  13390     1  0.0000000  0.6694400  3
  13369  13391  13375  13378     1  0.0000000  1.6038667  3
  13370  13373  13374  13376     1  0.0000000  0.6508444  3
  13370  13373  13381  13384     1  0.0000000  1.0460000  1
  13370  13373  13381  13384     1  0.0000000  0.6694400  3
  13370  13369  13383  13387     1  0.0000000  0.6508444  3
  13370  13369  13383  13388     1  0.0000000  0.6508444  3
  13371  13369  13370  13373     1  0.0000000  0.6508444  3
  13371  13369  13370  13382     1  0.0000000  1.0460000  1
  13371  13369  13370  13382     1  0.0000000  0.0000000  3
  13371  13369  13370  13372     1  0.0000000  0.6508444  3
  13371  13369  13383  13389     1  0.0000000  1.0460000  1
  13371  13369  13383  13389     1  0.0000000  0.0000000  3
  13371  13369  13383  13387     1  0.0000000  0.6508444  3
  13371  13369  13383  13388     1  0.0000000  0.6508444  3
  13371  13369  13391  13375     1  0.0000000  1.6038667  3
  13372  13370  13373  13374     1  0.0000000  0.6508444  3
  13372  13370  13373  13381     1  0.0000000  1.0460000  1
  13372  13370  13373  13381     1  0.0000000  0.0000000  3
  13372  13370  13373  13377     1  0.0000000  0.6508444  3
  13372  13370  13382  13385     1  0.0000000  0.6973333  3
  13372  13370  13369  13383     1  0.0000000  0.6508444  3
  13372  13370  13369  13391     1  0.0000000  1.0460000  1
  13372  13370  13369  13391     1  0.0000000  0.0000000  3
  13373  13374  13375  13378     1  0.0000000  0.6508444  3
  13373  13374  13380  13386     1  0.0000000  1.0460000  1
  13373  13374  13380  13386     1  0.0000000  0.6694400  3
  13373  13370  13382  13385     1  0.0000000  1.0460000  1
  13373  13370  13382  13385     1  0.0000000  0.6694400  3
  13374  13373  13381  13384     1  0.0000000  1.0460000  1
  13374  13373  13381  13384     1  0.0000000  0.6694400  3
  13375  13374  13380  13386     1  0.0000000  1.0460000  1
  13375  13374  13380  13386     1  0.0000000  0.6694400  3
  13375  13374  13373  13377     1  0.0000000  0.6508444  3
  13376  13374  13375  13379     1  0.0000000  1.0460000  1
  13376  13374  13375  13379     1  0.0000000  0.0000000  3
  13376  13374  13375  13391     1  0.0000000  1.0460000  1
  13376  13374  13375  13391     1  0.0000000  0.0000000  3
  13376  13374  13375  13378     1  0.0000000  0.6508444  3
  13376  13374  13380  13386     1  0.0000000  0.6973333  3
  13376  13374  13373  13381     1  0.0000000  1.0460000  1
  13376  13374  13373  13381     1  0.0000000  0.0000000  3
  13376  13374  13373  13377     1  0.0000000  0.6508444  3
  13377  13373  13374  13380     1  0.0000000  1.0460000  1
  13377  13373  13374  13380     1  0.0000000  0.0000000  3
  13377  13373  13381  13384     1  0.0000000  0.6973333  3
  13377  13373  13370  13382     1  0.0000000  1.0460000  1
  13377  13373  13370  13382     1  0.0000000  0.0000000  3
  13378  13375  13374  13380     1  0.0000000  0.6508444  3
  13387  13383  13389  13390     1  0.0000000  0.6973333  3
  13387  13383  13369  13391     1  0.0000000  1.0460000  1
  13387  13383  13369  13391     1  0.0000000  0.0000000  3
  13388  13383  13389  13390     1  0.0000000  0.6973333  3
  13388  13383  13369  13391     1  0.0000000  1.0460000  1
  13388  13383  13369  13391     1  0.0000000  0.0000000  3
  13392  13393  13396  13400     1  0.0000000  0.6508444  3
  13392  13393  13405  13408     1  0.0000000  1.0460000  1
  13392  13393  13405  13408     1  0.0000000  0.6694400  3
  13392  13406  13412  13413     1  0.0000000  1.0460000  1
  13392  13406  13412  13413     1  0.0000000  0.6694400  3
  13392  13414  13398  13401     1  0.0000000  1.6038667  3
  13393  13392  13406  13410     1  0.0000000  0.6508444  3
  13393  13392  13406  13411     1  0.0000000  0.6508444  3
  13393  13396  13397  13399     1  0.0000000  0.6508444  3
  13393  13396  13404  13407     1  0.0000000  1.0460000  1
  13393  13396  13404  13407     1  0.0000000  0.6694400  3
  13394  13392  13393  13396     1  0.0000000  0.6508444  3
  13394  13392  13393  13405     1  0.0000000  1.0460000  1
  13394  13392  13393  13405     1  0.0000000  0.0000000  3
  13394  13392  13393  13395     1  0.0000000  0.6508444  3
  13394  13392  13406  13412     1  0.0000000  1.0460000  1
  13394  13392  13406  13412     1  0.0000000  0.0000000  3
  13394  13392  13406  13410     1  0.0000000  0.6508444  3
  13394  13392  13406  13411     1  0.0000000  0.6508444  3
  13394  13392  13414  13398     1  0.0000000  1.6038667  3
  13395  13393  13392  13406     1  0.0000000  0.6508444  3
  13395  13393  13392  13414     1  0.0000000  1.0460000  1
  13395  13393  13392  13414     1  0.0000000  0.0000000  3
  13395  13393  13396  13397     1  0.0000000  0.6508444  3
  13395  13393  13396  13404     1  0.0000000  1.0460000  1
  13395  13393  13396  13404     1  0.0000000  0.0000000  3
  13395  13393  13396  13400     1  0.0000000  0.6508444  3
  13395  13393  13405  13408     1  0.0000000  0.6973333  3
  13396  13393  13405  13408     1  0.0000000  1.0460000  1
  13396  13393  13405  13408     1  0.0000000  0.6694400  3
  13396  13397  13398  13401     1  0.0000000  0.6508444  3
  13396  13397  13403  13409     1  0.0000000  1.0460000  1
  13396  13397  13403  13409     1  0.0000000  0.6694400  3
  13397  13396  13404  13407     1  0.0000000  1.0460000  1
  13397  13396  13404  13407     1  0.0000000  0.6694400  3
  13398  13397  13396  13400     1  0.0000000  0.6508444  3
  13398  13397  13403  13409     1  0.0000000  1.0460000  1
  13398  13397  13403  13409     1  0.0000000  0.6694400  3
  13399  13397  13396  13404     1  0.0000000  1.0460000  1
  13399  13397  13396  13404     1  0.0000000  0.0000000  3
  13399  13397  13396  13400     1  0.0000000  0.6508444  3
  13399  13397  13398  13402     1  0.0000000  1.0460000  1
  13399  13397  13398  13402     1  0.0000000  0.0000000  3
  13399  13397  13398  13414     1  0.0000000  1.0460000  1
  13399  13397  13398  13414     1  0.0000000  0.0000000  3
  13399  13397  13398  13401     1  0.0000000  0.6508444  3
  13399  13397  13403  13409     1  0.0000000  0.6973333  3
  13400  13396  13393  13405     1  0.0000000  1.0460000  1
  13400  13396  13393  13405     1  0.0000000  0.0000000  3
  13400  13396  13397  13403     1  0.0000000  1.0460000  1
  13400  13396  13397  13403     1  0.0000000  0.0000000  3
  13400  13396  13404  13407     1  0.0000000  0.6973333  3
  13401  13398  13397  13403     1  0.0000000  0.6508444  3
  13410  13406  13392  13414     1  0.0000000  1.0460000  1
  13410  13406  13392  13414     1  0.0000000  0.0000000  3
  13410  13406  13412  13413     1  0.0000000  0.6973333  3
  13411  13406  13392  13414     1  0.0000000  1.0460000  1
  13411  13406  13392  13414     1  0.0000000  0.0000000  3
  13411  13406  13412  13413     1  0.0000000  0.6973333  3
  13415  13416  13419  13423     1  0.0000000  0.6508444  3
  13415  13416  13428  13431     1  0.0000000  1.0460000  1
  13415  13416  13428  13431     1  0.0000000  0.6694400  3
  13415  13429  13435  13436     1  0.0000000  1.0460000  1
  13415  13429  13435  13436     1  0.0000000  0.6694400  3
  13415  13437  13421  13424     1  0.0000000  1.6038667  3
  13416  13419  13420  13422     1  0.0000000  0.6508444  3
  13416  13419  13427  13430     1  0.0000000  1.0460000  1
  13416  13419  13427  13430     1  0.0000000  0.6694400  3
  13416  13415  13429  13433     1  0.0000000  0.6508444  3
  13416  13415  13429  13434     1  0.0000000  0.6508444  3
  13417  13415  13416  13419     1  0.0000000  0.6508444  3
  13417  13415  13416  13428     1  0.0000000  1.0460000  1
  13417  13415  13416  13428     1  0.0000000  0.0000000  3
  13417  13415  13416  13418     1  0.0000000  0.6508444  3
  13417  13415  13429  13435     1  0.0000000  1.0460000  1
  13417  13415  13429  13435     1  0.0000000  0.0000000  3
  13417  13415  13429  13433     1  0.0000000  0.6508444  3
  13417  13415  13429  13434     1  0.0000000  0.6508444  3
  13417  13415  13437  13421     1  0.0000000  1.6038667  3
  13418  13416  13419  13420     1  0.0000000  0.6508444  3
  13418  13416  13419  13427     1  0.0000000  1.0460000  1
  13418  13416  13419  13427     1  0.0000000  0.0000000  3
  13418  13416  13419  13423     1  0.0000000  0.6508444  3
  13418  13416  13428  13431     1  0.0000000  0.6973333  3
  13418  13416  13415  13429     1  0.0000000  0.6508444  3
  13418  13416  13415  13437     1  0.0000000  1.0460000  1
  13418  13416  13415  13437     1  0.0000000  0.0000000  3
  13419  13420  13421  13424     1  0.0000000  0.6508444  3
  13419  13420  13426  13432     1  0.0000000  1.0460000  1
  13419  13420  13426  13432     1  0.0000000  0.6694400  3
  13419  13416  13428  13431     1  0.0000000  1.0460000  1
  13419  13416  13428  13431     1  0.0000000  0.6694400  3
  13420  13419  13427  13430     1  0.0000000  1.0460000  1
  13420  13419  13427  13430     1  0.0000000  0.6694400  3
  13421  13420  13426  13432     1  0.0000000  1.0460000  1
  13421  13420  13426  13432     1  0.0000000  0.6694400  3
  13421  13420  13419  13423     1  0.0000000  0.6508444  3
  13422  13420  13421  13425     1  0.0000000  1.0460000  1
  13422  13420  13421  13425     1  0.0000000  0.0000000  3
  13422  13420  13421  13437     1  0.0000000  1.0460000  1
  13422  13420  13421  13437     1  0.0000000  0.0000000  3
  13422  13420  13421  13424     1  0.0000000  0.6508444  3
  13422  13420  13426  13432     1  0.0000000  0.6973333  3
  13422  13420  13419  13427     1  0.0000000  1.0460000  1
  13422  13420  13419  13427     1  0.0000000  0.0000000  3
  13422  13420  13419  13423     1  0.0000000  0.6508444  3
  13423  13419  13420  13426     1  0.0000000  1.0460000  1
  13423  13419  13420  13426     1  0.0000000  0.0000000  3
  13423  13419  13427  13430     1  0.0000000  0.6973333  3
  13423  13419  13416  13428     1  0.0000000  1.0460000  1
  13423  13419  13416  13428     1  0.0000000  0.0000000  3
  13424  13421  13420  13426     1  0.0000000  0.6508444  3
  13433  13429  13435  13436     1  0.0000000  0.6973333  3
  13433  13429  13415  13437     1  0.0000000  1.0460000  1
  13433  13429  13415  13437     1  0.0000000  0.0000000  3
  13434  13429  13435  13436     1  0.0000000  0.6973333  3
  13434  13429  13415  13437     1  0.0000000  1.0460000  1
  13434  13429  13415  13437     1  0.0000000  0.0000000  3
  13438  13439  13442  13446     1  0.0000000  0.6508444  3
  13438  13439  13451  13454     1  0.0000000  1.0460000  1
  13438  13439  13451  13454     1  0.0000000  0.6694400  3
  13438  13452  13458  13459     1  0.0000000  1.0460000  1
  13438  13452  13458  13459     1  0.0000000  0.6694400  3
  13438  13460  13444  13447     1  0.0000000  1.6038667  3
  13439  13438  13452  13456     1  0.0000000  0.6508444  3
  13439  13438  13452  13457     1  0.0000000  0.6508444  3
  13439  13442  13443  13445     1  0.0000000  0.6508444  3
  13439  13442  13450  13453     1  0.0000000  1.0460000  1
  13439  13442  13450  13453     1  0.0000000  0.6694400  3
  13440  13438  13439  13442     1  0.0000000  0.6508444  3
  13440  13438  13439  13451     1  0.0000000  1.0460000  1
  13440  13438  13439  13451     1  0.0000000  0.0000000  3
  13440  13438  13439  13441     1  0.0000000  0.6508444  3
  13440  13438  13452  13458     1  0.0000000  1.0460000  1
  13440  13438  13452  13458     1  0.0000000  0.0000000  3
  13440  13438  13452  13456     1  0.0000000  0.6508444  3
  13440  13438  13452  13457     1  0.0000000  0.6508444  3
  13440  13438  13460  13444     1  0.0000000  1.6038667  3
  13441  13439  13438  13452     1  0.0000000  0.6508444  3
  13441  13439  13438  13460     1  0.0000000  1.0460000  1
  13441  13439  13438  13460     1  0.0000000  0.0000000  3
  13441  13439  13442  13443     1  0.0000000  0.6508444  3
  13441  13439  13442  13450     1  0.0000000  1.0460000  1
  13441  13439  13442  13450     1  0.0000000  0.0000000  3
  13441  13439  13442  13446     1  0.0000000  0.6508444  3
  13441  13439  13451  13454     1  0.0000000  0.6973333  3
  13442  13439  13451  13454     1  0.0000000  1.0460000  1
  13442  13439  13451  13454     1  0.0000000  0.6694400  3
  13442  13443  13444  13447     1  0.0000000  0.6508444  3
  13442  13443  13449  13455     1  0.0000000  1.0460000  1
  13442  13443  13449  13455     1  0.0000000  0.6694400  3
  13443  13442  13450  13453     1  0.0000000  1.0460000  1
  13443  13442  13450  13453     1  0.0000000  0.6694400  3
  13444  13443  13442  13446     1  0.0000000  0.6508444  3
  13444  13443  13449  13455     1  0.0000000  1.0460000  1
  13444  13443  13449  13455     1  0.0000000  0.6694400  3
  13445  13443  13442  13450     1  0.0000000  1.0460000  1
  13445  13443  13442  13450     1  0.0000000  0.0000000  3
  13445  13443  13442  13446     1  0.0000000  0.6508444  3
  13445  13443  13444  13448     1  0.0000000  1.0460000  1
  13445  13443  13444  13448     1  0.0000000  0.0000000  3
  13445  13443  13444  13460     1  0.0000000  1.0460000  1
  13445  13443  13444  13460     1  0.0000000  0.0000000  3
  13445  13443  13444  13447     1  0.0000000  0.6508444  3
  13445  13443  13449  13455     1  0.0000000  0.6973333  3
  13446  13442  13439  13451     1  0.0000000  1.0460000  1
  13446  13442  13439  13451     1  0.0000000  0.0000000  3
  13446  13442  13443  13449     1  0.0000000  1.0460000  1
  13446  13442  13443  13449     1  0.0000000  0.0000000  3
  13446  13442  13450  13453     1  0.0000000  0.6973333  3
  13447  13444  13443  13449     1  0.0000000  0.6508444  3
  13456  13452  13438  13460     1  0.0000000  1.0460000  1
  13456  13452  13438  13460     1  0.0000000  0.0000000  3
  13456  13452  13458  13459     1  0.0000000  0.6973333  3
  13457  13452  13438  13460     1  0.0000000  1.0460000  1
  13457  13452  13438  13460     1  0.0000000  0.0000000  3
  13457  13452  13458  13459     1  0.0000000  0.6973333  3
  13461  13462  13465  13469     1  0.0000000  0.6508444  3
  13461  13462  13474  13477     1  0.0000000  1.0460000  1
  13461  13462  13474  13477     1  0.0000000  0.6694400  3
  13461  13475  13481  13482     1  0.0000000  1.0460000  1
  13461  13475  13481  13482     1  0.0000000  0.6694400  3
  13461  13483  13467  13470     1  0.0000000  1.6038667  3
  13462  13465  13466  13468     1  0.0000000  0.6508444  3
  13462  13465  13473  13476     1  0.0000000  1.0460000  1
  13462  13465  13473  13476     1  0.0000000  0.6694400  3
  13462  13461  13475  13479     1  0.0000000  0.6508444  3
  13462  13461  13475  13480     1  0.0000000  0.6508444  3
  13463  13461  13462  13465     1  0.0000000  0.6508444  3
  13463  13461  13462  13474     1  0.0000000  1.0460000  1
  13463  13461  13462  13474     1  0.0000000  0.0000000  3
  13463  13461  13462  13464     1  0.0000000  0.6508444  3
  13463  13461  13475  13481     1  0.0000000  1.0460000  1
  13463  13461  13475  13481     1  0.0000000  0.0000000  3
  13463  13461  13475  13479     1  0.0000000  0.6508444  3
  13463  13461  13475  13480     1  0.0000000  0.6508444  3
  13463  13461  13483  13467     1  0.0000000  1.6038667  3
  13464  13462  13465  13466     1  0.0000000  0.6508444  3
  13464  13462  13465  13473     1  0.0000000  1.0460000  1
  13464  13462  13465  13473     1  0.0000000  0.0000000  3
  13464  13462  13465  13469     1  0.0000000  0.6508444  3
  13464  13462  13474  13477     1  0.0000000  0.6973333  3
  13464  13462  13461  13475     1  0.0000000  0.6508444  3
  13464  13462  13461  13483     1  0.0000000  1.0460000  1
  13464  13462  13461  13483     1  0.0000000  0.0000000  3
  13465  13466  13467  13470     1  0.0000000  0.6508444  3
  13465  13466  13472  13478     1  0.0000000  1.0460000  1
  13465  13466  13472  13478     1  0.0000000  0.6694400  3
  13465  13462  13474  13477     1  0.0000000  1.0460000  1
  13465  13462  13474  13477     1  0.0000000  0.6694400  3
  13466  13465  13473  13476     1  0.0000000  1.0460000  1
  13466  13465  13473  13476     1  0.0000000  0.6694400  3
  13467  13466  13472  13478     1  0.0000000  1.0460000  1
  13467  13466  13472  13478     1  0.0000000  0.6694400  3
  13467  13466  13465  13469     1  0.0000000  0.6508444  3
  13468  13466  13467  13471     1  0.0000000  1.0460000  1
  13468  13466  13467  13471     1  0.0000000  0.0000000  3
  13468  13466  13467  13483     1  0.0000000  1.0460000  1
  13468  13466  13467  13483     1  0.0000000  0.0000000  3
  13468  13466  13467  13470     1  0.0000000  0.6508444  3
  13468  13466  13472  13478     1  0.0000000  0.6973333  3
  13468  13466  13465  13473     1  0.0000000  1.0460000  1
  13468  13466  13465  13473     1  0.0000000  0.0000000  3
  13468  13466  13465  13469     1  0.0000000  0.6508444  3
  13469  13465  13466  13472     1  0.0000000  1.0460000  1
  13469  13465  13466  13472     1  0.0000000  0.0000000  3
  13469  13465  13473  13476     1  0.0000000  0.6973333  3
  13469  13465  13462  13474     1  0.0000000  1.0460000  1
  13469  13465  13462  13474     1  0.0000000  0.0000000  3
  13470  13467  13466  13472     1  0.0000000  0.6508444  3
  13479  13475  13481  13482     1  0.0000000  0.6973333  3
  13479  13475  13461  13483     1  0.0000000  1.0460000  1
  13479  13475  13461  13483     1  0.0000000  0.0000000  3
  13480  13475  13481  13482     1  0.0000000  0.6973333  3
  13480  13475  13461  13483     1  0.0000000  1.0460000  1
  13480  13475  13461  13483     1  0.0000000  0.0000000  3
  13484  13485  13488  13492     1  0.0000000  0.6508444  3
  13484  13485  13497  13500     1  0.0000000  1.0460000  1
  13484  13485  13497  13500     1  0.0000000  0.6694400  3
  13484  13498  13504  13505     1  0.0000000  1.0460000  1
  13484  13498  13504  13505     1  0.0000000  0.6694400  3
  13484  13506  13490  13493     1  0.0000000  1.6038667  3
  13485  13484  13498  13502     1  0.0000000  0.6508444  3
  13485  13484  13498  13503     1  0.0000000  0.6508444  3
  13485  13488  13489  13491     1  0.0000000  0.6508444  3
  13485  13488  13496  13499     1  0.0000000  1.0460000  1
  13485  13488  13496  13499     1  0.0000000  0.6694400  3
  13486  13484  13485  13488     1  0.0000000  0.6508444  3
  13486  13484  13485  13497     1  0.0000000  1.0460000  1
  13486  13484  13485  13497     1  0.0000000  0.0000000  3
  13486  13484  13485  13487     1  0.0000000  0.6508444  3
  13486  13484  13498  13504     1  0.0000000  1.0460000  1
  13486  13484  13498  13504     1  0.0000000  0.0000000  3
  13486  13484  13498  13502     1  0.0000000  0.6508444  3
  13486  13484  13498  13503     1  0.0000000  0.6508444  3
  13486  13484  13506  13490     1  0.0000000  1.6038667  3
  13487  13485  13484  13498     1  0.0000000  0.6508444  3
  13487  13485  13484  13506     1  0.0000000  1.0460000  1
  13487  13485  13484  13506     1  0.0000000  0.0000000  3
  13487  13485  13488  13489     1  0.0000000  0.6508444  3
  13487  13485  13488  13496     1  0.0000000  1.0460000  1
  13487  13485  13488  13496     1  0.0000000  0.0000000  3
  13487  13485  13488  13492     1  0.0000000  0.6508444  3
  13487  13485  13497  13500     1  0.0000000  0.6973333  3
  13488  13485  13497  13500     1  0.0000000  1.0460000  1
  13488  13485  13497  13500     1  0.0000000  0.6694400  3
  13488  13489  13490  13493     1  0.0000000  0.6508444  3
  13488  13489  13495  13501     1  0.0000000  1.0460000  1
  13488  13489  13495  13501     1  0.0000000  0.6694400  3
  13489  13488  13496  13499     1  0.0000000  1.0460000  1
  13489  13488  13496  13499     1  0.0000000  0.6694400  3
  13490  13489  13488  13492     1  0.0000000  0.6508444  3
  13490  13489  13495  13501     1  0.0000000  1.0460000  1
  13490  13489  13495  13501     1  0.0000000  0.6694400  3
  13491  13489  13488  13496     1  0.0000000  1.0460000  1
  13491  13489  13488  13496     1  0.0000000  0.0000000  3
  13491  13489  13488  13492     1  0.0000000  0.6508444  3
  13491  13489  13490  13494     1  0.0000000  1.0460000  1
  13491  13489  13490  13494     1  0.0000000  0.0000000  3
  13491  13489  13490  13506     1  0.0000000  1.0460000  1
  13491  13489  13490  13506     1  0.0000000  0.0000000  3
  13491  13489  13490  13493     1  0.0000000  0.6508444  3
  13491  13489  13495  13501     1  0.0000000  0.6973333  3
  13492  13488  13485  13497     1  0.0000000  1.0460000  1
  13492  13488  13485  13497     1  0.0000000  0.0000000  3
  13492  13488  13489  13495     1  0.0000000  1.0460000  1
  13492  13488  13489  13495     1  0.0000000  0.0000000  3
  13492  13488  13496  13499     1  0.0000000  0.6973333  3
  13493  13490  13489  13495     1  0.0000000  0.6508444  3
  13502  13498  13484  13506     1  0.0000000  1.0460000  1
  13502  13498  13484  13506     1  0.0000000  0.0000000  3
  13502  13498  13504  13505     1  0.0000000  0.6973333  3
  13503  13498  13484  13506     1  0.0000000  1.0460000  1
  13503  13498  13484  13506     1  0.0000000  0.0000000  3
  13503  13498  13504  13505     1  0.0000000  0.6973333  3
  13507  13508  13511  13515     1  0.0000000  0.6508444  3
  13507  13508  13520  13523     1  0.0000000  1.0460000  1
  13507  13508  13520  13523     1  0.0000000  0.6694400  3
  13507  13521  13527  13528     1  0.0000000  1.0460000  1
  13507  13521  13527  13528     1  0.0000000  0.6694400  3
  13507  13529  13513  13516     1  0.0000000  1.6038667  3
  13508  13511  13512  13514     1  0.0000000  0.6508444  3
  13508  13511  13519  13522     1  0.0000000  1.0460000  1
  13508  13511  13519  13522     1  0.0000000  0.6694400  3
  13508  13507  13521  13525     1  0.0000000  0.6508444  3
  13508  13507  13521  13526     1  0.0000000  0.6508444  3
  13509  13507  13508  13511     1  0.0000000  0.6508444  3
  13509  13507  13508  13520     1  0.0000000  1.0460000  1
  13509  13507  13508  13520     1  0.0000000  0.0000000  3
  13509  13507  13508  13510     1  0.0000000  0.6508444  3
  13509  13507  13521  13527     1  0.0000000  1.0460000  1
  13509  13507  13521  13527     1  0.0000000  0.0000000  3
  13509  13507  13521  13525     1  0.0000000  0.6508444  3
  13509  13507  13521  13526     1  0.0000000  0.6508444  3
  13509  13507  13529  13513     1  0.0000000  1.6038667  3
  13510  13508  13511  13512     1  0.0000000  0.6508444  3
  13510  13508  13511  13519     1  0.0000000  1.0460000  1
  13510  13508  13511  13519     1  0.0000000  0.0000000  3
  13510  13508  13511  13515     1  0.0000000  0.6508444  3
  13510  13508  13520  13523     1  0.0000000  0.6973333  3
  13510  13508  13507  13521     1  0.0000000  0.6508444  3
  13510  13508  13507  13529     1  0.0000000  1.0460000  1
  13510  13508  13507  13529     1  0.0000000  0.0000000  3
  13511  13512  13513  13516     1  0.0000000  0.6508444  3
  13511  13512  13518  13524     1  0.0000000  1.0460000  1
  13511  13512  13518  13524     1  0.0000000  0.6694400  3
  13511  13508  13520  13523     1  0.0000000  1.0460000  1
  13511  13508  13520  13523     1  0.0000000  0.6694400  3
  13512  13511  13519  13522     1  0.0000000  1.0460000  1
  13512  13511  13519  13522     1  0.0000000  0.6694400  3
  13513  13512  13518  13524     1  0.0000000  1.0460000  1
  13513  13512  13518  13524     1  0.0000000  0.6694400  3
  13513  13512  13511  13515     1  0.0000000  0.6508444  3
  13514  13512  13513  13517     1  0.0000000  1.0460000  1
  13514  13512  13513  13517     1  0.0000000  0.0000000  3
  13514  13512  13513  13529     1  0.0000000  1.0460000  1
  13514  13512  13513  13529     1  0.0000000  0.0000000  3
  13514  13512  13513  13516     1  0.0000000  0.6508444  3
  13514  13512  13518  13524     1  0.0000000  0.6973333  3
  13514  13512  13511  13519     1  0.0000000  1.0460000  1
  13514  13512  13511  13519     1  0.0000000  0.0000000  3
  13514  13512  13511  13515     1  0.0000000  0.6508444  3
  13515  13511  13512  13518     1  0.0000000  1.0460000  1
  13515  13511  13512  13518     1  0.0000000  0.0000000  3
  13515  13511  13519  13522     1  0.0000000  0.6973333  3
  13515  13511  13508  13520     1  0.0000000  1.0460000  1
  13515  13511  13508  13520     1  0.0000000  0.0000000  3
  13516  13513  13512  13518     1  0.0000000  0.6508444  3
  13525  13521  13527  13528     1  0.0000000  0.6973333  3
  13525  13521  13507  13529     1  0.0000000  1.0460000  1
  13525  13521  13507  13529     1  0.0000000  0.0000000  3
  13526  13521  13527  13528     1  0.0000000  0.6973333  3
  13526  13521  13507  13529     1  0.0000000  1.0460000  1
  13526  13521  13507  13529     1  0.0000000  0.0000000  3
  13530  13531  13534  13538     1  0.0000000  0.6508444  3
  13530  13531  13543  13546     1  0.0000000  1.0460000  1
  13530  13531  13543  13546     1  0.0000000  0.6694400  3
  13530  13544  13550  13551     1  0.0000000  1.0460000  1
  13530  13544  13550  13551     1  0.0000000  0.6694400  3
  13530  13552  13536  13539     1  0.0000000  1.6038667  3
  13531  13530  13544  13548     1  0.0000000  0.6508444  3
  13531  13530  13544  13549     1  0.0000000  0.6508444  3
  13531  13534  13535  13537     1  0.0000000  0.6508444  3
  13531  13534  13542  13545     1  0.0000000  1.0460000  1
  13531  13534  13542  13545     1  0.0000000  0.6694400  3
  13532  13530  13531  13534     1  0.0000000  0.6508444  3
  13532  13530  13531  13543     1  0.0000000  1.0460000  1
  13532  13530  13531  13543     1  0.0000000  0.0000000  3
  13532  13530  13531  13533     1  0.0000000  0.6508444  3
  13532  13530  13544  13550     1  0.0000000  1.0460000  1
  13532  13530  13544  13550     1  0.0000000  0.0000000  3
  13532  13530  13544  13548     1  0.0000000  0.6508444  3
  13532  13530  13544  13549     1  0.0000000  0.6508444  3
  13532  13530  13552  13536     1  0.0000000  1.6038667  3
  13533  13531  13530  13544     1  0.0000000  0.6508444  3
  13533  13531  13530  13552     1  0.0000000  1.0460000  1
  13533  13531  13530  13552     1  0.0000000  0.0000000  3
  13533  13531  13534  13535     1  0.0000000  0.6508444  3
  13533  13531  13534  13542     1  0.0000000  1.0460000  1
  13533  13531  13534  13542     1  0.0000000  0.0000000  3
  13533  13531  13534  13538     1  0.0000000  0.6508444  3
  13533  13531  13543  13546     1  0.0000000  0.6973333  3
  13534  13531  13543  13546     1  0.0000000  1.0460000  1
  13534  13531  13543  13546     1  0.0000000  0.6694400  3
  13534  13535  13536  13539     1  0.0000000  0.6508444  3
  13534  13535  13541  13547     1  0.0000000  1.0460000  1
  13534  13535  13541  13547     1  0.0000000  0.6694400  3
  13535  13534  13542  13545     1  0.0000000  1.0460000  1
  13535  13534  13542  13545     1  0.0000000  0.6694400  3
  13536  13535  13534  13538     1  0.0000000  0.6508444  3
  13536  13535  13541  13547     1  0.0000000  1.0460000  1
  13536  13535  13541  13547     1  0.0000000  0.6694400  3
  13537  13535  13534  13542     1  0.0000000  1.0460000  1
  13537  13535  13534  13542     1  0.0000000  0.0000000  3
  13537  13535  13534  13538     1  0.0000000  0.6508444  3
  13537  13535  13536  13540     1  0.0000000  1.0460000  1
  13537  13535  13536  13540     1  0.0000000  0.0000000  3
  13537  13535  13536  13552     1  0.0000000  1.0460000  1
  13537  13535  13536  13552     1  0.0000000  0.0000000  3
  13537  13535  13536  13539     1  0.0000000  0.6508444  3
  13537  13535  13541  13547     1  0.0000000  0.6973333  3
  13538  13534  13531  13543     1  0.0000000  1.0460000  1
  13538  13534  13531  13543     1  0.0000000  0.0000000  3
  13538  13534  13535  13541     1  0.0000000  1.0460000  1
  13538  13534  13535  13541     1  0.0000000  0.0000000  3
  13538  13534  13542  13545     1  0.0000000  0.6973333  3
  13539  13536  13535  13541     1  0.0000000  0.6508444  3
  13548  13544  13530  13552     1  0.0000000  1.0460000  1
  13548  13544  13530  13552     1  0.0000000  0.0000000  3
  13548  13544  13550  13551     1  0.0000000  0.6973333  3
  13549  13544  13530  13552     1  0.0000000  1.0460000  1
  13549  13544  13530  13552     1  0.0000000  0.0000000  3
  13549  13544  13550  13551     1  0.0000000  0.6973333  3
  13553  13554  13557  13561     1  0.0000000  0.6508444  3
  13553  13554  13566  13569     1  0.0000000  1.0460000  1
  13553  13554  13566  13569     1  0.0000000  0.6694400  3
  13553  13567  13573  13574     1  0.0000000  1.0460000  1
  13553  13567  13573  13574     1  0.0000000  0.6694400  3
  13553  13575  13559  13562     1  0.0000000  1.6038667  3
  13554  13557  13558  13560     1  0.0000000  0.6508444  3
  13554  13557  13565  13568     1  0.0000000  1.0460000  1
  13554  13557  13565  13568     1  0.0000000  0.6694400  3
  13554  13553  13567  13571     1  0.0000000  0.6508444  3
  13554  13553  13567  13572     1  0.0000000  0.6508444  3
  13555  13553  13554  13557     1  0.0000000  0.6508444  3
  13555  13553  13554  13566     1  0.0000000  1.0460000  1
  13555  13553  13554  13566     1  0.0000000  0.0000000  3
  13555  13553  13554  13556     1  0.0000000  0.6508444  3
  13555  13553  13567  13573     1  0.0000000  1.0460000  1
  13555  13553  13567  13573     1  0.0000000  0.0000000  3
  13555  13553  13567  13571     1  0.0000000  0.6508444  3
  13555  13553  13567  13572     1  0.0000000  0.6508444  3
  13555  13553  13575  13559     1  0.0000000  1.6038667  3
  13556  13554  13557  13558     1  0.0000000  0.6508444  3
  13556  13554  13557  13565     1  0.0000000  1.0460000  1
  13556  13554  13557  13565     1  0.0000000  0.0000000  3
  13556  13554  13557  13561     1  0.0000000  0.6508444  3
  13556  13554  13566  13569     1  0.0000000  0.6973333  3
  13556  13554  13553  13567     1  0.0000000  0.6508444  3
  13556  13554  13553  13575     1  0.0000000  1.0460000  1
  13556  13554  13553  13575     1  0.0000000  0.0000000  3
  13557  13558  13559  13562     1  0.0000000  0.6508444  3
  13557  13558  13564  13570     1  0.0000000  1.0460000  1
  13557  13558  13564  13570     1  0.0000000  0.6694400  3
  13557  13554  13566  13569     1  0.0000000  1.0460000  1
  13557  13554  13566  13569     1  0.0000000  0.6694400  3
  13558  13557  13565  13568     1  0.0000000  1.0460000  1
  13558  13557  13565  13568     1  0.0000000  0.6694400  3
  13559  13558  13564  13570     1  0.0000000  1.0460000  1
  13559  13558  13564  13570     1  0.0000000  0.6694400  3
  13559  13558  13557  13561     1  0.0000000  0.6508444  3
  13560  13558  13559  13563     1  0.0000000  1.0460000  1
  13560  13558  13559  13563     1  0.0000000  0.0000000  3
  13560  13558  13559  13575     1  0.0000000  1.0460000  1
  13560  13558  13559  13575     1  0.0000000  0.0000000  3
  13560  13558  13559  13562     1  0.0000000  0.6508444  3
  13560  13558  13564  13570     1  0.0000000  0.6973333  3
  13560  13558  13557  13565     1  0.0000000  1.0460000  1
  13560  13558  13557  13565     1  0.0000000  0.0000000  3
  13560  13558  13557  13561     1  0.0000000  0.6508444  3
  13561  13557  13558  13564     1  0.0000000  1.0460000  1
  13561  13557  13558  13564     1  0.0000000  0.0000000  3
  13561  13557  13565  13568     1  0.0000000  0.6973333  3
  13561  13557  13554  13566     1  0.0000000  1.0460000  1
  13561  13557  13554  13566     1  0.0000000  0.0000000  3
  13562  13559  13558  13564     1  0.0000000  0.6508444  3
  13571  13567  13573  13574     1  0.0000000  0.6973333  3
  13571  13567  13553  13575     1  0.0000000  1.0460000  1
  13571  13567  13553  13575     1  0.0000000  0.0000000  3
  13572  13567  13573  13574     1  0.0000000  0.6973333  3
  13572  13567  13553  13575     1  0.0000000  1.0460000  1
  13572  13567  13553  13575     1  0.0000000  0.0000000  3
  13576  13577  13580  13584     1  0.0000000  0.6508444  3
  13576  13577  13589  13592     1  0.0000000  1.0460000  1
  13576  13577  13589  13592     1  0.0000000  0.6694400  3
  13576  13590  13596  13597     1  0.0000000  1.0460000  1
  13576  13590  13596  13597     1  0.0000000  0.6694400  3
  13576  13598  13582  13585     1  0.0000000  1.6038667  3
  13577  13576  13590  13594     1  0.0000000  0.6508444  3
  13577  13576  13590  13595     1  0.0000000  0.6508444  3
  13577  13580  13581  13583     1  0.0000000  0.6508444  3
  13577  13580  13588  13591     1  0.0000000  1.0460000  1
  13577  13580  13588  13591     1  0.0000000  0.6694400  3
  13578  13576  13577  13580     1  0.0000000  0.6508444  3
  13578  13576  13577  13589     1  0.0000000  1.0460000  1
  13578  13576  13577  13589     1  0.0000000  0.0000000  3
  13578  13576  13577  13579     1  0.0000000  0.6508444  3
  13578  13576  13590  13596     1  0.0000000  1.0460000  1
  13578  13576  13590  13596     1  0.0000000  0.0000000  3
  13578  13576  13590  13594     1  0.0000000  0.6508444  3
  13578  13576  13590  13595     1  0.0000000  0.6508444  3
  13578  13576  13598  13582     1  0.0000000  1.6038667  3
  13579  13577  13576  13590     1  0.0000000  0.6508444  3
  13579  13577  13576  13598     1  0.0000000  1.0460000  1
  13579  13577  13576  13598     1  0.0000000  0.0000000  3
  13579  13577  13580  13581     1  0.0000000  0.6508444  3
  13579  13577  13580  13588     1  0.0000000  1.0460000  1
  13579  13577  13580  13588     1  0.0000000  0.0000000  3
  13579  13577  13580  13584     1  0.0000000  0.6508444  3
  13579  13577  13589  13592     1  0.0000000  0.6973333  3
  13580  13577  13589  13592     1  0.0000000  1.0460000  1
  13580  13577  13589  13592     1  0.0000000  0.6694400  3
  13580  13581  13582  13585     1  0.0000000  0.6508444  3
  13580  13581  13587  13593     1  0.0000000  1.0460000  1
  13580  13581  13587  13593     1  0.0000000  0.6694400  3
  13581  13580  13588  13591     1  0.0000000  1.0460000  1
  13581  13580  13588  13591     1  0.0000000  0.6694400  3
  13582  13581  13580  13584     1  0.0000000  0.6508444  3
  13582  13581  13587  13593     1  0.0000000  1.0460000  1
  13582  13581  13587  13593     1  0.0000000  0.6694400  3
  13583  13581  13580  13588     1  0.0000000  1.0460000  1
  13583  13581  13580  13588     1  0.0000000  0.0000000  3
  13583  13581  13580  13584     1  0.0000000  0.6508444  3
  13583  13581  13582  13586     1  0.0000000  1.0460000  1
  13583  13581  13582  13586     1  0.0000000  0.0000000  3
  13583  13581  13582  13598     1  0.0000000  1.0460000  1
  13583  13581  13582  13598     1  0.0000000  0.0000000  3
  13583  13581  13582  13585     1  0.0000000  0.6508444  3
  13583  13581  13587  13593     1  0.0000000  0.6973333  3
  13584  13580  13577  13589     1  0.0000000  1.0460000  1
  13584  13580  13577  13589     1  0.0000000  0.0000000  3
  13584  13580  13581  13587     1  0.0000000  1.0460000  1
  13584  13580  13581  13587     1  0.0000000  0.0000000  3
  13584  13580  13588  13591     1  0.0000000  0.6973333  3
  13585  13582  13581  13587     1  0.0000000  0.6508444  3
  13594  13590  13576  13598     1  0.0000000  1.0460000  1
  13594  13590  13576  13598     1  0.0000000  0.0000000  3
  13594  13590  13596  13597     1  0.0000000  0.6973333  3
  13595  13590  13576  13598     1  0.0000000  1.0460000  1
  13595  13590  13576  13598     1  0.0000000  0.0000000  3
  13595  13590  13596  13597     1  0.0000000  0.6973333  3
  13599  13600  13603  13607     1  0.0000000  0.6508444  3
  13599  13600  13612  13615     1  0.0000000  1.0460000  1
  13599  13600  13612  13615     1  0.0000000  0.6694400  3
  13599  13613  13619  13620     1  0.0000000  1.0460000  1
  13599  13613  13619  13620     1  0.0000000  0.6694400  3
  13599  13621  13605  13608     1  0.0000000  1.6038667  3
  13600  13603  13604  13606     1  0.0000000  0.6508444  3
  13600  13603  13611  13614     1  0.0000000  1.0460000  1
  13600  13603  13611  13614     1  0.0000000  0.6694400  3
  13600  13599  13613  13617     1  0.0000000  0.6508444  3
  13600  13599  13613  13618     1  0.0000000  0.6508444  3
  13601  13599  13600  13603     1  0.0000000  0.6508444  3
  13601  13599  13600  13612     1  0.0000000  1.0460000  1
  13601  13599  13600  13612     1  0.0000000  0.0000000  3
  13601  13599  13600  13602     1  0.0000000  0.6508444  3
  13601  13599  13613  13619     1  0.0000000  1.0460000  1
  13601  13599  13613  13619     1  0.0000000  0.0000000  3
  13601  13599  13613  13617     1  0.0000000  0.6508444  3
  13601  13599  13613  13618     1  0.0000000  0.6508444  3
  13601  13599  13621  13605     1  0.0000000  1.6038667  3
  13602  13600  13603  13604     1  0.0000000  0.6508444  3
  13602  13600  13603  13611     1  0.0000000  1.0460000  1
  13602  13600  13603  13611     1  0.0000000  0.0000000  3
  13602  13600  13603  13607     1  0.0000000  0.6508444  3
  13602  13600  13612  13615     1  0.0000000  0.6973333  3
  13602  13600  13599  13613     1  0.0000000  0.6508444  3
  13602  13600  13599  13621     1  0.0000000  1.0460000  1
  13602  13600  13599  13621     1  0.0000000  0.0000000  3
  13603  13604  13605  13608     1  0.0000000  0.6508444  3
  13603  13604  13610  13616     1  0.0000000  1.0460000  1
  13603  13604  13610  13616     1  0.0000000  0.6694400  3
  13603  13600  13612  13615     1  0.0000000  1.0460000  1
  13603  13600  13612  13615     1  0.0000000  0.6694400  3
  13604  13603  13611  13614     1  0.0000000  1.0460000  1
  13604  13603  13611  13614     1  0.0000000  0.6694400  3
  13605  13604  13610  13616     1  0.0000000  1.0460000  1
  13605  13604  13610  13616     1  0.0000000  0.6694400  3
  13605  13604  13603  13607     1  0.0000000  0.6508444  3
  13606  13604  13605  13609     1  0.0000000  1.0460000  1
  13606  13604  13605  13609     1  0.0000000  0.0000000  3
  13606  13604  13605  13621     1  0.0000000  1.0460000  1
  13606  13604  13605  13621     1  0.0000000  0.0000000  3
  13606  13604  13605  13608     1  0.0000000  0.6508444  3
  13606  13604  13610  13616     1  0.0000000  0.6973333  3
  13606  13604  13603  13611     1  0.0000000  1.0460000  1
  13606  13604  13603  13611     1  0.0000000  0.0000000  3
  13606  13604  13603  13607     1  0.0000000  0.6508444  3
  13607  13603  13604  13610     1  0.0000000  1.0460000  1
  13607  13603  13604  13610     1  0.0000000  0.0000000  3
  13607  13603  13611  13614     1  0.0000000  0.6973333  3
  13607  13603  13600  13612     1  0.0000000  1.0460000  1
  13607  13603  13600  13612     1  0.0000000  0.0000000  3
  13608  13605  13604  13610     1  0.0000000  0.6508444  3
  13617  13613  13619  13620     1  0.0000000  0.6973333  3
  13617  13613  13599  13621     1  0.0000000  1.0460000  1
  13617  13613  13599  13621     1  0.0000000  0.0000000  3
  13618  13613  13619  13620     1  0.0000000  0.6973333  3
  13618  13613  13599  13621     1  0.0000000  1.0460000  1
  13618  13613  13599  13621     1  0.0000000  0.0000000  3
  13622  13623  13626  13630     1  0.0000000  0.6508444  3
  13622  13623  13635  13638     1  0.0000000  1.0460000  1
  13622  13623  13635  13638     1  0.0000000  0.6694400  3
  13622  13636  13642  13643     1  0.0000000  1.0460000  1
  13622  13636  13642  13643     1  0.0000000  0.6694400  3
  13622  13644  13628  13631     1  0.0000000  1.6038667  3
  13623  13622  13636  13640     1  0.0000000  0.6508444  3
  13623  13622  13636  13641     1  0.0000000  0.6508444  3
  13623  13626  13627  13629     1  0.0000000  0.6508444  3
  13623  13626  13634  13637     1  0.0000000  1.0460000  1
  13623  13626  13634  13637     1  0.0000000  0.6694400  3
  13624  13622  13623  13626     1  0.0000000  0.6508444  3
  13624  13622  13623  13635     1  0.0000000  1.0460000  1
  13624  13622  13623  13635     1  0.0000000  0.0000000  3
  13624  13622  13623  13625     1  0.0000000  0.6508444  3
  13624  13622  13636  13642     1  0.0000000  1.0460000  1
  13624  13622  13636  13642     1  0.0000000  0.0000000  3
  13624  13622  13636  13640     1  0.0000000  0.6508444  3
  13624  13622  13636  13641     1  0.0000000  0.6508444  3
  13624  13622  13644  13628     1  0.0000000  1.6038667  3
  13625  13623  13622  13636     1  0.0000000  0.6508444  3
  13625  13623  13622  13644     1  0.0000000  1.0460000  1
  13625  13623  13622  13644     1  0.0000000  0.0000000  3
  13625  13623  13626  13627     1  0.0000000  0.6508444  3
  13625  13623  13626  13634     1  0.0000000  1.0460000  1
  13625  13623  13626  13634     1  0.0000000  0.0000000  3
  13625  13623  13626  13630     1  0.0000000  0.6508444  3
  13625  13623  13635  13638     1  0.0000000  0.6973333  3
  13626  13623  13635  13638     1  0.0000000  1.0460000  1
  13626  13623  13635  13638     1  0.0000000  0.6694400  3
  13626  13627  13628  13631     1  0.0000000  0.6508444  3
  13626  13627  13633  13639     1  0.0000000  1.0460000  1
  13626  13627  13633  13639     1  0.0000000  0.6694400  3
  13627  13626  13634  13637     1  0.0000000  1.0460000  1
  13627  13626  13634  13637     1  0.0000000  0.6694400  3
  13628  13627  13626  13630     1  0.0000000  0.6508444  3
  13628  13627  13633  13639     1  0.0000000  1.0460000  1
  13628  13627  13633  13639     1  0.0000000  0.6694400  3
  13629  13627  13626  13634     1  0.0000000  1.0460000  1
  13629  13627  13626  13634     1  0.0000000  0.0000000  3
  13629  13627  13626  13630     1  0.0000000  0.6508444  3
  13629  13627  13628  13632     1  0.0000000  1.0460000  1
  13629  13627  13628  13632     1  0.0000000  0.0000000  3
  13629  13627  13628  13644     1  0.0000000  1.0460000  1
  13629  13627  13628  13644     1  0.0000000  0.0000000  3
  13629  13627  13628  13631     1  0.0000000  0.6508444  3
  13629  13627  13633  13639     1  0.0000000  0.6973333  3
  13630  13626  13623  13635     1  0.0000000  1.0460000  1
  13630  13626  13623  13635     1  0.0000000  0.0000000  3
  13630  13626  13627  13633     1  0.0000000  1.0460000  1
  13630  13626  13627  13633     1  0.0000000  0.0000000  3
  13630  13626  13634  13637     1  0.0000000  0.6973333  3
  13631  13628  13627  13633     1  0.0000000  0.6508444  3
  13640  13636  13622  13644     1  0.0000000  1.0460000  1
  13640  13636  13622  13644     1  0.0000000  0.0000000  3
  13640  13636  13642  13643     1  0.0000000  0.6973333  3
  13641  13636  13622  13644     1  0.0000000  1.0460000  1
  13641  13636  13622  13644     1  0.0000000  0.0000000  3
  13641  13636  13642  13643     1  0.0000000  0.6973333  3
  13645  13646  13649  13653     1  0.0000000  0.6508444  3
  13645  13646  13658  13661     1  0.0000000  1.0460000  1
  13645  13646  13658  13661     1  0.0000000  0.6694400  3
  13645  13659  13665  13666     1  0.0000000  1.0460000  1
  13645  13659  13665  13666     1  0.0000000  0.6694400  3
  13645  13667  13651  13654     1  0.0000000  1.6038667  3
  13646  13649  13650  13652     1  0.0000000  0.6508444  3
  13646  13649  13657  13660     1  0.0000000  1.0460000  1
  13646  13649  13657  13660     1  0.0000000  0.6694400  3
  13646  13645  13659  13663     1  0.0000000  0.6508444  3
  13646  13645  13659  13664     1  0.0000000  0.6508444  3
  13647  13645  13646  13649     1  0.0000000  0.6508444  3
  13647  13645  13646  13658     1  0.0000000  1.0460000  1
  13647  13645  13646  13658     1  0.0000000  0.0000000  3
  13647  13645  13646  13648     1  0.0000000  0.6508444  3
  13647  13645  13659  13665     1  0.0000000  1.0460000  1
  13647  13645  13659  13665     1  0.0000000  0.0000000  3
  13647  13645  13659  13663     1  0.0000000  0.6508444  3
  13647  13645  13659  13664     1  0.0000000  0.6508444  3
  13647  13645  13667  13651     1  0.0000000  1.6038667  3
  13648  13646  13649  13650     1  0.0000000  0.6508444  3
  13648  13646  13649  13657     1  0.0000000  1.0460000  1
  13648  13646  13649  13657     1  0.0000000  0.0000000  3
  13648  13646  13649  13653     1  0.0000000  0.6508444  3
  13648  13646  13658  13661     1  0.0000000  0.6973333  3
  13648  13646  13645  13659     1  0.0000000  0.6508444  3
  13648  13646  13645  13667     1  0.0000000  1.0460000  1
  13648  13646  13645  13667     1  0.0000000  0.0000000  3
  13649  13650  13651  13654     1  0.0000000  0.6508444  3
  13649  13650  13656  13662     1  0.0000000  1.0460000  1
  13649  13650  13656  13662     1  0.0000000  0.6694400  3
  13649  13646  13658  13661     1  0.0000000  1.0460000  1
  13649  13646  13658  13661     1  0.0000000  0.6694400  3
  13650  13649  13657  13660     1  0.0000000  1.0460000  1
  13650  13649  13657  13660     1  0.0000000  0.6694400  3
  13651  13650  13656  13662     1  0.0000000  1.0460000  1
  13651  13650  13656  13662     1  0.0000000  0.6694400  3
  13651  13650  13649  13653     1  0.0000000  0.6508444  3
  13652  13650  13651  13655     1  0.0000000  1.0460000  1
  13652  13650  13651  13655     1  0.0000000  0.0000000  3
  13652  13650  13651  13667     1  0.0000000  1.0460000  1
  13652  13650  13651  13667     1  0.0000000  0.0000000  3
  13652  13650  13651  13654     1  0.0000000  0.6508444  3
  13652  13650  13656  13662     1  0.0000000  0.6973333  3
  13652  13650  13649  13657     1  0.0000000  1.0460000  1
  13652  13650  13649  13657     1  0.0000000  0.0000000  3
  13652  13650  13649  13653     1  0.0000000  0.6508444  3
  13653  13649  13650  13656     1  0.0000000  1.0460000  1
  13653  13649  13650  13656     1  0.0000000  0.0000000  3
  13653  13649  13657  13660     1  0.0000000  0.6973333  3
  13653  13649  13646  13658     1  0.0000000  1.0460000  1
  13653  13649  13646  13658     1  0.0000000  0.0000000  3
  13654  13651  13650  13656     1  0.0000000  0.6508444  3
  13663  13659  13665  13666     1  0.0000000  0.6973333  3
  13663  13659  13645  13667     1  0.0000000  1.0460000  1
  13663  13659  13645  13667     1  0.0000000  0.0000000  3
  13664  13659  13665  13666     1  0.0000000  0.6973333  3
  13664  13659  13645  13667     1  0.0000000  1.0460000  1
  13664  13659  13645  13667     1  0.0000000  0.0000000  3
  13668  13669  13672  13676     1  0.0000000  0.6508444  3
  13668  13669  13681  13684     1  0.0000000  1.0460000  1
  13668  13669  13681  13684     1  0.0000000  0.6694400  3
  13668  13682  13688  13689     1  0.0000000  1.0460000  1
  13668  13682  13688  13689     1  0.0000000  0.6694400  3
  13668  13690  13674  13677     1  0.0000000  1.6038667  3
  13669  13668  13682  13686     1  0.0000000  0.6508444  3
  13669  13668  13682  13687     1  0.0000000  0.6508444  3
  13669  13672  13673  13675     1  0.0000000  0.6508444  3
  13669  13672  13680  13683     1  0.0000000  1.0460000  1
  13669  13672  13680  13683     1  0.0000000  0.6694400  3
  13670  13668  13669  13672     1  0.0000000  0.6508444  3
  13670  13668  13669  13681     1  0.0000000  1.0460000  1
  13670  13668  13669  13681     1  0.0000000  0.0000000  3
  13670  13668  13669  13671     1  0.0000000  0.6508444  3
  13670  13668  13682  13688     1  0.0000000  1.0460000  1
  13670  13668  13682  13688     1  0.0000000  0.0000000  3
  13670  13668  13682  13686     1  0.0000000  0.6508444  3
  13670  13668  13682  13687     1  0.0000000  0.6508444  3
  13670  13668  13690  13674     1  0.0000000  1.6038667  3
  13671  13669  13668  13682     1  0.0000000  0.6508444  3
  13671  13669  13668  13690     1  0.0000000  1.0460000  1
  13671  13669  13668  13690     1  0.0000000  0.0000000  3
  13671  13669  13672  13673     1  0.0000000  0.6508444  3
  13671  13669  13672  13680     1  0.0000000  1.0460000  1
  13671  13669  13672  13680     1  0.0000000  0.0000000  3
  13671  13669  13672  13676     1  0.0000000  0.6508444  3
  13671  13669  13681  13684     1  0.0000000  0.6973333  3
  13672  13669  13681  13684     1  0.0000000  1.0460000  1
  13672  13669  13681  13684     1  0.0000000  0.6694400  3
  13672  13673  13674  13677     1  0.0000000  0.6508444  3
  13672  13673  13679  13685     1  0.0000000  1.0460000  1
  13672  13673  13679  13685     1  0.0000000  0.6694400  3
  13673  13672  13680  13683     1  0.0000000  1.0460000  1
  13673  13672  13680  13683     1  0.0000000  0.6694400  3
  13674  13673  13672  13676     1  0.0000000  0.6508444  3
  13674  13673  13679  13685     1  0.0000000  1.0460000  1
  13674  13673  13679  13685     1  0.0000000  0.6694400  3
  13675  13673  13672  13680     1  0.0000000  1.0460000  1
  13675  13673  13672  13680     1  0.0000000  0.0000000  3
  13675  13673  13672  13676     1  0.0000000  0.6508444  3
  13675  13673  13674  13678     1  0.0000000  1.0460000  1
  13675  13673  13674  13678     1  0.0000000  0.0000000  3
  13675  13673  13674  13690     1  0.0000000  1.0460000  1
  13675  13673  13674  13690     1  0.0000000  0.0000000  3
  13675  13673  13674  13677     1  0.0000000  0.6508444  3
  13675  13673  13679  13685     1  0.0000000  0.6973333  3
  13676  13672  13669  13681     1  0.0000000  1.0460000  1
  13676  13672  13669  13681     1  0.0000000  0.0000000  3
  13676  13672  13673  13679     1  0.0000000  1.0460000  1
  13676  13672  13673  13679     1  0.0000000  0.0000000  3
  13676  13672  13680  13683     1  0.0000000  0.6973333  3
  13677  13674  13673  13679     1  0.0000000  0.6508444  3
  13686  13682  13668  13690     1  0.0000000  1.0460000  1
  13686  13682  13668  13690     1  0.0000000  0.0000000  3
  13686  13682  13688  13689     1  0.0000000  0.6973333  3
  13687  13682  13668  13690     1  0.0000000  1.0460000  1
  13687  13682  13668  13690     1  0.0000000  0.0000000  3
  13687  13682  13688  13689     1  0.0000000  0.6973333  3
  13691  13692  13695  13699     1  0.0000000  0.6508444  3
  13691  13692  13704  13707     1  0.0000000  1.0460000  1
  13691  13692  13704  13707     1  0.0000000  0.6694400  3
  13691  13705  13711  13712     1  0.0000000  1.0460000  1
  13691  13705  13711  13712     1  0.0000000  0.6694400  3
  13691  13713  13697  13700     1  0.0000000  1.6038667  3
  13692  13695  13696  13698     1  0.0000000  0.6508444  3
  13692  13695  13703  13706     1  0.0000000  1.0460000  1
  13692  13695  13703  13706     1  0.0000000  0.6694400  3
  13692  13691  13705  13709     1  0.0000000  0.6508444  3
  13692  13691  13705  13710     1  0.0000000  0.6508444  3
  13693  13691  13692  13695     1  0.0000000  0.6508444  3
  13693  13691  13692  13704     1  0.0000000  1.0460000  1
  13693  13691  13692  13704     1  0.0000000  0.0000000  3
  13693  13691  13692  13694     1  0.0000000  0.6508444  3
  13693  13691  13705  13711     1  0.0000000  1.0460000  1
  13693  13691  13705  13711     1  0.0000000  0.0000000  3
  13693  13691  13705  13709     1  0.0000000  0.6508444  3
  13693  13691  13705  13710     1  0.0000000  0.6508444  3
  13693  13691  13713  13697     1  0.0000000  1.6038667  3
  13694  13692  13695  13696     1  0.0000000  0.6508444  3
  13694  13692  13695  13703     1  0.0000000  1.0460000  1
  13694  13692  13695  13703     1  0.0000000  0.0000000  3
  13694  13692  13695  13699     1  0.0000000  0.6508444  3
  13694  13692  13704  13707     1  0.0000000  0.6973333  3
  13694  13692  13691  13705     1  0.0000000  0.6508444  3
  13694  13692  13691  13713     1  0.0000000  1.0460000  1
  13694  13692  13691  13713     1  0.0000000  0.0000000  3
  13695  13696  13697  13700     1  0.0000000  0.6508444  3
  13695  13696  13702  13708     1  0.0000000  1.0460000  1
  13695  13696  13702  13708     1  0.0000000  0.6694400  3
  13695  13692  13704  13707     1  0.0000000  1.0460000  1
  13695  13692  13704  13707     1  0.0000000  0.6694400  3
  13696  13695  13703  13706     1  0.0000000  1.0460000  1
  13696  13695  13703  13706     1  0.0000000  0.6694400  3
  13697  13696  13702  13708     1  0.0000000  1.0460000  1
  13697  13696  13702  13708     1  0.0000000  0.6694400  3
  13697  13696  13695  13699     1  0.0000000  0.6508444  3
  13698  13696  13697  13701     1  0.0000000  1.0460000  1
  13698  13696  13697  13701     1  0.0000000  0.0000000  3
  13698  13696  13697  13713     1  0.0000000  1.0460000  1
  13698  13696  13697  13713     1  0.0000000  0.0000000  3
  13698  13696  13697  13700     1  0.0000000  0.6508444  3
  13698  13696  13702  13708     1  0.0000000  0.6973333  3
  13698  13696  13695  13703     1  0.0000000  1.0460000  1
  13698  13696  13695  13703     1  0.0000000  0.0000000  3
  13698  13696  13695  13699     1  0.0000000  0.6508444  3
  13699  13695  13696  13702     1  0.0000000  1.0460000  1
  13699  13695  13696  13702     1  0.0000000  0.0000000  3
  13699  13695  13703  13706     1  0.0000000  0.6973333  3
  13699  13695  13692  13704     1  0.0000000  1.0460000  1
  13699  13695  13692  13704     1  0.0000000  0.0000000  3
  13700  13697  13696  13702     1  0.0000000  0.6508444  3
  13709  13705  13711  13712     1  0.0000000  0.6973333  3
  13709  13705  13691  13713     1  0.0000000  1.0460000  1
  13709  13705  13691  13713     1  0.0000000  0.0000000  3
  13710  13705  13711  13712     1  0.0000000  0.6973333  3
  13710  13705  13691  13713     1  0.0000000  1.0460000  1
  13710  13705  13691  13713     1  0.0000000  0.0000000  3
  13714  13715  13718  13722     1  0.0000000  0.6508444  3
  13714  13715  13727  13730     1  0.0000000  1.0460000  1
  13714  13715  13727  13730     1  0.0000000  0.6694400  3
  13714  13728  13734  13735     1  0.0000000  1.0460000  1
  13714  13728  13734  13735     1  0.0000000  0.6694400  3
  13714  13736  13720  13723     1  0.0000000  1.6038667  3
  13715  13714  13728  13732     1  0.0000000  0.6508444  3
  13715  13714  13728  13733     1  0.0000000  0.6508444  3
  13715  13718  13719  13721     1  0.0000000  0.6508444  3
  13715  13718  13726  13729     1  0.0000000  1.0460000  1
  13715  13718  13726  13729     1  0.0000000  0.6694400  3
  13716  13714  13715  13718     1  0.0000000  0.6508444  3
  13716  13714  13715  13727     1  0.0000000  1.0460000  1
  13716  13714  13715  13727     1  0.0000000  0.0000000  3
  13716  13714  13715  13717     1  0.0000000  0.6508444  3
  13716  13714  13728  13734     1  0.0000000  1.0460000  1
  13716  13714  13728  13734     1  0.0000000  0.0000000  3
  13716  13714  13728  13732     1  0.0000000  0.6508444  3
  13716  13714  13728  13733     1  0.0000000  0.6508444  3
  13716  13714  13736  13720     1  0.0000000  1.6038667  3
  13717  13715  13714  13728     1  0.0000000  0.6508444  3
  13717  13715  13714  13736     1  0.0000000  1.0460000  1
  13717  13715  13714  13736     1  0.0000000  0.0000000  3
  13717  13715  13718  13719     1  0.0000000  0.6508444  3
  13717  13715  13718  13726     1  0.0000000  1.0460000  1
  13717  13715  13718  13726     1  0.0000000  0.0000000  3
  13717  13715  13718  13722     1  0.0000000  0.6508444  3
  13717  13715  13727  13730     1  0.0000000  0.6973333  3
  13718  13715  13727  13730     1  0.0000000  1.0460000  1
  13718  13715  13727  13730     1  0.0000000  0.6694400  3
  13718  13719  13720  13723     1  0.0000000  0.6508444  3
  13718  13719  13725  13731     1  0.0000000  1.0460000  1
  13718  13719  13725  13731     1  0.0000000  0.6694400  3
  13719  13718  13726  13729     1  0.0000000  1.0460000  1
  13719  13718  13726  13729     1  0.0000000  0.6694400  3
  13720  13719  13718  13722     1  0.0000000  0.6508444  3
  13720  13719  13725  13731     1  0.0000000  1.0460000  1
  13720  13719  13725  13731     1  0.0000000  0.6694400  3
  13721  13719  13718  13726     1  0.0000000  1.0460000  1
  13721  13719  13718  13726     1  0.0000000  0.0000000  3
  13721  13719  13718  13722     1  0.0000000  0.6508444  3
  13721  13719  13720  13724     1  0.0000000  1.0460000  1
  13721  13719  13720  13724     1  0.0000000  0.0000000  3
  13721  13719  13720  13736     1  0.0000000  1.0460000  1
  13721  13719  13720  13736     1  0.0000000  0.0000000  3
  13721  13719  13720  13723     1  0.0000000  0.6508444  3
  13721  13719  13725  13731     1  0.0000000  0.6973333  3
  13722  13718  13715  13727     1  0.0000000  1.0460000  1
  13722  13718  13715  13727     1  0.0000000  0.0000000  3
  13722  13718  13719  13725     1  0.0000000  1.0460000  1
  13722  13718  13719  13725     1  0.0000000  0.0000000  3
  13722  13718  13726  13729     1  0.0000000  0.6973333  3
  13723  13720  13719  13725     1  0.0000000  0.6508444  3
  13732  13728  13714  13736     1  0.0000000  1.0460000  1
  13732  13728  13714  13736     1  0.0000000  0.0000000  3
  13732  13728  13734  13735     1  0.0000000  0.6973333  3
  13733  13728  13714  13736     1  0.0000000  1.0460000  1
  13733  13728  13714  13736     1  0.0000000  0.0000000  3
  13733  13728  13734  13735     1  0.0000000  0.6973333  3
  13737  13738  13741  13745     1  0.0000000  0.6508444  3
  13737  13738  13750  13753     1  0.0000000  1.0460000  1
  13737  13738  13750  13753     1  0.0000000  0.6694400  3
  13737  13751  13757  13758     1  0.0000000  1.0460000  1
  13737  13751  13757  13758     1  0.0000000  0.6694400  3
  13737  13759  13743  13746     1  0.0000000  1.6038667  3
  13738  13741  13742  13744     1  0.0000000  0.6508444  3
  13738  13741  13749  13752     1  0.0000000  1.0460000  1
  13738  13741  13749  13752     1  0.0000000  0.6694400  3
  13738  13737  13751  13755     1  0.0000000  0.6508444  3
  13738  13737  13751  13756     1  0.0000000  0.6508444  3
  13739  13737  13738  13741     1  0.0000000  0.6508444  3
  13739  13737  13738  13750     1  0.0000000  1.0460000  1
  13739  13737  13738  13750     1  0.0000000  0.0000000  3
  13739  13737  13738  13740     1  0.0000000  0.6508444  3
  13739  13737  13751  13757     1  0.0000000  1.0460000  1
  13739  13737  13751  13757     1  0.0000000  0.0000000  3
  13739  13737  13751  13755     1  0.0000000  0.6508444  3
  13739  13737  13751  13756     1  0.0000000  0.6508444  3
  13739  13737  13759  13743     1  0.0000000  1.6038667  3
  13740  13738  13741  13742     1  0.0000000  0.6508444  3
  13740  13738  13741  13749     1  0.0000000  1.0460000  1
  13740  13738  13741  13749     1  0.0000000  0.0000000  3
  13740  13738  13741  13745     1  0.0000000  0.6508444  3
  13740  13738  13750  13753     1  0.0000000  0.6973333  3
  13740  13738  13737  13751     1  0.0000000  0.6508444  3
  13740  13738  13737  13759     1  0.0000000  1.0460000  1
  13740  13738  13737  13759     1  0.0000000  0.0000000  3
  13741  13742  13743  13746     1  0.0000000  0.6508444  3
  13741  13742  13748  13754     1  0.0000000  1.0460000  1
  13741  13742  13748  13754     1  0.0000000  0.6694400  3
  13741  13738  13750  13753     1  0.0000000  1.0460000  1
  13741  13738  13750  13753     1  0.0000000  0.6694400  3
  13742  13741  13749  13752     1  0.0000000  1.0460000  1
  13742  13741  13749  13752     1  0.0000000  0.6694400  3
  13743  13742  13748  13754     1  0.0000000  1.0460000  1
  13743  13742  13748  13754     1  0.0000000  0.6694400  3
  13743  13742  13741  13745     1  0.0000000  0.6508444  3
  13744  13742  13743  13747     1  0.0000000  1.0460000  1
  13744  13742  13743  13747     1  0.0000000  0.0000000  3
  13744  13742  13743  13759     1  0.0000000  1.0460000  1
  13744  13742  13743  13759     1  0.0000000  0.0000000  3
  13744  13742  13743  13746     1  0.0000000  0.6508444  3
  13744  13742  13748  13754     1  0.0000000  0.6973333  3
  13744  13742  13741  13749     1  0.0000000  1.0460000  1
  13744  13742  13741  13749     1  0.0000000  0.0000000  3
  13744  13742  13741  13745     1  0.0000000  0.6508444  3
  13745  13741  13742  13748     1  0.0000000  1.0460000  1
  13745  13741  13742  13748     1  0.0000000  0.0000000  3
  13745  13741  13749  13752     1  0.0000000  0.6973333  3
  13745  13741  13738  13750     1  0.0000000  1.0460000  1
  13745  13741  13738  13750     1  0.0000000  0.0000000  3
  13746  13743  13742  13748     1  0.0000000  0.6508444  3
  13755  13751  13757  13758     1  0.0000000  0.6973333  3
  13755  13751  13737  13759     1  0.0000000  1.0460000  1
  13755  13751  13737  13759     1  0.0000000  0.0000000  3
  13756  13751  13757  13758     1  0.0000000  0.6973333  3
  13756  13751  13737  13759     1  0.0000000  1.0460000  1
  13756  13751  13737  13759     1  0.0000000  0.0000000  3
  13760  13761  13764  13768     1  0.0000000  0.6508444  3
  13760  13761  13773  13776     1  0.0000000  1.0460000  1
  13760  13761  13773  13776     1  0.0000000  0.6694400  3
  13760  13774  13780  13781     1  0.0000000  1.0460000  1
  13760  13774  13780  13781     1  0.0000000  0.6694400  3
  13760  13782  13766  13769     1  0.0000000  1.6038667  3
  13761  13760  13774  13778     1  0.0000000  0.6508444  3
  13761  13760  13774  13779     1  0.0000000  0.6508444  3
  13761  13764  13765  13767     1  0.0000000  0.6508444  3
  13761  13764  13772  13775     1  0.0000000  1.0460000  1
  13761  13764  13772  13775     1  0.0000000  0.6694400  3
  13762  13760  13761  13764     1  0.0000000  0.6508444  3
  13762  13760  13761  13773     1  0.0000000  1.0460000  1
  13762  13760  13761  13773     1  0.0000000  0.0000000  3
  13762  13760  13761  13763     1  0.0000000  0.6508444  3
  13762  13760  13774  13780     1  0.0000000  1.0460000  1
  13762  13760  13774  13780     1  0.0000000  0.0000000  3
  13762  13760  13774  13778     1  0.0000000  0.6508444  3
  13762  13760  13774  13779     1  0.0000000  0.6508444  3
  13762  13760  13782  13766     1  0.0000000  1.6038667  3
  13763  13761  13760  13774     1  0.0000000  0.6508444  3
  13763  13761  13760  13782     1  0.0000000  1.0460000  1
  13763  13761  13760  13782     1  0.0000000  0.0000000  3
  13763  13761  13764  13765     1  0.0000000  0.6508444  3
  13763  13761  13764  13772     1  0.0000000  1.0460000  1
  13763  13761  13764  13772     1  0.0000000  0.0000000  3
  13763  13761  13764  13768     1  0.0000000  0.6508444  3
  13763  13761  13773  13776     1  0.0000000  0.6973333  3
  13764  13761  13773  13776     1  0.0000000  1.0460000  1
  13764  13761  13773  13776     1  0.0000000  0.6694400  3
  13764  13765  13766  13769     1  0.0000000  0.6508444  3
  13764  13765  13771  13777     1  0.0000000  1.0460000  1
  13764  13765  13771  13777     1  0.0000000  0.6694400  3
  13765  13764  13772  13775     1  0.0000000  1.0460000  1
  13765  13764  13772  13775     1  0.0000000  0.6694400  3
  13766  13765  13764  13768     1  0.0000000  0.6508444  3
  13766  13765  13771  13777     1  0.0000000  1.0460000  1
  13766  13765  13771  13777     1  0.0000000  0.6694400  3
  13767  13765  13764  13772     1  0.0000000  1.0460000  1
  13767  13765  13764  13772     1  0.0000000  0.0000000  3
  13767  13765  13764  13768     1  0.0000000  0.6508444  3
  13767  13765  13766  13770     1  0.0000000  1.0460000  1
  13767  13765  13766  13770     1  0.0000000  0.0000000  3
  13767  13765  13766  13782     1  0.0000000  1.0460000  1
  13767  13765  13766  13782     1  0.0000000  0.0000000  3
  13767  13765  13766  13769     1  0.0000000  0.6508444  3
  13767  13765  13771  13777     1  0.0000000  0.6973333  3
  13768  13764  13761  13773     1  0.0000000  1.0460000  1
  13768  13764  13761  13773     1  0.0000000  0.0000000  3
  13768  13764  13765  13771     1  0.0000000  1.0460000  1
  13768  13764  13765  13771     1  0.0000000  0.0000000  3
  13768  13764  13772  13775     1  0.0000000  0.6973333  3
  13769  13766  13765  13771     1  0.0000000  0.6508444  3
  13778  13774  13760  13782     1  0.0000000  1.0460000  1
  13778  13774  13760  13782     1  0.0000000  0.0000000  3
  13778  13774  13780  13781     1  0.0000000  0.6973333  3
  13779  13774  13760  13782     1  0.0000000  1.0460000  1
  13779  13774  13760  13782     1  0.0000000  0.0000000  3
  13779  13774  13780  13781     1  0.0000000  0.6973333  3
  13783  13784  13787  13791     1  0.0000000  0.6508444  3
  13783  13784  13796  13799     1  0.0000000  1.0460000  1
  13783  13784  13796  13799     1  0.0000000  0.6694400  3
  13783  13797  13803  13804     1  0.0000000  1.0460000  1
  13783  13797  13803  13804     1  0.0000000  0.6694400  3
  13783  13805  13789  13792     1  0.0000000  1.6038667  3
  13784  13787  13788  13790     1  0.0000000  0.6508444  3
  13784  13787  13795  13798     1  0.0000000  1.0460000  1
  13784  13787  13795  13798     1  0.0000000  0.6694400  3
  13784  13783  13797  13801     1  0.0000000  0.6508444  3
  13784  13783  13797  13802     1  0.0000000  0.6508444  3
  13785  13783  13784  13787     1  0.0000000  0.6508444  3
  13785  13783  13784  13796     1  0.0000000  1.0460000  1
  13785  13783  13784  13796     1  0.0000000  0.0000000  3
  13785  13783  13784  13786     1  0.0000000  0.6508444  3
  13785  13783  13797  13803     1  0.0000000  1.0460000  1
  13785  13783  13797  13803     1  0.0000000  0.0000000  3
  13785  13783  13797  13801     1  0.0000000  0.6508444  3
  13785  13783  13797  13802     1  0.0000000  0.6508444  3
  13785  13783  13805  13789     1  0.0000000  1.6038667  3
  13786  13784  13787  13788     1  0.0000000  0.6508444  3
  13786  13784  13787  13795     1  0.0000000  1.0460000  1
  13786  13784  13787  13795     1  0.0000000  0.0000000  3
  13786  13784  13787  13791     1  0.0000000  0.6508444  3
  13786  13784  13796  13799     1  0.0000000  0.6973333  3
  13786  13784  13783  13797     1  0.0000000  0.6508444  3
  13786  13784  13783  13805     1  0.0000000  1.0460000  1
  13786  13784  13783  13805     1  0.0000000  0.0000000  3
  13787  13788  13789  13792     1  0.0000000  0.6508444  3
  13787  13788  13794  13800     1  0.0000000  1.0460000  1
  13787  13788  13794  13800     1  0.0000000  0.6694400  3
  13787  13784  13796  13799     1  0.0000000  1.0460000  1
  13787  13784  13796  13799     1  0.0000000  0.6694400  3
  13788  13787  13795  13798     1  0.0000000  1.0460000  1
  13788  13787  13795  13798     1  0.0000000  0.6694400  3
  13789  13788  13794  13800     1  0.0000000  1.0460000  1
  13789  13788  13794  13800     1  0.0000000  0.6694400  3
  13789  13788  13787  13791     1  0.0000000  0.6508444  3
  13790  13788  13789  13793     1  0.0000000  1.0460000  1
  13790  13788  13789  13793     1  0.0000000  0.0000000  3
  13790  13788  13789  13805     1  0.0000000  1.0460000  1
  13790  13788  13789  13805     1  0.0000000  0.0000000  3
  13790  13788  13789  13792     1  0.0000000  0.6508444  3
  13790  13788  13794  13800     1  0.0000000  0.6973333  3
  13790  13788  13787  13795     1  0.0000000  1.0460000  1
  13790  13788  13787  13795     1  0.0000000  0.0000000  3
  13790  13788  13787  13791     1  0.0000000  0.6508444  3
  13791  13787  13788  13794     1  0.0000000  1.0460000  1
  13791  13787  13788  13794     1  0.0000000  0.0000000  3
  13791  13787  13795  13798     1  0.0000000  0.6973333  3
  13791  13787  13784  13796     1  0.0000000  1.0460000  1
  13791  13787  13784  13796     1  0.0000000  0.0000000  3
  13792  13789  13788  13794     1  0.0000000  0.6508444  3
  13801  13797  13803  13804     1  0.0000000  0.6973333  3
  13801  13797  13783  13805     1  0.0000000  1.0460000  1
  13801  13797  13783  13805     1  0.0000000  0.0000000  3
  13802  13797  13803  13804     1  0.0000000  0.6973333  3
  13802  13797  13783  13805     1  0.0000000  1.0460000  1
  13802  13797  13783  13805     1  0.0000000  0.0000000  3
  13806  13807  13810  13814     1  0.0000000  0.6508444  3
  13806  13807  13819  13822     1  0.0000000  1.0460000  1
  13806  13807  13819  13822     1  0.0000000  0.6694400  3
  13806  13820  13826  13827     1  0.0000000  1.0460000  1
  13806  13820  13826  13827     1  0.0000000  0.6694400  3
  13806  13828  13812  13815     1  0.0000000  1.6038667  3
  13807  13806  13820  13824     1  0.0000000  0.6508444  3
  13807  13806  13820  13825     1  0.0000000  0.6508444  3
  13807  13810  13811  13813     1  0.0000000  0.6508444  3
  13807  13810  13818  13821     1  0.0000000  1.0460000  1
  13807  13810  13818  13821     1  0.0000000  0.6694400  3
  13808  13806  13807  13810     1  0.0000000  0.6508444  3
  13808  13806  13807  13819     1  0.0000000  1.0460000  1
  13808  13806  13807  13819     1  0.0000000  0.0000000  3
  13808  13806  13807  13809     1  0.0000000  0.6508444  3
  13808  13806  13820  13826     1  0.0000000  1.0460000  1
  13808  13806  13820  13826     1  0.0000000  0.0000000  3
  13808  13806  13820  13824     1  0.0000000  0.6508444  3
  13808  13806  13820  13825     1  0.0000000  0.6508444  3
  13808  13806  13828  13812     1  0.0000000  1.6038667  3
  13809  13807  13806  13820     1  0.0000000  0.6508444  3
  13809  13807  13806  13828     1  0.0000000  1.0460000  1
  13809  13807  13806  13828     1  0.0000000  0.0000000  3
  13809  13807  13810  13811     1  0.0000000  0.6508444  3
  13809  13807  13810  13818     1  0.0000000  1.0460000  1
  13809  13807  13810  13818     1  0.0000000  0.0000000  3
  13809  13807  13810  13814     1  0.0000000  0.6508444  3
  13809  13807  13819  13822     1  0.0000000  0.6973333  3
  13810  13807  13819  13822     1  0.0000000  1.0460000  1
  13810  13807  13819  13822     1  0.0000000  0.6694400  3
  13810  13811  13812  13815     1  0.0000000  0.6508444  3
  13810  13811  13817  13823     1  0.0000000  1.0460000  1
  13810  13811  13817  13823     1  0.0000000  0.6694400  3
  13811  13810  13818  13821     1  0.0000000  1.0460000  1
  13811  13810  13818  13821     1  0.0000000  0.6694400  3
  13812  13811  13810  13814     1  0.0000000  0.6508444  3
  13812  13811  13817  13823     1  0.0000000  1.0460000  1
  13812  13811  13817  13823     1  0.0000000  0.6694400  3
  13813  13811  13810  13818     1  0.0000000  1.0460000  1
  13813  13811  13810  13818     1  0.0000000  0.0000000  3
  13813  13811  13810  13814     1  0.0000000  0.6508444  3
  13813  13811  13812  13816     1  0.0000000  1.0460000  1
  13813  13811  13812  13816     1  0.0000000  0.0000000  3
  13813  13811  13812  13828     1  0.0000000  1.0460000  1
  13813  13811  13812  13828     1  0.0000000  0.0000000  3
  13813  13811  13812  13815     1  0.0000000  0.6508444  3
  13813  13811  13817  13823     1  0.0000000  0.6973333  3
  13814  13810  13807  13819     1  0.0000000  1.0460000  1
  13814  13810  13807  13819     1  0.0000000  0.0000000  3
  13814  13810  13811  13817     1  0.0000000  1.0460000  1
  13814  13810  13811  13817     1  0.0000000  0.0000000  3
  13814  13810  13818  13821     1  0.0000000  0.6973333  3
  13815  13812  13811  13817     1  0.0000000  0.6508444  3
  13824  13820  13806  13828     1  0.0000000  1.0460000  1
  13824  13820  13806  13828     1  0.0000000  0.0000000  3
  13824  13820  13826  13827     1  0.0000000  0.6973333  3
  13825  13820  13806  13828     1  0.0000000  1.0460000  1
  13825  13820  13806  13828     1  0.0000000  0.0000000  3
  13825  13820  13826  13827     1  0.0000000  0.6973333  3
  13829  13830  13833  13837     1  0.0000000  0.6508444  3
  13829  13830  13842  13845     1  0.0000000  1.0460000  1
  13829  13830  13842  13845     1  0.0000000  0.6694400  3
  13829  13843  13849  13850     1  0.0000000  1.0460000  1
  13829  13843  13849  13850     1  0.0000000  0.6694400  3
  13829  13851  13835  13838     1  0.0000000  1.6038667  3
  13830  13833  13834  13836     1  0.0000000  0.6508444  3
  13830  13833  13841  13844     1  0.0000000  1.0460000  1
  13830  13833  13841  13844     1  0.0000000  0.6694400  3
  13830  13829  13843  13847     1  0.0000000  0.6508444  3
  13830  13829  13843  13848     1  0.0000000  0.6508444  3
  13831  13829  13830  13833     1  0.0000000  0.6508444  3
  13831  13829  13830  13842     1  0.0000000  1.0460000  1
  13831  13829  13830  13842     1  0.0000000  0.0000000  3
  13831  13829  13830  13832     1  0.0000000  0.6508444  3
  13831  13829  13843  13849     1  0.0000000  1.0460000  1
  13831  13829  13843  13849     1  0.0000000  0.0000000  3
  13831  13829  13843  13847     1  0.0000000  0.6508444  3
  13831  13829  13843  13848     1  0.0000000  0.6508444  3
  13831  13829  13851  13835     1  0.0000000  1.6038667  3
  13832  13830  13833  13834     1  0.0000000  0.6508444  3
  13832  13830  13833  13841     1  0.0000000  1.0460000  1
  13832  13830  13833  13841     1  0.0000000  0.0000000  3
  13832  13830  13833  13837     1  0.0000000  0.6508444  3
  13832  13830  13842  13845     1  0.0000000  0.6973333  3
  13832  13830  13829  13843     1  0.0000000  0.6508444  3
  13832  13830  13829  13851     1  0.0000000  1.0460000  1
  13832  13830  13829  13851     1  0.0000000  0.0000000  3
  13833  13834  13835  13838     1  0.0000000  0.6508444  3
  13833  13834  13840  13846     1  0.0000000  1.0460000  1
  13833  13834  13840  13846     1  0.0000000  0.6694400  3
  13833  13830  13842  13845     1  0.0000000  1.0460000  1
  13833  13830  13842  13845     1  0.0000000  0.6694400  3
  13834  13833  13841  13844     1  0.0000000  1.0460000  1
  13834  13833  13841  13844     1  0.0000000  0.6694400  3
  13835  13834  13840  13846     1  0.0000000  1.0460000  1
  13835  13834  13840  13846     1  0.0000000  0.6694400  3
  13835  13834  13833  13837     1  0.0000000  0.6508444  3
  13836  13834  13835  13839     1  0.0000000  1.0460000  1
  13836  13834  13835  13839     1  0.0000000  0.0000000  3
  13836  13834  13835  13851     1  0.0000000  1.0460000  1
  13836  13834  13835  13851     1  0.0000000  0.0000000  3
  13836  13834  13835  13838     1  0.0000000  0.6508444  3
  13836  13834  13840  13846     1  0.0000000  0.6973333  3
  13836  13834  13833  13841     1  0.0000000  1.0460000  1
  13836  13834  13833  13841     1  0.0000000  0.0000000  3
  13836  13834  13833  13837     1  0.0000000  0.6508444  3
  13837  13833  13834  13840     1  0.0000000  1.0460000  1
  13837  13833  13834  13840     1  0.0000000  0.0000000  3
  13837  13833  13841  13844     1  0.0000000  0.6973333  3
  13837  13833  13830  13842     1  0.0000000  1.0460000  1
  13837  13833  13830  13842     1  0.0000000  0.0000000  3
  13838  13835  13834  13840     1  0.0000000  0.6508444  3
  13847  13843  13849  13850     1  0.0000000  0.6973333  3
  13847  13843  13829  13851     1  0.0000000  1.0460000  1
  13847  13843  13829  13851     1  0.0000000  0.0000000  3
  13848  13843  13849  13850     1  0.0000000  0.6973333  3
  13848  13843  13829  13851     1  0.0000000  1.0460000  1
  13848  13843  13829  13851     1  0.0000000  0.0000000  3
  13852  13853  13856  13860     1  0.0000000  0.6508444  3
  13852  13853  13865  13868     1  0.0000000  1.0460000  1
  13852  13853  13865  13868     1  0.0000000  0.6694400  3
  13852  13866  13872  13873     1  0.0000000  1.0460000  1
  13852  13866  13872  13873     1  0.0000000  0.6694400  3
  13852  13874  13858  13861     1  0.0000000  1.6038667  3
  13853  13852  13866  13870     1  0.0000000  0.6508444  3
  13853  13852  13866  13871     1  0.0000000  0.6508444  3
  13853  13856  13857  13859     1  0.0000000  0.6508444  3
  13853  13856  13864  13867     1  0.0000000  1.0460000  1
  13853  13856  13864  13867     1  0.0000000  0.6694400  3
  13854  13852  13853  13856     1  0.0000000  0.6508444  3
  13854  13852  13853  13865     1  0.0000000  1.0460000  1
  13854  13852  13853  13865     1  0.0000000  0.0000000  3
  13854  13852  13853  13855     1  0.0000000  0.6508444  3
  13854  13852  13866  13872     1  0.0000000  1.0460000  1
  13854  13852  13866  13872     1  0.0000000  0.0000000  3
  13854  13852  13866  13870     1  0.0000000  0.6508444  3
  13854  13852  13866  13871     1  0.0000000  0.6508444  3
  13854  13852  13874  13858     1  0.0000000  1.6038667  3
  13855  13853  13852  13866     1  0.0000000  0.6508444  3
  13855  13853  13852  13874     1  0.0000000  1.0460000  1
  13855  13853  13852  13874     1  0.0000000  0.0000000  3
  13855  13853  13856  13857     1  0.0000000  0.6508444  3
  13855  13853  13856  13864     1  0.0000000  1.0460000  1
  13855  13853  13856  13864     1  0.0000000  0.0000000  3
  13855  13853  13856  13860     1  0.0000000  0.6508444  3
  13855  13853  13865  13868     1  0.0000000  0.6973333  3
  13856  13853  13865  13868     1  0.0000000  1.0460000  1
  13856  13853  13865  13868     1  0.0000000  0.6694400  3
  13856  13857  13858  13861     1  0.0000000  0.6508444  3
  13856  13857  13863  13869     1  0.0000000  1.0460000  1
  13856  13857  13863  13869     1  0.0000000  0.6694400  3
  13857  13856  13864  13867     1  0.0000000  1.0460000  1
  13857  13856  13864  13867     1  0.0000000  0.6694400  3
  13858  13857  13856  13860     1  0.0000000  0.6508444  3
  13858  13857  13863  13869     1  0.0000000  1.0460000  1
  13858  13857  13863  13869     1  0.0000000  0.6694400  3
  13859  13857  13856  13864     1  0.0000000  1.0460000  1
  13859  13857  13856  13864     1  0.0000000  0.0000000  3
  13859  13857  13856  13860     1  0.0000000  0.6508444  3
  13859  13857  13858  13862     1  0.0000000  1.0460000  1
  13859  13857  13858  13862     1  0.0000000  0.0000000  3
  13859  13857  13858  13874     1  0.0000000  1.0460000  1
  13859  13857  13858  13874     1  0.0000000  0.0000000  3
  13859  13857  13858  13861     1  0.0000000  0.6508444  3
  13859  13857  13863  13869     1  0.0000000  0.6973333  3
  13860  13856  13853  13865     1  0.0000000  1.0460000  1
  13860  13856  13853  13865     1  0.0000000  0.0000000  3
  13860  13856  13857  13863     1  0.0000000  1.0460000  1
  13860  13856  13857  13863     1  0.0000000  0.0000000  3
  13860  13856  13864  13867     1  0.0000000  0.6973333  3
  13861  13858  13857  13863     1  0.0000000  0.6508444  3
  13870  13866  13852  13874     1  0.0000000  1.0460000  1
  13870  13866  13852  13874     1  0.0000000  0.0000000  3
  13870  13866  13872  13873     1  0.0000000  0.6973333  3
  13871  13866  13852  13874     1  0.0000000  1.0460000  1
  13871  13866  13852  13874     1  0.0000000  0.0000000  3
  13871  13866  13872  13873     1  0.0000000  0.6973333  3
  13875  13876  13879  13883     1  0.0000000  0.6508444  3
  13875  13876  13888  13891     1  0.0000000  1.0460000  1
  13875  13876  13888  13891     1  0.0000000  0.6694400  3
  13875  13889  13895  13896     1  0.0000000  1.0460000  1
  13875  13889  13895  13896     1  0.0000000  0.6694400  3
  13875  13897  13881  13884     1  0.0000000  1.6038667  3
  13876  13879  13880  13882     1  0.0000000  0.6508444  3
  13876  13879  13887  13890     1  0.0000000  1.0460000  1
  13876  13879  13887  13890     1  0.0000000  0.6694400  3
  13876  13875  13889  13893     1  0.0000000  0.6508444  3
  13876  13875  13889  13894     1  0.0000000  0.6508444  3
  13877  13875  13876  13879     1  0.0000000  0.6508444  3
  13877  13875  13876  13888     1  0.0000000  1.0460000  1
  13877  13875  13876  13888     1  0.0000000  0.0000000  3
  13877  13875  13876  13878     1  0.0000000  0.6508444  3
  13877  13875  13889  13895     1  0.0000000  1.0460000  1
  13877  13875  13889  13895     1  0.0000000  0.0000000  3
  13877  13875  13889  13893     1  0.0000000  0.6508444  3
  13877  13875  13889  13894     1  0.0000000  0.6508444  3
  13877  13875  13897  13881     1  0.0000000  1.6038667  3
  13878  13876  13879  13880     1  0.0000000  0.6508444  3
  13878  13876  13879  13887     1  0.0000000  1.0460000  1
  13878  13876  13879  13887     1  0.0000000  0.0000000  3
  13878  13876  13879  13883     1  0.0000000  0.6508444  3
  13878  13876  13888  13891     1  0.0000000  0.6973333  3
  13878  13876  13875  13889     1  0.0000000  0.6508444  3
  13878  13876  13875  13897     1  0.0000000  1.0460000  1
  13878  13876  13875  13897     1  0.0000000  0.0000000  3
  13879  13880  13881  13884     1  0.0000000  0.6508444  3
  13879  13880  13886  13892     1  0.0000000  1.0460000  1
  13879  13880  13886  13892     1  0.0000000  0.6694400  3
  13879  13876  13888  13891     1  0.0000000  1.0460000  1
  13879  13876  13888  13891     1  0.0000000  0.6694400  3
  13880  13879  13887  13890     1  0.0000000  1.0460000  1
  13880  13879  13887  13890     1  0.0000000  0.6694400  3
  13881  13880  13886  13892     1  0.0000000  1.0460000  1
  13881  13880  13886  13892     1  0.0000000  0.6694400  3
  13881  13880  13879  13883     1  0.0000000  0.6508444  3
  13882  13880  13881  13885     1  0.0000000  1.0460000  1
  13882  13880  13881  13885     1  0.0000000  0.0000000  3
  13882  13880  13881  13897     1  0.0000000  1.0460000  1
  13882  13880  13881  13897     1  0.0000000  0.0000000  3
  13882  13880  13881  13884     1  0.0000000  0.6508444  3
  13882  13880  13886  13892     1  0.0000000  0.6973333  3
  13882  13880  13879  13887     1  0.0000000  1.0460000  1
  13882  13880  13879  13887     1  0.0000000  0.0000000  3
  13882  13880  13879  13883     1  0.0000000  0.6508444  3
  13883  13879  13880  13886     1  0.0000000  1.0460000  1
  13883  13879  13880  13886     1  0.0000000  0.0000000  3
  13883  13879  13887  13890     1  0.0000000  0.6973333  3
  13883  13879  13876  13888     1  0.0000000  1.0460000  1
  13883  13879  13876  13888     1  0.0000000  0.0000000  3
  13884  13881  13880  13886     1  0.0000000  0.6508444  3
  13893  13889  13895  13896     1  0.0000000  0.6973333  3
  13893  13889  13875  13897     1  0.0000000  1.0460000  1
  13893  13889  13875  13897     1  0.0000000  0.0000000  3
  13894  13889  13895  13896     1  0.0000000  0.6973333  3
  13894  13889  13875  13897     1  0.0000000  1.0460000  1
  13894  13889  13875  13897     1  0.0000000  0.0000000  3
  13898  13899  13902  13906     1  0.0000000  0.6508444  3
  13898  13899  13911  13914     1  0.0000000  1.0460000  1
  13898  13899  13911  13914     1  0.0000000  0.6694400  3
  13898  13912  13918  13919     1  0.0000000  1.0460000  1
  13898  13912  13918  13919     1  0.0000000  0.6694400  3
  13898  13920  13904  13907     1  0.0000000  1.6038667  3
  13899  13898  13912  13916     1  0.0000000  0.6508444  3
  13899  13898  13912  13917     1  0.0000000  0.6508444  3
  13899  13902  13903  13905     1  0.0000000  0.6508444  3
  13899  13902  13910  13913     1  0.0000000  1.0460000  1
  13899  13902  13910  13913     1  0.0000000  0.6694400  3
  13900  13898  13899  13902     1  0.0000000  0.6508444  3
  13900  13898  13899  13911     1  0.0000000  1.0460000  1
  13900  13898  13899  13911     1  0.0000000  0.0000000  3
  13900  13898  13899  13901     1  0.0000000  0.6508444  3
  13900  13898  13912  13918     1  0.0000000  1.0460000  1
  13900  13898  13912  13918     1  0.0000000  0.0000000  3
  13900  13898  13912  13916     1  0.0000000  0.6508444  3
  13900  13898  13912  13917     1  0.0000000  0.6508444  3
  13900  13898  13920  13904     1  0.0000000  1.6038667  3
  13901  13899  13898  13912     1  0.0000000  0.6508444  3
  13901  13899  13898  13920     1  0.0000000  1.0460000  1
  13901  13899  13898  13920     1  0.0000000  0.0000000  3
  13901  13899  13902  13903     1  0.0000000  0.6508444  3
  13901  13899  13902  13910     1  0.0000000  1.0460000  1
  13901  13899  13902  13910     1  0.0000000  0.0000000  3
  13901  13899  13902  13906     1  0.0000000  0.6508444  3
  13901  13899  13911  13914     1  0.0000000  0.6973333  3
  13902  13899  13911  13914     1  0.0000000  1.0460000  1
  13902  13899  13911  13914     1  0.0000000  0.6694400  3
  13902  13903  13904  13907     1  0.0000000  0.6508444  3
  13902  13903  13909  13915     1  0.0000000  1.0460000  1
  13902  13903  13909  13915     1  0.0000000  0.6694400  3
  13903  13902  13910  13913     1  0.0000000  1.0460000  1
  13903  13902  13910  13913     1  0.0000000  0.6694400  3
  13904  13903  13902  13906     1  0.0000000  0.6508444  3
  13904  13903  13909  13915     1  0.0000000  1.0460000  1
  13904  13903  13909  13915     1  0.0000000  0.6694400  3
  13905  13903  13902  13910     1  0.0000000  1.0460000  1
  13905  13903  13902  13910     1  0.0000000  0.0000000  3
  13905  13903  13902  13906     1  0.0000000  0.6508444  3
  13905  13903  13904  13908     1  0.0000000  1.0460000  1
  13905  13903  13904  13908     1  0.0000000  0.0000000  3
  13905  13903  13904  13920     1  0.0000000  1.0460000  1
  13905  13903  13904  13920     1  0.0000000  0.0000000  3
  13905  13903  13904  13907     1  0.0000000  0.6508444  3
  13905  13903  13909  13915     1  0.0000000  0.6973333  3
  13906  13902  13899  13911     1  0.0000000  1.0460000  1
  13906  13902  13899  13911     1  0.0000000  0.0000000  3
  13906  13902  13903  13909     1  0.0000000  1.0460000  1
  13906  13902  13903  13909     1  0.0000000  0.0000000  3
  13906  13902  13910  13913     1  0.0000000  0.6973333  3
  13907  13904  13903  13909     1  0.0000000  0.6508444  3
  13916  13912  13898  13920     1  0.0000000  1.0460000  1
  13916  13912  13898  13920     1  0.0000000  0.0000000  3
  13916  13912  13918  13919     1  0.0000000  0.6973333  3
  13917  13912  13898  13920     1  0.0000000  1.0460000  1
  13917  13912  13898  13920     1  0.0000000  0.0000000  3
  13917  13912  13918  13919     1  0.0000000  0.6973333  3
  13921  13922  13925  13929     1  0.0000000  0.6508444  3
  13921  13922  13934  13937     1  0.0000000  1.0460000  1
  13921  13922  13934  13937     1  0.0000000  0.6694400  3
  13921  13935  13941  13942     1  0.0000000  1.0460000  1
  13921  13935  13941  13942     1  0.0000000  0.6694400  3
  13921  13943  13927  13930     1  0.0000000  1.6038667  3
  13922  13925  13926  13928     1  0.0000000  0.6508444  3
  13922  13925  13933  13936     1  0.0000000  1.0460000  1
  13922  13925  13933  13936     1  0.0000000  0.6694400  3
  13922  13921  13935  13939     1  0.0000000  0.6508444  3
  13922  13921  13935  13940     1  0.0000000  0.6508444  3
  13923  13921  13922  13925     1  0.0000000  0.6508444  3
  13923  13921  13922  13934     1  0.0000000  1.0460000  1
  13923  13921  13922  13934     1  0.0000000  0.0000000  3
  13923  13921  13922  13924     1  0.0000000  0.6508444  3
  13923  13921  13935  13941     1  0.0000000  1.0460000  1
  13923  13921  13935  13941     1  0.0000000  0.0000000  3
  13923  13921  13935  13939     1  0.0000000  0.6508444  3
  13923  13921  13935  13940     1  0.0000000  0.6508444  3
  13923  13921  13943  13927     1  0.0000000  1.6038667  3
  13924  13922  13925  13926     1  0.0000000  0.6508444  3
  13924  13922  13925  13933     1  0.0000000  1.0460000  1
  13924  13922  13925  13933     1  0.0000000  0.0000000  3
  13924  13922  13925  13929     1  0.0000000  0.6508444  3
  13924  13922  13934  13937     1  0.0000000  0.6973333  3
  13924  13922  13921  13935     1  0.0000000  0.6508444  3
  13924  13922  13921  13943     1  0.0000000  1.0460000  1
  13924  13922  13921  13943     1  0.0000000  0.0000000  3
  13925  13926  13927  13930     1  0.0000000  0.6508444  3
  13925  13926  13932  13938     1  0.0000000  1.0460000  1
  13925  13926  13932  13938     1  0.0000000  0.6694400  3
  13925  13922  13934  13937     1  0.0000000  1.0460000  1
  13925  13922  13934  13937     1  0.0000000  0.6694400  3
  13926  13925  13933  13936     1  0.0000000  1.0460000  1
  13926  13925  13933  13936     1  0.0000000  0.6694400  3
  13927  13926  13932  13938     1  0.0000000  1.0460000  1
  13927  13926  13932  13938     1  0.0000000  0.6694400  3
  13927  13926  13925  13929     1  0.0000000  0.6508444  3
  13928  13926  13927  13931     1  0.0000000  1.0460000  1
  13928  13926  13927  13931     1  0.0000000  0.0000000  3
  13928  13926  13927  13943     1  0.0000000  1.0460000  1
  13928  13926  13927  13943     1  0.0000000  0.0000000  3
  13928  13926  13927  13930     1  0.0000000  0.6508444  3
  13928  13926  13932  13938     1  0.0000000  0.6973333  3
  13928  13926  13925  13933     1  0.0000000  1.0460000  1
  13928  13926  13925  13933     1  0.0000000  0.0000000  3
  13928  13926  13925  13929     1  0.0000000  0.6508444  3
  13929  13925  13926  13932     1  0.0000000  1.0460000  1
  13929  13925  13926  13932     1  0.0000000  0.0000000  3
  13929  13925  13933  13936     1  0.0000000  0.6973333  3
  13929  13925  13922  13934     1  0.0000000  1.0460000  1
  13929  13925  13922  13934     1  0.0000000  0.0000000  3
  13930  13927  13926  13932     1  0.0000000  0.6508444  3
  13939  13935  13941  13942     1  0.0000000  0.6973333  3
  13939  13935  13921  13943     1  0.0000000  1.0460000  1
  13939  13935  13921  13943     1  0.0000000  0.0000000  3
  13940  13935  13941  13942     1  0.0000000  0.6973333  3
  13940  13935  13921  13943     1  0.0000000  1.0460000  1
  13940  13935  13921  13943     1  0.0000000  0.0000000  3
  13944  13945  13948  13952     1  0.0000000  0.6508444  3
  13944  13945  13957  13960     1  0.0000000  1.0460000  1
  13944  13945  13957  13960     1  0.0000000  0.6694400  3
  13944  13958  13964  13965     1  0.0000000  1.0460000  1
  13944  13958  13964  13965     1  0.0000000  0.6694400  3
  13944  13966  13950  13953     1  0.0000000  1.6038667  3
  13945  13944  13958  13962     1  0.0000000  0.6508444  3
  13945  13944  13958  13963     1  0.0000000  0.6508444  3
  13945  13948  13949  13951     1  0.0000000  0.6508444  3
  13945  13948  13956  13959     1  0.0000000  1.0460000  1
  13945  13948  13956  13959     1  0.0000000  0.6694400  3
  13946  13944  13945  13948     1  0.0000000  0.6508444  3
  13946  13944  13945  13957     1  0.0000000  1.0460000  1
  13946  13944  13945  13957     1  0.0000000  0.0000000  3
  13946  13944  13945  13947     1  0.0000000  0.6508444  3
  13946  13944  13958  13964     1  0.0000000  1.0460000  1
  13946  13944  13958  13964     1  0.0000000  0.0000000  3
  13946  13944  13958  13962     1  0.0000000  0.6508444  3
  13946  13944  13958  13963     1  0.0000000  0.6508444  3
  13946  13944  13966  13950     1  0.0000000  1.6038667  3
  13947  13945  13944  13958     1  0.0000000  0.6508444  3
  13947  13945  13944  13966     1  0.0000000  1.0460000  1
  13947  13945  13944  13966     1  0.0000000  0.0000000  3
  13947  13945  13948  13949     1  0.0000000  0.6508444  3
  13947  13945  13948  13956     1  0.0000000  1.0460000  1
  13947  13945  13948  13956     1  0.0000000  0.0000000  3
  13947  13945  13948  13952     1  0.0000000  0.6508444  3
  13947  13945  13957  13960     1  0.0000000  0.6973333  3
  13948  13945  13957  13960     1  0.0000000  1.0460000  1
  13948  13945  13957  13960     1  0.0000000  0.6694400  3
  13948  13949  13950  13953     1  0.0000000  0.6508444  3
  13948  13949  13955  13961     1  0.0000000  1.0460000  1
  13948  13949  13955  13961     1  0.0000000  0.6694400  3
  13949  13948  13956  13959     1  0.0000000  1.0460000  1
  13949  13948  13956  13959     1  0.0000000  0.6694400  3
  13950  13949  13948  13952     1  0.0000000  0.6508444  3
  13950  13949  13955  13961     1  0.0000000  1.0460000  1
  13950  13949  13955  13961     1  0.0000000  0.6694400  3
  13951  13949  13948  13956     1  0.0000000  1.0460000  1
  13951  13949  13948  13956     1  0.0000000  0.0000000  3
  13951  13949  13948  13952     1  0.0000000  0.6508444  3
  13951  13949  13950  13954     1  0.0000000  1.0460000  1
  13951  13949  13950  13954     1  0.0000000  0.0000000  3
  13951  13949  13950  13966     1  0.0000000  1.0460000  1
  13951  13949  13950  13966     1  0.0000000  0.0000000  3
  13951  13949  13950  13953     1  0.0000000  0.6508444  3
  13951  13949  13955  13961     1  0.0000000  0.6973333  3
  13952  13948  13945  13957     1  0.0000000  1.0460000  1
  13952  13948  13945  13957     1  0.0000000  0.0000000  3
  13952  13948  13949  13955     1  0.0000000  1.0460000  1
  13952  13948  13949  13955     1  0.0000000  0.0000000  3
  13952  13948  13956  13959     1  0.0000000  0.6973333  3
  13953  13950  13949  13955     1  0.0000000  0.6508444  3
  13962  13958  13944  13966     1  0.0000000  1.0460000  1
  13962  13958  13944  13966     1  0.0000000  0.0000000  3
  13962  13958  13964  13965     1  0.0000000  0.6973333  3
  13963  13958  13944  13966     1  0.0000000  1.0460000  1
  13963  13958  13944  13966     1  0.0000000  0.0000000  3
  13963  13958  13964  13965     1  0.0000000  0.6973333  3
  13967  13968  13971  13975     1  0.0000000  0.6508444  3
  13967  13968  13980  13983     1  0.0000000  1.0460000  1
  13967  13968  13980  13983     1  0.0000000  0.6694400  3
  13967  13981  13987  13988     1  0.0000000  1.0460000  1
  13967  13981  13987  13988     1  0.0000000  0.6694400  3
  13967  13989  13973  13976     1  0.0000000  1.6038667  3
  13968  13971  13972  13974     1  0.0000000  0.6508444  3
  13968  13971  13979  13982     1  0.0000000  1.0460000  1
  13968  13971  13979  13982     1  0.0000000  0.6694400  3
  13968  13967  13981  13985     1  0.0000000  0.6508444  3
  13968  13967  13981  13986     1  0.0000000  0.6508444  3
  13969  13967  13968  13971     1  0.0000000  0.6508444  3
  13969  13967  13968  13980     1  0.0000000  1.0460000  1
  13969  13967  13968  13980     1  0.0000000  0.0000000  3
  13969  13967  13968  13970     1  0.0000000  0.6508444  3
  13969  13967  13981  13987     1  0.0000000  1.0460000  1
  13969  13967  13981  13987     1  0.0000000  0.0000000  3
  13969  13967  13981  13985     1  0.0000000  0.6508444  3
  13969  13967  13981  13986     1  0.0000000  0.6508444  3
  13969  13967  13989  13973     1  0.0000000  1.6038667  3
  13970  13968  13971  13972     1  0.0000000  0.6508444  3
  13970  13968  13971  13979     1  0.0000000  1.0460000  1
  13970  13968  13971  13979     1  0.0000000  0.0000000  3
  13970  13968  13971  13975     1  0.0000000  0.6508444  3
  13970  13968  13980  13983     1  0.0000000  0.6973333  3
  13970  13968  13967  13981     1  0.0000000  0.6508444  3
  13970  13968  13967  13989     1  0.0000000  1.0460000  1
  13970  13968  13967  13989     1  0.0000000  0.0000000  3
  13971  13972  13973  13976     1  0.0000000  0.6508444  3
  13971  13972  13978  13984     1  0.0000000  1.0460000  1
  13971  13972  13978  13984     1  0.0000000  0.6694400  3
  13971  13968  13980  13983     1  0.0000000  1.0460000  1
  13971  13968  13980  13983     1  0.0000000  0.6694400  3
  13972  13971  13979  13982     1  0.0000000  1.0460000  1
  13972  13971  13979  13982     1  0.0000000  0.6694400  3
  13973  13972  13978  13984     1  0.0000000  1.0460000  1
  13973  13972  13978  13984     1  0.0000000  0.6694400  3
  13973  13972  13971  13975     1  0.0000000  0.6508444  3
  13974  13972  13973  13977     1  0.0000000  1.0460000  1
  13974  13972  13973  13977     1  0.0000000  0.0000000  3
  13974  13972  13973  13989     1  0.0000000  1.0460000  1
  13974  13972  13973  13989     1  0.0000000  0.0000000  3
  13974  13972  13973  13976     1  0.0000000  0.6508444  3
  13974  13972  13978  13984     1  0.0000000  0.6973333  3
  13974  13972  13971  13979     1  0.0000000  1.0460000  1
  13974  13972  13971  13979     1  0.0000000  0.0000000  3
  13974  13972  13971  13975     1  0.0000000  0.6508444  3
  13975  13971  13972  13978     1  0.0000000  1.0460000  1
  13975  13971  13972  13978     1  0.0000000  0.0000000  3
  13975  13971  13979  13982     1  0.0000000  0.6973333  3
  13975  13971  13968  13980     1  0.0000000  1.0460000  1
  13975  13971  13968  13980     1  0.0000000  0.0000000  3
  13976  13973  13972  13978     1  0.0000000  0.6508444  3
  13985  13981  13987  13988     1  0.0000000  0.6973333  3
  13985  13981  13967  13989     1  0.0000000  1.0460000  1
  13985  13981  13967  13989     1  0.0000000  0.0000000  3
  13986  13981  13987  13988     1  0.0000000  0.6973333  3
  13986  13981  13967  13989     1  0.0000000  1.0460000  1
  13986  13981  13967  13989     1  0.0000000  0.0000000  3
  13990  13991  13994  13998     1  0.0000000  0.6508444  3
  13990  13991  14003  14006     1  0.0000000  1.0460000  1
  13990  13991  14003  14006     1  0.0000000  0.6694400  3
  13990  14004  14010  14011     1  0.0000000  1.0460000  1
  13990  14004  14010  14011     1  0.0000000  0.6694400  3
  13990  14012  13996  13999     1  0.0000000  1.6038667  3
  13991  13990  14004  14008     1  0.0000000  0.6508444  3
  13991  13990  14004  14009     1  0.0000000  0.6508444  3
  13991  13994  13995  13997     1  0.0000000  0.6508444  3
  13991  13994  14002  14005     1  0.0000000  1.0460000  1
  13991  13994  14002  14005     1  0.0000000  0.6694400  3
  13992  13990  13991  13994     1  0.0000000  0.6508444  3
  13992  13990  13991  14003     1  0.0000000  1.0460000  1
  13992  13990  13991  14003     1  0.0000000  0.0000000  3
  13992  13990  13991  13993     1  0.0000000  0.6508444  3
  13992  13990  14004  14010     1  0.0000000  1.0460000  1
  13992  13990  14004  14010     1  0.0000000  0.0000000  3
  13992  13990  14004  14008     1  0.0000000  0.6508444  3
  13992  13990  14004  14009     1  0.0000000  0.6508444  3
  13992  13990  14012  13996     1  0.0000000  1.6038667  3
  13993  13991  13990  14004     1  0.0000000  0.6508444  3
  13993  13991  13990  14012     1  0.0000000  1.0460000  1
  13993  13991  13990  14012     1  0.0000000  0.0000000  3
  13993  13991  13994  13995     1  0.0000000  0.6508444  3
  13993  13991  13994  14002     1  0.0000000  1.0460000  1
  13993  13991  13994  14002     1  0.0000000  0.0000000  3
  13993  13991  13994  13998     1  0.0000000  0.6508444  3
  13993  13991  14003  14006     1  0.0000000  0.6973333  3
  13994  13991  14003  14006     1  0.0000000  1.0460000  1
  13994  13991  14003  14006     1  0.0000000  0.6694400  3
  13994  13995  13996  13999     1  0.0000000  0.6508444  3
  13994  13995  14001  14007     1  0.0000000  1.0460000  1
  13994  13995  14001  14007     1  0.0000000  0.6694400  3
  13995  13994  14002  14005     1  0.0000000  1.0460000  1
  13995  13994  14002  14005     1  0.0000000  0.6694400  3
  13996  13995  13994  13998     1  0.0000000  0.6508444  3
  13996  13995  14001  14007     1  0.0000000  1.0460000  1
  13996  13995  14001  14007     1  0.0000000  0.6694400  3
  13997  13995  13994  14002     1  0.0000000  1.0460000  1
  13997  13995  13994  14002     1  0.0000000  0.0000000  3
  13997  13995  13994  13998     1  0.0000000  0.6508444  3
  13997  13995  13996  14000     1  0.0000000  1.0460000  1
  13997  13995  13996  14000     1  0.0000000  0.0000000  3
  13997  13995  13996  14012     1  0.0000000  1.0460000  1
  13997  13995  13996  14012     1  0.0000000  0.0000000  3
  13997  13995  13996  13999     1  0.0000000  0.6508444  3
  13997  13995  14001  14007     1  0.0000000  0.6973333  3
  13998  13994  13991  14003     1  0.0000000  1.0460000  1
  13998  13994  13991  14003     1  0.0000000  0.0000000  3
  13998  13994  13995  14001     1  0.0000000  1.0460000  1
  13998  13994  13995  14001     1  0.0000000  0.0000000  3
  13998  13994  14002  14005     1  0.0000000  0.6973333  3
  13999  13996  13995  14001     1  0.0000000  0.6508444  3
  14008  14004  13990  14012     1  0.0000000  1.0460000  1
  14008  14004  13990  14012     1  0.0000000  0.0000000  3
  14008  14004  14010  14011     1  0.0000000  0.6973333  3
  14009  14004  13990  14012     1  0.0000000  1.0460000  1
  14009  14004  13990  14012     1  0.0000000  0.0000000  3
  14009  14004  14010  14011     1  0.0000000  0.6973333  3
  14013  14014  14017  14021     1  0.0000000  0.6508444  3
  14013  14014  14026  14029     1  0.0000000  1.0460000  1
  14013  14014  14026  14029     1  0.0000000  0.6694400  3
  14013  14027  14033  14034     1  0.0000000  1.0460000  1
  14013  14027  14033  14034     1  0.0000000  0.6694400  3
  14013  14035  14019  14022     1  0.0000000  1.6038667  3
  14014  14017  14018  14020     1  0.0000000  0.6508444  3
  14014  14017  14025  14028     1  0.0000000  1.0460000  1
  14014  14017  14025  14028     1  0.0000000  0.6694400  3
  14014  14013  14027  14031     1  0.0000000  0.6508444  3
  14014  14013  14027  14032     1  0.0000000  0.6508444  3
  14015  14013  14014  14017     1  0.0000000  0.6508444  3
  14015  14013  14014  14026     1  0.0000000  1.0460000  1
  14015  14013  14014  14026     1  0.0000000  0.0000000  3
  14015  14013  14014  14016     1  0.0000000  0.6508444  3
  14015  14013  14027  14033     1  0.0000000  1.0460000  1
  14015  14013  14027  14033     1  0.0000000  0.0000000  3
  14015  14013  14027  14031     1  0.0000000  0.6508444  3
  14015  14013  14027  14032     1  0.0000000  0.6508444  3
  14015  14013  14035  14019     1  0.0000000  1.6038667  3
  14016  14014  14017  14018     1  0.0000000  0.6508444  3
  14016  14014  14017  14025     1  0.0000000  1.0460000  1
  14016  14014  14017  14025     1  0.0000000  0.0000000  3
  14016  14014  14017  14021     1  0.0000000  0.6508444  3
  14016  14014  14026  14029     1  0.0000000  0.6973333  3
  14016  14014  14013  14027     1  0.0000000  0.6508444  3
  14016  14014  14013  14035     1  0.0000000  1.0460000  1
  14016  14014  14013  14035     1  0.0000000  0.0000000  3
  14017  14018  14019  14022     1  0.0000000  0.6508444  3
  14017  14018  14024  14030     1  0.0000000  1.0460000  1
  14017  14018  14024  14030     1  0.0000000  0.6694400  3
  14017  14014  14026  14029     1  0.0000000  1.0460000  1
  14017  14014  14026  14029     1  0.0000000  0.6694400  3
  14018  14017  14025  14028     1  0.0000000  1.0460000  1
  14018  14017  14025  14028     1  0.0000000  0.6694400  3
  14019  14018  14024  14030     1  0.0000000  1.0460000  1
  14019  14018  14024  14030     1  0.0000000  0.6694400  3
  14019  14018  14017  14021     1  0.0000000  0.6508444  3
  14020  14018  14019  14023     1  0.0000000  1.0460000  1
  14020  14018  14019  14023     1  0.0000000  0.0000000  3
  14020  14018  14019  14035     1  0.0000000  1.0460000  1
  14020  14018  14019  14035     1  0.0000000  0.0000000  3
  14020  14018  14019  14022     1  0.0000000  0.6508444  3
  14020  14018  14024  14030     1  0.0000000  0.6973333  3
  14020  14018  14017  14025     1  0.0000000  1.0460000  1
  14020  14018  14017  14025     1  0.0000000  0.0000000  3
  14020  14018  14017  14021     1  0.0000000  0.6508444  3
  14021  14017  14018  14024     1  0.0000000  1.0460000  1
  14021  14017  14018  14024     1  0.0000000  0.0000000  3
  14021  14017  14025  14028     1  0.0000000  0.6973333  3
  14021  14017  14014  14026     1  0.0000000  1.0460000  1
  14021  14017  14014  14026     1  0.0000000  0.0000000  3
  14022  14019  14018  14024     1  0.0000000  0.6508444  3
  14031  14027  14033  14034     1  0.0000000  0.6973333  3
  14031  14027  14013  14035     1  0.0000000  1.0460000  1
  14031  14027  14013  14035     1  0.0000000  0.0000000  3
  14032  14027  14033  14034     1  0.0000000  0.6973333  3
  14032  14027  14013  14035     1  0.0000000  1.0460000  1
  14032  14027  14013  14035     1  0.0000000  0.0000000  3
  14036  14037  14040  14044     1  0.0000000  0.6508444  3
  14036  14037  14049  14052     1  0.0000000  1.0460000  1
  14036  14037  14049  14052     1  0.0000000  0.6694400  3
  14036  14050  14056  14057     1  0.0000000  1.0460000  1
  14036  14050  14056  14057     1  0.0000000  0.6694400  3
  14036  14058  14042  14045     1  0.0000000  1.6038667  3
  14037  14036  14050  14054     1  0.0000000  0.6508444  3
  14037  14036  14050  14055     1  0.0000000  0.6508444  3
  14037  14040  14041  14043     1  0.0000000  0.6508444  3
  14037  14040  14048  14051     1  0.0000000  1.0460000  1
  14037  14040  14048  14051     1  0.0000000  0.6694400  3
  14038  14036  14037  14040     1  0.0000000  0.6508444  3
  14038  14036  14037  14049     1  0.0000000  1.0460000  1
  14038  14036  14037  14049     1  0.0000000  0.0000000  3
  14038  14036  14037  14039     1  0.0000000  0.6508444  3
  14038  14036  14050  14056     1  0.0000000  1.0460000  1
  14038  14036  14050  14056     1  0.0000000  0.0000000  3
  14038  14036  14050  14054     1  0.0000000  0.6508444  3
  14038  14036  14050  14055     1  0.0000000  0.6508444  3
  14038  14036  14058  14042     1  0.0000000  1.6038667  3
  14039  14037  14036  14050     1  0.0000000  0.6508444  3
  14039  14037  14036  14058     1  0.0000000  1.0460000  1
  14039  14037  14036  14058     1  0.0000000  0.0000000  3
  14039  14037  14040  14041     1  0.0000000  0.6508444  3
  14039  14037  14040  14048     1  0.0000000  1.0460000  1
  14039  14037  14040  14048     1  0.0000000  0.0000000  3
  14039  14037  14040  14044     1  0.0000000  0.6508444  3
  14039  14037  14049  14052     1  0.0000000  0.6973333  3
  14040  14037  14049  14052     1  0.0000000  1.0460000  1
  14040  14037  14049  14052     1  0.0000000  0.6694400  3
  14040  14041  14042  14045     1  0.0000000  0.6508444  3
  14040  14041  14047  14053     1  0.0000000  1.0460000  1
  14040  14041  14047  14053     1  0.0000000  0.6694400  3
  14041  14040  14048  14051     1  0.0000000  1.0460000  1
  14041  14040  14048  14051     1  0.0000000  0.6694400  3
  14042  14041  14040  14044     1  0.0000000  0.6508444  3
  14042  14041  14047  14053     1  0.0000000  1.0460000  1
  14042  14041  14047  14053     1  0.0000000  0.6694400  3
  14043  14041  14040  14048     1  0.0000000  1.0460000  1
  14043  14041  14040  14048     1  0.0000000  0.0000000  3
  14043  14041  14040  14044     1  0.0000000  0.6508444  3
  14043  14041  14042  14046     1  0.0000000  1.0460000  1
  14043  14041  14042  14046     1  0.0000000  0.0000000  3
  14043  14041  14042  14058     1  0.0000000  1.0460000  1
  14043  14041  14042  14058     1  0.0000000  0.0000000  3
  14043  14041  14042  14045     1  0.0000000  0.6508444  3
  14043  14041  14047  14053     1  0.0000000  0.6973333  3
  14044  14040  14037  14049     1  0.0000000  1.0460000  1
  14044  14040  14037  14049     1  0.0000000  0.0000000  3
  14044  14040  14041  14047     1  0.0000000  1.0460000  1
  14044  14040  14041  14047     1  0.0000000  0.0000000  3
  14044  14040  14048  14051     1  0.0000000  0.6973333  3
  14045  14042  14041  14047     1  0.0000000  0.6508444  3
  14054  14050  14036  14058     1  0.0000000  1.0460000  1
  14054  14050  14036  14058     1  0.0000000  0.0000000  3
  14054  14050  14056  14057     1  0.0000000  0.6973333  3
  14055  14050  14036  14058     1  0.0000000  1.0460000  1
  14055  14050  14036  14058     1  0.0000000  0.0000000  3
  14055  14050  14056  14057     1  0.0000000  0.6973333  3
  14059  14060  14063  14067     1  0.0000000  0.6508444  3
  14059  14060  14072  14075     1  0.0000000  1.0460000  1
  14059  14060  14072  14075     1  0.0000000  0.6694400  3
  14059  14073  14079  14080     1  0.0000000  1.0460000  1
  14059  14073  14079  14080     1  0.0000000  0.6694400  3
  14059  14081  14065  14068     1  0.0000000  1.6038667  3
  14060  14063  14064  14066     1  0.0000000  0.6508444  3
  14060  14063  14071  14074     1  0.0000000  1.0460000  1
  14060  14063  14071  14074     1  0.0000000  0.6694400  3
  14060  14059  14073  14077     1  0.0000000  0.6508444  3
  14060  14059  14073  14078     1  0.0000000  0.6508444  3
  14061  14059  14060  14063     1  0.0000000  0.6508444  3
  14061  14059  14060  14072     1  0.0000000  1.0460000  1
  14061  14059  14060  14072     1  0.0000000  0.0000000  3
  14061  14059  14060  14062     1  0.0000000  0.6508444  3
  14061  14059  14073  14079     1  0.0000000  1.0460000  1
  14061  14059  14073  14079     1  0.0000000  0.0000000  3
  14061  14059  14073  14077     1  0.0000000  0.6508444  3
  14061  14059  14073  14078     1  0.0000000  0.6508444  3
  14061  14059  14081  14065     1  0.0000000  1.6038667  3
  14062  14060  14063  14064     1  0.0000000  0.6508444  3
  14062  14060  14063  14071     1  0.0000000  1.0460000  1
  14062  14060  14063  14071     1  0.0000000  0.0000000  3
  14062  14060  14063  14067     1  0.0000000  0.6508444  3
  14062  14060  14072  14075     1  0.0000000  0.6973333  3
  14062  14060  14059  14073     1  0.0000000  0.6508444  3
  14062  14060  14059  14081     1  0.0000000  1.0460000  1
  14062  14060  14059  14081     1  0.0000000  0.0000000  3
  14063  14064  14065  14068     1  0.0000000  0.6508444  3
  14063  14064  14070  14076     1  0.0000000  1.0460000  1
  14063  14064  14070  14076     1  0.0000000  0.6694400  3
  14063  14060  14072  14075     1  0.0000000  1.0460000  1
  14063  14060  14072  14075     1  0.0000000  0.6694400  3
  14064  14063  14071  14074     1  0.0000000  1.0460000  1
  14064  14063  14071  14074     1  0.0000000  0.6694400  3
  14065  14064  14070  14076     1  0.0000000  1.0460000  1
  14065  14064  14070  14076     1  0.0000000  0.6694400  3
  14065  14064  14063  14067     1  0.0000000  0.6508444  3
  14066  14064  14065  14069     1  0.0000000  1.0460000  1
  14066  14064  14065  14069     1  0.0000000  0.0000000  3
  14066  14064  14065  14081     1  0.0000000  1.0460000  1
  14066  14064  14065  14081     1  0.0000000  0.0000000  3
  14066  14064  14065  14068     1  0.0000000  0.6508444  3
  14066  14064  14070  14076     1  0.0000000  0.6973333  3
  14066  14064  14063  14071     1  0.0000000  1.0460000  1
  14066  14064  14063  14071     1  0.0000000  0.0000000  3
  14066  14064  14063  14067     1  0.0000000  0.6508444  3
  14067  14063  14064  14070     1  0.0000000  1.0460000  1
  14067  14063  14064  14070     1  0.0000000  0.0000000  3
  14067  14063  14071  14074     1  0.0000000  0.6973333  3
  14067  14063  14060  14072     1  0.0000000  1.0460000  1
  14067  14063  14060  14072     1  0.0000000  0.0000000  3
  14068  14065  14064  14070     1  0.0000000  0.6508444  3
  14077  14073  14079  14080     1  0.0000000  0.6973333  3
  14077  14073  14059  14081     1  0.0000000  1.0460000  1
  14077  14073  14059  14081     1  0.0000000  0.0000000  3
  14078  14073  14079  14080     1  0.0000000  0.6973333  3
  14078  14073  14059  14081     1  0.0000000  1.0460000  1
  14078  14073  14059  14081     1  0.0000000  0.0000000  3
  14082  14083  14086  14090     1  0.0000000  0.6508444  3
  14082  14083  14095  14098     1  0.0000000  1.0460000  1
  14082  14083  14095  14098     1  0.0000000  0.6694400  3
  14082  14096  14102  14103     1  0.0000000  1.0460000  1
  14082  14096  14102  14103     1  0.0000000  0.6694400  3
  14082  14104  14088  14091     1  0.0000000  1.6038667  3
  14083  14082  14096  14100     1  0.0000000  0.6508444  3
  14083  14082  14096  14101     1  0.0000000  0.6508444  3
  14083  14086  14087  14089     1  0.0000000  0.6508444  3
  14083  14086  14094  14097     1  0.0000000  1.0460000  1
  14083  14086  14094  14097     1  0.0000000  0.6694400  3
  14084  14082  14083  14086     1  0.0000000  0.6508444  3
  14084  14082  14083  14095     1  0.0000000  1.0460000  1
  14084  14082  14083  14095     1  0.0000000  0.0000000  3
  14084  14082  14083  14085     1  0.0000000  0.6508444  3
  14084  14082  14096  14102     1  0.0000000  1.0460000  1
  14084  14082  14096  14102     1  0.0000000  0.0000000  3
  14084  14082  14096  14100     1  0.0000000  0.6508444  3
  14084  14082  14096  14101     1  0.0000000  0.6508444  3
  14084  14082  14104  14088     1  0.0000000  1.6038667  3
  14085  14083  14082  14096     1  0.0000000  0.6508444  3
  14085  14083  14082  14104     1  0.0000000  1.0460000  1
  14085  14083  14082  14104     1  0.0000000  0.0000000  3
  14085  14083  14086  14087     1  0.0000000  0.6508444  3
  14085  14083  14086  14094     1  0.0000000  1.0460000  1
  14085  14083  14086  14094     1  0.0000000  0.0000000  3
  14085  14083  14086  14090     1  0.0000000  0.6508444  3
  14085  14083  14095  14098     1  0.0000000  0.6973333  3
  14086  14083  14095  14098     1  0.0000000  1.0460000  1
  14086  14083  14095  14098     1  0.0000000  0.6694400  3
  14086  14087  14088  14091     1  0.0000000  0.6508444  3
  14086  14087  14093  14099     1  0.0000000  1.0460000  1
  14086  14087  14093  14099     1  0.0000000  0.6694400  3
  14087  14086  14094  14097     1  0.0000000  1.0460000  1
  14087  14086  14094  14097     1  0.0000000  0.6694400  3
  14088  14087  14086  14090     1  0.0000000  0.6508444  3
  14088  14087  14093  14099     1  0.0000000  1.0460000  1
  14088  14087  14093  14099     1  0.0000000  0.6694400  3
  14089  14087  14086  14094     1  0.0000000  1.0460000  1
  14089  14087  14086  14094     1  0.0000000  0.0000000  3
  14089  14087  14086  14090     1  0.0000000  0.6508444  3
  14089  14087  14088  14092     1  0.0000000  1.0460000  1
  14089  14087  14088  14092     1  0.0000000  0.0000000  3
  14089  14087  14088  14104     1  0.0000000  1.0460000  1
  14089  14087  14088  14104     1  0.0000000  0.0000000  3
  14089  14087  14088  14091     1  0.0000000  0.6508444  3
  14089  14087  14093  14099     1  0.0000000  0.6973333  3
  14090  14086  14083  14095     1  0.0000000  1.0460000  1
  14090  14086  14083  14095     1  0.0000000  0.0000000  3
  14090  14086  14087  14093     1  0.0000000  1.0460000  1
  14090  14086  14087  14093     1  0.0000000  0.0000000  3
  14090  14086  14094  14097     1  0.0000000  0.6973333  3
  14091  14088  14087  14093     1  0.0000000  0.6508444  3
  14100  14096  14082  14104     1  0.0000000  1.0460000  1
  14100  14096  14082  14104     1  0.0000000  0.0000000  3
  14100  14096  14102  14103     1  0.0000000  0.6973333  3
  14101  14096  14082  14104     1  0.0000000  1.0460000  1
  14101  14096  14082  14104     1  0.0000000  0.0000000  3
  14101  14096  14102  14103     1  0.0000000  0.6973333  3
  14105  14106  14109  14113     1  0.0000000  0.6508444  3
  14105  14106  14118  14121     1  0.0000000  1.0460000  1
  14105  14106  14118  14121     1  0.0000000  0.6694400  3
  14105  14119  14125  14126     1  0.0000000  1.0460000  1
  14105  14119  14125  14126     1  0.0000000  0.6694400  3
  14105  14127  14111  14114     1  0.0000000  1.6038667  3
  14106  14109  14110  14112     1  0.0000000  0.6508444  3
  14106  14109  14117  14120     1  0.0000000  1.0460000  1
  14106  14109  14117  14120     1  0.0000000  0.6694400  3
  14106  14105  14119  14123     1  0.0000000  0.6508444  3
  14106  14105  14119  14124     1  0.0000000  0.6508444  3
  14107  14105  14106  14109     1  0.0000000  0.6508444  3
  14107  14105  14106  14118     1  0.0000000  1.0460000  1
  14107  14105  14106  14118     1  0.0000000  0.0000000  3
  14107  14105  14106  14108     1  0.0000000  0.6508444  3
  14107  14105  14119  14125     1  0.0000000  1.0460000  1
  14107  14105  14119  14125     1  0.0000000  0.0000000  3
  14107  14105  14119  14123     1  0.0000000  0.6508444  3
  14107  14105  14119  14124     1  0.0000000  0.6508444  3
  14107  14105  14127  14111     1  0.0000000  1.6038667  3
  14108  14106  14109  14110     1  0.0000000  0.6508444  3
  14108  14106  14109  14117     1  0.0000000  1.0460000  1
  14108  14106  14109  14117     1  0.0000000  0.0000000  3
  14108  14106  14109  14113     1  0.0000000  0.6508444  3
  14108  14106  14118  14121     1  0.0000000  0.6973333  3
  14108  14106  14105  14119     1  0.0000000  0.6508444  3
  14108  14106  14105  14127     1  0.0000000  1.0460000  1
  14108  14106  14105  14127     1  0.0000000  0.0000000  3
  14109  14110  14111  14114     1  0.0000000  0.6508444  3
  14109  14110  14116  14122     1  0.0000000  1.0460000  1
  14109  14110  14116  14122     1  0.0000000  0.6694400  3
  14109  14106  14118  14121     1  0.0000000  1.0460000  1
  14109  14106  14118  14121     1  0.0000000  0.6694400  3
  14110  14109  14117  14120     1  0.0000000  1.0460000  1
  14110  14109  14117  14120     1  0.0000000  0.6694400  3
  14111  14110  14116  14122     1  0.0000000  1.0460000  1
  14111  14110  14116  14122     1  0.0000000  0.6694400  3
  14111  14110  14109  14113     1  0.0000000  0.6508444  3
  14112  14110  14111  14115     1  0.0000000  1.0460000  1
  14112  14110  14111  14115     1  0.0000000  0.0000000  3
  14112  14110  14111  14127     1  0.0000000  1.0460000  1
  14112  14110  14111  14127     1  0.0000000  0.0000000  3
  14112  14110  14111  14114     1  0.0000000  0.6508444  3
  14112  14110  14116  14122     1  0.0000000  0.6973333  3
  14112  14110  14109  14117     1  0.0000000  1.0460000  1
  14112  14110  14109  14117     1  0.0000000  0.0000000  3
  14112  14110  14109  14113     1  0.0000000  0.6508444  3
  14113  14109  14110  14116     1  0.0000000  1.0460000  1
  14113  14109  14110  14116     1  0.0000000  0.0000000  3
  14113  14109  14117  14120     1  0.0000000  0.6973333  3
  14113  14109  14106  14118     1  0.0000000  1.0460000  1
  14113  14109  14106  14118     1  0.0000000  0.0000000  3
  14114  14111  14110  14116     1  0.0000000  0.6508444  3
  14123  14119  14125  14126     1  0.0000000  0.6973333  3
  14123  14119  14105  14127     1  0.0000000  1.0460000  1
  14123  14119  14105  14127     1  0.0000000  0.0000000  3
  14124  14119  14125  14126     1  0.0000000  0.6973333  3
  14124  14119  14105  14127     1  0.0000000  1.0460000  1
  14124  14119  14105  14127     1  0.0000000  0.0000000  3
  14128  14129  14132  14136     1  0.0000000  0.6508444  3
  14128  14129  14141  14144     1  0.0000000  1.0460000  1
  14128  14129  14141  14144     1  0.0000000  0.6694400  3
  14128  14142  14148  14149     1  0.0000000  1.0460000  1
  14128  14142  14148  14149     1  0.0000000  0.6694400  3
  14128  14150  14134  14137     1  0.0000000  1.6038667  3
  14129  14128  14142  14146     1  0.0000000  0.6508444  3
  14129  14128  14142  14147     1  0.0000000  0.6508444  3
  14129  14132  14133  14135     1  0.0000000  0.6508444  3
  14129  14132  14140  14143     1  0.0000000  1.0460000  1
  14129  14132  14140  14143     1  0.0000000  0.6694400  3
  14130  14128  14129  14132     1  0.0000000  0.6508444  3
  14130  14128  14129  14141     1  0.0000000  1.0460000  1
  14130  14128  14129  14141     1  0.0000000  0.0000000  3
  14130  14128  14129  14131     1  0.0000000  0.6508444  3
  14130  14128  14142  14148     1  0.0000000  1.0460000  1
  14130  14128  14142  14148     1  0.0000000  0.0000000  3
  14130  14128  14142  14146     1  0.0000000  0.6508444  3
  14130  14128  14142  14147     1  0.0000000  0.6508444  3
  14130  14128  14150  14134     1  0.0000000  1.6038667  3
  14131  14129  14128  14142     1  0.0000000  0.6508444  3
  14131  14129  14128  14150     1  0.0000000  1.0460000  1
  14131  14129  14128  14150     1  0.0000000  0.0000000  3
  14131  14129  14132  14133     1  0.0000000  0.6508444  3
  14131  14129  14132  14140     1  0.0000000  1.0460000  1
  14131  14129  14132  14140     1  0.0000000  0.0000000  3
  14131  14129  14132  14136     1  0.0000000  0.6508444  3
  14131  14129  14141  14144     1  0.0000000  0.6973333  3
  14132  14129  14141  14144     1  0.0000000  1.0460000  1
  14132  14129  14141  14144     1  0.0000000  0.6694400  3
  14132  14133  14134  14137     1  0.0000000  0.6508444  3
  14132  14133  14139  14145     1  0.0000000  1.0460000  1
  14132  14133  14139  14145     1  0.0000000  0.6694400  3
  14133  14132  14140  14143     1  0.0000000  1.0460000  1
  14133  14132  14140  14143     1  0.0000000  0.6694400  3
  14134  14133  14132  14136     1  0.0000000  0.6508444  3
  14134  14133  14139  14145     1  0.0000000  1.0460000  1
  14134  14133  14139  14145     1  0.0000000  0.6694400  3
  14135  14133  14132  14140     1  0.0000000  1.0460000  1
  14135  14133  14132  14140     1  0.0000000  0.0000000  3
  14135  14133  14132  14136     1  0.0000000  0.6508444  3
  14135  14133  14134  14138     1  0.0000000  1.0460000  1
  14135  14133  14134  14138     1  0.0000000  0.0000000  3
  14135  14133  14134  14150     1  0.0000000  1.0460000  1
  14135  14133  14134  14150     1  0.0000000  0.0000000  3
  14135  14133  14134  14137     1  0.0000000  0.6508444  3
  14135  14133  14139  14145     1  0.0000000  0.6973333  3
  14136  14132  14129  14141     1  0.0000000  1.0460000  1
  14136  14132  14129  14141     1  0.0000000  0.0000000  3
  14136  14132  14133  14139     1  0.0000000  1.0460000  1
  14136  14132  14133  14139     1  0.0000000  0.0000000  3
  14136  14132  14140  14143     1  0.0000000  0.6973333  3
  14137  14134  14133  14139     1  0.0000000  0.6508444  3
  14146  14142  14128  14150     1  0.0000000  1.0460000  1
  14146  14142  14128  14150     1  0.0000000  0.0000000  3
  14146  14142  14148  14149     1  0.0000000  0.6973333  3
  14147  14142  14128  14150     1  0.0000000  1.0460000  1
  14147  14142  14128  14150     1  0.0000000  0.0000000  3
  14147  14142  14148  14149     1  0.0000000  0.6973333  3
  14151  14152  14155  14159     1  0.0000000  0.6508444  3
  14151  14152  14164  14167     1  0.0000000  1.0460000  1
  14151  14152  14164  14167     1  0.0000000  0.6694400  3
  14151  14165  14171  14172     1  0.0000000  1.0460000  1
  14151  14165  14171  14172     1  0.0000000  0.6694400  3
  14151  14173  14157  14160     1  0.0000000  1.6038667  3
  14152  14155  14156  14158     1  0.0000000  0.6508444  3
  14152  14155  14163  14166     1  0.0000000  1.0460000  1
  14152  14155  14163  14166     1  0.0000000  0.6694400  3
  14152  14151  14165  14169     1  0.0000000  0.6508444  3
  14152  14151  14165  14170     1  0.0000000  0.6508444  3
  14153  14151  14152  14155     1  0.0000000  0.6508444  3
  14153  14151  14152  14164     1  0.0000000  1.0460000  1
  14153  14151  14152  14164     1  0.0000000  0.0000000  3
  14153  14151  14152  14154     1  0.0000000  0.6508444  3
  14153  14151  14165  14171     1  0.0000000  1.0460000  1
  14153  14151  14165  14171     1  0.0000000  0.0000000  3
  14153  14151  14165  14169     1  0.0000000  0.6508444  3
  14153  14151  14165  14170     1  0.0000000  0.6508444  3
  14153  14151  14173  14157     1  0.0000000  1.6038667  3
  14154  14152  14155  14156     1  0.0000000  0.6508444  3
  14154  14152  14155  14163     1  0.0000000  1.0460000  1
  14154  14152  14155  14163     1  0.0000000  0.0000000  3
  14154  14152  14155  14159     1  0.0000000  0.6508444  3
  14154  14152  14164  14167     1  0.0000000  0.6973333  3
  14154  14152  14151  14165     1  0.0000000  0.6508444  3
  14154  14152  14151  14173     1  0.0000000  1.0460000  1
  14154  14152  14151  14173     1  0.0000000  0.0000000  3
  14155  14156  14157  14160     1  0.0000000  0.6508444  3
  14155  14156  14162  14168     1  0.0000000  1.0460000  1
  14155  14156  14162  14168     1  0.0000000  0.6694400  3
  14155  14152  14164  14167     1  0.0000000  1.0460000  1
  14155  14152  14164  14167     1  0.0000000  0.6694400  3
  14156  14155  14163  14166     1  0.0000000  1.0460000  1
  14156  14155  14163  14166     1  0.0000000  0.6694400  3
  14157  14156  14162  14168     1  0.0000000  1.0460000  1
  14157  14156  14162  14168     1  0.0000000  0.6694400  3
  14157  14156  14155  14159     1  0.0000000  0.6508444  3
  14158  14156  14157  14161     1  0.0000000  1.0460000  1
  14158  14156  14157  14161     1  0.0000000  0.0000000  3
  14158  14156  14157  14173     1  0.0000000  1.0460000  1
  14158  14156  14157  14173     1  0.0000000  0.0000000  3
  14158  14156  14157  14160     1  0.0000000  0.6508444  3
  14158  14156  14162  14168     1  0.0000000  0.6973333  3
  14158  14156  14155  14163     1  0.0000000  1.0460000  1
  14158  14156  14155  14163     1  0.0000000  0.0000000  3
  14158  14156  14155  14159     1  0.0000000  0.6508444  3
  14159  14155  14156  14162     1  0.0000000  1.0460000  1
  14159  14155  14156  14162     1  0.0000000  0.0000000  3
  14159  14155  14163  14166     1  0.0000000  0.6973333  3
  14159  14155  14152  14164     1  0.0000000  1.0460000  1
  14159  14155  14152  14164     1  0.0000000  0.0000000  3
  14160  14157  14156  14162     1  0.0000000  0.6508444  3
  14169  14165  14171  14172     1  0.0000000  0.6973333  3
  14169  14165  14151  14173     1  0.0000000  1.0460000  1
  14169  14165  14151  14173     1  0.0000000  0.0000000  3
  14170  14165  14171  14172     1  0.0000000  0.6973333  3
  14170  14165  14151  14173     1  0.0000000  1.0460000  1
  14170  14165  14151  14173     1  0.0000000  0.0000000  3
  14174  14175  14178  14182     1  0.0000000  0.6508444  3
  14174  14175  14187  14190     1  0.0000000  1.0460000  1
  14174  14175  14187  14190     1  0.0000000  0.6694400  3
  14174  14188  14194  14195     1  0.0000000  1.0460000  1
  14174  14188  14194  14195     1  0.0000000  0.6694400  3
  14174  14196  14180  14183     1  0.0000000  1.6038667  3
  14175  14174  14188  14192     1  0.0000000  0.6508444  3
  14175  14174  14188  14193     1  0.0000000  0.6508444  3
  14175  14178  14179  14181     1  0.0000000  0.6508444  3
  14175  14178  14186  14189     1  0.0000000  1.0460000  1
  14175  14178  14186  14189     1  0.0000000  0.6694400  3
  14176  14174  14175  14178     1  0.0000000  0.6508444  3
  14176  14174  14175  14187     1  0.0000000  1.0460000  1
  14176  14174  14175  14187     1  0.0000000  0.0000000  3
  14176  14174  14175  14177     1  0.0000000  0.6508444  3
  14176  14174  14188  14194     1  0.0000000  1.0460000  1
  14176  14174  14188  14194     1  0.0000000  0.0000000  3
  14176  14174  14188  14192     1  0.0000000  0.6508444  3
  14176  14174  14188  14193     1  0.0000000  0.6508444  3
  14176  14174  14196  14180     1  0.0000000  1.6038667  3
  14177  14175  14174  14188     1  0.0000000  0.6508444  3
  14177  14175  14174  14196     1  0.0000000  1.0460000  1
  14177  14175  14174  14196     1  0.0000000  0.0000000  3
  14177  14175  14178  14179     1  0.0000000  0.6508444  3
  14177  14175  14178  14186     1  0.0000000  1.0460000  1
  14177  14175  14178  14186     1  0.0000000  0.0000000  3
  14177  14175  14178  14182     1  0.0000000  0.6508444  3
  14177  14175  14187  14190     1  0.0000000  0.6973333  3
  14178  14175  14187  14190     1  0.0000000  1.0460000  1
  14178  14175  14187  14190     1  0.0000000  0.6694400  3
  14178  14179  14180  14183     1  0.0000000  0.6508444  3
  14178  14179  14185  14191     1  0.0000000  1.0460000  1
  14178  14179  14185  14191     1  0.0000000  0.6694400  3
  14179  14178  14186  14189     1  0.0000000  1.0460000  1
  14179  14178  14186  14189     1  0.0000000  0.6694400  3
  14180  14179  14178  14182     1  0.0000000  0.6508444  3
  14180  14179  14185  14191     1  0.0000000  1.0460000  1
  14180  14179  14185  14191     1  0.0000000  0.6694400  3
  14181  14179  14178  14186     1  0.0000000  1.0460000  1
  14181  14179  14178  14186     1  0.0000000  0.0000000  3
  14181  14179  14178  14182     1  0.0000000  0.6508444  3
  14181  14179  14180  14184     1  0.0000000  1.0460000  1
  14181  14179  14180  14184     1  0.0000000  0.0000000  3
  14181  14179  14180  14196     1  0.0000000  1.0460000  1
  14181  14179  14180  14196     1  0.0000000  0.0000000  3
  14181  14179  14180  14183     1  0.0000000  0.6508444  3
  14181  14179  14185  14191     1  0.0000000  0.6973333  3
  14182  14178  14175  14187     1  0.0000000  1.0460000  1
  14182  14178  14175  14187     1  0.0000000  0.0000000  3
  14182  14178  14179  14185     1  0.0000000  1.0460000  1
  14182  14178  14179  14185     1  0.0000000  0.0000000  3
  14182  14178  14186  14189     1  0.0000000  0.6973333  3
  14183  14180  14179  14185     1  0.0000000  0.6508444  3
  14192  14188  14174  14196     1  0.0000000  1.0460000  1
  14192  14188  14174  14196     1  0.0000000  0.0000000  3
  14192  14188  14194  14195     1  0.0000000  0.6973333  3
  14193  14188  14174  14196     1  0.0000000  1.0460000  1
  14193  14188  14174  14196     1  0.0000000  0.0000000  3
  14193  14188  14194  14195     1  0.0000000  0.6973333  3
  14197  14198  14201  14205     1  0.0000000  0.6508444  3
  14197  14198  14210  14213     1  0.0000000  1.0460000  1
  14197  14198  14210  14213     1  0.0000000  0.6694400  3
  14197  14211  14217  14218     1  0.0000000  1.0460000  1
  14197  14211  14217  14218     1  0.0000000  0.6694400  3
  14197  14219  14203  14206     1  0.0000000  1.6038667  3
  14198  14201  14202  14204     1  0.0000000  0.6508444  3
  14198  14201  14209  14212     1  0.0000000  1.0460000  1
  14198  14201  14209  14212     1  0.0000000  0.6694400  3
  14198  14197  14211  14215     1  0.0000000  0.6508444  3
  14198  14197  14211  14216     1  0.0000000  0.6508444  3
  14199  14197  14198  14201     1  0.0000000  0.6508444  3
  14199  14197  14198  14210     1  0.0000000  1.0460000  1
  14199  14197  14198  14210     1  0.0000000  0.0000000  3
  14199  14197  14198  14200     1  0.0000000  0.6508444  3
  14199  14197  14211  14217     1  0.0000000  1.0460000  1
  14199  14197  14211  14217     1  0.0000000  0.0000000  3
  14199  14197  14211  14215     1  0.0000000  0.6508444  3
  14199  14197  14211  14216     1  0.0000000  0.6508444  3
  14199  14197  14219  14203     1  0.0000000  1.6038667  3
  14200  14198  14201  14202     1  0.0000000  0.6508444  3
  14200  14198  14201  14209     1  0.0000000  1.0460000  1
  14200  14198  14201  14209     1  0.0000000  0.0000000  3
  14200  14198  14201  14205     1  0.0000000  0.6508444  3
  14200  14198  14210  14213     1  0.0000000  0.6973333  3
  14200  14198  14197  14211     1  0.0000000  0.6508444  3
  14200  14198  14197  14219     1  0.0000000  1.0460000  1
  14200  14198  14197  14219     1  0.0000000  0.0000000  3
  14201  14202  14203  14206     1  0.0000000  0.6508444  3
  14201  14202  14208  14214     1  0.0000000  1.0460000  1
  14201  14202  14208  14214     1  0.0000000  0.6694400  3
  14201  14198  14210  14213     1  0.0000000  1.0460000  1
  14201  14198  14210  14213     1  0.0000000  0.6694400  3
  14202  14201  14209  14212     1  0.0000000  1.0460000  1
  14202  14201  14209  14212     1  0.0000000  0.6694400  3
  14203  14202  14208  14214     1  0.0000000  1.0460000  1
  14203  14202  14208  14214     1  0.0000000  0.6694400  3
  14203  14202  14201  14205     1  0.0000000  0.6508444  3
  14204  14202  14203  14207     1  0.0000000  1.0460000  1
  14204  14202  14203  14207     1  0.0000000  0.0000000  3
  14204  14202  14203  14219     1  0.0000000  1.0460000  1
  14204  14202  14203  14219     1  0.0000000  0.0000000  3
  14204  14202  14203  14206     1  0.0000000  0.6508444  3
  14204  14202  14208  14214     1  0.0000000  0.6973333  3
  14204  14202  14201  14209     1  0.0000000  1.0460000  1
  14204  14202  14201  14209     1  0.0000000  0.0000000  3
  14204  14202  14201  14205     1  0.0000000  0.6508444  3
  14205  14201  14202  14208     1  0.0000000  1.0460000  1
  14205  14201  14202  14208     1  0.0000000  0.0000000  3
  14205  14201  14209  14212     1  0.0000000  0.6973333  3
  14205  14201  14198  14210     1  0.0000000  1.0460000  1
  14205  14201  14198  14210     1  0.0000000  0.0000000  3
  14206  14203  14202  14208     1  0.0000000  0.6508444  3
  14215  14211  14217  14218     1  0.0000000  0.6973333  3
  14215  14211  14197  14219     1  0.0000000  1.0460000  1
  14215  14211  14197  14219     1  0.0000000  0.0000000  3
  14216  14211  14217  14218     1  0.0000000  0.6973333  3
  14216  14211  14197  14219     1  0.0000000  1.0460000  1
  14216  14211  14197  14219     1  0.0000000  0.0000000  3
  14220  14221  14224  14228     1  0.0000000  0.6508444  3
  14220  14221  14233  14236     1  0.0000000  1.0460000  1
  14220  14221  14233  14236     1  0.0000000  0.6694400  3
  14220  14234  14240  14241     1  0.0000000  1.0460000  1
  14220  14234  14240  14241     1  0.0000000  0.6694400  3
  14220  14242  14226  14229     1  0.0000000  1.6038667  3
  14221  14220  14234  14238     1  0.0000000  0.6508444  3
  14221  14220  14234  14239     1  0.0000000  0.6508444  3
  14221  14224  14225  14227     1  0.0000000  0.6508444  3
  14221  14224  14232  14235     1  0.0000000  1.0460000  1
  14221  14224  14232  14235     1  0.0000000  0.6694400  3
  14222  14220  14221  14224     1  0.0000000  0.6508444  3
  14222  14220  14221  14233     1  0.0000000  1.0460000  1
  14222  14220  14221  14233     1  0.0000000  0.0000000  3
  14222  14220  14221  14223     1  0.0000000  0.6508444  3
  14222  14220  14234  14240     1  0.0000000  1.0460000  1
  14222  14220  14234  14240     1  0.0000000  0.0000000  3
  14222  14220  14234  14238     1  0.0000000  0.6508444  3
  14222  14220  14234  14239     1  0.0000000  0.6508444  3
  14222  14220  14242  14226     1  0.0000000  1.6038667  3
  14223  14221  14220  14234     1  0.0000000  0.6508444  3
  14223  14221  14220  14242     1  0.0000000  1.0460000  1
  14223  14221  14220  14242     1  0.0000000  0.0000000  3
  14223  14221  14224  14225     1  0.0000000  0.6508444  3
  14223  14221  14224  14232     1  0.0000000  1.0460000  1
  14223  14221  14224  14232     1  0.0000000  0.0000000  3
  14223  14221  14224  14228     1  0.0000000  0.6508444  3
  14223  14221  14233  14236     1  0.0000000  0.6973333  3
  14224  14221  14233  14236     1  0.0000000  1.0460000  1
  14224  14221  14233  14236     1  0.0000000  0.6694400  3
  14224  14225  14226  14229     1  0.0000000  0.6508444  3
  14224  14225  14231  14237     1  0.0000000  1.0460000  1
  14224  14225  14231  14237     1  0.0000000  0.6694400  3
  14225  14224  14232  14235     1  0.0000000  1.0460000  1
  14225  14224  14232  14235     1  0.0000000  0.6694400  3
  14226  14225  14224  14228     1  0.0000000  0.6508444  3
  14226  14225  14231  14237     1  0.0000000  1.0460000  1
  14226  14225  14231  14237     1  0.0000000  0.6694400  3
  14227  14225  14224  14232     1  0.0000000  1.0460000  1
  14227  14225  14224  14232     1  0.0000000  0.0000000  3
  14227  14225  14224  14228     1  0.0000000  0.6508444  3
  14227  14225  14226  14230     1  0.0000000  1.0460000  1
  14227  14225  14226  14230     1  0.0000000  0.0000000  3
  14227  14225  14226  14242     1  0.0000000  1.0460000  1
  14227  14225  14226  14242     1  0.0000000  0.0000000  3
  14227  14225  14226  14229     1  0.0000000  0.6508444  3
  14227  14225  14231  14237     1  0.0000000  0.6973333  3
  14228  14224  14221  14233     1  0.0000000  1.0460000  1
  14228  14224  14221  14233     1  0.0000000  0.0000000  3
  14228  14224  14225  14231     1  0.0000000  1.0460000  1
  14228  14224  14225  14231     1  0.0000000  0.0000000  3
  14228  14224  14232  14235     1  0.0000000  0.6973333  3
  14229  14226  14225  14231     1  0.0000000  0.6508444  3
  14238  14234  14220  14242     1  0.0000000  1.0460000  1
  14238  14234  14220  14242     1  0.0000000  0.0000000  3
  14238  14234  14240  14241     1  0.0000000  0.6973333  3
  14239  14234  14220  14242     1  0.0000000  1.0460000  1
  14239  14234  14220  14242     1  0.0000000  0.0000000  3
  14239  14234  14240  14241     1  0.0000000  0.6973333  3
  14243  14244  14247  14251     1  0.0000000  0.6508444  3
  14243  14244  14256  14259     1  0.0000000  1.0460000  1
  14243  14244  14256  14259     1  0.0000000  0.6694400  3
  14243  14257  14263  14264     1  0.0000000  1.0460000  1
  14243  14257  14263  14264     1  0.0000000  0.6694400  3
  14243  14265  14249  14252     1  0.0000000  1.6038667  3
  14244  14247  14248  14250     1  0.0000000  0.6508444  3
  14244  14247  14255  14258     1  0.0000000  1.0460000  1
  14244  14247  14255  14258     1  0.0000000  0.6694400  3
  14244  14243  14257  14261     1  0.0000000  0.6508444  3
  14244  14243  14257  14262     1  0.0000000  0.6508444  3
  14245  14243  14244  14247     1  0.0000000  0.6508444  3
  14245  14243  14244  14256     1  0.0000000  1.0460000  1
  14245  14243  14244  14256     1  0.0000000  0.0000000  3
  14245  14243  14244  14246     1  0.0000000  0.6508444  3
  14245  14243  14257  14263     1  0.0000000  1.0460000  1
  14245  14243  14257  14263     1  0.0000000  0.0000000  3
  14245  14243  14257  14261     1  0.0000000  0.6508444  3
  14245  14243  14257  14262     1  0.0000000  0.6508444  3
  14245  14243  14265  14249     1  0.0000000  1.6038667  3
  14246  14244  14247  14248     1  0.0000000  0.6508444  3
  14246  14244  14247  14255     1  0.0000000  1.0460000  1
  14246  14244  14247  14255     1  0.0000000  0.0000000  3
  14246  14244  14247  14251     1  0.0000000  0.6508444  3
  14246  14244  14256  14259     1  0.0000000  0.6973333  3
  14246  14244  14243  14257     1  0.0000000  0.6508444  3
  14246  14244  14243  14265     1  0.0000000  1.0460000  1
  14246  14244  14243  14265     1  0.0000000  0.0000000  3
  14247  14248  14249  14252     1  0.0000000  0.6508444  3
  14247  14248  14254  14260     1  0.0000000  1.0460000  1
  14247  14248  14254  14260     1  0.0000000  0.6694400  3
  14247  14244  14256  14259     1  0.0000000  1.0460000  1
  14247  14244  14256  14259     1  0.0000000  0.6694400  3
  14248  14247  14255  14258     1  0.0000000  1.0460000  1
  14248  14247  14255  14258     1  0.0000000  0.6694400  3
  14249  14248  14254  14260     1  0.0000000  1.0460000  1
  14249  14248  14254  14260     1  0.0000000  0.6694400  3
  14249  14248  14247  14251     1  0.0000000  0.6508444  3
  14250  14248  14249  14253     1  0.0000000  1.0460000  1
  14250  14248  14249  14253     1  0.0000000  0.0000000  3
  14250  14248  14249  14265     1  0.0000000  1.0460000  1
  14250  14248  14249  14265     1  0.0000000  0.0000000  3
  14250  14248  14249  14252     1  0.0000000  0.6508444  3
  14250  14248  14254  14260     1  0.0000000  0.6973333  3
  14250  14248  14247  14255     1  0.0000000  1.0460000  1
  14250  14248  14247  14255     1  0.0000000  0.0000000  3
  14250  14248  14247  14251     1  0.0000000  0.6508444  3
  14251  14247  14248  14254     1  0.0000000  1.0460000  1
  14251  14247  14248  14254     1  0.0000000  0.0000000  3
  14251  14247  14255  14258     1  0.0000000  0.6973333  3
  14251  14247  14244  14256     1  0.0000000  1.0460000  1
  14251  14247  14244  14256     1  0.0000000  0.0000000  3
  14252  14249  14248  14254     1  0.0000000  0.6508444  3
  14261  14257  14263  14264     1  0.0000000  0.6973333  3
  14261  14257  14243  14265     1  0.0000000  1.0460000  1
  14261  14257  14243  14265     1  0.0000000  0.0000000  3
  14262  14257  14263  14264     1  0.0000000  0.6973333  3
  14262  14257  14243  14265     1  0.0000000  1.0460000  1
  14262  14257  14243  14265     1  0.0000000  0.0000000  3
  14266  14267  14270  14274     1  0.0000000  0.6508444  3
  14266  14267  14279  14282     1  0.0000000  1.0460000  1
  14266  14267  14279  14282     1  0.0000000  0.6694400  3
  14266  14280  14286  14287     1  0.0000000  1.0460000  1
  14266  14280  14286  14287     1  0.0000000  0.6694400  3
  14266  14288  14272  14275     1  0.0000000  1.6038667  3
  14267  14266  14280  14284     1  0.0000000  0.6508444  3
  14267  14266  14280  14285     1  0.0000000  0.6508444  3
  14267  14270  14271  14273     1  0.0000000  0.6508444  3
  14267  14270  14278  14281     1  0.0000000  1.0460000  1
  14267  14270  14278  14281     1  0.0000000  0.6694400  3
  14268  14266  14267  14270     1  0.0000000  0.6508444  3
  14268  14266  14267  14279     1  0.0000000  1.0460000  1
  14268  14266  14267  14279     1  0.0000000  0.0000000  3
  14268  14266  14267  14269     1  0.0000000  0.6508444  3
  14268  14266  14280  14286     1  0.0000000  1.0460000  1
  14268  14266  14280  14286     1  0.0000000  0.0000000  3
  14268  14266  14280  14284     1  0.0000000  0.6508444  3
  14268  14266  14280  14285     1  0.0000000  0.6508444  3
  14268  14266  14288  14272     1  0.0000000  1.6038667  3
  14269  14267  14266  14280     1  0.0000000  0.6508444  3
  14269  14267  14266  14288     1  0.0000000  1.0460000  1
  14269  14267  14266  14288     1  0.0000000  0.0000000  3
  14269  14267  14270  14271     1  0.0000000  0.6508444  3
  14269  14267  14270  14278     1  0.0000000  1.0460000  1
  14269  14267  14270  14278     1  0.0000000  0.0000000  3
  14269  14267  14270  14274     1  0.0000000  0.6508444  3
  14269  14267  14279  14282     1  0.0000000  0.6973333  3
  14270  14267  14279  14282     1  0.0000000  1.0460000  1
  14270  14267  14279  14282     1  0.0000000  0.6694400  3
  14270  14271  14272  14275     1  0.0000000  0.6508444  3
  14270  14271  14277  14283     1  0.0000000  1.0460000  1
  14270  14271  14277  14283     1  0.0000000  0.6694400  3
  14271  14270  14278  14281     1  0.0000000  1.0460000  1
  14271  14270  14278  14281     1  0.0000000  0.6694400  3
  14272  14271  14270  14274     1  0.0000000  0.6508444  3
  14272  14271  14277  14283     1  0.0000000  1.0460000  1
  14272  14271  14277  14283     1  0.0000000  0.6694400  3
  14273  14271  14270  14278     1  0.0000000  1.0460000  1
  14273  14271  14270  14278     1  0.0000000  0.0000000  3
  14273  14271  14270  14274     1  0.0000000  0.6508444  3
  14273  14271  14272  14276     1  0.0000000  1.0460000  1
  14273  14271  14272  14276     1  0.0000000  0.0000000  3
  14273  14271  14272  14288     1  0.0000000  1.0460000  1
  14273  14271  14272  14288     1  0.0000000  0.0000000  3
  14273  14271  14272  14275     1  0.0000000  0.6508444  3
  14273  14271  14277  14283     1  0.0000000  0.6973333  3
  14274  14270  14267  14279     1  0.0000000  1.0460000  1
  14274  14270  14267  14279     1  0.0000000  0.0000000  3
  14274  14270  14271  14277     1  0.0000000  1.0460000  1
  14274  14270  14271  14277     1  0.0000000  0.0000000  3
  14274  14270  14278  14281     1  0.0000000  0.6973333  3
  14275  14272  14271  14277     1  0.0000000  0.6508444  3
  14284  14280  14266  14288     1  0.0000000  1.0460000  1
  14284  14280  14266  14288     1  0.0000000  0.0000000  3
  14284  14280  14286  14287     1  0.0000000  0.6973333  3
  14285  14280  14266  14288     1  0.0000000  1.0460000  1
  14285  14280  14266  14288     1  0.0000000  0.0000000  3
  14285  14280  14286  14287     1  0.0000000  0.6973333  3
  14289  14290  14293  14297     1  0.0000000  0.6508444  3
  14289  14290  14302  14305     1  0.0000000  1.0460000  1
  14289  14290  14302  14305     1  0.0000000  0.6694400  3
  14289  14303  14309  14310     1  0.0000000  1.0460000  1
  14289  14303  14309  14310     1  0.0000000  0.6694400  3
  14289  14311  14295  14298     1  0.0000000  1.6038667  3
  14290  14293  14294  14296     1  0.0000000  0.6508444  3
  14290  14293  14301  14304     1  0.0000000  1.0460000  1
  14290  14293  14301  14304     1  0.0000000  0.6694400  3
  14290  14289  14303  14307     1  0.0000000  0.6508444  3
  14290  14289  14303  14308     1  0.0000000  0.6508444  3
  14291  14289  14290  14293     1  0.0000000  0.6508444  3
  14291  14289  14290  14302     1  0.0000000  1.0460000  1
  14291  14289  14290  14302     1  0.0000000  0.0000000  3
  14291  14289  14290  14292     1  0.0000000  0.6508444  3
  14291  14289  14303  14309     1  0.0000000  1.0460000  1
  14291  14289  14303  14309     1  0.0000000  0.0000000  3
  14291  14289  14303  14307     1  0.0000000  0.6508444  3
  14291  14289  14303  14308     1  0.0000000  0.6508444  3
  14291  14289  14311  14295     1  0.0000000  1.6038667  3
  14292  14290  14293  14294     1  0.0000000  0.6508444  3
  14292  14290  14293  14301     1  0.0000000  1.0460000  1
  14292  14290  14293  14301     1  0.0000000  0.0000000  3
  14292  14290  14293  14297     1  0.0000000  0.6508444  3
  14292  14290  14302  14305     1  0.0000000  0.6973333  3
  14292  14290  14289  14303     1  0.0000000  0.6508444  3
  14292  14290  14289  14311     1  0.0000000  1.0460000  1
  14292  14290  14289  14311     1  0.0000000  0.0000000  3
  14293  14294  14295  14298     1  0.0000000  0.6508444  3
  14293  14294  14300  14306     1  0.0000000  1.0460000  1
  14293  14294  14300  14306     1  0.0000000  0.6694400  3
  14293  14290  14302  14305     1  0.0000000  1.0460000  1
  14293  14290  14302  14305     1  0.0000000  0.6694400  3
  14294  14293  14301  14304     1  0.0000000  1.0460000  1
  14294  14293  14301  14304     1  0.0000000  0.6694400  3
  14295  14294  14300  14306     1  0.0000000  1.0460000  1
  14295  14294  14300  14306     1  0.0000000  0.6694400  3
  14295  14294  14293  14297     1  0.0000000  0.6508444  3
  14296  14294  14295  14299     1  0.0000000  1.0460000  1
  14296  14294  14295  14299     1  0.0000000  0.0000000  3
  14296  14294  14295  14311     1  0.0000000  1.0460000  1
  14296  14294  14295  14311     1  0.0000000  0.0000000  3
  14296  14294  14295  14298     1  0.0000000  0.6508444  3
  14296  14294  14300  14306     1  0.0000000  0.6973333  3
  14296  14294  14293  14301     1  0.0000000  1.0460000  1
  14296  14294  14293  14301     1  0.0000000  0.0000000  3
  14296  14294  14293  14297     1  0.0000000  0.6508444  3
  14297  14293  14294  14300     1  0.0000000  1.0460000  1
  14297  14293  14294  14300     1  0.0000000  0.0000000  3
  14297  14293  14301  14304     1  0.0000000  0.6973333  3
  14297  14293  14290  14302     1  0.0000000  1.0460000  1
  14297  14293  14290  14302     1  0.0000000  0.0000000  3
  14298  14295  14294  14300     1  0.0000000  0.6508444  3
  14307  14303  14309  14310     1  0.0000000  0.6973333  3
  14307  14303  14289  14311     1  0.0000000  1.0460000  1
  14307  14303  14289  14311     1  0.0000000  0.0000000  3
  14308  14303  14309  14310     1  0.0000000  0.6973333  3
  14308  14303  14289  14311     1  0.0000000  1.0460000  1
  14308  14303  14289  14311     1  0.0000000  0.0000000  3
  14312  14313  14316  14320     1  0.0000000  0.6508444  3
  14312  14313  14325  14328     1  0.0000000  1.0460000  1
  14312  14313  14325  14328     1  0.0000000  0.6694400  3
  14312  14326  14332  14333     1  0.0000000  1.0460000  1
  14312  14326  14332  14333     1  0.0000000  0.6694400  3
  14312  14334  14318  14321     1  0.0000000  1.6038667  3
  14313  14312  14326  14330     1  0.0000000  0.6508444  3
  14313  14312  14326  14331     1  0.0000000  0.6508444  3
  14313  14316  14317  14319     1  0.0000000  0.6508444  3
  14313  14316  14324  14327     1  0.0000000  1.0460000  1
  14313  14316  14324  14327     1  0.0000000  0.6694400  3
  14314  14312  14313  14316     1  0.0000000  0.6508444  3
  14314  14312  14313  14325     1  0.0000000  1.0460000  1
  14314  14312  14313  14325     1  0.0000000  0.0000000  3
  14314  14312  14313  14315     1  0.0000000  0.6508444  3
  14314  14312  14326  14332     1  0.0000000  1.0460000  1
  14314  14312  14326  14332     1  0.0000000  0.0000000  3
  14314  14312  14326  14330     1  0.0000000  0.6508444  3
  14314  14312  14326  14331     1  0.0000000  0.6508444  3
  14314  14312  14334  14318     1  0.0000000  1.6038667  3
  14315  14313  14312  14326     1  0.0000000  0.6508444  3
  14315  14313  14312  14334     1  0.0000000  1.0460000  1
  14315  14313  14312  14334     1  0.0000000  0.0000000  3
  14315  14313  14316  14317     1  0.0000000  0.6508444  3
  14315  14313  14316  14324     1  0.0000000  1.0460000  1
  14315  14313  14316  14324     1  0.0000000  0.0000000  3
  14315  14313  14316  14320     1  0.0000000  0.6508444  3
  14315  14313  14325  14328     1  0.0000000  0.6973333  3
  14316  14313  14325  14328     1  0.0000000  1.0460000  1
  14316  14313  14325  14328     1  0.0000000  0.6694400  3
  14316  14317  14318  14321     1  0.0000000  0.6508444  3
  14316  14317  14323  14329     1  0.0000000  1.0460000  1
  14316  14317  14323  14329     1  0.0000000  0.6694400  3
  14317  14316  14324  14327     1  0.0000000  1.0460000  1
  14317  14316  14324  14327     1  0.0000000  0.6694400  3
  14318  14317  14316  14320     1  0.0000000  0.6508444  3
  14318  14317  14323  14329     1  0.0000000  1.0460000  1
  14318  14317  14323  14329     1  0.0000000  0.6694400  3
  14319  14317  14316  14324     1  0.0000000  1.0460000  1
  14319  14317  14316  14324     1  0.0000000  0.0000000  3
  14319  14317  14316  14320     1  0.0000000  0.6508444  3
  14319  14317  14318  14322     1  0.0000000  1.0460000  1
  14319  14317  14318  14322     1  0.0000000  0.0000000  3
  14319  14317  14318  14334     1  0.0000000  1.0460000  1
  14319  14317  14318  14334     1  0.0000000  0.0000000  3
  14319  14317  14318  14321     1  0.0000000  0.6508444  3
  14319  14317  14323  14329     1  0.0000000  0.6973333  3
  14320  14316  14313  14325     1  0.0000000  1.0460000  1
  14320  14316  14313  14325     1  0.0000000  0.0000000  3
  14320  14316  14317  14323     1  0.0000000  1.0460000  1
  14320  14316  14317  14323     1  0.0000000  0.0000000  3
  14320  14316  14324  14327     1  0.0000000  0.6973333  3
  14321  14318  14317  14323     1  0.0000000  0.6508444  3
  14330  14326  14312  14334     1  0.0000000  1.0460000  1
  14330  14326  14312  14334     1  0.0000000  0.0000000  3
  14330  14326  14332  14333     1  0.0000000  0.6973333  3
  14331  14326  14312  14334     1  0.0000000  1.0460000  1
  14331  14326  14312  14334     1  0.0000000  0.0000000  3
  14331  14326  14332  14333     1  0.0000000  0.6973333  3
  14335  14336  14339  14343     1  0.0000000  0.6508444  3
  14335  14336  14348  14351     1  0.0000000  1.0460000  1
  14335  14336  14348  14351     1  0.0000000  0.6694400  3
  14335  14349  14355  14356     1  0.0000000  1.0460000  1
  14335  14349  14355  14356     1  0.0000000  0.6694400  3
  14335  14357  14341  14344     1  0.0000000  1.6038667  3
  14336  14339  14340  14342     1  0.0000000  0.6508444  3
  14336  14339  14347  14350     1  0.0000000  1.0460000  1
  14336  14339  14347  14350     1  0.0000000  0.6694400  3
  14336  14335  14349  14353     1  0.0000000  0.6508444  3
  14336  14335  14349  14354     1  0.0000000  0.6508444  3
  14337  14335  14336  14339     1  0.0000000  0.6508444  3
  14337  14335  14336  14348     1  0.0000000  1.0460000  1
  14337  14335  14336  14348     1  0.0000000  0.0000000  3
  14337  14335  14336  14338     1  0.0000000  0.6508444  3
  14337  14335  14349  14355     1  0.0000000  1.0460000  1
  14337  14335  14349  14355     1  0.0000000  0.0000000  3
  14337  14335  14349  14353     1  0.0000000  0.6508444  3
  14337  14335  14349  14354     1  0.0000000  0.6508444  3
  14337  14335  14357  14341     1  0.0000000  1.6038667  3
  14338  14336  14339  14340     1  0.0000000  0.6508444  3
  14338  14336  14339  14347     1  0.0000000  1.0460000  1
  14338  14336  14339  14347     1  0.0000000  0.0000000  3
  14338  14336  14339  14343     1  0.0000000  0.6508444  3
  14338  14336  14348  14351     1  0.0000000  0.6973333  3
  14338  14336  14335  14349     1  0.0000000  0.6508444  3
  14338  14336  14335  14357     1  0.0000000  1.0460000  1
  14338  14336  14335  14357     1  0.0000000  0.0000000  3
  14339  14340  14341  14344     1  0.0000000  0.6508444  3
  14339  14340  14346  14352     1  0.0000000  1.0460000  1
  14339  14340  14346  14352     1  0.0000000  0.6694400  3
  14339  14336  14348  14351     1  0.0000000  1.0460000  1
  14339  14336  14348  14351     1  0.0000000  0.6694400  3
  14340  14339  14347  14350     1  0.0000000  1.0460000  1
  14340  14339  14347  14350     1  0.0000000  0.6694400  3
  14341  14340  14346  14352     1  0.0000000  1.0460000  1
  14341  14340  14346  14352     1  0.0000000  0.6694400  3
  14341  14340  14339  14343     1  0.0000000  0.6508444  3
  14342  14340  14341  14345     1  0.0000000  1.0460000  1
  14342  14340  14341  14345     1  0.0000000  0.0000000  3
  14342  14340  14341  14357     1  0.0000000  1.0460000  1
  14342  14340  14341  14357     1  0.0000000  0.0000000  3
  14342  14340  14341  14344     1  0.0000000  0.6508444  3
  14342  14340  14346  14352     1  0.0000000  0.6973333  3
  14342  14340  14339  14347     1  0.0000000  1.0460000  1
  14342  14340  14339  14347     1  0.0000000  0.0000000  3
  14342  14340  14339  14343     1  0.0000000  0.6508444  3
  14343  14339  14340  14346     1  0.0000000  1.0460000  1
  14343  14339  14340  14346     1  0.0000000  0.0000000  3
  14343  14339  14347  14350     1  0.0000000  0.6973333  3
  14343  14339  14336  14348     1  0.0000000  1.0460000  1
  14343  14339  14336  14348     1  0.0000000  0.0000000  3
  14344  14341  14340  14346     1  0.0000000  0.6508444  3
  14353  14349  14355  14356     1  0.0000000  0.6973333  3
  14353  14349  14335  14357     1  0.0000000  1.0460000  1
  14353  14349  14335  14357     1  0.0000000  0.0000000  3
  14354  14349  14355  14356     1  0.0000000  0.6973333  3
  14354  14349  14335  14357     1  0.0000000  1.0460000  1
  14354  14349  14335  14357     1  0.0000000  0.0000000  3
  14358  14359  14362  14366     1  0.0000000  0.6508444  3
  14358  14359  14371  14374     1  0.0000000  1.0460000  1
  14358  14359  14371  14374     1  0.0000000  0.6694400  3
  14358  14372  14378  14379     1  0.0000000  1.0460000  1
  14358  14372  14378  14379     1  0.0000000  0.6694400  3
  14358  14380  14364  14367     1  0.0000000  1.6038667  3
  14359  14358  14372  14376     1  0.0000000  0.6508444  3
  14359  14358  14372  14377     1  0.0000000  0.6508444  3
  14359  14362  14363  14365     1  0.0000000  0.6508444  3
  14359  14362  14370  14373     1  0.0000000  1.0460000  1
  14359  14362  14370  14373     1  0.0000000  0.6694400  3
  14360  14358  14359  14362     1  0.0000000  0.6508444  3
  14360  14358  14359  14371     1  0.0000000  1.0460000  1
  14360  14358  14359  14371     1  0.0000000  0.0000000  3
  14360  14358  14359  14361     1  0.0000000  0.6508444  3
  14360  14358  14372  14378     1  0.0000000  1.0460000  1
  14360  14358  14372  14378     1  0.0000000  0.0000000  3
  14360  14358  14372  14376     1  0.0000000  0.6508444  3
  14360  14358  14372  14377     1  0.0000000  0.6508444  3
  14360  14358  14380  14364     1  0.0000000  1.6038667  3
  14361  14359  14358  14372     1  0.0000000  0.6508444  3
  14361  14359  14358  14380     1  0.0000000  1.0460000  1
  14361  14359  14358  14380     1  0.0000000  0.0000000  3
  14361  14359  14362  14363     1  0.0000000  0.6508444  3
  14361  14359  14362  14370     1  0.0000000  1.0460000  1
  14361  14359  14362  14370     1  0.0000000  0.0000000  3
  14361  14359  14362  14366     1  0.0000000  0.6508444  3
  14361  14359  14371  14374     1  0.0000000  0.6973333  3
  14362  14359  14371  14374     1  0.0000000  1.0460000  1
  14362  14359  14371  14374     1  0.0000000  0.6694400  3
  14362  14363  14364  14367     1  0.0000000  0.6508444  3
  14362  14363  14369  14375     1  0.0000000  1.0460000  1
  14362  14363  14369  14375     1  0.0000000  0.6694400  3
  14363  14362  14370  14373     1  0.0000000  1.0460000  1
  14363  14362  14370  14373     1  0.0000000  0.6694400  3
  14364  14363  14362  14366     1  0.0000000  0.6508444  3
  14364  14363  14369  14375     1  0.0000000  1.0460000  1
  14364  14363  14369  14375     1  0.0000000  0.6694400  3
  14365  14363  14362  14370     1  0.0000000  1.0460000  1
  14365  14363  14362  14370     1  0.0000000  0.0000000  3
  14365  14363  14362  14366     1  0.0000000  0.6508444  3
  14365  14363  14364  14368     1  0.0000000  1.0460000  1
  14365  14363  14364  14368     1  0.0000000  0.0000000  3
  14365  14363  14364  14380     1  0.0000000  1.0460000  1
  14365  14363  14364  14380     1  0.0000000  0.0000000  3
  14365  14363  14364  14367     1  0.0000000  0.6508444  3
  14365  14363  14369  14375     1  0.0000000  0.6973333  3
  14366  14362  14359  14371     1  0.0000000  1.0460000  1
  14366  14362  14359  14371     1  0.0000000  0.0000000  3
  14366  14362  14363  14369     1  0.0000000  1.0460000  1
  14366  14362  14363  14369     1  0.0000000  0.0000000  3
  14366  14362  14370  14373     1  0.0000000  0.6973333  3
  14367  14364  14363  14369     1  0.0000000  0.6508444  3
  14376  14372  14358  14380     1  0.0000000  1.0460000  1
  14376  14372  14358  14380     1  0.0000000  0.0000000  3
  14376  14372  14378  14379     1  0.0000000  0.6973333  3
  14377  14372  14358  14380     1  0.0000000  1.0460000  1
  14377  14372  14358  14380     1  0.0000000  0.0000000  3
  14377  14372  14378  14379     1  0.0000000  0.6973333  3
  14381  14382  14385  14389     1  0.0000000  0.6508444  3
  14381  14382  14394  14397     1  0.0000000  1.0460000  1
  14381  14382  14394  14397     1  0.0000000  0.6694400  3
  14381  14395  14401  14402     1  0.0000000  1.0460000  1
  14381  14395  14401  14402     1  0.0000000  0.6694400  3
  14381  14403  14387  14390     1  0.0000000  1.6038667  3
  14382  14385  14386  14388     1  0.0000000  0.6508444  3
  14382  14385  14393  14396     1  0.0000000  1.0460000  1
  14382  14385  14393  14396     1  0.0000000  0.6694400  3
  14382  14381  14395  14399     1  0.0000000  0.6508444  3
  14382  14381  14395  14400     1  0.0000000  0.6508444  3
  14383  14381  14382  14385     1  0.0000000  0.6508444  3
  14383  14381  14382  14394     1  0.0000000  1.0460000  1
  14383  14381  14382  14394     1  0.0000000  0.0000000  3
  14383  14381  14382  14384     1  0.0000000  0.6508444  3
  14383  14381  14395  14401     1  0.0000000  1.0460000  1
  14383  14381  14395  14401     1  0.0000000  0.0000000  3
  14383  14381  14395  14399     1  0.0000000  0.6508444  3
  14383  14381  14395  14400     1  0.0000000  0.6508444  3
  14383  14381  14403  14387     1  0.0000000  1.6038667  3
  14384  14382  14385  14386     1  0.0000000  0.6508444  3
  14384  14382  14385  14393     1  0.0000000  1.0460000  1
  14384  14382  14385  14393     1  0.0000000  0.0000000  3
  14384  14382  14385  14389     1  0.0000000  0.6508444  3
  14384  14382  14394  14397     1  0.0000000  0.6973333  3
  14384  14382  14381  14395     1  0.0000000  0.6508444  3
  14384  14382  14381  14403     1  0.0000000  1.0460000  1
  14384  14382  14381  14403     1  0.0000000  0.0000000  3
  14385  14386  14387  14390     1  0.0000000  0.6508444  3
  14385  14386  14392  14398     1  0.0000000  1.0460000  1
  14385  14386  14392  14398     1  0.0000000  0.6694400  3
  14385  14382  14394  14397     1  0.0000000  1.0460000  1
  14385  14382  14394  14397     1  0.0000000  0.6694400  3
  14386  14385  14393  14396     1  0.0000000  1.0460000  1
  14386  14385  14393  14396     1  0.0000000  0.6694400  3
  14387  14386  14392  14398     1  0.0000000  1.0460000  1
  14387  14386  14392  14398     1  0.0000000  0.6694400  3
  14387  14386  14385  14389     1  0.0000000  0.6508444  3
  14388  14386  14387  14391     1  0.0000000  1.0460000  1
  14388  14386  14387  14391     1  0.0000000  0.0000000  3
  14388  14386  14387  14403     1  0.0000000  1.0460000  1
  14388  14386  14387  14403     1  0.0000000  0.0000000  3
  14388  14386  14387  14390     1  0.0000000  0.6508444  3
  14388  14386  14392  14398     1  0.0000000  0.6973333  3
  14388  14386  14385  14393     1  0.0000000  1.0460000  1
  14388  14386  14385  14393     1  0.0000000  0.0000000  3
  14388  14386  14385  14389     1  0.0000000  0.6508444  3
  14389  14385  14386  14392     1  0.0000000  1.0460000  1
  14389  14385  14386  14392     1  0.0000000  0.0000000  3
  14389  14385  14393  14396     1  0.0000000  0.6973333  3
  14389  14385  14382  14394     1  0.0000000  1.0460000  1
  14389  14385  14382  14394     1  0.0000000  0.0000000  3
  14390  14387  14386  14392     1  0.0000000  0.6508444  3
  14399  14395  14401  14402     1  0.0000000  0.6973333  3
  14399  14395  14381  14403     1  0.0000000  1.0460000  1
  14399  14395  14381  14403     1  0.0000000  0.0000000  3
  14400  14395  14401  14402     1  0.0000000  0.6973333  3
  14400  14395  14381  14403     1  0.0000000  1.0460000  1
  14400  14395  14381  14403     1  0.0000000  0.0000000  3
  14404  14405  14408  14412     1  0.0000000  0.6508444  3
  14404  14405  14417  14420     1  0.0000000  1.0460000  1
  14404  14405  14417  14420     1  0.0000000  0.6694400  3
  14404  14418  14424  14425     1  0.0000000  1.0460000  1
  14404  14418  14424  14425     1  0.0000000  0.6694400  3
  14404  14426  14410  14413     1  0.0000000  1.6038667  3
  14405  14404  14418  14422     1  0.0000000  0.6508444  3
  14405  14404  14418  14423     1  0.0000000  0.6508444  3
  14405  14408  14409  14411     1  0.0000000  0.6508444  3
  14405  14408  14416  14419     1  0.0000000  1.0460000  1
  14405  14408  14416  14419     1  0.0000000  0.6694400  3
  14406  14404  14405  14408     1  0.0000000  0.6508444  3
  14406  14404  14405  14417     1  0.0000000  1.0460000  1
  14406  14404  14405  14417     1  0.0000000  0.0000000  3
  14406  14404  14405  14407     1  0.0000000  0.6508444  3
  14406  14404  14418  14424     1  0.0000000  1.0460000  1
  14406  14404  14418  14424     1  0.0000000  0.0000000  3
  14406  14404  14418  14422     1  0.0000000  0.6508444  3
  14406  14404  14418  14423     1  0.0000000  0.6508444  3
  14406  14404  14426  14410     1  0.0000000  1.6038667  3
  14407  14405  14404  14418     1  0.0000000  0.6508444  3
  14407  14405  14404  14426     1  0.0000000  1.0460000  1
  14407  14405  14404  14426     1  0.0000000  0.0000000  3
  14407  14405  14408  14409     1  0.0000000  0.6508444  3
  14407  14405  14408  14416     1  0.0000000  1.0460000  1
  14407  14405  14408  14416     1  0.0000000  0.0000000  3
  14407  14405  14408  14412     1  0.0000000  0.6508444  3
  14407  14405  14417  14420     1  0.0000000  0.6973333  3
  14408  14405  14417  14420     1  0.0000000  1.0460000  1
  14408  14405  14417  14420     1  0.0000000  0.6694400  3
  14408  14409  14410  14413     1  0.0000000  0.6508444  3
  14408  14409  14415  14421     1  0.0000000  1.0460000  1
  14408  14409  14415  14421     1  0.0000000  0.6694400  3
  14409  14408  14416  14419     1  0.0000000  1.0460000  1
  14409  14408  14416  14419     1  0.0000000  0.6694400  3
  14410  14409  14408  14412     1  0.0000000  0.6508444  3
  14410  14409  14415  14421     1  0.0000000  1.0460000  1
  14410  14409  14415  14421     1  0.0000000  0.6694400  3
  14411  14409  14408  14416     1  0.0000000  1.0460000  1
  14411  14409  14408  14416     1  0.0000000  0.0000000  3
  14411  14409  14408  14412     1  0.0000000  0.6508444  3
  14411  14409  14410  14414     1  0.0000000  1.0460000  1
  14411  14409  14410  14414     1  0.0000000  0.0000000  3
  14411  14409  14410  14426     1  0.0000000  1.0460000  1
  14411  14409  14410  14426     1  0.0000000  0.0000000  3
  14411  14409  14410  14413     1  0.0000000  0.6508444  3
  14411  14409  14415  14421     1  0.0000000  0.6973333  3
  14412  14408  14405  14417     1  0.0000000  1.0460000  1
  14412  14408  14405  14417     1  0.0000000  0.0000000  3
  14412  14408  14409  14415     1  0.0000000  1.0460000  1
  14412  14408  14409  14415     1  0.0000000  0.0000000  3
  14412  14408  14416  14419     1  0.0000000  0.6973333  3
  14413  14410  14409  14415     1  0.0000000  0.6508444  3
  14422  14418  14404  14426     1  0.0000000  1.0460000  1
  14422  14418  14404  14426     1  0.0000000  0.0000000  3
  14422  14418  14424  14425     1  0.0000000  0.6973333  3
  14423  14418  14404  14426     1  0.0000000  1.0460000  1
  14423  14418  14404  14426     1  0.0000000  0.0000000  3
  14423  14418  14424  14425     1  0.0000000  0.6973333  3
  14427  14428  14431  14435     1  0.0000000  0.6508444  3
  14427  14428  14440  14443     1  0.0000000  1.0460000  1
  14427  14428  14440  14443     1  0.0000000  0.6694400  3
  14427  14441  14447  14448     1  0.0000000  1.0460000  1
  14427  14441  14447  14448     1  0.0000000  0.6694400  3
  14427  14449  14433  14436     1  0.0000000  1.6038667  3
  14428  14431  14432  14434     1  0.0000000  0.6508444  3
  14428  14431  14439  14442     1  0.0000000  1.0460000  1
  14428  14431  14439  14442     1  0.0000000  0.6694400  3
  14428  14427  14441  14445     1  0.0000000  0.6508444  3
  14428  14427  14441  14446     1  0.0000000  0.6508444  3
  14429  14427  14428  14431     1  0.0000000  0.6508444  3
  14429  14427  14428  14440     1  0.0000000  1.0460000  1
  14429  14427  14428  14440     1  0.0000000  0.0000000  3
  14429  14427  14428  14430     1  0.0000000  0.6508444  3
  14429  14427  14441  14447     1  0.0000000  1.0460000  1
  14429  14427  14441  14447     1  0.0000000  0.0000000  3
  14429  14427  14441  14445     1  0.0000000  0.6508444  3
  14429  14427  14441  14446     1  0.0000000  0.6508444  3
  14429  14427  14449  14433     1  0.0000000  1.6038667  3
  14430  14428  14431  14432     1  0.0000000  0.6508444  3
  14430  14428  14431  14439     1  0.0000000  1.0460000  1
  14430  14428  14431  14439     1  0.0000000  0.0000000  3
  14430  14428  14431  14435     1  0.0000000  0.6508444  3
  14430  14428  14440  14443     1  0.0000000  0.6973333  3
  14430  14428  14427  14441     1  0.0000000  0.6508444  3
  14430  14428  14427  14449     1  0.0000000  1.0460000  1
  14430  14428  14427  14449     1  0.0000000  0.0000000  3
  14431  14432  14433  14436     1  0.0000000  0.6508444  3
  14431  14432  14438  14444     1  0.0000000  1.0460000  1
  14431  14432  14438  14444     1  0.0000000  0.6694400  3
  14431  14428  14440  14443     1  0.0000000  1.0460000  1
  14431  14428  14440  14443     1  0.0000000  0.6694400  3
  14432  14431  14439  14442     1  0.0000000  1.0460000  1
  14432  14431  14439  14442     1  0.0000000  0.6694400  3
  14433  14432  14438  14444     1  0.0000000  1.0460000  1
  14433  14432  14438  14444     1  0.0000000  0.6694400  3
  14433  14432  14431  14435     1  0.0000000  0.6508444  3
  14434  14432  14433  14437     1  0.0000000  1.0460000  1
  14434  14432  14433  14437     1  0.0000000  0.0000000  3
  14434  14432  14433  14449     1  0.0000000  1.0460000  1
  14434  14432  14433  14449     1  0.0000000  0.0000000  3
  14434  14432  14433  14436     1  0.0000000  0.6508444  3
  14434  14432  14438  14444     1  0.0000000  0.6973333  3
  14434  14432  14431  14439     1  0.0000000  1.0460000  1
  14434  14432  14431  14439     1  0.0000000  0.0000000  3
  14434  14432  14431  14435     1  0.0000000  0.6508444  3
  14435  14431  14432  14438     1  0.0000000  1.0460000  1
  14435  14431  14432  14438     1  0.0000000  0.0000000  3
  14435  14431  14439  14442     1  0.0000000  0.6973333  3
  14435  14431  14428  14440     1  0.0000000  1.0460000  1
  14435  14431  14428  14440     1  0.0000000  0.0000000  3
  14436  14433  14432  14438     1  0.0000000  0.6508444  3
  14445  14441  14447  14448     1  0.0000000  0.6973333  3
  14445  14441  14427  14449     1  0.0000000  1.0460000  1
  14445  14441  14427  14449     1  0.0000000  0.0000000  3
  14446  14441  14447  14448     1  0.0000000  0.6973333  3
  14446  14441  14427  14449     1  0.0000000  1.0460000  1
  14446  14441  14427  14449     1  0.0000000  0.0000000  3
  14450  14451  14454  14458     1  0.0000000  0.6508444  3
  14450  14451  14463  14466     1  0.0000000  1.0460000  1
  14450  14451  14463  14466     1  0.0000000  0.6694400  3
  14450  14464  14470  14471     1  0.0000000  1.0460000  1
  14450  14464  14470  14471     1  0.0000000  0.6694400  3
  14450  14472  14456  14459     1  0.0000000  1.6038667  3
  14451  14450  14464  14468     1  0.0000000  0.6508444  3
  14451  14450  14464  14469     1  0.0000000  0.6508444  3
  14451  14454  14455  14457     1  0.0000000  0.6508444  3
  14451  14454  14462  14465     1  0.0000000  1.0460000  1
  14451  14454  14462  14465     1  0.0000000  0.6694400  3
  14452  14450  14451  14454     1  0.0000000  0.6508444  3
  14452  14450  14451  14463     1  0.0000000  1.0460000  1
  14452  14450  14451  14463     1  0.0000000  0.0000000  3
  14452  14450  14451  14453     1  0.0000000  0.6508444  3
  14452  14450  14464  14470     1  0.0000000  1.0460000  1
  14452  14450  14464  14470     1  0.0000000  0.0000000  3
  14452  14450  14464  14468     1  0.0000000  0.6508444  3
  14452  14450  14464  14469     1  0.0000000  0.6508444  3
  14452  14450  14472  14456     1  0.0000000  1.6038667  3
  14453  14451  14450  14464     1  0.0000000  0.6508444  3
  14453  14451  14450  14472     1  0.0000000  1.0460000  1
  14453  14451  14450  14472     1  0.0000000  0.0000000  3
  14453  14451  14454  14455     1  0.0000000  0.6508444  3
  14453  14451  14454  14462     1  0.0000000  1.0460000  1
  14453  14451  14454  14462     1  0.0000000  0.0000000  3
  14453  14451  14454  14458     1  0.0000000  0.6508444  3
  14453  14451  14463  14466     1  0.0000000  0.6973333  3
  14454  14451  14463  14466     1  0.0000000  1.0460000  1
  14454  14451  14463  14466     1  0.0000000  0.6694400  3
  14454  14455  14456  14459     1  0.0000000  0.6508444  3
  14454  14455  14461  14467     1  0.0000000  1.0460000  1
  14454  14455  14461  14467     1  0.0000000  0.6694400  3
  14455  14454  14462  14465     1  0.0000000  1.0460000  1
  14455  14454  14462  14465     1  0.0000000  0.6694400  3
  14456  14455  14454  14458     1  0.0000000  0.6508444  3
  14456  14455  14461  14467     1  0.0000000  1.0460000  1
  14456  14455  14461  14467     1  0.0000000  0.6694400  3
  14457  14455  14454  14462     1  0.0000000  1.0460000  1
  14457  14455  14454  14462     1  0.0000000  0.0000000  3
  14457  14455  14454  14458     1  0.0000000  0.6508444  3
  14457  14455  14456  14460     1  0.0000000  1.0460000  1
  14457  14455  14456  14460     1  0.0000000  0.0000000  3
  14457  14455  14456  14472     1  0.0000000  1.0460000  1
  14457  14455  14456  14472     1  0.0000000  0.0000000  3
  14457  14455  14456  14459     1  0.0000000  0.6508444  3
  14457  14455  14461  14467     1  0.0000000  0.6973333  3
  14458  14454  14451  14463     1  0.0000000  1.0460000  1
  14458  14454  14451  14463     1  0.0000000  0.0000000  3
  14458  14454  14455  14461     1  0.0000000  1.0460000  1
  14458  14454  14455  14461     1  0.0000000  0.0000000  3
  14458  14454  14462  14465     1  0.0000000  0.6973333  3
  14459  14456  14455  14461     1  0.0000000  0.6508444  3
  14468  14464  14450  14472     1  0.0000000  1.0460000  1
  14468  14464  14450  14472     1  0.0000000  0.0000000  3
  14468  14464  14470  14471     1  0.0000000  0.6973333  3
  14469  14464  14450  14472     1  0.0000000  1.0460000  1
  14469  14464  14450  14472     1  0.0000000  0.0000000  3
  14469  14464  14470  14471     1  0.0000000  0.6973333  3
  14473  14474  14477  14481     1  0.0000000  0.6508444  3
  14473  14474  14486  14489     1  0.0000000  1.0460000  1
  14473  14474  14486  14489     1  0.0000000  0.6694400  3
  14473  14487  14493  14494     1  0.0000000  1.0460000  1
  14473  14487  14493  14494     1  0.0000000  0.6694400  3
  14473  14495  14479  14482     1  0.0000000  1.6038667  3
  14474  14477  14478  14480     1  0.0000000  0.6508444  3
  14474  14477  14485  14488     1  0.0000000  1.0460000  1
  14474  14477  14485  14488     1  0.0000000  0.6694400  3
  14474  14473  14487  14491     1  0.0000000  0.6508444  3
  14474  14473  14487  14492     1  0.0000000  0.6508444  3
  14475  14473  14474  14477     1  0.0000000  0.6508444  3
  14475  14473  14474  14486     1  0.0000000  1.0460000  1
  14475  14473  14474  14486     1  0.0000000  0.0000000  3
  14475  14473  14474  14476     1  0.0000000  0.6508444  3
  14475  14473  14487  14493     1  0.0000000  1.0460000  1
  14475  14473  14487  14493     1  0.0000000  0.0000000  3
  14475  14473  14487  14491     1  0.0000000  0.6508444  3
  14475  14473  14487  14492     1  0.0000000  0.6508444  3
  14475  14473  14495  14479     1  0.0000000  1.6038667  3
  14476  14474  14477  14478     1  0.0000000  0.6508444  3
  14476  14474  14477  14485     1  0.0000000  1.0460000  1
  14476  14474  14477  14485     1  0.0000000  0.0000000  3
  14476  14474  14477  14481     1  0.0000000  0.6508444  3
  14476  14474  14486  14489     1  0.0000000  0.6973333  3
  14476  14474  14473  14487     1  0.0000000  0.6508444  3
  14476  14474  14473  14495     1  0.0000000  1.0460000  1
  14476  14474  14473  14495     1  0.0000000  0.0000000  3
  14477  14478  14479  14482     1  0.0000000  0.6508444  3
  14477  14478  14484  14490     1  0.0000000  1.0460000  1
  14477  14478  14484  14490     1  0.0000000  0.6694400  3
  14477  14474  14486  14489     1  0.0000000  1.0460000  1
  14477  14474  14486  14489     1  0.0000000  0.6694400  3
  14478  14477  14485  14488     1  0.0000000  1.0460000  1
  14478  14477  14485  14488     1  0.0000000  0.6694400  3
  14479  14478  14484  14490     1  0.0000000  1.0460000  1
  14479  14478  14484  14490     1  0.0000000  0.6694400  3
  14479  14478  14477  14481     1  0.0000000  0.6508444  3
  14480  14478  14479  14483     1  0.0000000  1.0460000  1
  14480  14478  14479  14483     1  0.0000000  0.0000000  3
  14480  14478  14479  14495     1  0.0000000  1.0460000  1
  14480  14478  14479  14495     1  0.0000000  0.0000000  3
  14480  14478  14479  14482     1  0.0000000  0.6508444  3
  14480  14478  14484  14490     1  0.0000000  0.6973333  3
  14480  14478  14477  14485     1  0.0000000  1.0460000  1
  14480  14478  14477  14485     1  0.0000000  0.0000000  3
  14480  14478  14477  14481     1  0.0000000  0.6508444  3
  14481  14477  14478  14484     1  0.0000000  1.0460000  1
  14481  14477  14478  14484     1  0.0000000  0.0000000  3
  14481  14477  14485  14488     1  0.0000000  0.6973333  3
  14481  14477  14474  14486     1  0.0000000  1.0460000  1
  14481  14477  14474  14486     1  0.0000000  0.0000000  3
  14482  14479  14478  14484     1  0.0000000  0.6508444  3
  14491  14487  14493  14494     1  0.0000000  0.6973333  3
  14491  14487  14473  14495     1  0.0000000  1.0460000  1
  14491  14487  14473  14495     1  0.0000000  0.0000000  3
  14492  14487  14493  14494     1  0.0000000  0.6973333  3
  14492  14487  14473  14495     1  0.0000000  1.0460000  1
  14492  14487  14473  14495     1  0.0000000  0.0000000  3
  14496  14497  14500  14504     1  0.0000000  0.6508444  3
  14496  14497  14509  14512     1  0.0000000  1.0460000  1
  14496  14497  14509  14512     1  0.0000000  0.6694400  3
  14496  14510  14516  14517     1  0.0000000  1.0460000  1
  14496  14510  14516  14517     1  0.0000000  0.6694400  3
  14496  14518  14502  14505     1  0.0000000  1.6038667  3
  14497  14496  14510  14514     1  0.0000000  0.6508444  3
  14497  14496  14510  14515     1  0.0000000  0.6508444  3
  14497  14500  14501  14503     1  0.0000000  0.6508444  3
  14497  14500  14508  14511     1  0.0000000  1.0460000  1
  14497  14500  14508  14511     1  0.0000000  0.6694400  3
  14498  14496  14497  14500     1  0.0000000  0.6508444  3
  14498  14496  14497  14509     1  0.0000000  1.0460000  1
  14498  14496  14497  14509     1  0.0000000  0.0000000  3
  14498  14496  14497  14499     1  0.0000000  0.6508444  3
  14498  14496  14510  14516     1  0.0000000  1.0460000  1
  14498  14496  14510  14516     1  0.0000000  0.0000000  3
  14498  14496  14510  14514     1  0.0000000  0.6508444  3
  14498  14496  14510  14515     1  0.0000000  0.6508444  3
  14498  14496  14518  14502     1  0.0000000  1.6038667  3
  14499  14497  14496  14510     1  0.0000000  0.6508444  3
  14499  14497  14496  14518     1  0.0000000  1.0460000  1
  14499  14497  14496  14518     1  0.0000000  0.0000000  3
  14499  14497  14500  14501     1  0.0000000  0.6508444  3
  14499  14497  14500  14508     1  0.0000000  1.0460000  1
  14499  14497  14500  14508     1  0.0000000  0.0000000  3
  14499  14497  14500  14504     1  0.0000000  0.6508444  3
  14499  14497  14509  14512     1  0.0000000  0.6973333  3
  14500  14497  14509  14512     1  0.0000000  1.0460000  1
  14500  14497  14509  14512     1  0.0000000  0.6694400  3
  14500  14501  14502  14505     1  0.0000000  0.6508444  3
  14500  14501  14507  14513     1  0.0000000  1.0460000  1
  14500  14501  14507  14513     1  0.0000000  0.6694400  3
  14501  14500  14508  14511     1  0.0000000  1.0460000  1
  14501  14500  14508  14511     1  0.0000000  0.6694400  3
  14502  14501  14500  14504     1  0.0000000  0.6508444  3
  14502  14501  14507  14513     1  0.0000000  1.0460000  1
  14502  14501  14507  14513     1  0.0000000  0.6694400  3
  14503  14501  14500  14508     1  0.0000000  1.0460000  1
  14503  14501  14500  14508     1  0.0000000  0.0000000  3
  14503  14501  14500  14504     1  0.0000000  0.6508444  3
  14503  14501  14502  14506     1  0.0000000  1.0460000  1
  14503  14501  14502  14506     1  0.0000000  0.0000000  3
  14503  14501  14502  14518     1  0.0000000  1.0460000  1
  14503  14501  14502  14518     1  0.0000000  0.0000000  3
  14503  14501  14502  14505     1  0.0000000  0.6508444  3
  14503  14501  14507  14513     1  0.0000000  0.6973333  3
  14504  14500  14497  14509     1  0.0000000  1.0460000  1
  14504  14500  14497  14509     1  0.0000000  0.0000000  3
  14504  14500  14501  14507     1  0.0000000  1.0460000  1
  14504  14500  14501  14507     1  0.0000000  0.0000000  3
  14504  14500  14508  14511     1  0.0000000  0.6973333  3
  14505  14502  14501  14507     1  0.0000000  0.6508444  3
  14514  14510  14496  14518     1  0.0000000  1.0460000  1
  14514  14510  14496  14518     1  0.0000000  0.0000000  3
  14514  14510  14516  14517     1  0.0000000  0.6973333  3
  14515  14510  14496  14518     1  0.0000000  1.0460000  1
  14515  14510  14496  14518     1  0.0000000  0.0000000  3
  14515  14510  14516  14517     1  0.0000000  0.6973333  3
  14519  14520  14523  14527     1  0.0000000  0.6508444  3
  14519  14520  14532  14535     1  0.0000000  1.0460000  1
  14519  14520  14532  14535     1  0.0000000  0.6694400  3
  14519  14533  14539  14540     1  0.0000000  1.0460000  1
  14519  14533  14539  14540     1  0.0000000  0.6694400  3
  14519  14541  14525  14528     1  0.0000000  1.6038667  3
  14520  14523  14524  14526     1  0.0000000  0.6508444  3
  14520  14523  14531  14534     1  0.0000000  1.0460000  1
  14520  14523  14531  14534     1  0.0000000  0.6694400  3
  14520  14519  14533  14537     1  0.0000000  0.6508444  3
  14520  14519  14533  14538     1  0.0000000  0.6508444  3
  14521  14519  14520  14523     1  0.0000000  0.6508444  3
  14521  14519  14520  14532     1  0.0000000  1.0460000  1
  14521  14519  14520  14532     1  0.0000000  0.0000000  3
  14521  14519  14520  14522     1  0.0000000  0.6508444  3
  14521  14519  14533  14539     1  0.0000000  1.0460000  1
  14521  14519  14533  14539     1  0.0000000  0.0000000  3
  14521  14519  14533  14537     1  0.0000000  0.6508444  3
  14521  14519  14533  14538     1  0.0000000  0.6508444  3
  14521  14519  14541  14525     1  0.0000000  1.6038667  3
  14522  14520  14523  14524     1  0.0000000  0.6508444  3
  14522  14520  14523  14531     1  0.0000000  1.0460000  1
  14522  14520  14523  14531     1  0.0000000  0.0000000  3
  14522  14520  14523  14527     1  0.0000000  0.6508444  3
  14522  14520  14532  14535     1  0.0000000  0.6973333  3
  14522  14520  14519  14533     1  0.0000000  0.6508444  3
  14522  14520  14519  14541     1  0.0000000  1.0460000  1
  14522  14520  14519  14541     1  0.0000000  0.0000000  3
  14523  14524  14525  14528     1  0.0000000  0.6508444  3
  14523  14524  14530  14536     1  0.0000000  1.0460000  1
  14523  14524  14530  14536     1  0.0000000  0.6694400  3
  14523  14520  14532  14535     1  0.0000000  1.0460000  1
  14523  14520  14532  14535     1  0.0000000  0.6694400  3
  14524  14523  14531  14534     1  0.0000000  1.0460000  1
  14524  14523  14531  14534     1  0.0000000  0.6694400  3
  14525  14524  14530  14536     1  0.0000000  1.0460000  1
  14525  14524  14530  14536     1  0.0000000  0.6694400  3
  14525  14524  14523  14527     1  0.0000000  0.6508444  3
  14526  14524  14525  14529     1  0.0000000  1.0460000  1
  14526  14524  14525  14529     1  0.0000000  0.0000000  3
  14526  14524  14525  14541     1  0.0000000  1.0460000  1
  14526  14524  14525  14541     1  0.0000000  0.0000000  3
  14526  14524  14525  14528     1  0.0000000  0.6508444  3
  14526  14524  14530  14536     1  0.0000000  0.6973333  3
  14526  14524  14523  14531     1  0.0000000  1.0460000  1
  14526  14524  14523  14531     1  0.0000000  0.0000000  3
  14526  14524  14523  14527     1  0.0000000  0.6508444  3
  14527  14523  14524  14530     1  0.0000000  1.0460000  1
  14527  14523  14524  14530     1  0.0000000  0.0000000  3
  14527  14523  14531  14534     1  0.0000000  0.6973333  3
  14527  14523  14520  14532     1  0.0000000  1.0460000  1
  14527  14523  14520  14532     1  0.0000000  0.0000000  3
  14528  14525  14524  14530     1  0.0000000  0.6508444  3
  14537  14533  14539  14540     1  0.0000000  0.6973333  3
  14537  14533  14519  14541     1  0.0000000  1.0460000  1
  14537  14533  14519  14541     1  0.0000000  0.0000000  3
  14538  14533  14539  14540     1  0.0000000  0.6973333  3
  14538  14533  14519  14541     1  0.0000000  1.0460000  1
  14538  14533  14519  14541     1  0.0000000  0.0000000  3
  14542  14543  14546  14550     1  0.0000000  0.6508444  3
  14542  14543  14555  14558     1  0.0000000  1.0460000  1
  14542  14543  14555  14558     1  0.0000000  0.6694400  3
  14542  14556  14562  14563     1  0.0000000  1.0460000  1
  14542  14556  14562  14563     1  0.0000000  0.6694400  3
  14542  14564  14548  14551     1  0.0000000  1.6038667  3
  14543  14542  14556  14560     1  0.0000000  0.6508444  3
  14543  14542  14556  14561     1  0.0000000  0.6508444  3
  14543  14546  14547  14549     1  0.0000000  0.6508444  3
  14543  14546  14554  14557     1  0.0000000  1.0460000  1
  14543  14546  14554  14557     1  0.0000000  0.6694400  3
  14544  14542  14543  14546     1  0.0000000  0.6508444  3
  14544  14542  14543  14555     1  0.0000000  1.0460000  1
  14544  14542  14543  14555     1  0.0000000  0.0000000  3
  14544  14542  14543  14545     1  0.0000000  0.6508444  3
  14544  14542  14556  14562     1  0.0000000  1.0460000  1
  14544  14542  14556  14562     1  0.0000000  0.0000000  3
  14544  14542  14556  14560     1  0.0000000  0.6508444  3
  14544  14542  14556  14561     1  0.0000000  0.6508444  3
  14544  14542  14564  14548     1  0.0000000  1.6038667  3
  14545  14543  14542  14556     1  0.0000000  0.6508444  3
  14545  14543  14542  14564     1  0.0000000  1.0460000  1
  14545  14543  14542  14564     1  0.0000000  0.0000000  3
  14545  14543  14546  14547     1  0.0000000  0.6508444  3
  14545  14543  14546  14554     1  0.0000000  1.0460000  1
  14545  14543  14546  14554     1  0.0000000  0.0000000  3
  14545  14543  14546  14550     1  0.0000000  0.6508444  3
  14545  14543  14555  14558     1  0.0000000  0.6973333  3
  14546  14543  14555  14558     1  0.0000000  1.0460000  1
  14546  14543  14555  14558     1  0.0000000  0.6694400  3
  14546  14547  14548  14551     1  0.0000000  0.6508444  3
  14546  14547  14553  14559     1  0.0000000  1.0460000  1
  14546  14547  14553  14559     1  0.0000000  0.6694400  3
  14547  14546  14554  14557     1  0.0000000  1.0460000  1
  14547  14546  14554  14557     1  0.0000000  0.6694400  3
  14548  14547  14546  14550     1  0.0000000  0.6508444  3
  14548  14547  14553  14559     1  0.0000000  1.0460000  1
  14548  14547  14553  14559     1  0.0000000  0.6694400  3
  14549  14547  14546  14554     1  0.0000000  1.0460000  1
  14549  14547  14546  14554     1  0.0000000  0.0000000  3
  14549  14547  14546  14550     1  0.0000000  0.6508444  3
  14549  14547  14548  14552     1  0.0000000  1.0460000  1
  14549  14547  14548  14552     1  0.0000000  0.0000000  3
  14549  14547  14548  14564     1  0.0000000  1.0460000  1
  14549  14547  14548  14564     1  0.0000000  0.0000000  3
  14549  14547  14548  14551     1  0.0000000  0.6508444  3
  14549  14547  14553  14559     1  0.0000000  0.6973333  3
  14550  14546  14543  14555     1  0.0000000  1.0460000  1
  14550  14546  14543  14555     1  0.0000000  0.0000000  3
  14550  14546  14547  14553     1  0.0000000  1.0460000  1
  14550  14546  14547  14553     1  0.0000000  0.0000000  3
  14550  14546  14554  14557     1  0.0000000  0.6973333  3
  14551  14548  14547  14553     1  0.0000000  0.6508444  3
  14560  14556  14542  14564     1  0.0000000  1.0460000  1
  14560  14556  14542  14564     1  0.0000000  0.0000000  3
  14560  14556  14562  14563     1  0.0000000  0.6973333  3
  14561  14556  14542  14564     1  0.0000000  1.0460000  1
  14561  14556  14542  14564     1  0.0000000  0.0000000  3
  14561  14556  14562  14563     1  0.0000000  0.6973333  3
  14565  14566  14569  14573     1  0.0000000  0.6508444  3
  14565  14566  14578  14581     1  0.0000000  1.0460000  1
  14565  14566  14578  14581     1  0.0000000  0.6694400  3
  14565  14579  14585  14586     1  0.0000000  1.0460000  1
  14565  14579  14585  14586     1  0.0000000  0.6694400  3
  14565  14587  14571  14574     1  0.0000000  1.6038667  3
  14566  14569  14570  14572     1  0.0000000  0.6508444  3
  14566  14569  14577  14580     1  0.0000000  1.0460000  1
  14566  14569  14577  14580     1  0.0000000  0.6694400  3
  14566  14565  14579  14583     1  0.0000000  0.6508444  3
  14566  14565  14579  14584     1  0.0000000  0.6508444  3
  14567  14565  14566  14569     1  0.0000000  0.6508444  3
  14567  14565  14566  14578     1  0.0000000  1.0460000  1
  14567  14565  14566  14578     1  0.0000000  0.0000000  3
  14567  14565  14566  14568     1  0.0000000  0.6508444  3
  14567  14565  14579  14585     1  0.0000000  1.0460000  1
  14567  14565  14579  14585     1  0.0000000  0.0000000  3
  14567  14565  14579  14583     1  0.0000000  0.6508444  3
  14567  14565  14579  14584     1  0.0000000  0.6508444  3
  14567  14565  14587  14571     1  0.0000000  1.6038667  3
  14568  14566  14569  14570     1  0.0000000  0.6508444  3
  14568  14566  14569  14577     1  0.0000000  1.0460000  1
  14568  14566  14569  14577     1  0.0000000  0.0000000  3
  14568  14566  14569  14573     1  0.0000000  0.6508444  3
  14568  14566  14578  14581     1  0.0000000  0.6973333  3
  14568  14566  14565  14579     1  0.0000000  0.6508444  3
  14568  14566  14565  14587     1  0.0000000  1.0460000  1
  14568  14566  14565  14587     1  0.0000000  0.0000000  3
  14569  14570  14571  14574     1  0.0000000  0.6508444  3
  14569  14570  14576  14582     1  0.0000000  1.0460000  1
  14569  14570  14576  14582     1  0.0000000  0.6694400  3
  14569  14566  14578  14581     1  0.0000000  1.0460000  1
  14569  14566  14578  14581     1  0.0000000  0.6694400  3
  14570  14569  14577  14580     1  0.0000000  1.0460000  1
  14570  14569  14577  14580     1  0.0000000  0.6694400  3
  14571  14570  14576  14582     1  0.0000000  1.0460000  1
  14571  14570  14576  14582     1  0.0000000  0.6694400  3
  14571  14570  14569  14573     1  0.0000000  0.6508444  3
  14572  14570  14571  14575     1  0.0000000  1.0460000  1
  14572  14570  14571  14575     1  0.0000000  0.0000000  3
  14572  14570  14571  14587     1  0.0000000  1.0460000  1
  14572  14570  14571  14587     1  0.0000000  0.0000000  3
  14572  14570  14571  14574     1  0.0000000  0.6508444  3
  14572  14570  14576  14582     1  0.0000000  0.6973333  3
  14572  14570  14569  14577     1  0.0000000  1.0460000  1
  14572  14570  14569  14577     1  0.0000000  0.0000000  3
  14572  14570  14569  14573     1  0.0000000  0.6508444  3
  14573  14569  14570  14576     1  0.0000000  1.0460000  1
  14573  14569  14570  14576     1  0.0000000  0.0000000  3
  14573  14569  14577  14580     1  0.0000000  0.6973333  3
  14573  14569  14566  14578     1  0.0000000  1.0460000  1
  14573  14569  14566  14578     1  0.0000000  0.0000000  3
  14574  14571  14570  14576     1  0.0000000  0.6508444  3
  14583  14579  14585  14586     1  0.0000000  0.6973333  3
  14583  14579  14565  14587     1  0.0000000  1.0460000  1
  14583  14579  14565  14587     1  0.0000000  0.0000000  3
  14584  14579  14585  14586     1  0.0000000  0.6973333  3
  14584  14579  14565  14587     1  0.0000000  1.0460000  1
  14584  14579  14565  14587     1  0.0000000  0.0000000  3
  14588  14589  14592  14596     1  0.0000000  0.6508444  3
  14588  14589  14601  14604     1  0.0000000  1.0460000  1
  14588  14589  14601  14604     1  0.0000000  0.6694400  3
  14588  14602  14608  14609     1  0.0000000  1.0460000  1
  14588  14602  14608  14609     1  0.0000000  0.6694400  3
  14588  14610  14594  14597     1  0.0000000  1.6038667  3
  14589  14588  14602  14606     1  0.0000000  0.6508444  3
  14589  14588  14602  14607     1  0.0000000  0.6508444  3
  14589  14592  14593  14595     1  0.0000000  0.6508444  3
  14589  14592  14600  14603     1  0.0000000  1.0460000  1
  14589  14592  14600  14603     1  0.0000000  0.6694400  3
  14590  14588  14589  14592     1  0.0000000  0.6508444  3
  14590  14588  14589  14601     1  0.0000000  1.0460000  1
  14590  14588  14589  14601     1  0.0000000  0.0000000  3
  14590  14588  14589  14591     1  0.0000000  0.6508444  3
  14590  14588  14602  14608     1  0.0000000  1.0460000  1
  14590  14588  14602  14608     1  0.0000000  0.0000000  3
  14590  14588  14602  14606     1  0.0000000  0.6508444  3
  14590  14588  14602  14607     1  0.0000000  0.6508444  3
  14590  14588  14610  14594     1  0.0000000  1.6038667  3
  14591  14589  14588  14602     1  0.0000000  0.6508444  3
  14591  14589  14588  14610     1  0.0000000  1.0460000  1
  14591  14589  14588  14610     1  0.0000000  0.0000000  3
  14591  14589  14592  14593     1  0.0000000  0.6508444  3
  14591  14589  14592  14600     1  0.0000000  1.0460000  1
  14591  14589  14592  14600     1  0.0000000  0.0000000  3
  14591  14589  14592  14596     1  0.0000000  0.6508444  3
  14591  14589  14601  14604     1  0.0000000  0.6973333  3
  14592  14589  14601  14604     1  0.0000000  1.0460000  1
  14592  14589  14601  14604     1  0.0000000  0.6694400  3
  14592  14593  14594  14597     1  0.0000000  0.6508444  3
  14592  14593  14599  14605     1  0.0000000  1.0460000  1
  14592  14593  14599  14605     1  0.0000000  0.6694400  3
  14593  14592  14600  14603     1  0.0000000  1.0460000  1
  14593  14592  14600  14603     1  0.0000000  0.6694400  3
  14594  14593  14592  14596     1  0.0000000  0.6508444  3
  14594  14593  14599  14605     1  0.0000000  1.0460000  1
  14594  14593  14599  14605     1  0.0000000  0.6694400  3
  14595  14593  14592  14600     1  0.0000000  1.0460000  1
  14595  14593  14592  14600     1  0.0000000  0.0000000  3
  14595  14593  14592  14596     1  0.0000000  0.6508444  3
  14595  14593  14594  14598     1  0.0000000  1.0460000  1
  14595  14593  14594  14598     1  0.0000000  0.0000000  3
  14595  14593  14594  14610     1  0.0000000  1.0460000  1
  14595  14593  14594  14610     1  0.0000000  0.0000000  3
  14595  14593  14594  14597     1  0.0000000  0.6508444  3
  14595  14593  14599  14605     1  0.0000000  0.6973333  3
  14596  14592  14589  14601     1  0.0000000  1.0460000  1
  14596  14592  14589  14601     1  0.0000000  0.0000000  3
  14596  14592  14593  14599     1  0.0000000  1.0460000  1
  14596  14592  14593  14599     1  0.0000000  0.0000000  3
  14596  14592  14600  14603     1  0.0000000  0.6973333  3
  14597  14594  14593  14599     1  0.0000000  0.6508444  3
  14606  14602  14588  14610     1  0.0000000  1.0460000  1
  14606  14602  14588  14610     1  0.0000000  0.0000000  3
  14606  14602  14608  14609     1  0.0000000  0.6973333  3
  14607  14602  14588  14610     1  0.0000000  1.0460000  1
  14607  14602  14588  14610     1  0.0000000  0.0000000  3
  14607  14602  14608  14609     1  0.0000000  0.6973333  3
  14611  14612  14615  14619     1  0.0000000  0.6508444  3
  14611  14612  14624  14627     1  0.0000000  1.0460000  1
  14611  14612  14624  14627     1  0.0000000  0.6694400  3
  14611  14625  14631  14632     1  0.0000000  1.0460000  1
  14611  14625  14631  14632     1  0.0000000  0.6694400  3
  14611  14633  14617  14620     1  0.0000000  1.6038667  3
  14612  14615  14616  14618     1  0.0000000  0.6508444  3
  14612  14615  14623  14626     1  0.0000000  1.0460000  1
  14612  14615  14623  14626     1  0.0000000  0.6694400  3
  14612  14611  14625  14629     1  0.0000000  0.6508444  3
  14612  14611  14625  14630     1  0.0000000  0.6508444  3
  14613  14611  14612  14615     1  0.0000000  0.6508444  3
  14613  14611  14612  14624     1  0.0000000  1.0460000  1
  14613  14611  14612  14624     1  0.0000000  0.0000000  3
  14613  14611  14612  14614     1  0.0000000  0.6508444  3
  14613  14611  14625  14631     1  0.0000000  1.0460000  1
  14613  14611  14625  14631     1  0.0000000  0.0000000  3
  14613  14611  14625  14629     1  0.0000000  0.6508444  3
  14613  14611  14625  14630     1  0.0000000  0.6508444  3
  14613  14611  14633  14617     1  0.0000000  1.6038667  3
  14614  14612  14615  14616     1  0.0000000  0.6508444  3
  14614  14612  14615  14623     1  0.0000000  1.0460000  1
  14614  14612  14615  14623     1  0.0000000  0.0000000  3
  14614  14612  14615  14619     1  0.0000000  0.6508444  3
  14614  14612  14624  14627     1  0.0000000  0.6973333  3
  14614  14612  14611  14625     1  0.0000000  0.6508444  3
  14614  14612  14611  14633     1  0.0000000  1.0460000  1
  14614  14612  14611  14633     1  0.0000000  0.0000000  3
  14615  14616  14617  14620     1  0.0000000  0.6508444  3
  14615  14616  14622  14628     1  0.0000000  1.0460000  1
  14615  14616  14622  14628     1  0.0000000  0.6694400  3
  14615  14612  14624  14627     1  0.0000000  1.0460000  1
  14615  14612  14624  14627     1  0.0000000  0.6694400  3
  14616  14615  14623  14626     1  0.0000000  1.0460000  1
  14616  14615  14623  14626     1  0.0000000  0.6694400  3
  14617  14616  14622  14628     1  0.0000000  1.0460000  1
  14617  14616  14622  14628     1  0.0000000  0.6694400  3
  14617  14616  14615  14619     1  0.0000000  0.6508444  3
  14618  14616  14617  14621     1  0.0000000  1.0460000  1
  14618  14616  14617  14621     1  0.0000000  0.0000000  3
  14618  14616  14617  14633     1  0.0000000  1.0460000  1
  14618  14616  14617  14633     1  0.0000000  0.0000000  3
  14618  14616  14617  14620     1  0.0000000  0.6508444  3
  14618  14616  14622  14628     1  0.0000000  0.6973333  3
  14618  14616  14615  14623     1  0.0000000  1.0460000  1
  14618  14616  14615  14623     1  0.0000000  0.0000000  3
  14618  14616  14615  14619     1  0.0000000  0.6508444  3
  14619  14615  14616  14622     1  0.0000000  1.0460000  1
  14619  14615  14616  14622     1  0.0000000  0.0000000  3
  14619  14615  14623  14626     1  0.0000000  0.6973333  3
  14619  14615  14612  14624     1  0.0000000  1.0460000  1
  14619  14615  14612  14624     1  0.0000000  0.0000000  3
  14620  14617  14616  14622     1  0.0000000  0.6508444  3
  14629  14625  14631  14632     1  0.0000000  0.6973333  3
  14629  14625  14611  14633     1  0.0000000  1.0460000  1
  14629  14625  14611  14633     1  0.0000000  0.0000000  3
  14630  14625  14631  14632     1  0.0000000  0.6973333  3
  14630  14625  14611  14633     1  0.0000000  1.0460000  1
  14630  14625  14611  14633     1  0.0000000  0.0000000  3
  14634  14635  14638  14642     1  0.0000000  0.6508444  3
  14634  14635  14647  14650     1  0.0000000  1.0460000  1
  14634  14635  14647  14650     1  0.0000000  0.6694400  3
  14634  14648  14654  14655     1  0.0000000  1.0460000  1
  14634  14648  14654  14655     1  0.0000000  0.6694400  3
  14634  14656  14640  14643     1  0.0000000  1.6038667  3
  14635  14634  14648  14652     1  0.0000000  0.6508444  3
  14635  14634  14648  14653     1  0.0000000  0.6508444  3
  14635  14638  14639  14641     1  0.0000000  0.6508444  3
  14635  14638  14646  14649     1  0.0000000  1.0460000  1
  14635  14638  14646  14649     1  0.0000000  0.6694400  3
  14636  14634  14635  14638     1  0.0000000  0.6508444  3
  14636  14634  14635  14647     1  0.0000000  1.0460000  1
  14636  14634  14635  14647     1  0.0000000  0.0000000  3
  14636  14634  14635  14637     1  0.0000000  0.6508444  3
  14636  14634  14648  14654     1  0.0000000  1.0460000  1
  14636  14634  14648  14654     1  0.0000000  0.0000000  3
  14636  14634  14648  14652     1  0.0000000  0.6508444  3
  14636  14634  14648  14653     1  0.0000000  0.6508444  3
  14636  14634  14656  14640     1  0.0000000  1.6038667  3
  14637  14635  14634  14648     1  0.0000000  0.6508444  3
  14637  14635  14634  14656     1  0.0000000  1.0460000  1
  14637  14635  14634  14656     1  0.0000000  0.0000000  3
  14637  14635  14638  14639     1  0.0000000  0.6508444  3
  14637  14635  14638  14646     1  0.0000000  1.0460000  1
  14637  14635  14638  14646     1  0.0000000  0.0000000  3
  14637  14635  14638  14642     1  0.0000000  0.6508444  3
  14637  14635  14647  14650     1  0.0000000  0.6973333  3
  14638  14635  14647  14650     1  0.0000000  1.0460000  1
  14638  14635  14647  14650     1  0.0000000  0.6694400  3
  14638  14639  14640  14643     1  0.0000000  0.6508444  3
  14638  14639  14645  14651     1  0.0000000  1.0460000  1
  14638  14639  14645  14651     1  0.0000000  0.6694400  3
  14639  14638  14646  14649     1  0.0000000  1.0460000  1
  14639  14638  14646  14649     1  0.0000000  0.6694400  3
  14640  14639  14638  14642     1  0.0000000  0.6508444  3
  14640  14639  14645  14651     1  0.0000000  1.0460000  1
  14640  14639  14645  14651     1  0.0000000  0.6694400  3
  14641  14639  14638  14646     1  0.0000000  1.0460000  1
  14641  14639  14638  14646     1  0.0000000  0.0000000  3
  14641  14639  14638  14642     1  0.0000000  0.6508444  3
  14641  14639  14640  14644     1  0.0000000  1.0460000  1
  14641  14639  14640  14644     1  0.0000000  0.0000000  3
  14641  14639  14640  14656     1  0.0000000  1.0460000  1
  14641  14639  14640  14656     1  0.0000000  0.0000000  3
  14641  14639  14640  14643     1  0.0000000  0.6508444  3
  14641  14639  14645  14651     1  0.0000000  0.6973333  3
  14642  14638  14635  14647     1  0.0000000  1.0460000  1
  14642  14638  14635  14647     1  0.0000000  0.0000000  3
  14642  14638  14639  14645     1  0.0000000  1.0460000  1
  14642  14638  14639  14645     1  0.0000000  0.0000000  3
  14642  14638  14646  14649     1  0.0000000  0.6973333  3
  14643  14640  14639  14645     1  0.0000000  0.6508444  3
  14652  14648  14634  14656     1  0.0000000  1.0460000  1
  14652  14648  14634  14656     1  0.0000000  0.0000000  3
  14652  14648  14654  14655     1  0.0000000  0.6973333  3
  14653  14648  14634  14656     1  0.0000000  1.0460000  1
  14653  14648  14634  14656     1  0.0000000  0.0000000  3
  14653  14648  14654  14655     1  0.0000000  0.6973333  3
  14657  14658  14661  14665     1  0.0000000  0.6508444  3
  14657  14658  14670  14673     1  0.0000000  1.0460000  1
  14657  14658  14670  14673     1  0.0000000  0.6694400  3
  14657  14671  14677  14678     1  0.0000000  1.0460000  1
  14657  14671  14677  14678     1  0.0000000  0.6694400  3
  14657  14679  14663  14666     1  0.0000000  1.6038667  3
  14658  14661  14662  14664     1  0.0000000  0.6508444  3
  14658  14661  14669  14672     1  0.0000000  1.0460000  1
  14658  14661  14669  14672     1  0.0000000  0.6694400  3
  14658  14657  14671  14675     1  0.0000000  0.6508444  3
  14658  14657  14671  14676     1  0.0000000  0.6508444  3
  14659  14657  14658  14661     1  0.0000000  0.6508444  3
  14659  14657  14658  14670     1  0.0000000  1.0460000  1
  14659  14657  14658  14670     1  0.0000000  0.0000000  3
  14659  14657  14658  14660     1  0.0000000  0.6508444  3
  14659  14657  14671  14677     1  0.0000000  1.0460000  1
  14659  14657  14671  14677     1  0.0000000  0.0000000  3
  14659  14657  14671  14675     1  0.0000000  0.6508444  3
  14659  14657  14671  14676     1  0.0000000  0.6508444  3
  14659  14657  14679  14663     1  0.0000000  1.6038667  3
  14660  14658  14661  14662     1  0.0000000  0.6508444  3
  14660  14658  14661  14669     1  0.0000000  1.0460000  1
  14660  14658  14661  14669     1  0.0000000  0.0000000  3
  14660  14658  14661  14665     1  0.0000000  0.6508444  3
  14660  14658  14670  14673     1  0.0000000  0.6973333  3
  14660  14658  14657  14671     1  0.0000000  0.6508444  3
  14660  14658  14657  14679     1  0.0000000  1.0460000  1
  14660  14658  14657  14679     1  0.0000000  0.0000000  3
  14661  14662  14663  14666     1  0.0000000  0.6508444  3
  14661  14662  14668  14674     1  0.0000000  1.0460000  1
  14661  14662  14668  14674     1  0.0000000  0.6694400  3
  14661  14658  14670  14673     1  0.0000000  1.0460000  1
  14661  14658  14670  14673     1  0.0000000  0.6694400  3
  14662  14661  14669  14672     1  0.0000000  1.0460000  1
  14662  14661  14669  14672     1  0.0000000  0.6694400  3
  14663  14662  14668  14674     1  0.0000000  1.0460000  1
  14663  14662  14668  14674     1  0.0000000  0.6694400  3
  14663  14662  14661  14665     1  0.0000000  0.6508444  3
  14664  14662  14663  14667     1  0.0000000  1.0460000  1
  14664  14662  14663  14667     1  0.0000000  0.0000000  3
  14664  14662  14663  14679     1  0.0000000  1.0460000  1
  14664  14662  14663  14679     1  0.0000000  0.0000000  3
  14664  14662  14663  14666     1  0.0000000  0.6508444  3
  14664  14662  14668  14674     1  0.0000000  0.6973333  3
  14664  14662  14661  14669     1  0.0000000  1.0460000  1
  14664  14662  14661  14669     1  0.0000000  0.0000000  3
  14664  14662  14661  14665     1  0.0000000  0.6508444  3
  14665  14661  14662  14668     1  0.0000000  1.0460000  1
  14665  14661  14662  14668     1  0.0000000  0.0000000  3
  14665  14661  14669  14672     1  0.0000000  0.6973333  3
  14665  14661  14658  14670     1  0.0000000  1.0460000  1
  14665  14661  14658  14670     1  0.0000000  0.0000000  3
  14666  14663  14662  14668     1  0.0000000  0.6508444  3
  14675  14671  14677  14678     1  0.0000000  0.6973333  3
  14675  14671  14657  14679     1  0.0000000  1.0460000  1
  14675  14671  14657  14679     1  0.0000000  0.0000000  3
  14676  14671  14677  14678     1  0.0000000  0.6973333  3
  14676  14671  14657  14679     1  0.0000000  1.0460000  1
  14676  14671  14657  14679     1  0.0000000  0.0000000  3
  14680  14681  14684  14688     1  0.0000000  0.6508444  3
  14680  14681  14693  14696     1  0.0000000  1.0460000  1
  14680  14681  14693  14696     1  0.0000000  0.6694400  3
  14680  14694  14700  14701     1  0.0000000  1.0460000  1
  14680  14694  14700  14701     1  0.0000000  0.6694400  3
  14680  14702  14686  14689     1  0.0000000  1.6038667  3
  14681  14680  14694  14698     1  0.0000000  0.6508444  3
  14681  14680  14694  14699     1  0.0000000  0.6508444  3
  14681  14684  14685  14687     1  0.0000000  0.6508444  3
  14681  14684  14692  14695     1  0.0000000  1.0460000  1
  14681  14684  14692  14695     1  0.0000000  0.6694400  3
  14682  14680  14681  14684     1  0.0000000  0.6508444  3
  14682  14680  14681  14693     1  0.0000000  1.0460000  1
  14682  14680  14681  14693     1  0.0000000  0.0000000  3
  14682  14680  14681  14683     1  0.0000000  0.6508444  3
  14682  14680  14694  14700     1  0.0000000  1.0460000  1
  14682  14680  14694  14700     1  0.0000000  0.0000000  3
  14682  14680  14694  14698     1  0.0000000  0.6508444  3
  14682  14680  14694  14699     1  0.0000000  0.6508444  3
  14682  14680  14702  14686     1  0.0000000  1.6038667  3
  14683  14681  14680  14694     1  0.0000000  0.6508444  3
  14683  14681  14680  14702     1  0.0000000  1.0460000  1
  14683  14681  14680  14702     1  0.0000000  0.0000000  3
  14683  14681  14684  14685     1  0.0000000  0.6508444  3
  14683  14681  14684  14692     1  0.0000000  1.0460000  1
  14683  14681  14684  14692     1  0.0000000  0.0000000  3
  14683  14681  14684  14688     1  0.0000000  0.6508444  3
  14683  14681  14693  14696     1  0.0000000  0.6973333  3
  14684  14681  14693  14696     1  0.0000000  1.0460000  1
  14684  14681  14693  14696     1  0.0000000  0.6694400  3
  14684  14685  14686  14689     1  0.0000000  0.6508444  3
  14684  14685  14691  14697     1  0.0000000  1.0460000  1
  14684  14685  14691  14697     1  0.0000000  0.6694400  3
  14685  14684  14692  14695     1  0.0000000  1.0460000  1
  14685  14684  14692  14695     1  0.0000000  0.6694400  3
  14686  14685  14684  14688     1  0.0000000  0.6508444  3
  14686  14685  14691  14697     1  0.0000000  1.0460000  1
  14686  14685  14691  14697     1  0.0000000  0.6694400  3
  14687  14685  14684  14692     1  0.0000000  1.0460000  1
  14687  14685  14684  14692     1  0.0000000  0.0000000  3
  14687  14685  14684  14688     1  0.0000000  0.6508444  3
  14687  14685  14686  14690     1  0.0000000  1.0460000  1
  14687  14685  14686  14690     1  0.0000000  0.0000000  3
  14687  14685  14686  14702     1  0.0000000  1.0460000  1
  14687  14685  14686  14702     1  0.0000000  0.0000000  3
  14687  14685  14686  14689     1  0.0000000  0.6508444  3
  14687  14685  14691  14697     1  0.0000000  0.6973333  3
  14688  14684  14681  14693     1  0.0000000  1.0460000  1
  14688  14684  14681  14693     1  0.0000000  0.0000000  3
  14688  14684  14685  14691     1  0.0000000  1.0460000  1
  14688  14684  14685  14691     1  0.0000000  0.0000000  3
  14688  14684  14692  14695     1  0.0000000  0.6973333  3
  14689  14686  14685  14691     1  0.0000000  0.6508444  3
  14698  14694  14680  14702     1  0.0000000  1.0460000  1
  14698  14694  14680  14702     1  0.0000000  0.0000000  3
  14698  14694  14700  14701     1  0.0000000  0.6973333  3
  14699  14694  14680  14702     1  0.0000000  1.0460000  1
  14699  14694  14680  14702     1  0.0000000  0.0000000  3
  14699  14694  14700  14701     1  0.0000000  0.6973333  3
  14703  14704  14707  14711     1  0.0000000  0.6508444  3
  14703  14704  14716  14719     1  0.0000000  1.0460000  1
  14703  14704  14716  14719     1  0.0000000  0.6694400  3
  14703  14717  14723  14724     1  0.0000000  1.0460000  1
  14703  14717  14723  14724     1  0.0000000  0.6694400  3
  14703  14725  14709  14712     1  0.0000000  1.6038667  3
  14704  14707  14708  14710     1  0.0000000  0.6508444  3
  14704  14707  14715  14718     1  0.0000000  1.0460000  1
  14704  14707  14715  14718     1  0.0000000  0.6694400  3
  14704  14703  14717  14721     1  0.0000000  0.6508444  3
  14704  14703  14717  14722     1  0.0000000  0.6508444  3
  14705  14703  14704  14707     1  0.0000000  0.6508444  3
  14705  14703  14704  14716     1  0.0000000  1.0460000  1
  14705  14703  14704  14716     1  0.0000000  0.0000000  3
  14705  14703  14704  14706     1  0.0000000  0.6508444  3
  14705  14703  14717  14723     1  0.0000000  1.0460000  1
  14705  14703  14717  14723     1  0.0000000  0.0000000  3
  14705  14703  14717  14721     1  0.0000000  0.6508444  3
  14705  14703  14717  14722     1  0.0000000  0.6508444  3
  14705  14703  14725  14709     1  0.0000000  1.6038667  3
  14706  14704  14707  14708     1  0.0000000  0.6508444  3
  14706  14704  14707  14715     1  0.0000000  1.0460000  1
  14706  14704  14707  14715     1  0.0000000  0.0000000  3
  14706  14704  14707  14711     1  0.0000000  0.6508444  3
  14706  14704  14716  14719     1  0.0000000  0.6973333  3
  14706  14704  14703  14717     1  0.0000000  0.6508444  3
  14706  14704  14703  14725     1  0.0000000  1.0460000  1
  14706  14704  14703  14725     1  0.0000000  0.0000000  3
  14707  14708  14709  14712     1  0.0000000  0.6508444  3
  14707  14708  14714  14720     1  0.0000000  1.0460000  1
  14707  14708  14714  14720     1  0.0000000  0.6694400  3
  14707  14704  14716  14719     1  0.0000000  1.0460000  1
  14707  14704  14716  14719     1  0.0000000  0.6694400  3
  14708  14707  14715  14718     1  0.0000000  1.0460000  1
  14708  14707  14715  14718     1  0.0000000  0.6694400  3
  14709  14708  14714  14720     1  0.0000000  1.0460000  1
  14709  14708  14714  14720     1  0.0000000  0.6694400  3
  14709  14708  14707  14711     1  0.0000000  0.6508444  3
  14710  14708  14709  14713     1  0.0000000  1.0460000  1
  14710  14708  14709  14713     1  0.0000000  0.0000000  3
  14710  14708  14709  14725     1  0.0000000  1.0460000  1
  14710  14708  14709  14725     1  0.0000000  0.0000000  3
  14710  14708  14709  14712     1  0.0000000  0.6508444  3
  14710  14708  14714  14720     1  0.0000000  0.6973333  3
  14710  14708  14707  14715     1  0.0000000  1.0460000  1
  14710  14708  14707  14715     1  0.0000000  0.0000000  3
  14710  14708  14707  14711     1  0.0000000  0.6508444  3
  14711  14707  14708  14714     1  0.0000000  1.0460000  1
  14711  14707  14708  14714     1  0.0000000  0.0000000  3
  14711  14707  14715  14718     1  0.0000000  0.6973333  3
  14711  14707  14704  14716     1  0.0000000  1.0460000  1
  14711  14707  14704  14716     1  0.0000000  0.0000000  3
  14712  14709  14708  14714     1  0.0000000  0.6508444  3
  14721  14717  14723  14724     1  0.0000000  0.6973333  3
  14721  14717  14703  14725     1  0.0000000  1.0460000  1
  14721  14717  14703  14725     1  0.0000000  0.0000000  3
  14722  14717  14723  14724     1  0.0000000  0.6973333  3
  14722  14717  14703  14725     1  0.0000000  1.0460000  1
  14722  14717  14703  14725     1  0.0000000  0.0000000  3
  14726  14727  14730  14734     1  0.0000000  0.6508444  3
  14726  14727  14739  14742     1  0.0000000  1.0460000  1
  14726  14727  14739  14742     1  0.0000000  0.6694400  3
  14726  14740  14746  14747     1  0.0000000  1.0460000  1
  14726  14740  14746  14747     1  0.0000000  0.6694400  3
  14726  14748  14732  14735     1  0.0000000  1.6038667  3
  14727  14726  14740  14744     1  0.0000000  0.6508444  3
  14727  14726  14740  14745     1  0.0000000  0.6508444  3
  14727  14730  14731  14733     1  0.0000000  0.6508444  3
  14727  14730  14738  14741     1  0.0000000  1.0460000  1
  14727  14730  14738  14741     1  0.0000000  0.6694400  3
  14728  14726  14727  14730     1  0.0000000  0.6508444  3
  14728  14726  14727  14739     1  0.0000000  1.0460000  1
  14728  14726  14727  14739     1  0.0000000  0.0000000  3
  14728  14726  14727  14729     1  0.0000000  0.6508444  3
  14728  14726  14740  14746     1  0.0000000  1.0460000  1
  14728  14726  14740  14746     1  0.0000000  0.0000000  3
  14728  14726  14740  14744     1  0.0000000  0.6508444  3
  14728  14726  14740  14745     1  0.0000000  0.6508444  3
  14728  14726  14748  14732     1  0.0000000  1.6038667  3
  14729  14727  14726  14740     1  0.0000000  0.6508444  3
  14729  14727  14726  14748     1  0.0000000  1.0460000  1
  14729  14727  14726  14748     1  0.0000000  0.0000000  3
  14729  14727  14730  14731     1  0.0000000  0.6508444  3
  14729  14727  14730  14738     1  0.0000000  1.0460000  1
  14729  14727  14730  14738     1  0.0000000  0.0000000  3
  14729  14727  14730  14734     1  0.0000000  0.6508444  3
  14729  14727  14739  14742     1  0.0000000  0.6973333  3
  14730  14727  14739  14742     1  0.0000000  1.0460000  1
  14730  14727  14739  14742     1  0.0000000  0.6694400  3
  14730  14731  14732  14735     1  0.0000000  0.6508444  3
  14730  14731  14737  14743     1  0.0000000  1.0460000  1
  14730  14731  14737  14743     1  0.0000000  0.6694400  3
  14731  14730  14738  14741     1  0.0000000  1.0460000  1
  14731  14730  14738  14741     1  0.0000000  0.6694400  3
  14732  14731  14730  14734     1  0.0000000  0.6508444  3
  14732  14731  14737  14743     1  0.0000000  1.0460000  1
  14732  14731  14737  14743     1  0.0000000  0.6694400  3
  14733  14731  14730  14738     1  0.0000000  1.0460000  1
  14733  14731  14730  14738     1  0.0000000  0.0000000  3
  14733  14731  14730  14734     1  0.0000000  0.6508444  3
  14733  14731  14732  14736     1  0.0000000  1.0460000  1
  14733  14731  14732  14736     1  0.0000000  0.0000000  3
  14733  14731  14732  14748     1  0.0000000  1.0460000  1
  14733  14731  14732  14748     1  0.0000000  0.0000000  3
  14733  14731  14732  14735     1  0.0000000  0.6508444  3
  14733  14731  14737  14743     1  0.0000000  0.6973333  3
  14734  14730  14727  14739     1  0.0000000  1.0460000  1
  14734  14730  14727  14739     1  0.0000000  0.0000000  3
  14734  14730  14731  14737     1  0.0000000  1.0460000  1
  14734  14730  14731  14737     1  0.0000000  0.0000000  3
  14734  14730  14738  14741     1  0.0000000  0.6973333  3
  14735  14732  14731  14737     1  0.0000000  0.6508444  3
  14744  14740  14726  14748     1  0.0000000  1.0460000  1
  14744  14740  14726  14748     1  0.0000000  0.0000000  3
  14744  14740  14746  14747     1  0.0000000  0.6973333  3
  14745  14740  14726  14748     1  0.0000000  1.0460000  1
  14745  14740  14726  14748     1  0.0000000  0.0000000  3
  14745  14740  14746  14747     1  0.0000000  0.6973333  3
  14749  14750  14753  14757     1  0.0000000  0.6508444  3
  14749  14750  14762  14765     1  0.0000000  1.0460000  1
  14749  14750  14762  14765     1  0.0000000  0.6694400  3
  14749  14763  14769  14770     1  0.0000000  1.0460000  1
  14749  14763  14769  14770     1  0.0000000  0.6694400  3
  14749  14771  14755  14758     1  0.0000000  1.6038667  3
  14750  14753  14754  14756     1  0.0000000  0.6508444  3
  14750  14753  14761  14764     1  0.0000000  1.0460000  1
  14750  14753  14761  14764     1  0.0000000  0.6694400  3
  14750  14749  14763  14767     1  0.0000000  0.6508444  3
  14750  14749  14763  14768     1  0.0000000  0.6508444  3
  14751  14749  14750  14753     1  0.0000000  0.6508444  3
  14751  14749  14750  14762     1  0.0000000  1.0460000  1
  14751  14749  14750  14762     1  0.0000000  0.0000000  3
  14751  14749  14750  14752     1  0.0000000  0.6508444  3
  14751  14749  14763  14769     1  0.0000000  1.0460000  1
  14751  14749  14763  14769     1  0.0000000  0.0000000  3
  14751  14749  14763  14767     1  0.0000000  0.6508444  3
  14751  14749  14763  14768     1  0.0000000  0.6508444  3
  14751  14749  14771  14755     1  0.0000000  1.6038667  3
  14752  14750  14753  14754     1  0.0000000  0.6508444  3
  14752  14750  14753  14761     1  0.0000000  1.0460000  1
  14752  14750  14753  14761     1  0.0000000  0.0000000  3
  14752  14750  14753  14757     1  0.0000000  0.6508444  3
  14752  14750  14762  14765     1  0.0000000  0.6973333  3
  14752  14750  14749  14763     1  0.0000000  0.6508444  3
  14752  14750  14749  14771     1  0.0000000  1.0460000  1
  14752  14750  14749  14771     1  0.0000000  0.0000000  3
  14753  14754  14755  14758     1  0.0000000  0.6508444  3
  14753  14754  14760  14766     1  0.0000000  1.0460000  1
  14753  14754  14760  14766     1  0.0000000  0.6694400  3
  14753  14750  14762  14765     1  0.0000000  1.0460000  1
  14753  14750  14762  14765     1  0.0000000  0.6694400  3
  14754  14753  14761  14764     1  0.0000000  1.0460000  1
  14754  14753  14761  14764     1  0.0000000  0.6694400  3
  14755  14754  14760  14766     1  0.0000000  1.0460000  1
  14755  14754  14760  14766     1  0.0000000  0.6694400  3
  14755  14754  14753  14757     1  0.0000000  0.6508444  3
  14756  14754  14755  14759     1  0.0000000  1.0460000  1
  14756  14754  14755  14759     1  0.0000000  0.0000000  3
  14756  14754  14755  14771     1  0.0000000  1.0460000  1
  14756  14754  14755  14771     1  0.0000000  0.0000000  3
  14756  14754  14755  14758     1  0.0000000  0.6508444  3
  14756  14754  14760  14766     1  0.0000000  0.6973333  3
  14756  14754  14753  14761     1  0.0000000  1.0460000  1
  14756  14754  14753  14761     1  0.0000000  0.0000000  3
  14756  14754  14753  14757     1  0.0000000  0.6508444  3
  14757  14753  14754  14760     1  0.0000000  1.0460000  1
  14757  14753  14754  14760     1  0.0000000  0.0000000  3
  14757  14753  14761  14764     1  0.0000000  0.6973333  3
  14757  14753  14750  14762     1  0.0000000  1.0460000  1
  14757  14753  14750  14762     1  0.0000000  0.0000000  3
  14758  14755  14754  14760     1  0.0000000  0.6508444  3
  14767  14763  14769  14770     1  0.0000000  0.6973333  3
  14767  14763  14749  14771     1  0.0000000  1.0460000  1
  14767  14763  14749  14771     1  0.0000000  0.0000000  3
  14768  14763  14769  14770     1  0.0000000  0.6973333  3
  14768  14763  14749  14771     1  0.0000000  1.0460000  1
  14768  14763  14749  14771     1  0.0000000  0.0000000  3
  14772  14773  14776  14780     1  0.0000000  0.6508444  3
  14772  14773  14785  14788     1  0.0000000  1.0460000  1
  14772  14773  14785  14788     1  0.0000000  0.6694400  3
  14772  14786  14792  14793     1  0.0000000  1.0460000  1
  14772  14786  14792  14793     1  0.0000000  0.6694400  3
  14772  14794  14778  14781     1  0.0000000  1.6038667  3
  14773  14772  14786  14790     1  0.0000000  0.6508444  3
  14773  14772  14786  14791     1  0.0000000  0.6508444  3
  14773  14776  14777  14779     1  0.0000000  0.6508444  3
  14773  14776  14784  14787     1  0.0000000  1.0460000  1
  14773  14776  14784  14787     1  0.0000000  0.6694400  3
  14774  14772  14773  14776     1  0.0000000  0.6508444  3
  14774  14772  14773  14785     1  0.0000000  1.0460000  1
  14774  14772  14773  14785     1  0.0000000  0.0000000  3
  14774  14772  14773  14775     1  0.0000000  0.6508444  3
  14774  14772  14786  14792     1  0.0000000  1.0460000  1
  14774  14772  14786  14792     1  0.0000000  0.0000000  3
  14774  14772  14786  14790     1  0.0000000  0.6508444  3
  14774  14772  14786  14791     1  0.0000000  0.6508444  3
  14774  14772  14794  14778     1  0.0000000  1.6038667  3
  14775  14773  14772  14786     1  0.0000000  0.6508444  3
  14775  14773  14772  14794     1  0.0000000  1.0460000  1
  14775  14773  14772  14794     1  0.0000000  0.0000000  3
  14775  14773  14776  14777     1  0.0000000  0.6508444  3
  14775  14773  14776  14784     1  0.0000000  1.0460000  1
  14775  14773  14776  14784     1  0.0000000  0.0000000  3
  14775  14773  14776  14780     1  0.0000000  0.6508444  3
  14775  14773  14785  14788     1  0.0000000  0.6973333  3
  14776  14773  14785  14788     1  0.0000000  1.0460000  1
  14776  14773  14785  14788     1  0.0000000  0.6694400  3
  14776  14777  14778  14781     1  0.0000000  0.6508444  3
  14776  14777  14783  14789     1  0.0000000  1.0460000  1
  14776  14777  14783  14789     1  0.0000000  0.6694400  3
  14777  14776  14784  14787     1  0.0000000  1.0460000  1
  14777  14776  14784  14787     1  0.0000000  0.6694400  3
  14778  14777  14776  14780     1  0.0000000  0.6508444  3
  14778  14777  14783  14789     1  0.0000000  1.0460000  1
  14778  14777  14783  14789     1  0.0000000  0.6694400  3
  14779  14777  14776  14784     1  0.0000000  1.0460000  1
  14779  14777  14776  14784     1  0.0000000  0.0000000  3
  14779  14777  14776  14780     1  0.0000000  0.6508444  3
  14779  14777  14778  14782     1  0.0000000  1.0460000  1
  14779  14777  14778  14782     1  0.0000000  0.0000000  3
  14779  14777  14778  14794     1  0.0000000  1.0460000  1
  14779  14777  14778  14794     1  0.0000000  0.0000000  3
  14779  14777  14778  14781     1  0.0000000  0.6508444  3
  14779  14777  14783  14789     1  0.0000000  0.6973333  3
  14780  14776  14773  14785     1  0.0000000  1.0460000  1
  14780  14776  14773  14785     1  0.0000000  0.0000000  3
  14780  14776  14777  14783     1  0.0000000  1.0460000  1
  14780  14776  14777  14783     1  0.0000000  0.0000000  3
  14780  14776  14784  14787     1  0.0000000  0.6973333  3
  14781  14778  14777  14783     1  0.0000000  0.6508444  3
  14790  14786  14772  14794     1  0.0000000  1.0460000  1
  14790  14786  14772  14794     1  0.0000000  0.0000000  3
  14790  14786  14792  14793     1  0.0000000  0.6973333  3
  14791  14786  14772  14794     1  0.0000000  1.0460000  1
  14791  14786  14772  14794     1  0.0000000  0.0000000  3
  14791  14786  14792  14793     1  0.0000000  0.6973333  3
  14795  14796  14799  14803     1  0.0000000  0.6508444  3
  14795  14796  14808  14811     1  0.0000000  1.0460000  1
  14795  14796  14808  14811     1  0.0000000  0.6694400  3
  14795  14809  14815  14816     1  0.0000000  1.0460000  1
  14795  14809  14815  14816     1  0.0000000  0.6694400  3
  14795  14817  14801  14804     1  0.0000000  1.6038667  3
  14796  14799  14800  14802     1  0.0000000  0.6508444  3
  14796  14799  14807  14810     1  0.0000000  1.0460000  1
  14796  14799  14807  14810     1  0.0000000  0.6694400  3
  14796  14795  14809  14813     1  0.0000000  0.6508444  3
  14796  14795  14809  14814     1  0.0000000  0.6508444  3
  14797  14795  14796  14799     1  0.0000000  0.6508444  3
  14797  14795  14796  14808     1  0.0000000  1.0460000  1
  14797  14795  14796  14808     1  0.0000000  0.0000000  3
  14797  14795  14796  14798     1  0.0000000  0.6508444  3
  14797  14795  14809  14815     1  0.0000000  1.0460000  1
  14797  14795  14809  14815     1  0.0000000  0.0000000  3
  14797  14795  14809  14813     1  0.0000000  0.6508444  3
  14797  14795  14809  14814     1  0.0000000  0.6508444  3
  14797  14795  14817  14801     1  0.0000000  1.6038667  3
  14798  14796  14799  14800     1  0.0000000  0.6508444  3
  14798  14796  14799  14807     1  0.0000000  1.0460000  1
  14798  14796  14799  14807     1  0.0000000  0.0000000  3
  14798  14796  14799  14803     1  0.0000000  0.6508444  3
  14798  14796  14808  14811     1  0.0000000  0.6973333  3
  14798  14796  14795  14809     1  0.0000000  0.6508444  3
  14798  14796  14795  14817     1  0.0000000  1.0460000  1
  14798  14796  14795  14817     1  0.0000000  0.0000000  3
  14799  14800  14801  14804     1  0.0000000  0.6508444  3
  14799  14800  14806  14812     1  0.0000000  1.0460000  1
  14799  14800  14806  14812     1  0.0000000  0.6694400  3
  14799  14796  14808  14811     1  0.0000000  1.0460000  1
  14799  14796  14808  14811     1  0.0000000  0.6694400  3
  14800  14799  14807  14810     1  0.0000000  1.0460000  1
  14800  14799  14807  14810     1  0.0000000  0.6694400  3
  14801  14800  14806  14812     1  0.0000000  1.0460000  1
  14801  14800  14806  14812     1  0.0000000  0.6694400  3
  14801  14800  14799  14803     1  0.0000000  0.6508444  3
  14802  14800  14801  14805     1  0.0000000  1.0460000  1
  14802  14800  14801  14805     1  0.0000000  0.0000000  3
  14802  14800  14801  14817     1  0.0000000  1.0460000  1
  14802  14800  14801  14817     1  0.0000000  0.0000000  3
  14802  14800  14801  14804     1  0.0000000  0.6508444  3
  14802  14800  14806  14812     1  0.0000000  0.6973333  3
  14802  14800  14799  14807     1  0.0000000  1.0460000  1
  14802  14800  14799  14807     1  0.0000000  0.0000000  3
  14802  14800  14799  14803     1  0.0000000  0.6508444  3
  14803  14799  14800  14806     1  0.0000000  1.0460000  1
  14803  14799  14800  14806     1  0.0000000  0.0000000  3
  14803  14799  14807  14810     1  0.0000000  0.6973333  3
  14803  14799  14796  14808     1  0.0000000  1.0460000  1
  14803  14799  14796  14808     1  0.0000000  0.0000000  3
  14804  14801  14800  14806     1  0.0000000  0.6508444  3
  14813  14809  14815  14816     1  0.0000000  0.6973333  3
  14813  14809  14795  14817     1  0.0000000  1.0460000  1
  14813  14809  14795  14817     1  0.0000000  0.0000000  3
  14814  14809  14815  14816     1  0.0000000  0.6973333  3
  14814  14809  14795  14817     1  0.0000000  1.0460000  1
  14814  14809  14795  14817     1  0.0000000  0.0000000  3
  14818  14819  14822  14826     1  0.0000000  0.6508444  3
  14818  14819  14831  14834     1  0.0000000  1.0460000  1
  14818  14819  14831  14834     1  0.0000000  0.6694400  3
  14818  14832  14838  14839     1  0.0000000  1.0460000  1
  14818  14832  14838  14839     1  0.0000000  0.6694400  3
  14818  14840  14824  14827     1  0.0000000  1.6038667  3
  14819  14818  14832  14836     1  0.0000000  0.6508444  3
  14819  14818  14832  14837     1  0.0000000  0.6508444  3
  14819  14822  14823  14825     1  0.0000000  0.6508444  3
  14819  14822  14830  14833     1  0.0000000  1.0460000  1
  14819  14822  14830  14833     1  0.0000000  0.6694400  3
  14820  14818  14819  14822     1  0.0000000  0.6508444  3
  14820  14818  14819  14831     1  0.0000000  1.0460000  1
  14820  14818  14819  14831     1  0.0000000  0.0000000  3
  14820  14818  14819  14821     1  0.0000000  0.6508444  3
  14820  14818  14832  14838     1  0.0000000  1.0460000  1
  14820  14818  14832  14838     1  0.0000000  0.0000000  3
  14820  14818  14832  14836     1  0.0000000  0.6508444  3
  14820  14818  14832  14837     1  0.0000000  0.6508444  3
  14820  14818  14840  14824     1  0.0000000  1.6038667  3
  14821  14819  14818  14832     1  0.0000000  0.6508444  3
  14821  14819  14818  14840     1  0.0000000  1.0460000  1
  14821  14819  14818  14840     1  0.0000000  0.0000000  3
  14821  14819  14822  14823     1  0.0000000  0.6508444  3
  14821  14819  14822  14830     1  0.0000000  1.0460000  1
  14821  14819  14822  14830     1  0.0000000  0.0000000  3
  14821  14819  14822  14826     1  0.0000000  0.6508444  3
  14821  14819  14831  14834     1  0.0000000  0.6973333  3
  14822  14819  14831  14834     1  0.0000000  1.0460000  1
  14822  14819  14831  14834     1  0.0000000  0.6694400  3
  14822  14823  14824  14827     1  0.0000000  0.6508444  3
  14822  14823  14829  14835     1  0.0000000  1.0460000  1
  14822  14823  14829  14835     1  0.0000000  0.6694400  3
  14823  14822  14830  14833     1  0.0000000  1.0460000  1
  14823  14822  14830  14833     1  0.0000000  0.6694400  3
  14824  14823  14822  14826     1  0.0000000  0.6508444  3
  14824  14823  14829  14835     1  0.0000000  1.0460000  1
  14824  14823  14829  14835     1  0.0000000  0.6694400  3
  14825  14823  14822  14830     1  0.0000000  1.0460000  1
  14825  14823  14822  14830     1  0.0000000  0.0000000  3
  14825  14823  14822  14826     1  0.0000000  0.6508444  3
  14825  14823  14824  14828     1  0.0000000  1.0460000  1
  14825  14823  14824  14828     1  0.0000000  0.0000000  3
  14825  14823  14824  14840     1  0.0000000  1.0460000  1
  14825  14823  14824  14840     1  0.0000000  0.0000000  3
  14825  14823  14824  14827     1  0.0000000  0.6508444  3
  14825  14823  14829  14835     1  0.0000000  0.6973333  3
  14826  14822  14819  14831     1  0.0000000  1.0460000  1
  14826  14822  14819  14831     1  0.0000000  0.0000000  3
  14826  14822  14823  14829     1  0.0000000  1.0460000  1
  14826  14822  14823  14829     1  0.0000000  0.0000000  3
  14826  14822  14830  14833     1  0.0000000  0.6973333  3
  14827  14824  14823  14829     1  0.0000000  0.6508444  3
  14836  14832  14818  14840     1  0.0000000  1.0460000  1
  14836  14832  14818  14840     1  0.0000000  0.0000000  3
  14836  14832  14838  14839     1  0.0000000  0.6973333  3
  14837  14832  14818  14840     1  0.0000000  1.0460000  1
  14837  14832  14818  14840     1  0.0000000  0.0000000  3
  14837  14832  14838  14839     1  0.0000000  0.6973333  3
  14841  14842  14845  14849     1  0.0000000  0.6508444  3
  14841  14842  14854  14857     1  0.0000000  1.0460000  1
  14841  14842  14854  14857     1  0.0000000  0.6694400  3
  14841  14855  14861  14862     1  0.0000000  1.0460000  1
  14841  14855  14861  14862     1  0.0000000  0.6694400  3
  14841  14863  14847  14850     1  0.0000000  1.6038667  3
  14842  14845  14846  14848     1  0.0000000  0.6508444  3
  14842  14845  14853  14856     1  0.0000000  1.0460000  1
  14842  14845  14853  14856     1  0.0000000  0.6694400  3
  14842  14841  14855  14859     1  0.0000000  0.6508444  3
  14842  14841  14855  14860     1  0.0000000  0.6508444  3
  14843  14841  14842  14845     1  0.0000000  0.6508444  3
  14843  14841  14842  14854     1  0.0000000  1.0460000  1
  14843  14841  14842  14854     1  0.0000000  0.0000000  3
  14843  14841  14842  14844     1  0.0000000  0.6508444  3
  14843  14841  14855  14861     1  0.0000000  1.0460000  1
  14843  14841  14855  14861     1  0.0000000  0.0000000  3
  14843  14841  14855  14859     1  0.0000000  0.6508444  3
  14843  14841  14855  14860     1  0.0000000  0.6508444  3
  14843  14841  14863  14847     1  0.0000000  1.6038667  3
  14844  14842  14845  14846     1  0.0000000  0.6508444  3
  14844  14842  14845  14853     1  0.0000000  1.0460000  1
  14844  14842  14845  14853     1  0.0000000  0.0000000  3
  14844  14842  14845  14849     1  0.0000000  0.6508444  3
  14844  14842  14854  14857     1  0.0000000  0.6973333  3
  14844  14842  14841  14855     1  0.0000000  0.6508444  3
  14844  14842  14841  14863     1  0.0000000  1.0460000  1
  14844  14842  14841  14863     1  0.0000000  0.0000000  3
  14845  14846  14847  14850     1  0.0000000  0.6508444  3
  14845  14846  14852  14858     1  0.0000000  1.0460000  1
  14845  14846  14852  14858     1  0.0000000  0.6694400  3
  14845  14842  14854  14857     1  0.0000000  1.0460000  1
  14845  14842  14854  14857     1  0.0000000  0.6694400  3
  14846  14845  14853  14856     1  0.0000000  1.0460000  1
  14846  14845  14853  14856     1  0.0000000  0.6694400  3
  14847  14846  14852  14858     1  0.0000000  1.0460000  1
  14847  14846  14852  14858     1  0.0000000  0.6694400  3
  14847  14846  14845  14849     1  0.0000000  0.6508444  3
  14848  14846  14847  14851     1  0.0000000  1.0460000  1
  14848  14846  14847  14851     1  0.0000000  0.0000000  3
  14848  14846  14847  14863     1  0.0000000  1.0460000  1
  14848  14846  14847  14863     1  0.0000000  0.0000000  3
  14848  14846  14847  14850     1  0.0000000  0.6508444  3
  14848  14846  14852  14858     1  0.0000000  0.6973333  3
  14848  14846  14845  14853     1  0.0000000  1.0460000  1
  14848  14846  14845  14853     1  0.0000000  0.0000000  3
  14848  14846  14845  14849     1  0.0000000  0.6508444  3
  14849  14845  14846  14852     1  0.0000000  1.0460000  1
  14849  14845  14846  14852     1  0.0000000  0.0000000  3
  14849  14845  14853  14856     1  0.0000000  0.6973333  3
  14849  14845  14842  14854     1  0.0000000  1.0460000  1
  14849  14845  14842  14854     1  0.0000000  0.0000000  3
  14850  14847  14846  14852     1  0.0000000  0.6508444  3
  14859  14855  14861  14862     1  0.0000000  0.6973333  3
  14859  14855  14841  14863     1  0.0000000  1.0460000  1
  14859  14855  14841  14863     1  0.0000000  0.0000000  3
  14860  14855  14861  14862     1  0.0000000  0.6973333  3
  14860  14855  14841  14863     1  0.0000000  1.0460000  1
  14860  14855  14841  14863     1  0.0000000  0.0000000  3
  14864  14865  14868  14872     1  0.0000000  0.6508444  3
  14864  14865  14877  14880     1  0.0000000  1.0460000  1
  14864  14865  14877  14880     1  0.0000000  0.6694400  3
  14864  14878  14884  14885     1  0.0000000  1.0460000  1
  14864  14878  14884  14885     1  0.0000000  0.6694400  3
  14864  14886  14870  14873     1  0.0000000  1.6038667  3
  14865  14864  14878  14882     1  0.0000000  0.6508444  3
  14865  14864  14878  14883     1  0.0000000  0.6508444  3
  14865  14868  14869  14871     1  0.0000000  0.6508444  3
  14865  14868  14876  14879     1  0.0000000  1.0460000  1
  14865  14868  14876  14879     1  0.0000000  0.6694400  3
  14866  14864  14865  14868     1  0.0000000  0.6508444  3
  14866  14864  14865  14877     1  0.0000000  1.0460000  1
  14866  14864  14865  14877     1  0.0000000  0.0000000  3
  14866  14864  14865  14867     1  0.0000000  0.6508444  3
  14866  14864  14878  14884     1  0.0000000  1.0460000  1
  14866  14864  14878  14884     1  0.0000000  0.0000000  3
  14866  14864  14878  14882     1  0.0000000  0.6508444  3
  14866  14864  14878  14883     1  0.0000000  0.6508444  3
  14866  14864  14886  14870     1  0.0000000  1.6038667  3
  14867  14865  14864  14878     1  0.0000000  0.6508444  3
  14867  14865  14864  14886     1  0.0000000  1.0460000  1
  14867  14865  14864  14886     1  0.0000000  0.0000000  3
  14867  14865  14868  14869     1  0.0000000  0.6508444  3
  14867  14865  14868  14876     1  0.0000000  1.0460000  1
  14867  14865  14868  14876     1  0.0000000  0.0000000  3
  14867  14865  14868  14872     1  0.0000000  0.6508444  3
  14867  14865  14877  14880     1  0.0000000  0.6973333  3
  14868  14865  14877  14880     1  0.0000000  1.0460000  1
  14868  14865  14877  14880     1  0.0000000  0.6694400  3
  14868  14869  14870  14873     1  0.0000000  0.6508444  3
  14868  14869  14875  14881     1  0.0000000  1.0460000  1
  14868  14869  14875  14881     1  0.0000000  0.6694400  3
  14869  14868  14876  14879     1  0.0000000  1.0460000  1
  14869  14868  14876  14879     1  0.0000000  0.6694400  3
  14870  14869  14868  14872     1  0.0000000  0.6508444  3
  14870  14869  14875  14881     1  0.0000000  1.0460000  1
  14870  14869  14875  14881     1  0.0000000  0.6694400  3
  14871  14869  14868  14876     1  0.0000000  1.0460000  1
  14871  14869  14868  14876     1  0.0000000  0.0000000  3
  14871  14869  14868  14872     1  0.0000000  0.6508444  3
  14871  14869  14870  14874     1  0.0000000  1.0460000  1
  14871  14869  14870  14874     1  0.0000000  0.0000000  3
  14871  14869  14870  14886     1  0.0000000  1.0460000  1
  14871  14869  14870  14886     1  0.0000000  0.0000000  3
  14871  14869  14870  14873     1  0.0000000  0.6508444  3
  14871  14869  14875  14881     1  0.0000000  0.6973333  3
  14872  14868  14865  14877     1  0.0000000  1.0460000  1
  14872  14868  14865  14877     1  0.0000000  0.0000000  3
  14872  14868  14869  14875     1  0.0000000  1.0460000  1
  14872  14868  14869  14875     1  0.0000000  0.0000000  3
  14872  14868  14876  14879     1  0.0000000  0.6973333  3
  14873  14870  14869  14875     1  0.0000000  0.6508444  3
  14882  14878  14864  14886     1  0.0000000  1.0460000  1
  14882  14878  14864  14886     1  0.0000000  0.0000000  3
  14882  14878  14884  14885     1  0.0000000  0.6973333  3
  14883  14878  14864  14886     1  0.0000000  1.0460000  1
  14883  14878  14864  14886     1  0.0000000  0.0000000  3
  14883  14878  14884  14885     1  0.0000000  0.6973333  3
  14887  14888  14891  14895     1  0.0000000  0.6508444  3
  14887  14888  14900  14903     1  0.0000000  1.0460000  1
  14887  14888  14900  14903     1  0.0000000  0.6694400  3
  14887  14901  14907  14908     1  0.0000000  1.0460000  1
  14887  14901  14907  14908     1  0.0000000  0.6694400  3
  14887  14909  14893  14896     1  0.0000000  1.6038667  3
  14888  14891  14892  14894     1  0.0000000  0.6508444  3
  14888  14891  14899  14902     1  0.0000000  1.0460000  1
  14888  14891  14899  14902     1  0.0000000  0.6694400  3
  14888  14887  14901  14905     1  0.0000000  0.6508444  3
  14888  14887  14901  14906     1  0.0000000  0.6508444  3
  14889  14887  14888  14891     1  0.0000000  0.6508444  3
  14889  14887  14888  14900     1  0.0000000  1.0460000  1
  14889  14887  14888  14900     1  0.0000000  0.0000000  3
  14889  14887  14888  14890     1  0.0000000  0.6508444  3
  14889  14887  14901  14907     1  0.0000000  1.0460000  1
  14889  14887  14901  14907     1  0.0000000  0.0000000  3
  14889  14887  14901  14905     1  0.0000000  0.6508444  3
  14889  14887  14901  14906     1  0.0000000  0.6508444  3
  14889  14887  14909  14893     1  0.0000000  1.6038667  3
  14890  14888  14891  14892     1  0.0000000  0.6508444  3
  14890  14888  14891  14899     1  0.0000000  1.0460000  1
  14890  14888  14891  14899     1  0.0000000  0.0000000  3
  14890  14888  14891  14895     1  0.0000000  0.6508444  3
  14890  14888  14900  14903     1  0.0000000  0.6973333  3
  14890  14888  14887  14901     1  0.0000000  0.6508444  3
  14890  14888  14887  14909     1  0.0000000  1.0460000  1
  14890  14888  14887  14909     1  0.0000000  0.0000000  3
  14891  14892  14893  14896     1  0.0000000  0.6508444  3
  14891  14892  14898  14904     1  0.0000000  1.0460000  1
  14891  14892  14898  14904     1  0.0000000  0.6694400  3
  14891  14888  14900  14903     1  0.0000000  1.0460000  1
  14891  14888  14900  14903     1  0.0000000  0.6694400  3
  14892  14891  14899  14902     1  0.0000000  1.0460000  1
  14892  14891  14899  14902     1  0.0000000  0.6694400  3
  14893  14892  14898  14904     1  0.0000000  1.0460000  1
  14893  14892  14898  14904     1  0.0000000  0.6694400  3
  14893  14892  14891  14895     1  0.0000000  0.6508444  3
  14894  14892  14893  14897     1  0.0000000  1.0460000  1
  14894  14892  14893  14897     1  0.0000000  0.0000000  3
  14894  14892  14893  14909     1  0.0000000  1.0460000  1
  14894  14892  14893  14909     1  0.0000000  0.0000000  3
  14894  14892  14893  14896     1  0.0000000  0.6508444  3
  14894  14892  14898  14904     1  0.0000000  0.6973333  3
  14894  14892  14891  14899     1  0.0000000  1.0460000  1
  14894  14892  14891  14899     1  0.0000000  0.0000000  3
  14894  14892  14891  14895     1  0.0000000  0.6508444  3
  14895  14891  14892  14898     1  0.0000000  1.0460000  1
  14895  14891  14892  14898     1  0.0000000  0.0000000  3
  14895  14891  14899  14902     1  0.0000000  0.6973333  3
  14895  14891  14888  14900     1  0.0000000  1.0460000  1
  14895  14891  14888  14900     1  0.0000000  0.0000000  3
  14896  14893  14892  14898     1  0.0000000  0.6508444  3
  14905  14901  14907  14908     1  0.0000000  0.6973333  3
  14905  14901  14887  14909     1  0.0000000  1.0460000  1
  14905  14901  14887  14909     1  0.0000000  0.0000000  3
  14906  14901  14907  14908     1  0.0000000  0.6973333  3
  14906  14901  14887  14909     1  0.0000000  1.0460000  1
  14906  14901  14887  14909     1  0.0000000  0.0000000  3
  14910  14911  14914  14918     1  0.0000000  0.6508444  3
  14910  14911  14923  14926     1  0.0000000  1.0460000  1
  14910  14911  14923  14926     1  0.0000000  0.6694400  3
  14910  14924  14930  14931     1  0.0000000  1.0460000  1
  14910  14924  14930  14931     1  0.0000000  0.6694400  3
  14910  14932  14916  14919     1  0.0000000  1.6038667  3
  14911  14910  14924  14928     1  0.0000000  0.6508444  3
  14911  14910  14924  14929     1  0.0000000  0.6508444  3
  14911  14914  14915  14917     1  0.0000000  0.6508444  3
  14911  14914  14922  14925     1  0.0000000  1.0460000  1
  14911  14914  14922  14925     1  0.0000000  0.6694400  3
  14912  14910  14911  14914     1  0.0000000  0.6508444  3
  14912  14910  14911  14923     1  0.0000000  1.0460000  1
  14912  14910  14911  14923     1  0.0000000  0.0000000  3
  14912  14910  14911  14913     1  0.0000000  0.6508444  3
  14912  14910  14924  14930     1  0.0000000  1.0460000  1
  14912  14910  14924  14930     1  0.0000000  0.0000000  3
  14912  14910  14924  14928     1  0.0000000  0.6508444  3
  14912  14910  14924  14929     1  0.0000000  0.6508444  3
  14912  14910  14932  14916     1  0.0000000  1.6038667  3
  14913  14911  14910  14924     1  0.0000000  0.6508444  3
  14913  14911  14910  14932     1  0.0000000  1.0460000  1
  14913  14911  14910  14932     1  0.0000000  0.0000000  3
  14913  14911  14914  14915     1  0.0000000  0.6508444  3
  14913  14911  14914  14922     1  0.0000000  1.0460000  1
  14913  14911  14914  14922     1  0.0000000  0.0000000  3
  14913  14911  14914  14918     1  0.0000000  0.6508444  3
  14913  14911  14923  14926     1  0.0000000  0.6973333  3
  14914  14911  14923  14926     1  0.0000000  1.0460000  1
  14914  14911  14923  14926     1  0.0000000  0.6694400  3
  14914  14915  14916  14919     1  0.0000000  0.6508444  3
  14914  14915  14921  14927     1  0.0000000  1.0460000  1
  14914  14915  14921  14927     1  0.0000000  0.6694400  3
  14915  14914  14922  14925     1  0.0000000  1.0460000  1
  14915  14914  14922  14925     1  0.0000000  0.6694400  3
  14916  14915  14914  14918     1  0.0000000  0.6508444  3
  14916  14915  14921  14927     1  0.0000000  1.0460000  1
  14916  14915  14921  14927     1  0.0000000  0.6694400  3
  14917  14915  14914  14922     1  0.0000000  1.0460000  1
  14917  14915  14914  14922     1  0.0000000  0.0000000  3
  14917  14915  14914  14918     1  0.0000000  0.6508444  3
  14917  14915  14916  14920     1  0.0000000  1.0460000  1
  14917  14915  14916  14920     1  0.0000000  0.0000000  3
  14917  14915  14916  14932     1  0.0000000  1.0460000  1
  14917  14915  14916  14932     1  0.0000000  0.0000000  3
  14917  14915  14916  14919     1  0.0000000  0.6508444  3
  14917  14915  14921  14927     1  0.0000000  0.6973333  3
  14918  14914  14911  14923     1  0.0000000  1.0460000  1
  14918  14914  14911  14923     1  0.0000000  0.0000000  3
  14918  14914  14915  14921     1  0.0000000  1.0460000  1
  14918  14914  14915  14921     1  0.0000000  0.0000000  3
  14918  14914  14922  14925     1  0.0000000  0.6973333  3
  14919  14916  14915  14921     1  0.0000000  0.6508444  3
  14928  14924  14910  14932     1  0.0000000  1.0460000  1
  14928  14924  14910  14932     1  0.0000000  0.0000000  3
  14928  14924  14930  14931     1  0.0000000  0.6973333  3
  14929  14924  14910  14932     1  0.0000000  1.0460000  1
  14929  14924  14910  14932     1  0.0000000  0.0000000  3
  14929  14924  14930  14931     1  0.0000000  0.6973333  3
  14933  14934  14937  14941     1  0.0000000  0.6508444  3
  14933  14934  14946  14949     1  0.0000000  1.0460000  1
  14933  14934  14946  14949     1  0.0000000  0.6694400  3
  14933  14947  14953  14954     1  0.0000000  1.0460000  1
  14933  14947  14953  14954     1  0.0000000  0.6694400  3
  14933  14955  14939  14942     1  0.0000000  1.6038667  3
  14934  14937  14938  14940     1  0.0000000  0.6508444  3
  14934  14937  14945  14948     1  0.0000000  1.0460000  1
  14934  14937  14945  14948     1  0.0000000  0.6694400  3
  14934  14933  14947  14951     1  0.0000000  0.6508444  3
  14934  14933  14947  14952     1  0.0000000  0.6508444  3
  14935  14933  14934  14937     1  0.0000000  0.6508444  3
  14935  14933  14934  14946     1  0.0000000  1.0460000  1
  14935  14933  14934  14946     1  0.0000000  0.0000000  3
  14935  14933  14934  14936     1  0.0000000  0.6508444  3
  14935  14933  14947  14953     1  0.0000000  1.0460000  1
  14935  14933  14947  14953     1  0.0000000  0.0000000  3
  14935  14933  14947  14951     1  0.0000000  0.6508444  3
  14935  14933  14947  14952     1  0.0000000  0.6508444  3
  14935  14933  14955  14939     1  0.0000000  1.6038667  3
  14936  14934  14937  14938     1  0.0000000  0.6508444  3
  14936  14934  14937  14945     1  0.0000000  1.0460000  1
  14936  14934  14937  14945     1  0.0000000  0.0000000  3
  14936  14934  14937  14941     1  0.0000000  0.6508444  3
  14936  14934  14946  14949     1  0.0000000  0.6973333  3
  14936  14934  14933  14947     1  0.0000000  0.6508444  3
  14936  14934  14933  14955     1  0.0000000  1.0460000  1
  14936  14934  14933  14955     1  0.0000000  0.0000000  3
  14937  14938  14939  14942     1  0.0000000  0.6508444  3
  14937  14938  14944  14950     1  0.0000000  1.0460000  1
  14937  14938  14944  14950     1  0.0000000  0.6694400  3
  14937  14934  14946  14949     1  0.0000000  1.0460000  1
  14937  14934  14946  14949     1  0.0000000  0.6694400  3
  14938  14937  14945  14948     1  0.0000000  1.0460000  1
  14938  14937  14945  14948     1  0.0000000  0.6694400  3
  14939  14938  14944  14950     1  0.0000000  1.0460000  1
  14939  14938  14944  14950     1  0.0000000  0.6694400  3
  14939  14938  14937  14941     1  0.0000000  0.6508444  3
  14940  14938  14939  14943     1  0.0000000  1.0460000  1
  14940  14938  14939  14943     1  0.0000000  0.0000000  3
  14940  14938  14939  14955     1  0.0000000  1.0460000  1
  14940  14938  14939  14955     1  0.0000000  0.0000000  3
  14940  14938  14939  14942     1  0.0000000  0.6508444  3
  14940  14938  14944  14950     1  0.0000000  0.6973333  3
  14940  14938  14937  14945     1  0.0000000  1.0460000  1
  14940  14938  14937  14945     1  0.0000000  0.0000000  3
  14940  14938  14937  14941     1  0.0000000  0.6508444  3
  14941  14937  14938  14944     1  0.0000000  1.0460000  1
  14941  14937  14938  14944     1  0.0000000  0.0000000  3
  14941  14937  14945  14948     1  0.0000000  0.6973333  3
  14941  14937  14934  14946     1  0.0000000  1.0460000  1
  14941  14937  14934  14946     1  0.0000000  0.0000000  3
  14942  14939  14938  14944     1  0.0000000  0.6508444  3
  14951  14947  14953  14954     1  0.0000000  0.6973333  3
  14951  14947  14933  14955     1  0.0000000  1.0460000  1
  14951  14947  14933  14955     1  0.0000000  0.0000000  3
  14952  14947  14953  14954     1  0.0000000  0.6973333  3
  14952  14947  14933  14955     1  0.0000000  1.0460000  1
  14952  14947  14933  14955     1  0.0000000  0.0000000  3
  14956  14957  14960  14964     1  0.0000000  0.6508444  3
  14956  14957  14969  14972     1  0.0000000  1.0460000  1
  14956  14957  14969  14972     1  0.0000000  0.6694400  3
  14956  14970  14976  14977     1  0.0000000  1.0460000  1
  14956  14970  14976  14977     1  0.0000000  0.6694400  3
  14956  14978  14962  14965     1  0.0000000  1.6038667  3
  14957  14956  14970  14974     1  0.0000000  0.6508444  3
  14957  14956  14970  14975     1  0.0000000  0.6508444  3
  14957  14960  14961  14963     1  0.0000000  0.6508444  3
  14957  14960  14968  14971     1  0.0000000  1.0460000  1
  14957  14960  14968  14971     1  0.0000000  0.6694400  3
  14958  14956  14957  14960     1  0.0000000  0.6508444  3
  14958  14956  14957  14969     1  0.0000000  1.0460000  1
  14958  14956  14957  14969     1  0.0000000  0.0000000  3
  14958  14956  14957  14959     1  0.0000000  0.6508444  3
  14958  14956  14970  14976     1  0.0000000  1.0460000  1
  14958  14956  14970  14976     1  0.0000000  0.0000000  3
  14958  14956  14970  14974     1  0.0000000  0.6508444  3
  14958  14956  14970  14975     1  0.0000000  0.6508444  3
  14958  14956  14978  14962     1  0.0000000  1.6038667  3
  14959  14957  14956  14970     1  0.0000000  0.6508444  3
  14959  14957  14956  14978     1  0.0000000  1.0460000  1
  14959  14957  14956  14978     1  0.0000000  0.0000000  3
  14959  14957  14960  14961     1  0.0000000  0.6508444  3
  14959  14957  14960  14968     1  0.0000000  1.0460000  1
  14959  14957  14960  14968     1  0.0000000  0.0000000  3
  14959  14957  14960  14964     1  0.0000000  0.6508444  3
  14959  14957  14969  14972     1  0.0000000  0.6973333  3
  14960  14957  14969  14972     1  0.0000000  1.0460000  1
  14960  14957  14969  14972     1  0.0000000  0.6694400  3
  14960  14961  14962  14965     1  0.0000000  0.6508444  3
  14960  14961  14967  14973     1  0.0000000  1.0460000  1
  14960  14961  14967  14973     1  0.0000000  0.6694400  3
  14961  14960  14968  14971     1  0.0000000  1.0460000  1
  14961  14960  14968  14971     1  0.0000000  0.6694400  3
  14962  14961  14960  14964     1  0.0000000  0.6508444  3
  14962  14961  14967  14973     1  0.0000000  1.0460000  1
  14962  14961  14967  14973     1  0.0000000  0.6694400  3
  14963  14961  14960  14968     1  0.0000000  1.0460000  1
  14963  14961  14960  14968     1  0.0000000  0.0000000  3
  14963  14961  14960  14964     1  0.0000000  0.6508444  3
  14963  14961  14962  14966     1  0.0000000  1.0460000  1
  14963  14961  14962  14966     1  0.0000000  0.0000000  3
  14963  14961  14962  14978     1  0.0000000  1.0460000  1
  14963  14961  14962  14978     1  0.0000000  0.0000000  3
  14963  14961  14962  14965     1  0.0000000  0.6508444  3
  14963  14961  14967  14973     1  0.0000000  0.6973333  3
  14964  14960  14957  14969     1  0.0000000  1.0460000  1
  14964  14960  14957  14969     1  0.0000000  0.0000000  3
  14964  14960  14961  14967     1  0.0000000  1.0460000  1
  14964  14960  14961  14967     1  0.0000000  0.0000000  3
  14964  14960  14968  14971     1  0.0000000  0.6973333  3
  14965  14962  14961  14967     1  0.0000000  0.6508444  3
  14974  14970  14956  14978     1  0.0000000  1.0460000  1
  14974  14970  14956  14978     1  0.0000000  0.0000000  3
  14974  14970  14976  14977     1  0.0000000  0.6973333  3
  14975  14970  14956  14978     1  0.0000000  1.0460000  1
  14975  14970  14956  14978     1  0.0000000  0.0000000  3
  14975  14970  14976  14977     1  0.0000000  0.6973333  3
  14979  14980  14983  14987     1  0.0000000  0.6508444  3
  14979  14980  14992  14995     1  0.0000000  1.0460000  1
  14979  14980  14992  14995     1  0.0000000  0.6694400  3
  14979  14993  14999  15000     1  0.0000000  1.0460000  1
  14979  14993  14999  15000     1  0.0000000  0.6694400  3
  14979  15001  14985  14988     1  0.0000000  1.6038667  3
  14980  14983  14984  14986     1  0.0000000  0.6508444  3
  14980  14983  14991  14994     1  0.0000000  1.0460000  1
  14980  14983  14991  14994     1  0.0000000  0.6694400  3
  14980  14979  14993  14997     1  0.0000000  0.6508444  3
  14980  14979  14993  14998     1  0.0000000  0.6508444  3
  14981  14979  14980  14983     1  0.0000000  0.6508444  3
  14981  14979  14980  14992     1  0.0000000  1.0460000  1
  14981  14979  14980  14992     1  0.0000000  0.0000000  3
  14981  14979  14980  14982     1  0.0000000  0.6508444  3
  14981  14979  14993  14999     1  0.0000000  1.0460000  1
  14981  14979  14993  14999     1  0.0000000  0.0000000  3
  14981  14979  14993  14997     1  0.0000000  0.6508444  3
  14981  14979  14993  14998     1  0.0000000  0.6508444  3
  14981  14979  15001  14985     1  0.0000000  1.6038667  3
  14982  14980  14983  14984     1  0.0000000  0.6508444  3
  14982  14980  14983  14991     1  0.0000000  1.0460000  1
  14982  14980  14983  14991     1  0.0000000  0.0000000  3
  14982  14980  14983  14987     1  0.0000000  0.6508444  3
  14982  14980  14992  14995     1  0.0000000  0.6973333  3
  14982  14980  14979  14993     1  0.0000000  0.6508444  3
  14982  14980  14979  15001     1  0.0000000  1.0460000  1
  14982  14980  14979  15001     1  0.0000000  0.0000000  3
  14983  14984  14985  14988     1  0.0000000  0.6508444  3
  14983  14984  14990  14996     1  0.0000000  1.0460000  1
  14983  14984  14990  14996     1  0.0000000  0.6694400  3
  14983  14980  14992  14995     1  0.0000000  1.0460000  1
  14983  14980  14992  14995     1  0.0000000  0.6694400  3
  14984  14983  14991  14994     1  0.0000000  1.0460000  1
  14984  14983  14991  14994     1  0.0000000  0.6694400  3
  14985  14984  14990  14996     1  0.0000000  1.0460000  1
  14985  14984  14990  14996     1  0.0000000  0.6694400  3
  14985  14984  14983  14987     1  0.0000000  0.6508444  3
  14986  14984  14985  14989     1  0.0000000  1.0460000  1
  14986  14984  14985  14989     1  0.0000000  0.0000000  3
  14986  14984  14985  15001     1  0.0000000  1.0460000  1
  14986  14984  14985  15001     1  0.0000000  0.0000000  3
  14986  14984  14985  14988     1  0.0000000  0.6508444  3
  14986  14984  14990  14996     1  0.0000000  0.6973333  3
  14986  14984  14983  14991     1  0.0000000  1.0460000  1
  14986  14984  14983  14991     1  0.0000000  0.0000000  3
  14986  14984  14983  14987     1  0.0000000  0.6508444  3
  14987  14983  14984  14990     1  0.0000000  1.0460000  1
  14987  14983  14984  14990     1  0.0000000  0.0000000  3
  14987  14983  14991  14994     1  0.0000000  0.6973333  3
  14987  14983  14980  14992     1  0.0000000  1.0460000  1
  14987  14983  14980  14992     1  0.0000000  0.0000000  3
  14988  14985  14984  14990     1  0.0000000  0.6508444  3
  14997  14993  14999  15000     1  0.0000000  0.6973333  3
  14997  14993  14979  15001     1  0.0000000  1.0460000  1
  14997  14993  14979  15001     1  0.0000000  0.0000000  3
  14998  14993  14999  15000     1  0.0000000  0.6973333  3
  14998  14993  14979  15001     1  0.0000000  1.0460000  1
  14998  14993  14979  15001     1  0.0000000  0.0000000  3
  15002  15003  15006  15010     1  0.0000000  0.6508444  3
  15002  15003  15015  15018     1  0.0000000  1.0460000  1
  15002  15003  15015  15018     1  0.0000000  0.6694400  3
  15002  15016  15022  15023     1  0.0000000  1.0460000  1
  15002  15016  15022  15023     1  0.0000000  0.6694400  3
  15002  15024  15008  15011     1  0.0000000  1.6038667  3
  15003  15002  15016  15020     1  0.0000000  0.6508444  3
  15003  15002  15016  15021     1  0.0000000  0.6508444  3
  15003  15006  15007  15009     1  0.0000000  0.6508444  3
  15003  15006  15014  15017     1  0.0000000  1.0460000  1
  15003  15006  15014  15017     1  0.0000000  0.6694400  3
  15004  15002  15003  15006     1  0.0000000  0.6508444  3
  15004  15002  15003  15015     1  0.0000000  1.0460000  1
  15004  15002  15003  15015     1  0.0000000  0.0000000  3
  15004  15002  15003  15005     1  0.0000000  0.6508444  3
  15004  15002  15016  15022     1  0.0000000  1.0460000  1
  15004  15002  15016  15022     1  0.0000000  0.0000000  3
  15004  15002  15016  15020     1  0.0000000  0.6508444  3
  15004  15002  15016  15021     1  0.0000000  0.6508444  3
  15004  15002  15024  15008     1  0.0000000  1.6038667  3
  15005  15003  15002  15016     1  0.0000000  0.6508444  3
  15005  15003  15002  15024     1  0.0000000  1.0460000  1
  15005  15003  15002  15024     1  0.0000000  0.0000000  3
  15005  15003  15006  15007     1  0.0000000  0.6508444  3
  15005  15003  15006  15014     1  0.0000000  1.0460000  1
  15005  15003  15006  15014     1  0.0000000  0.0000000  3
  15005  15003  15006  15010     1  0.0000000  0.6508444  3
  15005  15003  15015  15018     1  0.0000000  0.6973333  3
  15006  15003  15015  15018     1  0.0000000  1.0460000  1
  15006  15003  15015  15018     1  0.0000000  0.6694400  3
  15006  15007  15008  15011     1  0.0000000  0.6508444  3
  15006  15007  15013  15019     1  0.0000000  1.0460000  1
  15006  15007  15013  15019     1  0.0000000  0.6694400  3
  15007  15006  15014  15017     1  0.0000000  1.0460000  1
  15007  15006  15014  15017     1  0.0000000  0.6694400  3
  15008  15007  15006  15010     1  0.0000000  0.6508444  3
  15008  15007  15013  15019     1  0.0000000  1.0460000  1
  15008  15007  15013  15019     1  0.0000000  0.6694400  3
  15009  15007  15006  15014     1  0.0000000  1.0460000  1
  15009  15007  15006  15014     1  0.0000000  0.0000000  3
  15009  15007  15006  15010     1  0.0000000  0.6508444  3
  15009  15007  15008  15012     1  0.0000000  1.0460000  1
  15009  15007  15008  15012     1  0.0000000  0.0000000  3
  15009  15007  15008  15024     1  0.0000000  1.0460000  1
  15009  15007  15008  15024     1  0.0000000  0.0000000  3
  15009  15007  15008  15011     1  0.0000000  0.6508444  3
  15009  15007  15013  15019     1  0.0000000  0.6973333  3
  15010  15006  15003  15015     1  0.0000000  1.0460000  1
  15010  15006  15003  15015     1  0.0000000  0.0000000  3
  15010  15006  15007  15013     1  0.0000000  1.0460000  1
  15010  15006  15007  15013     1  0.0000000  0.0000000  3
  15010  15006  15014  15017     1  0.0000000  0.6973333  3
  15011  15008  15007  15013     1  0.0000000  0.6508444  3
  15020  15016  15002  15024     1  0.0000000  1.0460000  1
  15020  15016  15002  15024     1  0.0000000  0.0000000  3
  15020  15016  15022  15023     1  0.0000000  0.6973333  3
  15021  15016  15002  15024     1  0.0000000  1.0460000  1
  15021  15016  15002  15024     1  0.0000000  0.0000000  3
  15021  15016  15022  15023     1  0.0000000  0.6973333  3
  15025  15026  15029  15033     1  0.0000000  0.6508444  3
  15025  15026  15038  15041     1  0.0000000  1.0460000  1
  15025  15026  15038  15041     1  0.0000000  0.6694400  3
  15025  15039  15045  15046     1  0.0000000  1.0460000  1
  15025  15039  15045  15046     1  0.0000000  0.6694400  3
  15025  15047  15031  15034     1  0.0000000  1.6038667  3
  15026  15029  15030  15032     1  0.0000000  0.6508444  3
  15026  15029  15037  15040     1  0.0000000  1.0460000  1
  15026  15029  15037  15040     1  0.0000000  0.6694400  3
  15026  15025  15039  15043     1  0.0000000  0.6508444  3
  15026  15025  15039  15044     1  0.0000000  0.6508444  3
  15027  15025  15026  15029     1  0.0000000  0.6508444  3
  15027  15025  15026  15038     1  0.0000000  1.0460000  1
  15027  15025  15026  15038     1  0.0000000  0.0000000  3
  15027  15025  15026  15028     1  0.0000000  0.6508444  3
  15027  15025  15039  15045     1  0.0000000  1.0460000  1
  15027  15025  15039  15045     1  0.0000000  0.0000000  3
  15027  15025  15039  15043     1  0.0000000  0.6508444  3
  15027  15025  15039  15044     1  0.0000000  0.6508444  3
  15027  15025  15047  15031     1  0.0000000  1.6038667  3
  15028  15026  15029  15030     1  0.0000000  0.6508444  3
  15028  15026  15029  15037     1  0.0000000  1.0460000  1
  15028  15026  15029  15037     1  0.0000000  0.0000000  3
  15028  15026  15029  15033     1  0.0000000  0.6508444  3
  15028  15026  15038  15041     1  0.0000000  0.6973333  3
  15028  15026  15025  15039     1  0.0000000  0.6508444  3
  15028  15026  15025  15047     1  0.0000000  1.0460000  1
  15028  15026  15025  15047     1  0.0000000  0.0000000  3
  15029  15030  15031  15034     1  0.0000000  0.6508444  3
  15029  15030  15036  15042     1  0.0000000  1.0460000  1
  15029  15030  15036  15042     1  0.0000000  0.6694400  3
  15029  15026  15038  15041     1  0.0000000  1.0460000  1
  15029  15026  15038  15041     1  0.0000000  0.6694400  3
  15030  15029  15037  15040     1  0.0000000  1.0460000  1
  15030  15029  15037  15040     1  0.0000000  0.6694400  3
  15031  15030  15036  15042     1  0.0000000  1.0460000  1
  15031  15030  15036  15042     1  0.0000000  0.6694400  3
  15031  15030  15029  15033     1  0.0000000  0.6508444  3
  15032  15030  15031  15035     1  0.0000000  1.0460000  1
  15032  15030  15031  15035     1  0.0000000  0.0000000  3
  15032  15030  15031  15047     1  0.0000000  1.0460000  1
  15032  15030  15031  15047     1  0.0000000  0.0000000  3
  15032  15030  15031  15034     1  0.0000000  0.6508444  3
  15032  15030  15036  15042     1  0.0000000  0.6973333  3
  15032  15030  15029  15037     1  0.0000000  1.0460000  1
  15032  15030  15029  15037     1  0.0000000  0.0000000  3
  15032  15030  15029  15033     1  0.0000000  0.6508444  3
  15033  15029  15030  15036     1  0.0000000  1.0460000  1
  15033  15029  15030  15036     1  0.0000000  0.0000000  3
  15033  15029  15037  15040     1  0.0000000  0.6973333  3
  15033  15029  15026  15038     1  0.0000000  1.0460000  1
  15033  15029  15026  15038     1  0.0000000  0.0000000  3
  15034  15031  15030  15036     1  0.0000000  0.6508444  3
  15043  15039  15045  15046     1  0.0000000  0.6973333  3
  15043  15039  15025  15047     1  0.0000000  1.0460000  1
  15043  15039  15025  15047     1  0.0000000  0.0000000  3
  15044  15039  15045  15046     1  0.0000000  0.6973333  3
  15044  15039  15025  15047     1  0.0000000  1.0460000  1
  15044  15039  15025  15047     1  0.0000000  0.0000000  3
  15048  15049  15052  15056     1  0.0000000  0.6508444  3
  15048  15049  15061  15064     1  0.0000000  1.0460000  1
  15048  15049  15061  15064     1  0.0000000  0.6694400  3
  15048  15062  15068  15069     1  0.0000000  1.0460000  1
  15048  15062  15068  15069     1  0.0000000  0.6694400  3
  15048  15070  15054  15057     1  0.0000000  1.6038667  3
  15049  15048  15062  15066     1  0.0000000  0.6508444  3
  15049  15048  15062  15067     1  0.0000000  0.6508444  3
  15049  15052  15053  15055     1  0.0000000  0.6508444  3
  15049  15052  15060  15063     1  0.0000000  1.0460000  1
  15049  15052  15060  15063     1  0.0000000  0.6694400  3
  15050  15048  15049  15052     1  0.0000000  0.6508444  3
  15050  15048  15049  15061     1  0.0000000  1.0460000  1
  15050  15048  15049  15061     1  0.0000000  0.0000000  3
  15050  15048  15049  15051     1  0.0000000  0.6508444  3
  15050  15048  15062  15068     1  0.0000000  1.0460000  1
  15050  15048  15062  15068     1  0.0000000  0.0000000  3
  15050  15048  15062  15066     1  0.0000000  0.6508444  3
  15050  15048  15062  15067     1  0.0000000  0.6508444  3
  15050  15048  15070  15054     1  0.0000000  1.6038667  3
  15051  15049  15048  15062     1  0.0000000  0.6508444  3
  15051  15049  15048  15070     1  0.0000000  1.0460000  1
  15051  15049  15048  15070     1  0.0000000  0.0000000  3
  15051  15049  15052  15053     1  0.0000000  0.6508444  3
  15051  15049  15052  15060     1  0.0000000  1.0460000  1
  15051  15049  15052  15060     1  0.0000000  0.0000000  3
  15051  15049  15052  15056     1  0.0000000  0.6508444  3
  15051  15049  15061  15064     1  0.0000000  0.6973333  3
  15052  15049  15061  15064     1  0.0000000  1.0460000  1
  15052  15049  15061  15064     1  0.0000000  0.6694400  3
  15052  15053  15054  15057     1  0.0000000  0.6508444  3
  15052  15053  15059  15065     1  0.0000000  1.0460000  1
  15052  15053  15059  15065     1  0.0000000  0.6694400  3
  15053  15052  15060  15063     1  0.0000000  1.0460000  1
  15053  15052  15060  15063     1  0.0000000  0.6694400  3
  15054  15053  15052  15056     1  0.0000000  0.6508444  3
  15054  15053  15059  15065     1  0.0000000  1.0460000  1
  15054  15053  15059  15065     1  0.0000000  0.6694400  3
  15055  15053  15052  15060     1  0.0000000  1.0460000  1
  15055  15053  15052  15060     1  0.0000000  0.0000000  3
  15055  15053  15052  15056     1  0.0000000  0.6508444  3
  15055  15053  15054  15058     1  0.0000000  1.0460000  1
  15055  15053  15054  15058     1  0.0000000  0.0000000  3
  15055  15053  15054  15070     1  0.0000000  1.0460000  1
  15055  15053  15054  15070     1  0.0000000  0.0000000  3
  15055  15053  15054  15057     1  0.0000000  0.6508444  3
  15055  15053  15059  15065     1  0.0000000  0.6973333  3
  15056  15052  15049  15061     1  0.0000000  1.0460000  1
  15056  15052  15049  15061     1  0.0000000  0.0000000  3
  15056  15052  15053  15059     1  0.0000000  1.0460000  1
  15056  15052  15053  15059     1  0.0000000  0.0000000  3
  15056  15052  15060  15063     1  0.0000000  0.6973333  3
  15057  15054  15053  15059     1  0.0000000  0.6508444  3
  15066  15062  15048  15070     1  0.0000000  1.0460000  1
  15066  15062  15048  15070     1  0.0000000  0.0000000  3
  15066  15062  15068  15069     1  0.0000000  0.6973333  3
  15067  15062  15048  15070     1  0.0000000  1.0460000  1
  15067  15062  15048  15070     1  0.0000000  0.0000000  3
  15067  15062  15068  15069     1  0.0000000  0.6973333  3
  15071  15072  15075  15079     1  0.0000000  0.6508444  3
  15071  15072  15084  15087     1  0.0000000  1.0460000  1
  15071  15072  15084  15087     1  0.0000000  0.6694400  3
  15071  15085  15091  15092     1  0.0000000  1.0460000  1
  15071  15085  15091  15092     1  0.0000000  0.6694400  3
  15071  15093  15077  15080     1  0.0000000  1.6038667  3
  15072  15075  15076  15078     1  0.0000000  0.6508444  3
  15072  15075  15083  15086     1  0.0000000  1.0460000  1
  15072  15075  15083  15086     1  0.0000000  0.6694400  3
  15072  15071  15085  15089     1  0.0000000  0.6508444  3
  15072  15071  15085  15090     1  0.0000000  0.6508444  3
  15073  15071  15072  15075     1  0.0000000  0.6508444  3
  15073  15071  15072  15084     1  0.0000000  1.0460000  1
  15073  15071  15072  15084     1  0.0000000  0.0000000  3
  15073  15071  15072  15074     1  0.0000000  0.6508444  3
  15073  15071  15085  15091     1  0.0000000  1.0460000  1
  15073  15071  15085  15091     1  0.0000000  0.0000000  3
  15073  15071  15085  15089     1  0.0000000  0.6508444  3
  15073  15071  15085  15090     1  0.0000000  0.6508444  3
  15073  15071  15093  15077     1  0.0000000  1.6038667  3
  15074  15072  15075  15076     1  0.0000000  0.6508444  3
  15074  15072  15075  15083     1  0.0000000  1.0460000  1
  15074  15072  15075  15083     1  0.0000000  0.0000000  3
  15074  15072  15075  15079     1  0.0000000  0.6508444  3
  15074  15072  15084  15087     1  0.0000000  0.6973333  3
  15074  15072  15071  15085     1  0.0000000  0.6508444  3
  15074  15072  15071  15093     1  0.0000000  1.0460000  1
  15074  15072  15071  15093     1  0.0000000  0.0000000  3
  15075  15076  15077  15080     1  0.0000000  0.6508444  3
  15075  15076  15082  15088     1  0.0000000  1.0460000  1
  15075  15076  15082  15088     1  0.0000000  0.6694400  3
  15075  15072  15084  15087     1  0.0000000  1.0460000  1
  15075  15072  15084  15087     1  0.0000000  0.6694400  3
  15076  15075  15083  15086     1  0.0000000  1.0460000  1
  15076  15075  15083  15086     1  0.0000000  0.6694400  3
  15077  15076  15082  15088     1  0.0000000  1.0460000  1
  15077  15076  15082  15088     1  0.0000000  0.6694400  3
  15077  15076  15075  15079     1  0.0000000  0.6508444  3
  15078  15076  15077  15081     1  0.0000000  1.0460000  1
  15078  15076  15077  15081     1  0.0000000  0.0000000  3
  15078  15076  15077  15093     1  0.0000000  1.0460000  1
  15078  15076  15077  15093     1  0.0000000  0.0000000  3
  15078  15076  15077  15080     1  0.0000000  0.6508444  3
  15078  15076  15082  15088     1  0.0000000  0.6973333  3
  15078  15076  15075  15083     1  0.0000000  1.0460000  1
  15078  15076  15075  15083     1  0.0000000  0.0000000  3
  15078  15076  15075  15079     1  0.0000000  0.6508444  3
  15079  15075  15076  15082     1  0.0000000  1.0460000  1
  15079  15075  15076  15082     1  0.0000000  0.0000000  3
  15079  15075  15083  15086     1  0.0000000  0.6973333  3
  15079  15075  15072  15084     1  0.0000000  1.0460000  1
  15079  15075  15072  15084     1  0.0000000  0.0000000  3
  15080  15077  15076  15082     1  0.0000000  0.6508444  3
  15089  15085  15091  15092     1  0.0000000  0.6973333  3
  15089  15085  15071  15093     1  0.0000000  1.0460000  1
  15089  15085  15071  15093     1  0.0000000  0.0000000  3
  15090  15085  15091  15092     1  0.0000000  0.6973333  3
  15090  15085  15071  15093     1  0.0000000  1.0460000  1
  15090  15085  15071  15093     1  0.0000000  0.0000000  3
  15094  15095  15098  15102     1  0.0000000  0.6508444  3
  15094  15095  15107  15110     1  0.0000000  1.0460000  1
  15094  15095  15107  15110     1  0.0000000  0.6694400  3
  15094  15108  15114  15115     1  0.0000000  1.0460000  1
  15094  15108  15114  15115     1  0.0000000  0.6694400  3
  15094  15116  15100  15103     1  0.0000000  1.6038667  3
  15095  15094  15108  15112     1  0.0000000  0.6508444  3
  15095  15094  15108  15113     1  0.0000000  0.6508444  3
  15095  15098  15099  15101     1  0.0000000  0.6508444  3
  15095  15098  15106  15109     1  0.0000000  1.0460000  1
  15095  15098  15106  15109     1  0.0000000  0.6694400  3
  15096  15094  15095  15098     1  0.0000000  0.6508444  3
  15096  15094  15095  15107     1  0.0000000  1.0460000  1
  15096  15094  15095  15107     1  0.0000000  0.0000000  3
  15096  15094  15095  15097     1  0.0000000  0.6508444  3
  15096  15094  15108  15114     1  0.0000000  1.0460000  1
  15096  15094  15108  15114     1  0.0000000  0.0000000  3
  15096  15094  15108  15112     1  0.0000000  0.6508444  3
  15096  15094  15108  15113     1  0.0000000  0.6508444  3
  15096  15094  15116  15100     1  0.0000000  1.6038667  3
  15097  15095  15094  15108     1  0.0000000  0.6508444  3
  15097  15095  15094  15116     1  0.0000000  1.0460000  1
  15097  15095  15094  15116     1  0.0000000  0.0000000  3
  15097  15095  15098  15099     1  0.0000000  0.6508444  3
  15097  15095  15098  15106     1  0.0000000  1.0460000  1
  15097  15095  15098  15106     1  0.0000000  0.0000000  3
  15097  15095  15098  15102     1  0.0000000  0.6508444  3
  15097  15095  15107  15110     1  0.0000000  0.6973333  3
  15098  15095  15107  15110     1  0.0000000  1.0460000  1
  15098  15095  15107  15110     1  0.0000000  0.6694400  3
  15098  15099  15100  15103     1  0.0000000  0.6508444  3
  15098  15099  15105  15111     1  0.0000000  1.0460000  1
  15098  15099  15105  15111     1  0.0000000  0.6694400  3
  15099  15098  15106  15109     1  0.0000000  1.0460000  1
  15099  15098  15106  15109     1  0.0000000  0.6694400  3
  15100  15099  15098  15102     1  0.0000000  0.6508444  3
  15100  15099  15105  15111     1  0.0000000  1.0460000  1
  15100  15099  15105  15111     1  0.0000000  0.6694400  3
  15101  15099  15098  15106     1  0.0000000  1.0460000  1
  15101  15099  15098  15106     1  0.0000000  0.0000000  3
  15101  15099  15098  15102     1  0.0000000  0.6508444  3
  15101  15099  15100  15104     1  0.0000000  1.0460000  1
  15101  15099  15100  15104     1  0.0000000  0.0000000  3
  15101  15099  15100  15116     1  0.0000000  1.0460000  1
  15101  15099  15100  15116     1  0.0000000  0.0000000  3
  15101  15099  15100  15103     1  0.0000000  0.6508444  3
  15101  15099  15105  15111     1  0.0000000  0.6973333  3
  15102  15098  15095  15107     1  0.0000000  1.0460000  1
  15102  15098  15095  15107     1  0.0000000  0.0000000  3
  15102  15098  15099  15105     1  0.0000000  1.0460000  1
  15102  15098  15099  15105     1  0.0000000  0.0000000  3
  15102  15098  15106  15109     1  0.0000000  0.6973333  3
  15103  15100  15099  15105     1  0.0000000  0.6508444  3
  15112  15108  15094  15116     1  0.0000000  1.0460000  1
  15112  15108  15094  15116     1  0.0000000  0.0000000  3
  15112  15108  15114  15115     1  0.0000000  0.6973333  3
  15113  15108  15094  15116     1  0.0000000  1.0460000  1
  15113  15108  15094  15116     1  0.0000000  0.0000000  3
  15113  15108  15114  15115     1  0.0000000  0.6973333  3
  15117  15118  15121  15125     1  0.0000000  0.6508444  3
  15117  15118  15130  15133     1  0.0000000  1.0460000  1
  15117  15118  15130  15133     1  0.0000000  0.6694400  3
  15117  15131  15137  15138     1  0.0000000  1.0460000  1
  15117  15131  15137  15138     1  0.0000000  0.6694400  3
  15117  15139  15123  15126     1  0.0000000  1.6038667  3
  15118  15121  15122  15124     1  0.0000000  0.6508444  3
  15118  15121  15129  15132     1  0.0000000  1.0460000  1
  15118  15121  15129  15132     1  0.0000000  0.6694400  3
  15118  15117  15131  15135     1  0.0000000  0.6508444  3
  15118  15117  15131  15136     1  0.0000000  0.6508444  3
  15119  15117  15118  15121     1  0.0000000  0.6508444  3
  15119  15117  15118  15130     1  0.0000000  1.0460000  1
  15119  15117  15118  15130     1  0.0000000  0.0000000  3
  15119  15117  15118  15120     1  0.0000000  0.6508444  3
  15119  15117  15131  15137     1  0.0000000  1.0460000  1
  15119  15117  15131  15137     1  0.0000000  0.0000000  3
  15119  15117  15131  15135     1  0.0000000  0.6508444  3
  15119  15117  15131  15136     1  0.0000000  0.6508444  3
  15119  15117  15139  15123     1  0.0000000  1.6038667  3
  15120  15118  15121  15122     1  0.0000000  0.6508444  3
  15120  15118  15121  15129     1  0.0000000  1.0460000  1
  15120  15118  15121  15129     1  0.0000000  0.0000000  3
  15120  15118  15121  15125     1  0.0000000  0.6508444  3
  15120  15118  15130  15133     1  0.0000000  0.6973333  3
  15120  15118  15117  15131     1  0.0000000  0.6508444  3
  15120  15118  15117  15139     1  0.0000000  1.0460000  1
  15120  15118  15117  15139     1  0.0000000  0.0000000  3
  15121  15122  15123  15126     1  0.0000000  0.6508444  3
  15121  15122  15128  15134     1  0.0000000  1.0460000  1
  15121  15122  15128  15134     1  0.0000000  0.6694400  3
  15121  15118  15130  15133     1  0.0000000  1.0460000  1
  15121  15118  15130  15133     1  0.0000000  0.6694400  3
  15122  15121  15129  15132     1  0.0000000  1.0460000  1
  15122  15121  15129  15132     1  0.0000000  0.6694400  3
  15123  15122  15128  15134     1  0.0000000  1.0460000  1
  15123  15122  15128  15134     1  0.0000000  0.6694400  3
  15123  15122  15121  15125     1  0.0000000  0.6508444  3
  15124  15122  15123  15127     1  0.0000000  1.0460000  1
  15124  15122  15123  15127     1  0.0000000  0.0000000  3
  15124  15122  15123  15139     1  0.0000000  1.0460000  1
  15124  15122  15123  15139     1  0.0000000  0.0000000  3
  15124  15122  15123  15126     1  0.0000000  0.6508444  3
  15124  15122  15128  15134     1  0.0000000  0.6973333  3
  15124  15122  15121  15129     1  0.0000000  1.0460000  1
  15124  15122  15121  15129     1  0.0000000  0.0000000  3
  15124  15122  15121  15125     1  0.0000000  0.6508444  3
  15125  15121  15122  15128     1  0.0000000  1.0460000  1
  15125  15121  15122  15128     1  0.0000000  0.0000000  3
  15125  15121  15129  15132     1  0.0000000  0.6973333  3
  15125  15121  15118  15130     1  0.0000000  1.0460000  1
  15125  15121  15118  15130     1  0.0000000  0.0000000  3
  15126  15123  15122  15128     1  0.0000000  0.6508444  3
  15135  15131  15137  15138     1  0.0000000  0.6973333  3
  15135  15131  15117  15139     1  0.0000000  1.0460000  1
  15135  15131  15117  15139     1  0.0000000  0.0000000  3
  15136  15131  15137  15138     1  0.0000000  0.6973333  3
  15136  15131  15117  15139     1  0.0000000  1.0460000  1
  15136  15131  15117  15139     1  0.0000000  0.0000000  3
  15140  15141  15144  15148     1  0.0000000  0.6508444  3
  15140  15141  15153  15156     1  0.0000000  1.0460000  1
  15140  15141  15153  15156     1  0.0000000  0.6694400  3
  15140  15154  15160  15161     1  0.0000000  1.0460000  1
  15140  15154  15160  15161     1  0.0000000  0.6694400  3
  15140  15162  15146  15149     1  0.0000000  1.6038667  3
  15141  15140  15154  15158     1  0.0000000  0.6508444  3
  15141  15140  15154  15159     1  0.0000000  0.6508444  3
  15141  15144  15145  15147     1  0.0000000  0.6508444  3
  15141  15144  15152  15155     1  0.0000000  1.0460000  1
  15141  15144  15152  15155     1  0.0000000  0.6694400  3
  15142  15140  15141  15144     1  0.0000000  0.6508444  3
  15142  15140  15141  15153     1  0.0000000  1.0460000  1
  15142  15140  15141  15153     1  0.0000000  0.0000000  3
  15142  15140  15141  15143     1  0.0000000  0.6508444  3
  15142  15140  15154  15160     1  0.0000000  1.0460000  1
  15142  15140  15154  15160     1  0.0000000  0.0000000  3
  15142  15140  15154  15158     1  0.0000000  0.6508444  3
  15142  15140  15154  15159     1  0.0000000  0.6508444  3
  15142  15140  15162  15146     1  0.0000000  1.6038667  3
  15143  15141  15140  15154     1  0.0000000  0.6508444  3
  15143  15141  15140  15162     1  0.0000000  1.0460000  1
  15143  15141  15140  15162     1  0.0000000  0.0000000  3
  15143  15141  15144  15145     1  0.0000000  0.6508444  3
  15143  15141  15144  15152     1  0.0000000  1.0460000  1
  15143  15141  15144  15152     1  0.0000000  0.0000000  3
  15143  15141  15144  15148     1  0.0000000  0.6508444  3
  15143  15141  15153  15156     1  0.0000000  0.6973333  3
  15144  15141  15153  15156     1  0.0000000  1.0460000  1
  15144  15141  15153  15156     1  0.0000000  0.6694400  3
  15144  15145  15146  15149     1  0.0000000  0.6508444  3
  15144  15145  15151  15157     1  0.0000000  1.0460000  1
  15144  15145  15151  15157     1  0.0000000  0.6694400  3
  15145  15144  15152  15155     1  0.0000000  1.0460000  1
  15145  15144  15152  15155     1  0.0000000  0.6694400  3
  15146  15145  15144  15148     1  0.0000000  0.6508444  3
  15146  15145  15151  15157     1  0.0000000  1.0460000  1
  15146  15145  15151  15157     1  0.0000000  0.6694400  3
  15147  15145  15144  15152     1  0.0000000  1.0460000  1
  15147  15145  15144  15152     1  0.0000000  0.0000000  3
  15147  15145  15144  15148     1  0.0000000  0.6508444  3
  15147  15145  15146  15150     1  0.0000000  1.0460000  1
  15147  15145  15146  15150     1  0.0000000  0.0000000  3
  15147  15145  15146  15162     1  0.0000000  1.0460000  1
  15147  15145  15146  15162     1  0.0000000  0.0000000  3
  15147  15145  15146  15149     1  0.0000000  0.6508444  3
  15147  15145  15151  15157     1  0.0000000  0.6973333  3
  15148  15144  15141  15153     1  0.0000000  1.0460000  1
  15148  15144  15141  15153     1  0.0000000  0.0000000  3
  15148  15144  15145  15151     1  0.0000000  1.0460000  1
  15148  15144  15145  15151     1  0.0000000  0.0000000  3
  15148  15144  15152  15155     1  0.0000000  0.6973333  3
  15149  15146  15145  15151     1  0.0000000  0.6508444  3
  15158  15154  15140  15162     1  0.0000000  1.0460000  1
  15158  15154  15140  15162     1  0.0000000  0.0000000  3
  15158  15154  15160  15161     1  0.0000000  0.6973333  3
  15159  15154  15140  15162     1  0.0000000  1.0460000  1
  15159  15154  15140  15162     1  0.0000000  0.0000000  3
  15159  15154  15160  15161     1  0.0000000  0.6973333  3
  15163  15164  15167  15171     1  0.0000000  0.6508444  3
  15163  15164  15176  15179     1  0.0000000  1.0460000  1
  15163  15164  15176  15179     1  0.0000000  0.6694400  3
  15163  15177  15183  15184     1  0.0000000  1.0460000  1
  15163  15177  15183  15184     1  0.0000000  0.6694400  3
  15163  15185  15169  15172     1  0.0000000  1.6038667  3
  15164  15167  15168  15170     1  0.0000000  0.6508444  3
  15164  15167  15175  15178     1  0.0000000  1.0460000  1
  15164  15167  15175  15178     1  0.0000000  0.6694400  3
  15164  15163  15177  15181     1  0.0000000  0.6508444  3
  15164  15163  15177  15182     1  0.0000000  0.6508444  3
  15165  15163  15164  15167     1  0.0000000  0.6508444  3
  15165  15163  15164  15176     1  0.0000000  1.0460000  1
  15165  15163  15164  15176     1  0.0000000  0.0000000  3
  15165  15163  15164  15166     1  0.0000000  0.6508444  3
  15165  15163  15177  15183     1  0.0000000  1.0460000  1
  15165  15163  15177  15183     1  0.0000000  0.0000000  3
  15165  15163  15177  15181     1  0.0000000  0.6508444  3
  15165  15163  15177  15182     1  0.0000000  0.6508444  3
  15165  15163  15185  15169     1  0.0000000  1.6038667  3
  15166  15164  15167  15168     1  0.0000000  0.6508444  3
  15166  15164  15167  15175     1  0.0000000  1.0460000  1
  15166  15164  15167  15175     1  0.0000000  0.0000000  3
  15166  15164  15167  15171     1  0.0000000  0.6508444  3
  15166  15164  15176  15179     1  0.0000000  0.6973333  3
  15166  15164  15163  15177     1  0.0000000  0.6508444  3
  15166  15164  15163  15185     1  0.0000000  1.0460000  1
  15166  15164  15163  15185     1  0.0000000  0.0000000  3
  15167  15168  15169  15172     1  0.0000000  0.6508444  3
  15167  15168  15174  15180     1  0.0000000  1.0460000  1
  15167  15168  15174  15180     1  0.0000000  0.6694400  3
  15167  15164  15176  15179     1  0.0000000  1.0460000  1
  15167  15164  15176  15179     1  0.0000000  0.6694400  3
  15168  15167  15175  15178     1  0.0000000  1.0460000  1
  15168  15167  15175  15178     1  0.0000000  0.6694400  3
  15169  15168  15174  15180     1  0.0000000  1.0460000  1
  15169  15168  15174  15180     1  0.0000000  0.6694400  3
  15169  15168  15167  15171     1  0.0000000  0.6508444  3
  15170  15168  15169  15173     1  0.0000000  1.0460000  1
  15170  15168  15169  15173     1  0.0000000  0.0000000  3
  15170  15168  15169  15185     1  0.0000000  1.0460000  1
  15170  15168  15169  15185     1  0.0000000  0.0000000  3
  15170  15168  15169  15172     1  0.0000000  0.6508444  3
  15170  15168  15174  15180     1  0.0000000  0.6973333  3
  15170  15168  15167  15175     1  0.0000000  1.0460000  1
  15170  15168  15167  15175     1  0.0000000  0.0000000  3
  15170  15168  15167  15171     1  0.0000000  0.6508444  3
  15171  15167  15168  15174     1  0.0000000  1.0460000  1
  15171  15167  15168  15174     1  0.0000000  0.0000000  3
  15171  15167  15175  15178     1  0.0000000  0.6973333  3
  15171  15167  15164  15176     1  0.0000000  1.0460000  1
  15171  15167  15164  15176     1  0.0000000  0.0000000  3
  15172  15169  15168  15174     1  0.0000000  0.6508444  3
  15181  15177  15183  15184     1  0.0000000  0.6973333  3
  15181  15177  15163  15185     1  0.0000000  1.0460000  1
  15181  15177  15163  15185     1  0.0000000  0.0000000  3
  15182  15177  15183  15184     1  0.0000000  0.6973333  3
  15182  15177  15163  15185     1  0.0000000  1.0460000  1
  15182  15177  15163  15185     1  0.0000000  0.0000000  3
  15186  15187  15190  15194     1  0.0000000  0.6508444  3
  15186  15187  15199  15202     1  0.0000000  1.0460000  1
  15186  15187  15199  15202     1  0.0000000  0.6694400  3
  15186  15200  15206  15207     1  0.0000000  1.0460000  1
  15186  15200  15206  15207     1  0.0000000  0.6694400  3
  15186  15208  15192  15195     1  0.0000000  1.6038667  3
  15187  15186  15200  15204     1  0.0000000  0.6508444  3
  15187  15186  15200  15205     1  0.0000000  0.6508444  3
  15187  15190  15191  15193     1  0.0000000  0.6508444  3
  15187  15190  15198  15201     1  0.0000000  1.0460000  1
  15187  15190  15198  15201     1  0.0000000  0.6694400  3
  15188  15186  15187  15190     1  0.0000000  0.6508444  3
  15188  15186  15187  15199     1  0.0000000  1.0460000  1
  15188  15186  15187  15199     1  0.0000000  0.0000000  3
  15188  15186  15187  15189     1  0.0000000  0.6508444  3
  15188  15186  15200  15206     1  0.0000000  1.0460000  1
  15188  15186  15200  15206     1  0.0000000  0.0000000  3
  15188  15186  15200  15204     1  0.0000000  0.6508444  3
  15188  15186  15200  15205     1  0.0000000  0.6508444  3
  15188  15186  15208  15192     1  0.0000000  1.6038667  3
  15189  15187  15186  15200     1  0.0000000  0.6508444  3
  15189  15187  15186  15208     1  0.0000000  1.0460000  1
  15189  15187  15186  15208     1  0.0000000  0.0000000  3
  15189  15187  15190  15191     1  0.0000000  0.6508444  3
  15189  15187  15190  15198     1  0.0000000  1.0460000  1
  15189  15187  15190  15198     1  0.0000000  0.0000000  3
  15189  15187  15190  15194     1  0.0000000  0.6508444  3
  15189  15187  15199  15202     1  0.0000000  0.6973333  3
  15190  15187  15199  15202     1  0.0000000  1.0460000  1
  15190  15187  15199  15202     1  0.0000000  0.6694400  3
  15190  15191  15192  15195     1  0.0000000  0.6508444  3
  15190  15191  15197  15203     1  0.0000000  1.0460000  1
  15190  15191  15197  15203     1  0.0000000  0.6694400  3
  15191  15190  15198  15201     1  0.0000000  1.0460000  1
  15191  15190  15198  15201     1  0.0000000  0.6694400  3
  15192  15191  15190  15194     1  0.0000000  0.6508444  3
  15192  15191  15197  15203     1  0.0000000  1.0460000  1
  15192  15191  15197  15203     1  0.0000000  0.6694400  3
  15193  15191  15190  15198     1  0.0000000  1.0460000  1
  15193  15191  15190  15198     1  0.0000000  0.0000000  3
  15193  15191  15190  15194     1  0.0000000  0.6508444  3
  15193  15191  15192  15196     1  0.0000000  1.0460000  1
  15193  15191  15192  15196     1  0.0000000  0.0000000  3
  15193  15191  15192  15208     1  0.0000000  1.0460000  1
  15193  15191  15192  15208     1  0.0000000  0.0000000  3
  15193  15191  15192  15195     1  0.0000000  0.6508444  3
  15193  15191  15197  15203     1  0.0000000  0.6973333  3
  15194  15190  15187  15199     1  0.0000000  1.0460000  1
  15194  15190  15187  15199     1  0.0000000  0.0000000  3
  15194  15190  15191  15197     1  0.0000000  1.0460000  1
  15194  15190  15191  15197     1  0.0000000  0.0000000  3
  15194  15190  15198  15201     1  0.0000000  0.6973333  3
  15195  15192  15191  15197     1  0.0000000  0.6508444  3
  15204  15200  15186  15208     1  0.0000000  1.0460000  1
  15204  15200  15186  15208     1  0.0000000  0.0000000  3
  15204  15200  15206  15207     1  0.0000000  0.6973333  3
  15205  15200  15186  15208     1  0.0000000  1.0460000  1
  15205  15200  15186  15208     1  0.0000000  0.0000000  3
  15205  15200  15206  15207     1  0.0000000  0.6973333  3
  15209  15210  15213  15217     1  0.0000000  0.6508444  3
  15209  15210  15222  15225     1  0.0000000  1.0460000  1
  15209  15210  15222  15225     1  0.0000000  0.6694400  3
  15209  15223  15229  15230     1  0.0000000  1.0460000  1
  15209  15223  15229  15230     1  0.0000000  0.6694400  3
  15209  15231  15215  15218     1  0.0000000  1.6038667  3
  15210  15213  15214  15216     1  0.0000000  0.6508444  3
  15210  15213  15221  15224     1  0.0000000  1.0460000  1
  15210  15213  15221  15224     1  0.0000000  0.6694400  3
  15210  15209  15223  15227     1  0.0000000  0.6508444  3
  15210  15209  15223  15228     1  0.0000000  0.6508444  3
  15211  15209  15210  15213     1  0.0000000  0.6508444  3
  15211  15209  15210  15222     1  0.0000000  1.0460000  1
  15211  15209  15210  15222     1  0.0000000  0.0000000  3
  15211  15209  15210  15212     1  0.0000000  0.6508444  3
  15211  15209  15223  15229     1  0.0000000  1.0460000  1
  15211  15209  15223  15229     1  0.0000000  0.0000000  3
  15211  15209  15223  15227     1  0.0000000  0.6508444  3
  15211  15209  15223  15228     1  0.0000000  0.6508444  3
  15211  15209  15231  15215     1  0.0000000  1.6038667  3
  15212  15210  15213  15214     1  0.0000000  0.6508444  3
  15212  15210  15213  15221     1  0.0000000  1.0460000  1
  15212  15210  15213  15221     1  0.0000000  0.0000000  3
  15212  15210  15213  15217     1  0.0000000  0.6508444  3
  15212  15210  15222  15225     1  0.0000000  0.6973333  3
  15212  15210  15209  15223     1  0.0000000  0.6508444  3
  15212  15210  15209  15231     1  0.0000000  1.0460000  1
  15212  15210  15209  15231     1  0.0000000  0.0000000  3
  15213  15214  15215  15218     1  0.0000000  0.6508444  3
  15213  15214  15220  15226     1  0.0000000  1.0460000  1
  15213  15214  15220  15226     1  0.0000000  0.6694400  3
  15213  15210  15222  15225     1  0.0000000  1.0460000  1
  15213  15210  15222  15225     1  0.0000000  0.6694400  3
  15214  15213  15221  15224     1  0.0000000  1.0460000  1
  15214  15213  15221  15224     1  0.0000000  0.6694400  3
  15215  15214  15220  15226     1  0.0000000  1.0460000  1
  15215  15214  15220  15226     1  0.0000000  0.6694400  3
  15215  15214  15213  15217     1  0.0000000  0.6508444  3
  15216  15214  15215  15219     1  0.0000000  1.0460000  1
  15216  15214  15215  15219     1  0.0000000  0.0000000  3
  15216  15214  15215  15231     1  0.0000000  1.0460000  1
  15216  15214  15215  15231     1  0.0000000  0.0000000  3
  15216  15214  15215  15218     1  0.0000000  0.6508444  3
  15216  15214  15220  15226     1  0.0000000  0.6973333  3
  15216  15214  15213  15221     1  0.0000000  1.0460000  1
  15216  15214  15213  15221     1  0.0000000  0.0000000  3
  15216  15214  15213  15217     1  0.0000000  0.6508444  3
  15217  15213  15214  15220     1  0.0000000  1.0460000  1
  15217  15213  15214  15220     1  0.0000000  0.0000000  3
  15217  15213  15221  15224     1  0.0000000  0.6973333  3
  15217  15213  15210  15222     1  0.0000000  1.0460000  1
  15217  15213  15210  15222     1  0.0000000  0.0000000  3
  15218  15215  15214  15220     1  0.0000000  0.6508444  3
  15227  15223  15229  15230     1  0.0000000  0.6973333  3
  15227  15223  15209  15231     1  0.0000000  1.0460000  1
  15227  15223  15209  15231     1  0.0000000  0.0000000  3
  15228  15223  15229  15230     1  0.0000000  0.6973333  3
  15228  15223  15209  15231     1  0.0000000  1.0460000  1
  15228  15223  15209  15231     1  0.0000000  0.0000000  3
  15232  15233  15236  15240     1  0.0000000  0.6508444  3
  15232  15233  15245  15248     1  0.0000000  1.0460000  1
  15232  15233  15245  15248     1  0.0000000  0.6694400  3
  15232  15246  15252  15253     1  0.0000000  1.0460000  1
  15232  15246  15252  15253     1  0.0000000  0.6694400  3
  15232  15254  15238  15241     1  0.0000000  1.6038667  3
  15233  15232  15246  15250     1  0.0000000  0.6508444  3
  15233  15232  15246  15251     1  0.0000000  0.6508444  3
  15233  15236  15237  15239     1  0.0000000  0.6508444  3
  15233  15236  15244  15247     1  0.0000000  1.0460000  1
  15233  15236  15244  15247     1  0.0000000  0.6694400  3
  15234  15232  15233  15236     1  0.0000000  0.6508444  3
  15234  15232  15233  15245     1  0.0000000  1.0460000  1
  15234  15232  15233  15245     1  0.0000000  0.0000000  3
  15234  15232  15233  15235     1  0.0000000  0.6508444  3
  15234  15232  15246  15252     1  0.0000000  1.0460000  1
  15234  15232  15246  15252     1  0.0000000  0.0000000  3
  15234  15232  15246  15250     1  0.0000000  0.6508444  3
  15234  15232  15246  15251     1  0.0000000  0.6508444  3
  15234  15232  15254  15238     1  0.0000000  1.6038667  3
  15235  15233  15232  15246     1  0.0000000  0.6508444  3
  15235  15233  15232  15254     1  0.0000000  1.0460000  1
  15235  15233  15232  15254     1  0.0000000  0.0000000  3
  15235  15233  15236  15237     1  0.0000000  0.6508444  3
  15235  15233  15236  15244     1  0.0000000  1.0460000  1
  15235  15233  15236  15244     1  0.0000000  0.0000000  3
  15235  15233  15236  15240     1  0.0000000  0.6508444  3
  15235  15233  15245  15248     1  0.0000000  0.6973333  3
  15236  15233  15245  15248     1  0.0000000  1.0460000  1
  15236  15233  15245  15248     1  0.0000000  0.6694400  3
  15236  15237  15238  15241     1  0.0000000  0.6508444  3
  15236  15237  15243  15249     1  0.0000000  1.0460000  1
  15236  15237  15243  15249     1  0.0000000  0.6694400  3
  15237  15236  15244  15247     1  0.0000000  1.0460000  1
  15237  15236  15244  15247     1  0.0000000  0.6694400  3
  15238  15237  15236  15240     1  0.0000000  0.6508444  3
  15238  15237  15243  15249     1  0.0000000  1.0460000  1
  15238  15237  15243  15249     1  0.0000000  0.6694400  3
  15239  15237  15236  15244     1  0.0000000  1.0460000  1
  15239  15237  15236  15244     1  0.0000000  0.0000000  3
  15239  15237  15236  15240     1  0.0000000  0.6508444  3
  15239  15237  15238  15242     1  0.0000000  1.0460000  1
  15239  15237  15238  15242     1  0.0000000  0.0000000  3
  15239  15237  15238  15254     1  0.0000000  1.0460000  1
  15239  15237  15238  15254     1  0.0000000  0.0000000  3
  15239  15237  15238  15241     1  0.0000000  0.6508444  3
  15239  15237  15243  15249     1  0.0000000  0.6973333  3
  15240  15236  15233  15245     1  0.0000000  1.0460000  1
  15240  15236  15233  15245     1  0.0000000  0.0000000  3
  15240  15236  15237  15243     1  0.0000000  1.0460000  1
  15240  15236  15237  15243     1  0.0000000  0.0000000  3
  15240  15236  15244  15247     1  0.0000000  0.6973333  3
  15241  15238  15237  15243     1  0.0000000  0.6508444  3
  15250  15246  15232  15254     1  0.0000000  1.0460000  1
  15250  15246  15232  15254     1  0.0000000  0.0000000  3
  15250  15246  15252  15253     1  0.0000000  0.6973333  3
  15251  15246  15232  15254     1  0.0000000  1.0460000  1
  15251  15246  15232  15254     1  0.0000000  0.0000000  3
  15251  15246  15252  15253     1  0.0000000  0.6973333  3
  15255  15256  15259  15263     1  0.0000000  0.6508444  3
  15255  15256  15268  15271     1  0.0000000  1.0460000  1
  15255  15256  15268  15271     1  0.0000000  0.6694400  3
  15255  15269  15275  15276     1  0.0000000  1.0460000  1
  15255  15269  15275  15276     1  0.0000000  0.6694400  3
  15255  15277  15261  15264     1  0.0000000  1.6038667  3
  15256  15259  15260  15262     1  0.0000000  0.6508444  3
  15256  15259  15267  15270     1  0.0000000  1.0460000  1
  15256  15259  15267  15270     1  0.0000000  0.6694400  3
  15256  15255  15269  15273     1  0.0000000  0.6508444  3
  15256  15255  15269  15274     1  0.0000000  0.6508444  3
  15257  15255  15256  15259     1  0.0000000  0.6508444  3
  15257  15255  15256  15268     1  0.0000000  1.0460000  1
  15257  15255  15256  15268     1  0.0000000  0.0000000  3
  15257  15255  15256  15258     1  0.0000000  0.6508444  3
  15257  15255  15269  15275     1  0.0000000  1.0460000  1
  15257  15255  15269  15275     1  0.0000000  0.0000000  3
  15257  15255  15269  15273     1  0.0000000  0.6508444  3
  15257  15255  15269  15274     1  0.0000000  0.6508444  3
  15257  15255  15277  15261     1  0.0000000  1.6038667  3
  15258  15256  15259  15260     1  0.0000000  0.6508444  3
  15258  15256  15259  15267     1  0.0000000  1.0460000  1
  15258  15256  15259  15267     1  0.0000000  0.0000000  3
  15258  15256  15259  15263     1  0.0000000  0.6508444  3
  15258  15256  15268  15271     1  0.0000000  0.6973333  3
  15258  15256  15255  15269     1  0.0000000  0.6508444  3
  15258  15256  15255  15277     1  0.0000000  1.0460000  1
  15258  15256  15255  15277     1  0.0000000  0.0000000  3
  15259  15260  15261  15264     1  0.0000000  0.6508444  3
  15259  15260  15266  15272     1  0.0000000  1.0460000  1
  15259  15260  15266  15272     1  0.0000000  0.6694400  3
  15259  15256  15268  15271     1  0.0000000  1.0460000  1
  15259  15256  15268  15271     1  0.0000000  0.6694400  3
  15260  15259  15267  15270     1  0.0000000  1.0460000  1
  15260  15259  15267  15270     1  0.0000000  0.6694400  3
  15261  15260  15266  15272     1  0.0000000  1.0460000  1
  15261  15260  15266  15272     1  0.0000000  0.6694400  3
  15261  15260  15259  15263     1  0.0000000  0.6508444  3
  15262  15260  15261  15265     1  0.0000000  1.0460000  1
  15262  15260  15261  15265     1  0.0000000  0.0000000  3
  15262  15260  15261  15277     1  0.0000000  1.0460000  1
  15262  15260  15261  15277     1  0.0000000  0.0000000  3
  15262  15260  15261  15264     1  0.0000000  0.6508444  3
  15262  15260  15266  15272     1  0.0000000  0.6973333  3
  15262  15260  15259  15267     1  0.0000000  1.0460000  1
  15262  15260  15259  15267     1  0.0000000  0.0000000  3
  15262  15260  15259  15263     1  0.0000000  0.6508444  3
  15263  15259  15260  15266     1  0.0000000  1.0460000  1
  15263  15259  15260  15266     1  0.0000000  0.0000000  3
  15263  15259  15267  15270     1  0.0000000  0.6973333  3
  15263  15259  15256  15268     1  0.0000000  1.0460000  1
  15263  15259  15256  15268     1  0.0000000  0.0000000  3
  15264  15261  15260  15266     1  0.0000000  0.6508444  3
  15273  15269  15275  15276     1  0.0000000  0.6973333  3
  15273  15269  15255  15277     1  0.0000000  1.0460000  1
  15273  15269  15255  15277     1  0.0000000  0.0000000  3
  15274  15269  15275  15276     1  0.0000000  0.6973333  3
  15274  15269  15255  15277     1  0.0000000  1.0460000  1
  15274  15269  15255  15277     1  0.0000000  0.0000000  3
  15278  15279  15282  15286     1  0.0000000  0.6508444  3
  15278  15279  15291  15294     1  0.0000000  1.0460000  1
  15278  15279  15291  15294     1  0.0000000  0.6694400  3
  15278  15292  15298  15299     1  0.0000000  1.0460000  1
  15278  15292  15298  15299     1  0.0000000  0.6694400  3
  15278  15300  15284  15287     1  0.0000000  1.6038667  3
  15279  15278  15292  15296     1  0.0000000  0.6508444  3
  15279  15278  15292  15297     1  0.0000000  0.6508444  3
  15279  15282  15283  15285     1  0.0000000  0.6508444  3
  15279  15282  15290  15293     1  0.0000000  1.0460000  1
  15279  15282  15290  15293     1  0.0000000  0.6694400  3
  15280  15278  15279  15282     1  0.0000000  0.6508444  3
  15280  15278  15279  15291     1  0.0000000  1.0460000  1
  15280  15278  15279  15291     1  0.0000000  0.0000000  3
  15280  15278  15279  15281     1  0.0000000  0.6508444  3
  15280  15278  15292  15298     1  0.0000000  1.0460000  1
  15280  15278  15292  15298     1  0.0000000  0.0000000  3
  15280  15278  15292  15296     1  0.0000000  0.6508444  3
  15280  15278  15292  15297     1  0.0000000  0.6508444  3
  15280  15278  15300  15284     1  0.0000000  1.6038667  3
  15281  15279  15278  15292     1  0.0000000  0.6508444  3
  15281  15279  15278  15300     1  0.0000000  1.0460000  1
  15281  15279  15278  15300     1  0.0000000  0.0000000  3
  15281  15279  15282  15283     1  0.0000000  0.6508444  3
  15281  15279  15282  15290     1  0.0000000  1.0460000  1
  15281  15279  15282  15290     1  0.0000000  0.0000000  3
  15281  15279  15282  15286     1  0.0000000  0.6508444  3
  15281  15279  15291  15294     1  0.0000000  0.6973333  3
  15282  15279  15291  15294     1  0.0000000  1.0460000  1
  15282  15279  15291  15294     1  0.0000000  0.6694400  3
  15282  15283  15284  15287     1  0.0000000  0.6508444  3
  15282  15283  15289  15295     1  0.0000000  1.0460000  1
  15282  15283  15289  15295     1  0.0000000  0.6694400  3
  15283  15282  15290  15293     1  0.0000000  1.0460000  1
  15283  15282  15290  15293     1  0.0000000  0.6694400  3
  15284  15283  15282  15286     1  0.0000000  0.6508444  3
  15284  15283  15289  15295     1  0.0000000  1.0460000  1
  15284  15283  15289  15295     1  0.0000000  0.6694400  3
  15285  15283  15282  15290     1  0.0000000  1.0460000  1
  15285  15283  15282  15290     1  0.0000000  0.0000000  3
  15285  15283  15282  15286     1  0.0000000  0.6508444  3
  15285  15283  15284  15288     1  0.0000000  1.0460000  1
  15285  15283  15284  15288     1  0.0000000  0.0000000  3
  15285  15283  15284  15300     1  0.0000000  1.0460000  1
  15285  15283  15284  15300     1  0.0000000  0.0000000  3
  15285  15283  15284  15287     1  0.0000000  0.6508444  3
  15285  15283  15289  15295     1  0.0000000  0.6973333  3
  15286  15282  15279  15291     1  0.0000000  1.0460000  1
  15286  15282  15279  15291     1  0.0000000  0.0000000  3
  15286  15282  15283  15289     1  0.0000000  1.0460000  1
  15286  15282  15283  15289     1  0.0000000  0.0000000  3
  15286  15282  15290  15293     1  0.0000000  0.6973333  3
  15287  15284  15283  15289     1  0.0000000  0.6508444  3
  15296  15292  15278  15300     1  0.0000000  1.0460000  1
  15296  15292  15278  15300     1  0.0000000  0.0000000  3
  15296  15292  15298  15299     1  0.0000000  0.6973333  3
  15297  15292  15278  15300     1  0.0000000  1.0460000  1
  15297  15292  15278  15300     1  0.0000000  0.0000000  3
  15297  15292  15298  15299     1  0.0000000  0.6973333  3
  15301  15302  15305  15309     1  0.0000000  0.6508444  3
  15301  15302  15314  15317     1  0.0000000  1.0460000  1
  15301  15302  15314  15317     1  0.0000000  0.6694400  3
  15301  15315  15321  15322     1  0.0000000  1.0460000  1
  15301  15315  15321  15322     1  0.0000000  0.6694400  3
  15301  15323  15307  15310     1  0.0000000  1.6038667  3
  15302  15305  15306  15308     1  0.0000000  0.6508444  3
  15302  15305  15313  15316     1  0.0000000  1.0460000  1
  15302  15305  15313  15316     1  0.0000000  0.6694400  3
  15302  15301  15315  15319     1  0.0000000  0.6508444  3
  15302  15301  15315  15320     1  0.0000000  0.6508444  3
  15303  15301  15302  15305     1  0.0000000  0.6508444  3
  15303  15301  15302  15314     1  0.0000000  1.0460000  1
  15303  15301  15302  15314     1  0.0000000  0.0000000  3
  15303  15301  15302  15304     1  0.0000000  0.6508444  3
  15303  15301  15315  15321     1  0.0000000  1.0460000  1
  15303  15301  15315  15321     1  0.0000000  0.0000000  3
  15303  15301  15315  15319     1  0.0000000  0.6508444  3
  15303  15301  15315  15320     1  0.0000000  0.6508444  3
  15303  15301  15323  15307     1  0.0000000  1.6038667  3
  15304  15302  15305  15306     1  0.0000000  0.6508444  3
  15304  15302  15305  15313     1  0.0000000  1.0460000  1
  15304  15302  15305  15313     1  0.0000000  0.0000000  3
  15304  15302  15305  15309     1  0.0000000  0.6508444  3
  15304  15302  15314  15317     1  0.0000000  0.6973333  3
  15304  15302  15301  15315     1  0.0000000  0.6508444  3
  15304  15302  15301  15323     1  0.0000000  1.0460000  1
  15304  15302  15301  15323     1  0.0000000  0.0000000  3
  15305  15306  15307  15310     1  0.0000000  0.6508444  3
  15305  15306  15312  15318     1  0.0000000  1.0460000  1
  15305  15306  15312  15318     1  0.0000000  0.6694400  3
  15305  15302  15314  15317     1  0.0000000  1.0460000  1
  15305  15302  15314  15317     1  0.0000000  0.6694400  3
  15306  15305  15313  15316     1  0.0000000  1.0460000  1
  15306  15305  15313  15316     1  0.0000000  0.6694400  3
  15307  15306  15312  15318     1  0.0000000  1.0460000  1
  15307  15306  15312  15318     1  0.0000000  0.6694400  3
  15307  15306  15305  15309     1  0.0000000  0.6508444  3
  15308  15306  15307  15311     1  0.0000000  1.0460000  1
  15308  15306  15307  15311     1  0.0000000  0.0000000  3
  15308  15306  15307  15323     1  0.0000000  1.0460000  1
  15308  15306  15307  15323     1  0.0000000  0.0000000  3
  15308  15306  15307  15310     1  0.0000000  0.6508444  3
  15308  15306  15312  15318     1  0.0000000  0.6973333  3
  15308  15306  15305  15313     1  0.0000000  1.0460000  1
  15308  15306  15305  15313     1  0.0000000  0.0000000  3
  15308  15306  15305  15309     1  0.0000000  0.6508444  3
  15309  15305  15306  15312     1  0.0000000  1.0460000  1
  15309  15305  15306  15312     1  0.0000000  0.0000000  3
  15309  15305  15313  15316     1  0.0000000  0.6973333  3
  15309  15305  15302  15314     1  0.0000000  1.0460000  1
  15309  15305  15302  15314     1  0.0000000  0.0000000  3
  15310  15307  15306  15312     1  0.0000000  0.6508444  3
  15319  15315  15321  15322     1  0.0000000  0.6973333  3
  15319  15315  15301  15323     1  0.0000000  1.0460000  1
  15319  15315  15301  15323     1  0.0000000  0.0000000  3
  15320  15315  15321  15322     1  0.0000000  0.6973333  3
  15320  15315  15301  15323     1  0.0000000  1.0460000  1
  15320  15315  15301  15323     1  0.0000000  0.0000000  3
  15324  15325  15328  15332     1  0.0000000  0.6508444  3
  15324  15325  15337  15340     1  0.0000000  1.0460000  1
  15324  15325  15337  15340     1  0.0000000  0.6694400  3
  15324  15338  15344  15345     1  0.0000000  1.0460000  1
  15324  15338  15344  15345     1  0.0000000  0.6694400  3
  15324  15346  15330  15333     1  0.0000000  1.6038667  3
  15325  15324  15338  15342     1  0.0000000  0.6508444  3
  15325  15324  15338  15343     1  0.0000000  0.6508444  3
  15325  15328  15329  15331     1  0.0000000  0.6508444  3
  15325  15328  15336  15339     1  0.0000000  1.0460000  1
  15325  15328  15336  15339     1  0.0000000  0.6694400  3
  15326  15324  15325  15328     1  0.0000000  0.6508444  3
  15326  15324  15325  15337     1  0.0000000  1.0460000  1
  15326  15324  15325  15337     1  0.0000000  0.0000000  3
  15326  15324  15325  15327     1  0.0000000  0.6508444  3
  15326  15324  15338  15344     1  0.0000000  1.0460000  1
  15326  15324  15338  15344     1  0.0000000  0.0000000  3
  15326  15324  15338  15342     1  0.0000000  0.6508444  3
  15326  15324  15338  15343     1  0.0000000  0.6508444  3
  15326  15324  15346  15330     1  0.0000000  1.6038667  3
  15327  15325  15324  15338     1  0.0000000  0.6508444  3
  15327  15325  15324  15346     1  0.0000000  1.0460000  1
  15327  15325  15324  15346     1  0.0000000  0.0000000  3
  15327  15325  15328  15329     1  0.0000000  0.6508444  3
  15327  15325  15328  15336     1  0.0000000  1.0460000  1
  15327  15325  15328  15336     1  0.0000000  0.0000000  3
  15327  15325  15328  15332     1  0.0000000  0.6508444  3
  15327  15325  15337  15340     1  0.0000000  0.6973333  3
  15328  15325  15337  15340     1  0.0000000  1.0460000  1
  15328  15325  15337  15340     1  0.0000000  0.6694400  3
  15328  15329  15330  15333     1  0.0000000  0.6508444  3
  15328  15329  15335  15341     1  0.0000000  1.0460000  1
  15328  15329  15335  15341     1  0.0000000  0.6694400  3
  15329  15328  15336  15339     1  0.0000000  1.0460000  1
  15329  15328  15336  15339     1  0.0000000  0.6694400  3
  15330  15329  15328  15332     1  0.0000000  0.6508444  3
  15330  15329  15335  15341     1  0.0000000  1.0460000  1
  15330  15329  15335  15341     1  0.0000000  0.6694400  3
  15331  15329  15328  15336     1  0.0000000  1.0460000  1
  15331  15329  15328  15336     1  0.0000000  0.0000000  3
  15331  15329  15328  15332     1  0.0000000  0.6508444  3
  15331  15329  15330  15334     1  0.0000000  1.0460000  1
  15331  15329  15330  15334     1  0.0000000  0.0000000  3
  15331  15329  15330  15346     1  0.0000000  1.0460000  1
  15331  15329  15330  15346     1  0.0000000  0.0000000  3
  15331  15329  15330  15333     1  0.0000000  0.6508444  3
  15331  15329  15335  15341     1  0.0000000  0.6973333  3
  15332  15328  15325  15337     1  0.0000000  1.0460000  1
  15332  15328  15325  15337     1  0.0000000  0.0000000  3
  15332  15328  15329  15335     1  0.0000000  1.0460000  1
  15332  15328  15329  15335     1  0.0000000  0.0000000  3
  15332  15328  15336  15339     1  0.0000000  0.6973333  3
  15333  15330  15329  15335     1  0.0000000  0.6508444  3
  15342  15338  15324  15346     1  0.0000000  1.0460000  1
  15342  15338  15324  15346     1  0.0000000  0.0000000  3
  15342  15338  15344  15345     1  0.0000000  0.6973333  3
  15343  15338  15324  15346     1  0.0000000  1.0460000  1
  15343  15338  15324  15346     1  0.0000000  0.0000000  3
  15343  15338  15344  15345     1  0.0000000  0.6973333  3
  15347  15348  15351  15355     1  0.0000000  0.6508444  3
  15347  15348  15360  15363     1  0.0000000  1.0460000  1
  15347  15348  15360  15363     1  0.0000000  0.6694400  3
  15347  15361  15367  15368     1  0.0000000  1.0460000  1
  15347  15361  15367  15368     1  0.0000000  0.6694400  3
  15347  15369  15353  15356     1  0.0000000  1.6038667  3
  15348  15351  15352  15354     1  0.0000000  0.6508444  3
  15348  15351  15359  15362     1  0.0000000  1.0460000  1
  15348  15351  15359  15362     1  0.0000000  0.6694400  3
  15348  15347  15361  15365     1  0.0000000  0.6508444  3
  15348  15347  15361  15366     1  0.0000000  0.6508444  3
  15349  15347  15348  15351     1  0.0000000  0.6508444  3
  15349  15347  15348  15360     1  0.0000000  1.0460000  1
  15349  15347  15348  15360     1  0.0000000  0.0000000  3
  15349  15347  15348  15350     1  0.0000000  0.6508444  3
  15349  15347  15361  15367     1  0.0000000  1.0460000  1
  15349  15347  15361  15367     1  0.0000000  0.0000000  3
  15349  15347  15361  15365     1  0.0000000  0.6508444  3
  15349  15347  15361  15366     1  0.0000000  0.6508444  3
  15349  15347  15369  15353     1  0.0000000  1.6038667  3
  15350  15348  15351  15352     1  0.0000000  0.6508444  3
  15350  15348  15351  15359     1  0.0000000  1.0460000  1
  15350  15348  15351  15359     1  0.0000000  0.0000000  3
  15350  15348  15351  15355     1  0.0000000  0.6508444  3
  15350  15348  15360  15363     1  0.0000000  0.6973333  3
  15350  15348  15347  15361     1  0.0000000  0.6508444  3
  15350  15348  15347  15369     1  0.0000000  1.0460000  1
  15350  15348  15347  15369     1  0.0000000  0.0000000  3
  15351  15352  15353  15356     1  0.0000000  0.6508444  3
  15351  15352  15358  15364     1  0.0000000  1.0460000  1
  15351  15352  15358  15364     1  0.0000000  0.6694400  3
  15351  15348  15360  15363     1  0.0000000  1.0460000  1
  15351  15348  15360  15363     1  0.0000000  0.6694400  3
  15352  15351  15359  15362     1  0.0000000  1.0460000  1
  15352  15351  15359  15362     1  0.0000000  0.6694400  3
  15353  15352  15358  15364     1  0.0000000  1.0460000  1
  15353  15352  15358  15364     1  0.0000000  0.6694400  3
  15353  15352  15351  15355     1  0.0000000  0.6508444  3
  15354  15352  15353  15357     1  0.0000000  1.0460000  1
  15354  15352  15353  15357     1  0.0000000  0.0000000  3
  15354  15352  15353  15369     1  0.0000000  1.0460000  1
  15354  15352  15353  15369     1  0.0000000  0.0000000  3
  15354  15352  15353  15356     1  0.0000000  0.6508444  3
  15354  15352  15358  15364     1  0.0000000  0.6973333  3
  15354  15352  15351  15359     1  0.0000000  1.0460000  1
  15354  15352  15351  15359     1  0.0000000  0.0000000  3
  15354  15352  15351  15355     1  0.0000000  0.6508444  3
  15355  15351  15352  15358     1  0.0000000  1.0460000  1
  15355  15351  15352  15358     1  0.0000000  0.0000000  3
  15355  15351  15359  15362     1  0.0000000  0.6973333  3
  15355  15351  15348  15360     1  0.0000000  1.0460000  1
  15355  15351  15348  15360     1  0.0000000  0.0000000  3
  15356  15353  15352  15358     1  0.0000000  0.6508444  3
  15365  15361  15367  15368     1  0.0000000  0.6973333  3
  15365  15361  15347  15369     1  0.0000000  1.0460000  1
  15365  15361  15347  15369     1  0.0000000  0.0000000  3
  15366  15361  15367  15368     1  0.0000000  0.6973333  3
  15366  15361  15347  15369     1  0.0000000  1.0460000  1
  15366  15361  15347  15369     1  0.0000000  0.0000000  3
  15370  15371  15374  15378     1  0.0000000  0.6508444  3
  15370  15371  15383  15386     1  0.0000000  1.0460000  1
  15370  15371  15383  15386     1  0.0000000  0.6694400  3
  15370  15384  15390  15391     1  0.0000000  1.0460000  1
  15370  15384  15390  15391     1  0.0000000  0.6694400  3
  15370  15392  15376  15379     1  0.0000000  1.6038667  3
  15371  15370  15384  15388     1  0.0000000  0.6508444  3
  15371  15370  15384  15389     1  0.0000000  0.6508444  3
  15371  15374  15375  15377     1  0.0000000  0.6508444  3
  15371  15374  15382  15385     1  0.0000000  1.0460000  1
  15371  15374  15382  15385     1  0.0000000  0.6694400  3
  15372  15370  15371  15374     1  0.0000000  0.6508444  3
  15372  15370  15371  15383     1  0.0000000  1.0460000  1
  15372  15370  15371  15383     1  0.0000000  0.0000000  3
  15372  15370  15371  15373     1  0.0000000  0.6508444  3
  15372  15370  15384  15390     1  0.0000000  1.0460000  1
  15372  15370  15384  15390     1  0.0000000  0.0000000  3
  15372  15370  15384  15388     1  0.0000000  0.6508444  3
  15372  15370  15384  15389     1  0.0000000  0.6508444  3
  15372  15370  15392  15376     1  0.0000000  1.6038667  3
  15373  15371  15370  15384     1  0.0000000  0.6508444  3
  15373  15371  15370  15392     1  0.0000000  1.0460000  1
  15373  15371  15370  15392     1  0.0000000  0.0000000  3
  15373  15371  15374  15375     1  0.0000000  0.6508444  3
  15373  15371  15374  15382     1  0.0000000  1.0460000  1
  15373  15371  15374  15382     1  0.0000000  0.0000000  3
  15373  15371  15374  15378     1  0.0000000  0.6508444  3
  15373  15371  15383  15386     1  0.0000000  0.6973333  3
  15374  15371  15383  15386     1  0.0000000  1.0460000  1
  15374  15371  15383  15386     1  0.0000000  0.6694400  3
  15374  15375  15376  15379     1  0.0000000  0.6508444  3
  15374  15375  15381  15387     1  0.0000000  1.0460000  1
  15374  15375  15381  15387     1  0.0000000  0.6694400  3
  15375  15374  15382  15385     1  0.0000000  1.0460000  1
  15375  15374  15382  15385     1  0.0000000  0.6694400  3
  15376  15375  15374  15378     1  0.0000000  0.6508444  3
  15376  15375  15381  15387     1  0.0000000  1.0460000  1
  15376  15375  15381  15387     1  0.0000000  0.6694400  3
  15377  15375  15374  15382     1  0.0000000  1.0460000  1
  15377  15375  15374  15382     1  0.0000000  0.0000000  3
  15377  15375  15374  15378     1  0.0000000  0.6508444  3
  15377  15375  15376  15380     1  0.0000000  1.0460000  1
  15377  15375  15376  15380     1  0.0000000  0.0000000  3
  15377  15375  15376  15392     1  0.0000000  1.0460000  1
  15377  15375  15376  15392     1  0.0000000  0.0000000  3
  15377  15375  15376  15379     1  0.0000000  0.6508444  3
  15377  15375  15381  15387     1  0.0000000  0.6973333  3
  15378  15374  15371  15383     1  0.0000000  1.0460000  1
  15378  15374  15371  15383     1  0.0000000  0.0000000  3
  15378  15374  15375  15381     1  0.0000000  1.0460000  1
  15378  15374  15375  15381     1  0.0000000  0.0000000  3
  15378  15374  15382  15385     1  0.0000000  0.6973333  3
  15379  15376  15375  15381     1  0.0000000  0.6508444  3
  15388  15384  15370  15392     1  0.0000000  1.0460000  1
  15388  15384  15370  15392     1  0.0000000  0.0000000  3
  15388  15384  15390  15391     1  0.0000000  0.6973333  3
  15389  15384  15370  15392     1  0.0000000  1.0460000  1
  15389  15384  15370  15392     1  0.0000000  0.0000000  3
  15389  15384  15390  15391     1  0.0000000  0.6973333  3
  15393  15394  15397  15401     1  0.0000000  0.6508444  3
  15393  15394  15406  15409     1  0.0000000  1.0460000  1
  15393  15394  15406  15409     1  0.0000000  0.6694400  3
  15393  15407  15413  15414     1  0.0000000  1.0460000  1
  15393  15407  15413  15414     1  0.0000000  0.6694400  3
  15393  15415  15399  15402     1  0.0000000  1.6038667  3
  15394  15397  15398  15400     1  0.0000000  0.6508444  3
  15394  15397  15405  15408     1  0.0000000  1.0460000  1
  15394  15397  15405  15408     1  0.0000000  0.6694400  3
  15394  15393  15407  15411     1  0.0000000  0.6508444  3
  15394  15393  15407  15412     1  0.0000000  0.6508444  3
  15395  15393  15394  15397     1  0.0000000  0.6508444  3
  15395  15393  15394  15406     1  0.0000000  1.0460000  1
  15395  15393  15394  15406     1  0.0000000  0.0000000  3
  15395  15393  15394  15396     1  0.0000000  0.6508444  3
  15395  15393  15407  15413     1  0.0000000  1.0460000  1
  15395  15393  15407  15413     1  0.0000000  0.0000000  3
  15395  15393  15407  15411     1  0.0000000  0.6508444  3
  15395  15393  15407  15412     1  0.0000000  0.6508444  3
  15395  15393  15415  15399     1  0.0000000  1.6038667  3
  15396  15394  15397  15398     1  0.0000000  0.6508444  3
  15396  15394  15397  15405     1  0.0000000  1.0460000  1
  15396  15394  15397  15405     1  0.0000000  0.0000000  3
  15396  15394  15397  15401     1  0.0000000  0.6508444  3
  15396  15394  15406  15409     1  0.0000000  0.6973333  3
  15396  15394  15393  15407     1  0.0000000  0.6508444  3
  15396  15394  15393  15415     1  0.0000000  1.0460000  1
  15396  15394  15393  15415     1  0.0000000  0.0000000  3
  15397  15398  15399  15402     1  0.0000000  0.6508444  3
  15397  15398  15404  15410     1  0.0000000  1.0460000  1
  15397  15398  15404  15410     1  0.0000000  0.6694400  3
  15397  15394  15406  15409     1  0.0000000  1.0460000  1
  15397  15394  15406  15409     1  0.0000000  0.6694400  3
  15398  15397  15405  15408     1  0.0000000  1.0460000  1
  15398  15397  15405  15408     1  0.0000000  0.6694400  3
  15399  15398  15404  15410     1  0.0000000  1.0460000  1
  15399  15398  15404  15410     1  0.0000000  0.6694400  3
  15399  15398  15397  15401     1  0.0000000  0.6508444  3
  15400  15398  15399  15403     1  0.0000000  1.0460000  1
  15400  15398  15399  15403     1  0.0000000  0.0000000  3
  15400  15398  15399  15415     1  0.0000000  1.0460000  1
  15400  15398  15399  15415     1  0.0000000  0.0000000  3
  15400  15398  15399  15402     1  0.0000000  0.6508444  3
  15400  15398  15404  15410     1  0.0000000  0.6973333  3
  15400  15398  15397  15405     1  0.0000000  1.0460000  1
  15400  15398  15397  15405     1  0.0000000  0.0000000  3
  15400  15398  15397  15401     1  0.0000000  0.6508444  3
  15401  15397  15398  15404     1  0.0000000  1.0460000  1
  15401  15397  15398  15404     1  0.0000000  0.0000000  3
  15401  15397  15405  15408     1  0.0000000  0.6973333  3
  15401  15397  15394  15406     1  0.0000000  1.0460000  1
  15401  15397  15394  15406     1  0.0000000  0.0000000  3
  15402  15399  15398  15404     1  0.0000000  0.6508444  3
  15411  15407  15413  15414     1  0.0000000  0.6973333  3
  15411  15407  15393  15415     1  0.0000000  1.0460000  1
  15411  15407  15393  15415     1  0.0000000  0.0000000  3
  15412  15407  15413  15414     1  0.0000000  0.6973333  3
  15412  15407  15393  15415     1  0.0000000  1.0460000  1
  15412  15407  15393  15415     1  0.0000000  0.0000000  3
  15416  15417  15420  15424     1  0.0000000  0.6508444  3
  15416  15417  15429  15432     1  0.0000000  1.0460000  1
  15416  15417  15429  15432     1  0.0000000  0.6694400  3
  15416  15430  15436  15437     1  0.0000000  1.0460000  1
  15416  15430  15436  15437     1  0.0000000  0.6694400  3
  15416  15438  15422  15425     1  0.0000000  1.6038667  3
  15417  15416  15430  15434     1  0.0000000  0.6508444  3
  15417  15416  15430  15435     1  0.0000000  0.6508444  3
  15417  15420  15421  15423     1  0.0000000  0.6508444  3
  15417  15420  15428  15431     1  0.0000000  1.0460000  1
  15417  15420  15428  15431     1  0.0000000  0.6694400  3
  15418  15416  15417  15420     1  0.0000000  0.6508444  3
  15418  15416  15417  15429     1  0.0000000  1.0460000  1
  15418  15416  15417  15429     1  0.0000000  0.0000000  3
  15418  15416  15417  15419     1  0.0000000  0.6508444  3
  15418  15416  15430  15436     1  0.0000000  1.0460000  1
  15418  15416  15430  15436     1  0.0000000  0.0000000  3
  15418  15416  15430  15434     1  0.0000000  0.6508444  3
  15418  15416  15430  15435     1  0.0000000  0.6508444  3
  15418  15416  15438  15422     1  0.0000000  1.6038667  3
  15419  15417  15416  15430     1  0.0000000  0.6508444  3
  15419  15417  15416  15438     1  0.0000000  1.0460000  1
  15419  15417  15416  15438     1  0.0000000  0.0000000  3
  15419  15417  15420  15421     1  0.0000000  0.6508444  3
  15419  15417  15420  15428     1  0.0000000  1.0460000  1
  15419  15417  15420  15428     1  0.0000000  0.0000000  3
  15419  15417  15420  15424     1  0.0000000  0.6508444  3
  15419  15417  15429  15432     1  0.0000000  0.6973333  3
  15420  15417  15429  15432     1  0.0000000  1.0460000  1
  15420  15417  15429  15432     1  0.0000000  0.6694400  3
  15420  15421  15422  15425     1  0.0000000  0.6508444  3
  15420  15421  15427  15433     1  0.0000000  1.0460000  1
  15420  15421  15427  15433     1  0.0000000  0.6694400  3
  15421  15420  15428  15431     1  0.0000000  1.0460000  1
  15421  15420  15428  15431     1  0.0000000  0.6694400  3
  15422  15421  15420  15424     1  0.0000000  0.6508444  3
  15422  15421  15427  15433     1  0.0000000  1.0460000  1
  15422  15421  15427  15433     1  0.0000000  0.6694400  3
  15423  15421  15420  15428     1  0.0000000  1.0460000  1
  15423  15421  15420  15428     1  0.0000000  0.0000000  3
  15423  15421  15420  15424     1  0.0000000  0.6508444  3
  15423  15421  15422  15426     1  0.0000000  1.0460000  1
  15423  15421  15422  15426     1  0.0000000  0.0000000  3
  15423  15421  15422  15438     1  0.0000000  1.0460000  1
  15423  15421  15422  15438     1  0.0000000  0.0000000  3
  15423  15421  15422  15425     1  0.0000000  0.6508444  3
  15423  15421  15427  15433     1  0.0000000  0.6973333  3
  15424  15420  15417  15429     1  0.0000000  1.0460000  1
  15424  15420  15417  15429     1  0.0000000  0.0000000  3
  15424  15420  15421  15427     1  0.0000000  1.0460000  1
  15424  15420  15421  15427     1  0.0000000  0.0000000  3
  15424  15420  15428  15431     1  0.0000000  0.6973333  3
  15425  15422  15421  15427     1  0.0000000  0.6508444  3
  15434  15430  15416  15438     1  0.0000000  1.0460000  1
  15434  15430  15416  15438     1  0.0000000  0.0000000  3
  15434  15430  15436  15437     1  0.0000000  0.6973333  3
  15435  15430  15416  15438     1  0.0000000  1.0460000  1
  15435  15430  15416  15438     1  0.0000000  0.0000000  3
  15435  15430  15436  15437     1  0.0000000  0.6973333  3
  15439  15440  15443  15447     1  0.0000000  0.6508444  3
  15439  15440  15452  15455     1  0.0000000  1.0460000  1
  15439  15440  15452  15455     1  0.0000000  0.6694400  3
  15439  15453  15459  15460     1  0.0000000  1.0460000  1
  15439  15453  15459  15460     1  0.0000000  0.6694400  3
  15439  15461  15445  15448     1  0.0000000  1.6038667  3
  15440  15443  15444  15446     1  0.0000000  0.6508444  3
  15440  15443  15451  15454     1  0.0000000  1.0460000  1
  15440  15443  15451  15454     1  0.0000000  0.6694400  3
  15440  15439  15453  15457     1  0.0000000  0.6508444  3
  15440  15439  15453  15458     1  0.0000000  0.6508444  3
  15441  15439  15440  15443     1  0.0000000  0.6508444  3
  15441  15439  15440  15452     1  0.0000000  1.0460000  1
  15441  15439  15440  15452     1  0.0000000  0.0000000  3
  15441  15439  15440  15442     1  0.0000000  0.6508444  3
  15441  15439  15453  15459     1  0.0000000  1.0460000  1
  15441  15439  15453  15459     1  0.0000000  0.0000000  3
  15441  15439  15453  15457     1  0.0000000  0.6508444  3
  15441  15439  15453  15458     1  0.0000000  0.6508444  3
  15441  15439  15461  15445     1  0.0000000  1.6038667  3
  15442  15440  15443  15444     1  0.0000000  0.6508444  3
  15442  15440  15443  15451     1  0.0000000  1.0460000  1
  15442  15440  15443  15451     1  0.0000000  0.0000000  3
  15442  15440  15443  15447     1  0.0000000  0.6508444  3
  15442  15440  15452  15455     1  0.0000000  0.6973333  3
  15442  15440  15439  15453     1  0.0000000  0.6508444  3
  15442  15440  15439  15461     1  0.0000000  1.0460000  1
  15442  15440  15439  15461     1  0.0000000  0.0000000  3
  15443  15444  15445  15448     1  0.0000000  0.6508444  3
  15443  15444  15450  15456     1  0.0000000  1.0460000  1
  15443  15444  15450  15456     1  0.0000000  0.6694400  3
  15443  15440  15452  15455     1  0.0000000  1.0460000  1
  15443  15440  15452  15455     1  0.0000000  0.6694400  3
  15444  15443  15451  15454     1  0.0000000  1.0460000  1
  15444  15443  15451  15454     1  0.0000000  0.6694400  3
  15445  15444  15450  15456     1  0.0000000  1.0460000  1
  15445  15444  15450  15456     1  0.0000000  0.6694400  3
  15445  15444  15443  15447     1  0.0000000  0.6508444  3
  15446  15444  15445  15449     1  0.0000000  1.0460000  1
  15446  15444  15445  15449     1  0.0000000  0.0000000  3
  15446  15444  15445  15461     1  0.0000000  1.0460000  1
  15446  15444  15445  15461     1  0.0000000  0.0000000  3
  15446  15444  15445  15448     1  0.0000000  0.6508444  3
  15446  15444  15450  15456     1  0.0000000  0.6973333  3
  15446  15444  15443  15451     1  0.0000000  1.0460000  1
  15446  15444  15443  15451     1  0.0000000  0.0000000  3
  15446  15444  15443  15447     1  0.0000000  0.6508444  3
  15447  15443  15444  15450     1  0.0000000  1.0460000  1
  15447  15443  15444  15450     1  0.0000000  0.0000000  3
  15447  15443  15451  15454     1  0.0000000  0.6973333  3
  15447  15443  15440  15452     1  0.0000000  1.0460000  1
  15447  15443  15440  15452     1  0.0000000  0.0000000  3
  15448  15445  15444  15450     1  0.0000000  0.6508444  3
  15457  15453  15459  15460     1  0.0000000  0.6973333  3
  15457  15453  15439  15461     1  0.0000000  1.0460000  1
  15457  15453  15439  15461     1  0.0000000  0.0000000  3
  15458  15453  15459  15460     1  0.0000000  0.6973333  3
  15458  15453  15439  15461     1  0.0000000  1.0460000  1
  15458  15453  15439  15461     1  0.0000000  0.0000000  3
  15462  15463  15466  15470     1  0.0000000  0.6508444  3
  15462  15463  15475  15478     1  0.0000000  1.0460000  1
  15462  15463  15475  15478     1  0.0000000  0.6694400  3
  15462  15476  15482  15483     1  0.0000000  1.0460000  1
  15462  15476  15482  15483     1  0.0000000  0.6694400  3
  15462  15484  15468  15471     1  0.0000000  1.6038667  3
  15463  15462  15476  15480     1  0.0000000  0.6508444  3
  15463  15462  15476  15481     1  0.0000000  0.6508444  3
  15463  15466  15467  15469     1  0.0000000  0.6508444  3
  15463  15466  15474  15477     1  0.0000000  1.0460000  1
  15463  15466  15474  15477     1  0.0000000  0.6694400  3
  15464  15462  15463  15466     1  0.0000000  0.6508444  3
  15464  15462  15463  15475     1  0.0000000  1.0460000  1
  15464  15462  15463  15475     1  0.0000000  0.0000000  3
  15464  15462  15463  15465     1  0.0000000  0.6508444  3
  15464  15462  15476  15482     1  0.0000000  1.0460000  1
  15464  15462  15476  15482     1  0.0000000  0.0000000  3
  15464  15462  15476  15480     1  0.0000000  0.6508444  3
  15464  15462  15476  15481     1  0.0000000  0.6508444  3
  15464  15462  15484  15468     1  0.0000000  1.6038667  3
  15465  15463  15462  15476     1  0.0000000  0.6508444  3
  15465  15463  15462  15484     1  0.0000000  1.0460000  1
  15465  15463  15462  15484     1  0.0000000  0.0000000  3
  15465  15463  15466  15467     1  0.0000000  0.6508444  3
  15465  15463  15466  15474     1  0.0000000  1.0460000  1
  15465  15463  15466  15474     1  0.0000000  0.0000000  3
  15465  15463  15466  15470     1  0.0000000  0.6508444  3
  15465  15463  15475  15478     1  0.0000000  0.6973333  3
  15466  15463  15475  15478     1  0.0000000  1.0460000  1
  15466  15463  15475  15478     1  0.0000000  0.6694400  3
  15466  15467  15468  15471     1  0.0000000  0.6508444  3
  15466  15467  15473  15479     1  0.0000000  1.0460000  1
  15466  15467  15473  15479     1  0.0000000  0.6694400  3
  15467  15466  15474  15477     1  0.0000000  1.0460000  1
  15467  15466  15474  15477     1  0.0000000  0.6694400  3
  15468  15467  15466  15470     1  0.0000000  0.6508444  3
  15468  15467  15473  15479     1  0.0000000  1.0460000  1
  15468  15467  15473  15479     1  0.0000000  0.6694400  3
  15469  15467  15466  15474     1  0.0000000  1.0460000  1
  15469  15467  15466  15474     1  0.0000000  0.0000000  3
  15469  15467  15466  15470     1  0.0000000  0.6508444  3
  15469  15467  15468  15472     1  0.0000000  1.0460000  1
  15469  15467  15468  15472     1  0.0000000  0.0000000  3
  15469  15467  15468  15484     1  0.0000000  1.0460000  1
  15469  15467  15468  15484     1  0.0000000  0.0000000  3
  15469  15467  15468  15471     1  0.0000000  0.6508444  3
  15469  15467  15473  15479     1  0.0000000  0.6973333  3
  15470  15466  15463  15475     1  0.0000000  1.0460000  1
  15470  15466  15463  15475     1  0.0000000  0.0000000  3
  15470  15466  15467  15473     1  0.0000000  1.0460000  1
  15470  15466  15467  15473     1  0.0000000  0.0000000  3
  15470  15466  15474  15477     1  0.0000000  0.6973333  3
  15471  15468  15467  15473     1  0.0000000  0.6508444  3
  15480  15476  15462  15484     1  0.0000000  1.0460000  1
  15480  15476  15462  15484     1  0.0000000  0.0000000  3
  15480  15476  15482  15483     1  0.0000000  0.6973333  3
  15481  15476  15462  15484     1  0.0000000  1.0460000  1
  15481  15476  15462  15484     1  0.0000000  0.0000000  3
  15481  15476  15482  15483     1  0.0000000  0.6973333  3
  15485  15486  15489  15493     1  0.0000000  0.6508444  3
  15485  15486  15498  15501     1  0.0000000  1.0460000  1
  15485  15486  15498  15501     1  0.0000000  0.6694400  3
  15485  15499  15505  15506     1  0.0000000  1.0460000  1
  15485  15499  15505  15506     1  0.0000000  0.6694400  3
  15485  15507  15491  15494     1  0.0000000  1.6038667  3
  15486  15489  15490  15492     1  0.0000000  0.6508444  3
  15486  15489  15497  15500     1  0.0000000  1.0460000  1
  15486  15489  15497  15500     1  0.0000000  0.6694400  3
  15486  15485  15499  15503     1  0.0000000  0.6508444  3
  15486  15485  15499  15504     1  0.0000000  0.6508444  3
  15487  15485  15486  15489     1  0.0000000  0.6508444  3
  15487  15485  15486  15498     1  0.0000000  1.0460000  1
  15487  15485  15486  15498     1  0.0000000  0.0000000  3
  15487  15485  15486  15488     1  0.0000000  0.6508444  3
  15487  15485  15499  15505     1  0.0000000  1.0460000  1
  15487  15485  15499  15505     1  0.0000000  0.0000000  3
  15487  15485  15499  15503     1  0.0000000  0.6508444  3
  15487  15485  15499  15504     1  0.0000000  0.6508444  3
  15487  15485  15507  15491     1  0.0000000  1.6038667  3
  15488  15486  15489  15490     1  0.0000000  0.6508444  3
  15488  15486  15489  15497     1  0.0000000  1.0460000  1
  15488  15486  15489  15497     1  0.0000000  0.0000000  3
  15488  15486  15489  15493     1  0.0000000  0.6508444  3
  15488  15486  15498  15501     1  0.0000000  0.6973333  3
  15488  15486  15485  15499     1  0.0000000  0.6508444  3
  15488  15486  15485  15507     1  0.0000000  1.0460000  1
  15488  15486  15485  15507     1  0.0000000  0.0000000  3
  15489  15490  15491  15494     1  0.0000000  0.6508444  3
  15489  15490  15496  15502     1  0.0000000  1.0460000  1
  15489  15490  15496  15502     1  0.0000000  0.6694400  3
  15489  15486  15498  15501     1  0.0000000  1.0460000  1
  15489  15486  15498  15501     1  0.0000000  0.6694400  3
  15490  15489  15497  15500     1  0.0000000  1.0460000  1
  15490  15489  15497  15500     1  0.0000000  0.6694400  3
  15491  15490  15496  15502     1  0.0000000  1.0460000  1
  15491  15490  15496  15502     1  0.0000000  0.6694400  3
  15491  15490  15489  15493     1  0.0000000  0.6508444  3
  15492  15490  15491  15495     1  0.0000000  1.0460000  1
  15492  15490  15491  15495     1  0.0000000  0.0000000  3
  15492  15490  15491  15507     1  0.0000000  1.0460000  1
  15492  15490  15491  15507     1  0.0000000  0.0000000  3
  15492  15490  15491  15494     1  0.0000000  0.6508444  3
  15492  15490  15496  15502     1  0.0000000  0.6973333  3
  15492  15490  15489  15497     1  0.0000000  1.0460000  1
  15492  15490  15489  15497     1  0.0000000  0.0000000  3
  15492  15490  15489  15493     1  0.0000000  0.6508444  3
  15493  15489  15490  15496     1  0.0000000  1.0460000  1
  15493  15489  15490  15496     1  0.0000000  0.0000000  3
  15493  15489  15497  15500     1  0.0000000  0.6973333  3
  15493  15489  15486  15498     1  0.0000000  1.0460000  1
  15493  15489  15486  15498     1  0.0000000  0.0000000  3
  15494  15491  15490  15496     1  0.0000000  0.6508444  3
  15503  15499  15505  15506     1  0.0000000  0.6973333  3
  15503  15499  15485  15507     1  0.0000000  1.0460000  1
  15503  15499  15485  15507     1  0.0000000  0.0000000  3
  15504  15499  15505  15506     1  0.0000000  0.6973333  3
  15504  15499  15485  15507     1  0.0000000  1.0460000  1
  15504  15499  15485  15507     1  0.0000000  0.0000000  3
  15508  15509  15512  15516     1  0.0000000  0.6508444  3
  15508  15509  15521  15524     1  0.0000000  1.0460000  1
  15508  15509  15521  15524     1  0.0000000  0.6694400  3
  15508  15522  15528  15529     1  0.0000000  1.0460000  1
  15508  15522  15528  15529     1  0.0000000  0.6694400  3
  15508  15530  15514  15517     1  0.0000000  1.6038667  3
  15509  15508  15522  15526     1  0.0000000  0.6508444  3
  15509  15508  15522  15527     1  0.0000000  0.6508444  3
  15509  15512  15513  15515     1  0.0000000  0.6508444  3
  15509  15512  15520  15523     1  0.0000000  1.0460000  1
  15509  15512  15520  15523     1  0.0000000  0.6694400  3
  15510  15508  15509  15512     1  0.0000000  0.6508444  3
  15510  15508  15509  15521     1  0.0000000  1.0460000  1
  15510  15508  15509  15521     1  0.0000000  0.0000000  3
  15510  15508  15509  15511     1  0.0000000  0.6508444  3
  15510  15508  15522  15528     1  0.0000000  1.0460000  1
  15510  15508  15522  15528     1  0.0000000  0.0000000  3
  15510  15508  15522  15526     1  0.0000000  0.6508444  3
  15510  15508  15522  15527     1  0.0000000  0.6508444  3
  15510  15508  15530  15514     1  0.0000000  1.6038667  3
  15511  15509  15508  15522     1  0.0000000  0.6508444  3
  15511  15509  15508  15530     1  0.0000000  1.0460000  1
  15511  15509  15508  15530     1  0.0000000  0.0000000  3
  15511  15509  15512  15513     1  0.0000000  0.6508444  3
  15511  15509  15512  15520     1  0.0000000  1.0460000  1
  15511  15509  15512  15520     1  0.0000000  0.0000000  3
  15511  15509  15512  15516     1  0.0000000  0.6508444  3
  15511  15509  15521  15524     1  0.0000000  0.6973333  3
  15512  15509  15521  15524     1  0.0000000  1.0460000  1
  15512  15509  15521  15524     1  0.0000000  0.6694400  3
  15512  15513  15514  15517     1  0.0000000  0.6508444  3
  15512  15513  15519  15525     1  0.0000000  1.0460000  1
  15512  15513  15519  15525     1  0.0000000  0.6694400  3
  15513  15512  15520  15523     1  0.0000000  1.0460000  1
  15513  15512  15520  15523     1  0.0000000  0.6694400  3
  15514  15513  15512  15516     1  0.0000000  0.6508444  3
  15514  15513  15519  15525     1  0.0000000  1.0460000  1
  15514  15513  15519  15525     1  0.0000000  0.6694400  3
  15515  15513  15512  15520     1  0.0000000  1.0460000  1
  15515  15513  15512  15520     1  0.0000000  0.0000000  3
  15515  15513  15512  15516     1  0.0000000  0.6508444  3
  15515  15513  15514  15518     1  0.0000000  1.0460000  1
  15515  15513  15514  15518     1  0.0000000  0.0000000  3
  15515  15513  15514  15530     1  0.0000000  1.0460000  1
  15515  15513  15514  15530     1  0.0000000  0.0000000  3
  15515  15513  15514  15517     1  0.0000000  0.6508444  3
  15515  15513  15519  15525     1  0.0000000  0.6973333  3
  15516  15512  15509  15521     1  0.0000000  1.0460000  1
  15516  15512  15509  15521     1  0.0000000  0.0000000  3
  15516  15512  15513  15519     1  0.0000000  1.0460000  1
  15516  15512  15513  15519     1  0.0000000  0.0000000  3
  15516  15512  15520  15523     1  0.0000000  0.6973333  3
  15517  15514  15513  15519     1  0.0000000  0.6508444  3
  15526  15522  15508  15530     1  0.0000000  1.0460000  1
  15526  15522  15508  15530     1  0.0000000  0.0000000  3
  15526  15522  15528  15529     1  0.0000000  0.6973333  3
  15527  15522  15508  15530     1  0.0000000  1.0460000  1
  15527  15522  15508  15530     1  0.0000000  0.0000000  3
  15527  15522  15528  15529     1  0.0000000  0.6973333  3
  15531  15532  15535  15539     1  0.0000000  0.6508444  3
  15531  15532  15544  15547     1  0.0000000  1.0460000  1
  15531  15532  15544  15547     1  0.0000000  0.6694400  3
  15531  15545  15551  15552     1  0.0000000  1.0460000  1
  15531  15545  15551  15552     1  0.0000000  0.6694400  3
  15531  15553  15537  15540     1  0.0000000  1.6038667  3
  15532  15535  15536  15538     1  0.0000000  0.6508444  3
  15532  15535  15543  15546     1  0.0000000  1.0460000  1
  15532  15535  15543  15546     1  0.0000000  0.6694400  3
  15532  15531  15545  15549     1  0.0000000  0.6508444  3
  15532  15531  15545  15550     1  0.0000000  0.6508444  3
  15533  15531  15532  15535     1  0.0000000  0.6508444  3
  15533  15531  15532  15544     1  0.0000000  1.0460000  1
  15533  15531  15532  15544     1  0.0000000  0.0000000  3
  15533  15531  15532  15534     1  0.0000000  0.6508444  3
  15533  15531  15545  15551     1  0.0000000  1.0460000  1
  15533  15531  15545  15551     1  0.0000000  0.0000000  3
  15533  15531  15545  15549     1  0.0000000  0.6508444  3
  15533  15531  15545  15550     1  0.0000000  0.6508444  3
  15533  15531  15553  15537     1  0.0000000  1.6038667  3
  15534  15532  15535  15536     1  0.0000000  0.6508444  3
  15534  15532  15535  15543     1  0.0000000  1.0460000  1
  15534  15532  15535  15543     1  0.0000000  0.0000000  3
  15534  15532  15535  15539     1  0.0000000  0.6508444  3
  15534  15532  15544  15547     1  0.0000000  0.6973333  3
  15534  15532  15531  15545     1  0.0000000  0.6508444  3
  15534  15532  15531  15553     1  0.0000000  1.0460000  1
  15534  15532  15531  15553     1  0.0000000  0.0000000  3
  15535  15536  15537  15540     1  0.0000000  0.6508444  3
  15535  15536  15542  15548     1  0.0000000  1.0460000  1
  15535  15536  15542  15548     1  0.0000000  0.6694400  3
  15535  15532  15544  15547     1  0.0000000  1.0460000  1
  15535  15532  15544  15547     1  0.0000000  0.6694400  3
  15536  15535  15543  15546     1  0.0000000  1.0460000  1
  15536  15535  15543  15546     1  0.0000000  0.6694400  3
  15537  15536  15542  15548     1  0.0000000  1.0460000  1
  15537  15536  15542  15548     1  0.0000000  0.6694400  3
  15537  15536  15535  15539     1  0.0000000  0.6508444  3
  15538  15536  15537  15541     1  0.0000000  1.0460000  1
  15538  15536  15537  15541     1  0.0000000  0.0000000  3
  15538  15536  15537  15553     1  0.0000000  1.0460000  1
  15538  15536  15537  15553     1  0.0000000  0.0000000  3
  15538  15536  15537  15540     1  0.0000000  0.6508444  3
  15538  15536  15542  15548     1  0.0000000  0.6973333  3
  15538  15536  15535  15543     1  0.0000000  1.0460000  1
  15538  15536  15535  15543     1  0.0000000  0.0000000  3
  15538  15536  15535  15539     1  0.0000000  0.6508444  3
  15539  15535  15536  15542     1  0.0000000  1.0460000  1
  15539  15535  15536  15542     1  0.0000000  0.0000000  3
  15539  15535  15543  15546     1  0.0000000  0.6973333  3
  15539  15535  15532  15544     1  0.0000000  1.0460000  1
  15539  15535  15532  15544     1  0.0000000  0.0000000  3
  15540  15537  15536  15542     1  0.0000000  0.6508444  3
  15549  15545  15551  15552     1  0.0000000  0.6973333  3
  15549  15545  15531  15553     1  0.0000000  1.0460000  1
  15549  15545  15531  15553     1  0.0000000  0.0000000  3
  15550  15545  15551  15552     1  0.0000000  0.6973333  3
  15550  15545  15531  15553     1  0.0000000  1.0460000  1
  15550  15545  15531  15553     1  0.0000000  0.0000000  3
  15554  15555  15558  15562     1  0.0000000  0.6508444  3
  15554  15555  15567  15570     1  0.0000000  1.0460000  1
  15554  15555  15567  15570     1  0.0000000  0.6694400  3
  15554  15568  15574  15575     1  0.0000000  1.0460000  1
  15554  15568  15574  15575     1  0.0000000  0.6694400  3
  15554  15576  15560  15563     1  0.0000000  1.6038667  3
  15555  15554  15568  15572     1  0.0000000  0.6508444  3
  15555  15554  15568  15573     1  0.0000000  0.6508444  3
  15555  15558  15559  15561     1  0.0000000  0.6508444  3
  15555  15558  15566  15569     1  0.0000000  1.0460000  1
  15555  15558  15566  15569     1  0.0000000  0.6694400  3
  15556  15554  15555  15558     1  0.0000000  0.6508444  3
  15556  15554  15555  15567     1  0.0000000  1.0460000  1
  15556  15554  15555  15567     1  0.0000000  0.0000000  3
  15556  15554  15555  15557     1  0.0000000  0.6508444  3
  15556  15554  15568  15574     1  0.0000000  1.0460000  1
  15556  15554  15568  15574     1  0.0000000  0.0000000  3
  15556  15554  15568  15572     1  0.0000000  0.6508444  3
  15556  15554  15568  15573     1  0.0000000  0.6508444  3
  15556  15554  15576  15560     1  0.0000000  1.6038667  3
  15557  15555  15554  15568     1  0.0000000  0.6508444  3
  15557  15555  15554  15576     1  0.0000000  1.0460000  1
  15557  15555  15554  15576     1  0.0000000  0.0000000  3
  15557  15555  15558  15559     1  0.0000000  0.6508444  3
  15557  15555  15558  15566     1  0.0000000  1.0460000  1
  15557  15555  15558  15566     1  0.0000000  0.0000000  3
  15557  15555  15558  15562     1  0.0000000  0.6508444  3
  15557  15555  15567  15570     1  0.0000000  0.6973333  3
  15558  15555  15567  15570     1  0.0000000  1.0460000  1
  15558  15555  15567  15570     1  0.0000000  0.6694400  3
  15558  15559  15560  15563     1  0.0000000  0.6508444  3
  15558  15559  15565  15571     1  0.0000000  1.0460000  1
  15558  15559  15565  15571     1  0.0000000  0.6694400  3
  15559  15558  15566  15569     1  0.0000000  1.0460000  1
  15559  15558  15566  15569     1  0.0000000  0.6694400  3
  15560  15559  15558  15562     1  0.0000000  0.6508444  3
  15560  15559  15565  15571     1  0.0000000  1.0460000  1
  15560  15559  15565  15571     1  0.0000000  0.6694400  3
  15561  15559  15558  15566     1  0.0000000  1.0460000  1
  15561  15559  15558  15566     1  0.0000000  0.0000000  3
  15561  15559  15558  15562     1  0.0000000  0.6508444  3
  15561  15559  15560  15564     1  0.0000000  1.0460000  1
  15561  15559  15560  15564     1  0.0000000  0.0000000  3
  15561  15559  15560  15576     1  0.0000000  1.0460000  1
  15561  15559  15560  15576     1  0.0000000  0.0000000  3
  15561  15559  15560  15563     1  0.0000000  0.6508444  3
  15561  15559  15565  15571     1  0.0000000  0.6973333  3
  15562  15558  15555  15567     1  0.0000000  1.0460000  1
  15562  15558  15555  15567     1  0.0000000  0.0000000  3
  15562  15558  15559  15565     1  0.0000000  1.0460000  1
  15562  15558  15559  15565     1  0.0000000  0.0000000  3
  15562  15558  15566  15569     1  0.0000000  0.6973333  3
  15563  15560  15559  15565     1  0.0000000  0.6508444  3
  15572  15568  15554  15576     1  0.0000000  1.0460000  1
  15572  15568  15554  15576     1  0.0000000  0.0000000  3
  15572  15568  15574  15575     1  0.0000000  0.6973333  3
  15573  15568  15554  15576     1  0.0000000  1.0460000  1
  15573  15568  15554  15576     1  0.0000000  0.0000000  3
  15573  15568  15574  15575     1  0.0000000  0.6973333  3
  15577  15578  15581  15585     1  0.0000000  0.6508444  3
  15577  15578  15590  15593     1  0.0000000  1.0460000  1
  15577  15578  15590  15593     1  0.0000000  0.6694400  3
  15577  15591  15597  15598     1  0.0000000  1.0460000  1
  15577  15591  15597  15598     1  0.0000000  0.6694400  3
  15577  15599  15583  15586     1  0.0000000  1.6038667  3
  15578  15581  15582  15584     1  0.0000000  0.6508444  3
  15578  15581  15589  15592     1  0.0000000  1.0460000  1
  15578  15581  15589  15592     1  0.0000000  0.6694400  3
  15578  15577  15591  15595     1  0.0000000  0.6508444  3
  15578  15577  15591  15596     1  0.0000000  0.6508444  3
  15579  15577  15578  15581     1  0.0000000  0.6508444  3
  15579  15577  15578  15590     1  0.0000000  1.0460000  1
  15579  15577  15578  15590     1  0.0000000  0.0000000  3
  15579  15577  15578  15580     1  0.0000000  0.6508444  3
  15579  15577  15591  15597     1  0.0000000  1.0460000  1
  15579  15577  15591  15597     1  0.0000000  0.0000000  3
  15579  15577  15591  15595     1  0.0000000  0.6508444  3
  15579  15577  15591  15596     1  0.0000000  0.6508444  3
  15579  15577  15599  15583     1  0.0000000  1.6038667  3
  15580  15578  15581  15582     1  0.0000000  0.6508444  3
  15580  15578  15581  15589     1  0.0000000  1.0460000  1
  15580  15578  15581  15589     1  0.0000000  0.0000000  3
  15580  15578  15581  15585     1  0.0000000  0.6508444  3
  15580  15578  15590  15593     1  0.0000000  0.6973333  3
  15580  15578  15577  15591     1  0.0000000  0.6508444  3
  15580  15578  15577  15599     1  0.0000000  1.0460000  1
  15580  15578  15577  15599     1  0.0000000  0.0000000  3
  15581  15582  15583  15586     1  0.0000000  0.6508444  3
  15581  15582  15588  15594     1  0.0000000  1.0460000  1
  15581  15582  15588  15594     1  0.0000000  0.6694400  3
  15581  15578  15590  15593     1  0.0000000  1.0460000  1
  15581  15578  15590  15593     1  0.0000000  0.6694400  3
  15582  15581  15589  15592     1  0.0000000  1.0460000  1
  15582  15581  15589  15592     1  0.0000000  0.6694400  3
  15583  15582  15588  15594     1  0.0000000  1.0460000  1
  15583  15582  15588  15594     1  0.0000000  0.6694400  3
  15583  15582  15581  15585     1  0.0000000  0.6508444  3
  15584  15582  15583  15587     1  0.0000000  1.0460000  1
  15584  15582  15583  15587     1  0.0000000  0.0000000  3
  15584  15582  15583  15599     1  0.0000000  1.0460000  1
  15584  15582  15583  15599     1  0.0000000  0.0000000  3
  15584  15582  15583  15586     1  0.0000000  0.6508444  3
  15584  15582  15588  15594     1  0.0000000  0.6973333  3
  15584  15582  15581  15589     1  0.0000000  1.0460000  1
  15584  15582  15581  15589     1  0.0000000  0.0000000  3
  15584  15582  15581  15585     1  0.0000000  0.6508444  3
  15585  15581  15582  15588     1  0.0000000  1.0460000  1
  15585  15581  15582  15588     1  0.0000000  0.0000000  3
  15585  15581  15589  15592     1  0.0000000  0.6973333  3
  15585  15581  15578  15590     1  0.0000000  1.0460000  1
  15585  15581  15578  15590     1  0.0000000  0.0000000  3
  15586  15583  15582  15588     1  0.0000000  0.6508444  3
  15595  15591  15597  15598     1  0.0000000  0.6973333  3
  15595  15591  15577  15599     1  0.0000000  1.0460000  1
  15595  15591  15577  15599     1  0.0000000  0.0000000  3
  15596  15591  15597  15598     1  0.0000000  0.6973333  3
  15596  15591  15577  15599     1  0.0000000  1.0460000  1
  15596  15591  15577  15599     1  0.0000000  0.0000000  3
  15600  15601  15604  15608     1  0.0000000  0.6508444  3
  15600  15601  15613  15616     1  0.0000000  1.0460000  1
  15600  15601  15613  15616     1  0.0000000  0.6694400  3
  15600  15614  15620  15621     1  0.0000000  1.0460000  1
  15600  15614  15620  15621     1  0.0000000  0.6694400  3
  15600  15622  15606  15609     1  0.0000000  1.6038667  3
  15601  15600  15614  15618     1  0.0000000  0.6508444  3
  15601  15600  15614  15619     1  0.0000000  0.6508444  3
  15601  15604  15605  15607     1  0.0000000  0.6508444  3
  15601  15604  15612  15615     1  0.0000000  1.0460000  1
  15601  15604  15612  15615     1  0.0000000  0.6694400  3
  15602  15600  15601  15604     1  0.0000000  0.6508444  3
  15602  15600  15601  15613     1  0.0000000  1.0460000  1
  15602  15600  15601  15613     1  0.0000000  0.0000000  3
  15602  15600  15601  15603     1  0.0000000  0.6508444  3
  15602  15600  15614  15620     1  0.0000000  1.0460000  1
  15602  15600  15614  15620     1  0.0000000  0.0000000  3
  15602  15600  15614  15618     1  0.0000000  0.6508444  3
  15602  15600  15614  15619     1  0.0000000  0.6508444  3
  15602  15600  15622  15606     1  0.0000000  1.6038667  3
  15603  15601  15600  15614     1  0.0000000  0.6508444  3
  15603  15601  15600  15622     1  0.0000000  1.0460000  1
  15603  15601  15600  15622     1  0.0000000  0.0000000  3
  15603  15601  15604  15605     1  0.0000000  0.6508444  3
  15603  15601  15604  15612     1  0.0000000  1.0460000  1
  15603  15601  15604  15612     1  0.0000000  0.0000000  3
  15603  15601  15604  15608     1  0.0000000  0.6508444  3
  15603  15601  15613  15616     1  0.0000000  0.6973333  3
  15604  15601  15613  15616     1  0.0000000  1.0460000  1
  15604  15601  15613  15616     1  0.0000000  0.6694400  3
  15604  15605  15606  15609     1  0.0000000  0.6508444  3
  15604  15605  15611  15617     1  0.0000000  1.0460000  1
  15604  15605  15611  15617     1  0.0000000  0.6694400  3
  15605  15604  15612  15615     1  0.0000000  1.0460000  1
  15605  15604  15612  15615     1  0.0000000  0.6694400  3
  15606  15605  15604  15608     1  0.0000000  0.6508444  3
  15606  15605  15611  15617     1  0.0000000  1.0460000  1
  15606  15605  15611  15617     1  0.0000000  0.6694400  3
  15607  15605  15604  15612     1  0.0000000  1.0460000  1
  15607  15605  15604  15612     1  0.0000000  0.0000000  3
  15607  15605  15604  15608     1  0.0000000  0.6508444  3
  15607  15605  15606  15610     1  0.0000000  1.0460000  1
  15607  15605  15606  15610     1  0.0000000  0.0000000  3
  15607  15605  15606  15622     1  0.0000000  1.0460000  1
  15607  15605  15606  15622     1  0.0000000  0.0000000  3
  15607  15605  15606  15609     1  0.0000000  0.6508444  3
  15607  15605  15611  15617     1  0.0000000  0.6973333  3
  15608  15604  15601  15613     1  0.0000000  1.0460000  1
  15608  15604  15601  15613     1  0.0000000  0.0000000  3
  15608  15604  15605  15611     1  0.0000000  1.0460000  1
  15608  15604  15605  15611     1  0.0000000  0.0000000  3
  15608  15604  15612  15615     1  0.0000000  0.6973333  3
  15609  15606  15605  15611     1  0.0000000  0.6508444  3
  15618  15614  15600  15622     1  0.0000000  1.0460000  1
  15618  15614  15600  15622     1  0.0000000  0.0000000  3
  15618  15614  15620  15621     1  0.0000000  0.6973333  3
  15619  15614  15600  15622     1  0.0000000  1.0460000  1
  15619  15614  15600  15622     1  0.0000000  0.0000000  3
  15619  15614  15620  15621     1  0.0000000  0.6973333  3
  15623  15624  15627  15631     1  0.0000000  0.6508444  3
  15623  15624  15636  15639     1  0.0000000  1.0460000  1
  15623  15624  15636  15639     1  0.0000000  0.6694400  3
  15623  15637  15643  15644     1  0.0000000  1.0460000  1
  15623  15637  15643  15644     1  0.0000000  0.6694400  3
  15623  15645  15629  15632     1  0.0000000  1.6038667  3
  15624  15627  15628  15630     1  0.0000000  0.6508444  3
  15624  15627  15635  15638     1  0.0000000  1.0460000  1
  15624  15627  15635  15638     1  0.0000000  0.6694400  3
  15624  15623  15637  15641     1  0.0000000  0.6508444  3
  15624  15623  15637  15642     1  0.0000000  0.6508444  3
  15625  15623  15624  15627     1  0.0000000  0.6508444  3
  15625  15623  15624  15636     1  0.0000000  1.0460000  1
  15625  15623  15624  15636     1  0.0000000  0.0000000  3
  15625  15623  15624  15626     1  0.0000000  0.6508444  3
  15625  15623  15637  15643     1  0.0000000  1.0460000  1
  15625  15623  15637  15643     1  0.0000000  0.0000000  3
  15625  15623  15637  15641     1  0.0000000  0.6508444  3
  15625  15623  15637  15642     1  0.0000000  0.6508444  3
  15625  15623  15645  15629     1  0.0000000  1.6038667  3
  15626  15624  15627  15628     1  0.0000000  0.6508444  3
  15626  15624  15627  15635     1  0.0000000  1.0460000  1
  15626  15624  15627  15635     1  0.0000000  0.0000000  3
  15626  15624  15627  15631     1  0.0000000  0.6508444  3
  15626  15624  15636  15639     1  0.0000000  0.6973333  3
  15626  15624  15623  15637     1  0.0000000  0.6508444  3
  15626  15624  15623  15645     1  0.0000000  1.0460000  1
  15626  15624  15623  15645     1  0.0000000  0.0000000  3
  15627  15628  15629  15632     1  0.0000000  0.6508444  3
  15627  15628  15634  15640     1  0.0000000  1.0460000  1
  15627  15628  15634  15640     1  0.0000000  0.6694400  3
  15627  15624  15636  15639     1  0.0000000  1.0460000  1
  15627  15624  15636  15639     1  0.0000000  0.6694400  3
  15628  15627  15635  15638     1  0.0000000  1.0460000  1
  15628  15627  15635  15638     1  0.0000000  0.6694400  3
  15629  15628  15634  15640     1  0.0000000  1.0460000  1
  15629  15628  15634  15640     1  0.0000000  0.6694400  3
  15629  15628  15627  15631     1  0.0000000  0.6508444  3
  15630  15628  15629  15633     1  0.0000000  1.0460000  1
  15630  15628  15629  15633     1  0.0000000  0.0000000  3
  15630  15628  15629  15645     1  0.0000000  1.0460000  1
  15630  15628  15629  15645     1  0.0000000  0.0000000  3
  15630  15628  15629  15632     1  0.0000000  0.6508444  3
  15630  15628  15634  15640     1  0.0000000  0.6973333  3
  15630  15628  15627  15635     1  0.0000000  1.0460000  1
  15630  15628  15627  15635     1  0.0000000  0.0000000  3
  15630  15628  15627  15631     1  0.0000000  0.6508444  3
  15631  15627  15628  15634     1  0.0000000  1.0460000  1
  15631  15627  15628  15634     1  0.0000000  0.0000000  3
  15631  15627  15635  15638     1  0.0000000  0.6973333  3
  15631  15627  15624  15636     1  0.0000000  1.0460000  1
  15631  15627  15624  15636     1  0.0000000  0.0000000  3
  15632  15629  15628  15634     1  0.0000000  0.6508444  3
  15641  15637  15643  15644     1  0.0000000  0.6973333  3
  15641  15637  15623  15645     1  0.0000000  1.0460000  1
  15641  15637  15623  15645     1  0.0000000  0.0000000  3
  15642  15637  15643  15644     1  0.0000000  0.6973333  3
  15642  15637  15623  15645     1  0.0000000  1.0460000  1
  15642  15637  15623  15645     1  0.0000000  0.0000000  3
  15646  15647  15650  15654     1  0.0000000  0.6508444  3
  15646  15647  15659  15662     1  0.0000000  1.0460000  1
  15646  15647  15659  15662     1  0.0000000  0.6694400  3
  15646  15660  15666  15667     1  0.0000000  1.0460000  1
  15646  15660  15666  15667     1  0.0000000  0.6694400  3
  15646  15668  15652  15655     1  0.0000000  1.6038667  3
  15647  15646  15660  15664     1  0.0000000  0.6508444  3
  15647  15646  15660  15665     1  0.0000000  0.6508444  3
  15647  15650  15651  15653     1  0.0000000  0.6508444  3
  15647  15650  15658  15661     1  0.0000000  1.0460000  1
  15647  15650  15658  15661     1  0.0000000  0.6694400  3
  15648  15646  15647  15650     1  0.0000000  0.6508444  3
  15648  15646  15647  15659     1  0.0000000  1.0460000  1
  15648  15646  15647  15659     1  0.0000000  0.0000000  3
  15648  15646  15647  15649     1  0.0000000  0.6508444  3
  15648  15646  15660  15666     1  0.0000000  1.0460000  1
  15648  15646  15660  15666     1  0.0000000  0.0000000  3
  15648  15646  15660  15664     1  0.0000000  0.6508444  3
  15648  15646  15660  15665     1  0.0000000  0.6508444  3
  15648  15646  15668  15652     1  0.0000000  1.6038667  3
  15649  15647  15646  15660     1  0.0000000  0.6508444  3
  15649  15647  15646  15668     1  0.0000000  1.0460000  1
  15649  15647  15646  15668     1  0.0000000  0.0000000  3
  15649  15647  15650  15651     1  0.0000000  0.6508444  3
  15649  15647  15650  15658     1  0.0000000  1.0460000  1
  15649  15647  15650  15658     1  0.0000000  0.0000000  3
  15649  15647  15650  15654     1  0.0000000  0.6508444  3
  15649  15647  15659  15662     1  0.0000000  0.6973333  3
  15650  15647  15659  15662     1  0.0000000  1.0460000  1
  15650  15647  15659  15662     1  0.0000000  0.6694400  3
  15650  15651  15652  15655     1  0.0000000  0.6508444  3
  15650  15651  15657  15663     1  0.0000000  1.0460000  1
  15650  15651  15657  15663     1  0.0000000  0.6694400  3
  15651  15650  15658  15661     1  0.0000000  1.0460000  1
  15651  15650  15658  15661     1  0.0000000  0.6694400  3
  15652  15651  15650  15654     1  0.0000000  0.6508444  3
  15652  15651  15657  15663     1  0.0000000  1.0460000  1
  15652  15651  15657  15663     1  0.0000000  0.6694400  3
  15653  15651  15650  15658     1  0.0000000  1.0460000  1
  15653  15651  15650  15658     1  0.0000000  0.0000000  3
  15653  15651  15650  15654     1  0.0000000  0.6508444  3
  15653  15651  15652  15656     1  0.0000000  1.0460000  1
  15653  15651  15652  15656     1  0.0000000  0.0000000  3
  15653  15651  15652  15668     1  0.0000000  1.0460000  1
  15653  15651  15652  15668     1  0.0000000  0.0000000  3
  15653  15651  15652  15655     1  0.0000000  0.6508444  3
  15653  15651  15657  15663     1  0.0000000  0.6973333  3
  15654  15650  15647  15659     1  0.0000000  1.0460000  1
  15654  15650  15647  15659     1  0.0000000  0.0000000  3
  15654  15650  15651  15657     1  0.0000000  1.0460000  1
  15654  15650  15651  15657     1  0.0000000  0.0000000  3
  15654  15650  15658  15661     1  0.0000000  0.6973333  3
  15655  15652  15651  15657     1  0.0000000  0.6508444  3
  15664  15660  15646  15668     1  0.0000000  1.0460000  1
  15664  15660  15646  15668     1  0.0000000  0.0000000  3
  15664  15660  15666  15667     1  0.0000000  0.6973333  3
  15665  15660  15646  15668     1  0.0000000  1.0460000  1
  15665  15660  15646  15668     1  0.0000000  0.0000000  3
  15665  15660  15666  15667     1  0.0000000  0.6973333  3
  15669  15670  15673  15677     1  0.0000000  0.6508444  3
  15669  15670  15682  15685     1  0.0000000  1.0460000  1
  15669  15670  15682  15685     1  0.0000000  0.6694400  3
  15669  15683  15689  15690     1  0.0000000  1.0460000  1
  15669  15683  15689  15690     1  0.0000000  0.6694400  3
  15669  15691  15675  15678     1  0.0000000  1.6038667  3
  15670  15673  15674  15676     1  0.0000000  0.6508444  3
  15670  15673  15681  15684     1  0.0000000  1.0460000  1
  15670  15673  15681  15684     1  0.0000000  0.6694400  3
  15670  15669  15683  15687     1  0.0000000  0.6508444  3
  15670  15669  15683  15688     1  0.0000000  0.6508444  3
  15671  15669  15670  15673     1  0.0000000  0.6508444  3
  15671  15669  15670  15682     1  0.0000000  1.0460000  1
  15671  15669  15670  15682     1  0.0000000  0.0000000  3
  15671  15669  15670  15672     1  0.0000000  0.6508444  3
  15671  15669  15683  15689     1  0.0000000  1.0460000  1
  15671  15669  15683  15689     1  0.0000000  0.0000000  3
  15671  15669  15683  15687     1  0.0000000  0.6508444  3
  15671  15669  15683  15688     1  0.0000000  0.6508444  3
  15671  15669  15691  15675     1  0.0000000  1.6038667  3
  15672  15670  15673  15674     1  0.0000000  0.6508444  3
  15672  15670  15673  15681     1  0.0000000  1.0460000  1
  15672  15670  15673  15681     1  0.0000000  0.0000000  3
  15672  15670  15673  15677     1  0.0000000  0.6508444  3
  15672  15670  15682  15685     1  0.0000000  0.6973333  3
  15672  15670  15669  15683     1  0.0000000  0.6508444  3
  15672  15670  15669  15691     1  0.0000000  1.0460000  1
  15672  15670  15669  15691     1  0.0000000  0.0000000  3
  15673  15674  15675  15678     1  0.0000000  0.6508444  3
  15673  15674  15680  15686     1  0.0000000  1.0460000  1
  15673  15674  15680  15686     1  0.0000000  0.6694400  3
  15673  15670  15682  15685     1  0.0000000  1.0460000  1
  15673  15670  15682  15685     1  0.0000000  0.6694400  3
  15674  15673  15681  15684     1  0.0000000  1.0460000  1
  15674  15673  15681  15684     1  0.0000000  0.6694400  3
  15675  15674  15680  15686     1  0.0000000  1.0460000  1
  15675  15674  15680  15686     1  0.0000000  0.6694400  3
  15675  15674  15673  15677     1  0.0000000  0.6508444  3
  15676  15674  15675  15679     1  0.0000000  1.0460000  1
  15676  15674  15675  15679     1  0.0000000  0.0000000  3
  15676  15674  15675  15691     1  0.0000000  1.0460000  1
  15676  15674  15675  15691     1  0.0000000  0.0000000  3
  15676  15674  15675  15678     1  0.0000000  0.6508444  3
  15676  15674  15680  15686     1  0.0000000  0.6973333  3
  15676  15674  15673  15681     1  0.0000000  1.0460000  1
  15676  15674  15673  15681     1  0.0000000  0.0000000  3
  15676  15674  15673  15677     1  0.0000000  0.6508444  3
  15677  15673  15674  15680     1  0.0000000  1.0460000  1
  15677  15673  15674  15680     1  0.0000000  0.0000000  3
  15677  15673  15681  15684     1  0.0000000  0.6973333  3
  15677  15673  15670  15682     1  0.0000000  1.0460000  1
  15677  15673  15670  15682     1  0.0000000  0.0000000  3
  15678  15675  15674  15680     1  0.0000000  0.6508444  3
  15687  15683  15689  15690     1  0.0000000  0.6973333  3
  15687  15683  15669  15691     1  0.0000000  1.0460000  1
  15687  15683  15669  15691     1  0.0000000  0.0000000  3
  15688  15683  15689  15690     1  0.0000000  0.6973333  3
  15688  15683  15669  15691     1  0.0000000  1.0460000  1
  15688  15683  15669  15691     1  0.0000000  0.0000000  3
  15692  15693  15696  15700     1  0.0000000  0.6508444  3
  15692  15693  15705  15708     1  0.0000000  1.0460000  1
  15692  15693  15705  15708     1  0.0000000  0.6694400  3
  15692  15706  15712  15713     1  0.0000000  1.0460000  1
  15692  15706  15712  15713     1  0.0000000  0.6694400  3
  15692  15714  15698  15701     1  0.0000000  1.6038667  3
  15693  15692  15706  15710     1  0.0000000  0.6508444  3
  15693  15692  15706  15711     1  0.0000000  0.6508444  3
  15693  15696  15697  15699     1  0.0000000  0.6508444  3
  15693  15696  15704  15707     1  0.0000000  1.0460000  1
  15693  15696  15704  15707     1  0.0000000  0.6694400  3
  15694  15692  15693  15696     1  0.0000000  0.6508444  3
  15694  15692  15693  15705     1  0.0000000  1.0460000  1
  15694  15692  15693  15705     1  0.0000000  0.0000000  3
  15694  15692  15693  15695     1  0.0000000  0.6508444  3
  15694  15692  15706  15712     1  0.0000000  1.0460000  1
  15694  15692  15706  15712     1  0.0000000  0.0000000  3
  15694  15692  15706  15710     1  0.0000000  0.6508444  3
  15694  15692  15706  15711     1  0.0000000  0.6508444  3
  15694  15692  15714  15698     1  0.0000000  1.6038667  3
  15695  15693  15692  15706     1  0.0000000  0.6508444  3
  15695  15693  15692  15714     1  0.0000000  1.0460000  1
  15695  15693  15692  15714     1  0.0000000  0.0000000  3
  15695  15693  15696  15697     1  0.0000000  0.6508444  3
  15695  15693  15696  15704     1  0.0000000  1.0460000  1
  15695  15693  15696  15704     1  0.0000000  0.0000000  3
  15695  15693  15696  15700     1  0.0000000  0.6508444  3
  15695  15693  15705  15708     1  0.0000000  0.6973333  3
  15696  15693  15705  15708     1  0.0000000  1.0460000  1
  15696  15693  15705  15708     1  0.0000000  0.6694400  3
  15696  15697  15698  15701     1  0.0000000  0.6508444  3
  15696  15697  15703  15709     1  0.0000000  1.0460000  1
  15696  15697  15703  15709     1  0.0000000  0.6694400  3
  15697  15696  15704  15707     1  0.0000000  1.0460000  1
  15697  15696  15704  15707     1  0.0000000  0.6694400  3
  15698  15697  15696  15700     1  0.0000000  0.6508444  3
  15698  15697  15703  15709     1  0.0000000  1.0460000  1
  15698  15697  15703  15709     1  0.0000000  0.6694400  3
  15699  15697  15696  15704     1  0.0000000  1.0460000  1
  15699  15697  15696  15704     1  0.0000000  0.0000000  3
  15699  15697  15696  15700     1  0.0000000  0.6508444  3
  15699  15697  15698  15702     1  0.0000000  1.0460000  1
  15699  15697  15698  15702     1  0.0000000  0.0000000  3
  15699  15697  15698  15714     1  0.0000000  1.0460000  1
  15699  15697  15698  15714     1  0.0000000  0.0000000  3
  15699  15697  15698  15701     1  0.0000000  0.6508444  3
  15699  15697  15703  15709     1  0.0000000  0.6973333  3
  15700  15696  15693  15705     1  0.0000000  1.0460000  1
  15700  15696  15693  15705     1  0.0000000  0.0000000  3
  15700  15696  15697  15703     1  0.0000000  1.0460000  1
  15700  15696  15697  15703     1  0.0000000  0.0000000  3
  15700  15696  15704  15707     1  0.0000000  0.6973333  3
  15701  15698  15697  15703     1  0.0000000  0.6508444  3
  15710  15706  15692  15714     1  0.0000000  1.0460000  1
  15710  15706  15692  15714     1  0.0000000  0.0000000  3
  15710  15706  15712  15713     1  0.0000000  0.6973333  3
  15711  15706  15692  15714     1  0.0000000  1.0460000  1
  15711  15706  15692  15714     1  0.0000000  0.0000000  3
  15711  15706  15712  15713     1  0.0000000  0.6973333  3
  15715  15716  15719  15723     1  0.0000000  0.6508444  3
  15715  15716  15728  15731     1  0.0000000  1.0460000  1
  15715  15716  15728  15731     1  0.0000000  0.6694400  3
  15715  15729  15735  15736     1  0.0000000  1.0460000  1
  15715  15729  15735  15736     1  0.0000000  0.6694400  3
  15715  15737  15721  15724     1  0.0000000  1.6038667  3
  15716  15719  15720  15722     1  0.0000000  0.6508444  3
  15716  15719  15727  15730     1  0.0000000  1.0460000  1
  15716  15719  15727  15730     1  0.0000000  0.6694400  3
  15716  15715  15729  15733     1  0.0000000  0.6508444  3
  15716  15715  15729  15734     1  0.0000000  0.6508444  3
  15717  15715  15716  15719     1  0.0000000  0.6508444  3
  15717  15715  15716  15728     1  0.0000000  1.0460000  1
  15717  15715  15716  15728     1  0.0000000  0.0000000  3
  15717  15715  15716  15718     1  0.0000000  0.6508444  3
  15717  15715  15729  15735     1  0.0000000  1.0460000  1
  15717  15715  15729  15735     1  0.0000000  0.0000000  3
  15717  15715  15729  15733     1  0.0000000  0.6508444  3
  15717  15715  15729  15734     1  0.0000000  0.6508444  3
  15717  15715  15737  15721     1  0.0000000  1.6038667  3
  15718  15716  15719  15720     1  0.0000000  0.6508444  3
  15718  15716  15719  15727     1  0.0000000  1.0460000  1
  15718  15716  15719  15727     1  0.0000000  0.0000000  3
  15718  15716  15719  15723     1  0.0000000  0.6508444  3
  15718  15716  15728  15731     1  0.0000000  0.6973333  3
  15718  15716  15715  15729     1  0.0000000  0.6508444  3
  15718  15716  15715  15737     1  0.0000000  1.0460000  1
  15718  15716  15715  15737     1  0.0000000  0.0000000  3
  15719  15720  15721  15724     1  0.0000000  0.6508444  3
  15719  15720  15726  15732     1  0.0000000  1.0460000  1
  15719  15720  15726  15732     1  0.0000000  0.6694400  3
  15719  15716  15728  15731     1  0.0000000  1.0460000  1
  15719  15716  15728  15731     1  0.0000000  0.6694400  3
  15720  15719  15727  15730     1  0.0000000  1.0460000  1
  15720  15719  15727  15730     1  0.0000000  0.6694400  3
  15721  15720  15726  15732     1  0.0000000  1.0460000  1
  15721  15720  15726  15732     1  0.0000000  0.6694400  3
  15721  15720  15719  15723     1  0.0000000  0.6508444  3
  15722  15720  15721  15725     1  0.0000000  1.0460000  1
  15722  15720  15721  15725     1  0.0000000  0.0000000  3
  15722  15720  15721  15737     1  0.0000000  1.0460000  1
  15722  15720  15721  15737     1  0.0000000  0.0000000  3
  15722  15720  15721  15724     1  0.0000000  0.6508444  3
  15722  15720  15726  15732     1  0.0000000  0.6973333  3
  15722  15720  15719  15727     1  0.0000000  1.0460000  1
  15722  15720  15719  15727     1  0.0000000  0.0000000  3
  15722  15720  15719  15723     1  0.0000000  0.6508444  3
  15723  15719  15720  15726     1  0.0000000  1.0460000  1
  15723  15719  15720  15726     1  0.0000000  0.0000000  3
  15723  15719  15727  15730     1  0.0000000  0.6973333  3
  15723  15719  15716  15728     1  0.0000000  1.0460000  1
  15723  15719  15716  15728     1  0.0000000  0.0000000  3
  15724  15721  15720  15726     1  0.0000000  0.6508444  3
  15733  15729  15735  15736     1  0.0000000  0.6973333  3
  15733  15729  15715  15737     1  0.0000000  1.0460000  1
  15733  15729  15715  15737     1  0.0000000  0.0000000  3
  15734  15729  15735  15736     1  0.0000000  0.6973333  3
  15734  15729  15715  15737     1  0.0000000  1.0460000  1
  15734  15729  15715  15737     1  0.0000000  0.0000000  3
  15738  15739  15742  15746     1  0.0000000  0.6508444  3
  15738  15739  15751  15754     1  0.0000000  1.0460000  1
  15738  15739  15751  15754     1  0.0000000  0.6694400  3
  15738  15752  15758  15759     1  0.0000000  1.0460000  1
  15738  15752  15758  15759     1  0.0000000  0.6694400  3
  15738  15760  15744  15747     1  0.0000000  1.6038667  3
  15739  15738  15752  15756     1  0.0000000  0.6508444  3
  15739  15738  15752  15757     1  0.0000000  0.6508444  3
  15739  15742  15743  15745     1  0.0000000  0.6508444  3
  15739  15742  15750  15753     1  0.0000000  1.0460000  1
  15739  15742  15750  15753     1  0.0000000  0.6694400  3
  15740  15738  15739  15742     1  0.0000000  0.6508444  3
  15740  15738  15739  15751     1  0.0000000  1.0460000  1
  15740  15738  15739  15751     1  0.0000000  0.0000000  3
  15740  15738  15739  15741     1  0.0000000  0.6508444  3
  15740  15738  15752  15758     1  0.0000000  1.0460000  1
  15740  15738  15752  15758     1  0.0000000  0.0000000  3
  15740  15738  15752  15756     1  0.0000000  0.6508444  3
  15740  15738  15752  15757     1  0.0000000  0.6508444  3
  15740  15738  15760  15744     1  0.0000000  1.6038667  3
  15741  15739  15738  15752     1  0.0000000  0.6508444  3
  15741  15739  15738  15760     1  0.0000000  1.0460000  1
  15741  15739  15738  15760     1  0.0000000  0.0000000  3
  15741  15739  15742  15743     1  0.0000000  0.6508444  3
  15741  15739  15742  15750     1  0.0000000  1.0460000  1
  15741  15739  15742  15750     1  0.0000000  0.0000000  3
  15741  15739  15742  15746     1  0.0000000  0.6508444  3
  15741  15739  15751  15754     1  0.0000000  0.6973333  3
  15742  15739  15751  15754     1  0.0000000  1.0460000  1
  15742  15739  15751  15754     1  0.0000000  0.6694400  3
  15742  15743  15744  15747     1  0.0000000  0.6508444  3
  15742  15743  15749  15755     1  0.0000000  1.0460000  1
  15742  15743  15749  15755     1  0.0000000  0.6694400  3
  15743  15742  15750  15753     1  0.0000000  1.0460000  1
  15743  15742  15750  15753     1  0.0000000  0.6694400  3
  15744  15743  15742  15746     1  0.0000000  0.6508444  3
  15744  15743  15749  15755     1  0.0000000  1.0460000  1
  15744  15743  15749  15755     1  0.0000000  0.6694400  3
  15745  15743  15742  15750     1  0.0000000  1.0460000  1
  15745  15743  15742  15750     1  0.0000000  0.0000000  3
  15745  15743  15742  15746     1  0.0000000  0.6508444  3
  15745  15743  15744  15748     1  0.0000000  1.0460000  1
  15745  15743  15744  15748     1  0.0000000  0.0000000  3
  15745  15743  15744  15760     1  0.0000000  1.0460000  1
  15745  15743  15744  15760     1  0.0000000  0.0000000  3
  15745  15743  15744  15747     1  0.0000000  0.6508444  3
  15745  15743  15749  15755     1  0.0000000  0.6973333  3
  15746  15742  15739  15751     1  0.0000000  1.0460000  1
  15746  15742  15739  15751     1  0.0000000  0.0000000  3
  15746  15742  15743  15749     1  0.0000000  1.0460000  1
  15746  15742  15743  15749     1  0.0000000  0.0000000  3
  15746  15742  15750  15753     1  0.0000000  0.6973333  3
  15747  15744  15743  15749     1  0.0000000  0.6508444  3
  15756  15752  15738  15760     1  0.0000000  1.0460000  1
  15756  15752  15738  15760     1  0.0000000  0.0000000  3
  15756  15752  15758  15759     1  0.0000000  0.6973333  3
  15757  15752  15738  15760     1  0.0000000  1.0460000  1
  15757  15752  15738  15760     1  0.0000000  0.0000000  3
  15757  15752  15758  15759     1  0.0000000  0.6973333  3
  15761  15762  15765  15769     1  0.0000000  0.6508444  3
  15761  15762  15774  15777     1  0.0000000  1.0460000  1
  15761  15762  15774  15777     1  0.0000000  0.6694400  3
  15761  15775  15781  15782     1  0.0000000  1.0460000  1
  15761  15775  15781  15782     1  0.0000000  0.6694400  3
  15761  15783  15767  15770     1  0.0000000  1.6038667  3
  15762  15765  15766  15768     1  0.0000000  0.6508444  3
  15762  15765  15773  15776     1  0.0000000  1.0460000  1
  15762  15765  15773  15776     1  0.0000000  0.6694400  3
  15762  15761  15775  15779     1  0.0000000  0.6508444  3
  15762  15761  15775  15780     1  0.0000000  0.6508444  3
  15763  15761  15762  15765     1  0.0000000  0.6508444  3
  15763  15761  15762  15774     1  0.0000000  1.0460000  1
  15763  15761  15762  15774     1  0.0000000  0.0000000  3
  15763  15761  15762  15764     1  0.0000000  0.6508444  3
  15763  15761  15775  15781     1  0.0000000  1.0460000  1
  15763  15761  15775  15781     1  0.0000000  0.0000000  3
  15763  15761  15775  15779     1  0.0000000  0.6508444  3
  15763  15761  15775  15780     1  0.0000000  0.6508444  3
  15763  15761  15783  15767     1  0.0000000  1.6038667  3
  15764  15762  15765  15766     1  0.0000000  0.6508444  3
  15764  15762  15765  15773     1  0.0000000  1.0460000  1
  15764  15762  15765  15773     1  0.0000000  0.0000000  3
  15764  15762  15765  15769     1  0.0000000  0.6508444  3
  15764  15762  15774  15777     1  0.0000000  0.6973333  3
  15764  15762  15761  15775     1  0.0000000  0.6508444  3
  15764  15762  15761  15783     1  0.0000000  1.0460000  1
  15764  15762  15761  15783     1  0.0000000  0.0000000  3
  15765  15766  15767  15770     1  0.0000000  0.6508444  3
  15765  15766  15772  15778     1  0.0000000  1.0460000  1
  15765  15766  15772  15778     1  0.0000000  0.6694400  3
  15765  15762  15774  15777     1  0.0000000  1.0460000  1
  15765  15762  15774  15777     1  0.0000000  0.6694400  3
  15766  15765  15773  15776     1  0.0000000  1.0460000  1
  15766  15765  15773  15776     1  0.0000000  0.6694400  3
  15767  15766  15772  15778     1  0.0000000  1.0460000  1
  15767  15766  15772  15778     1  0.0000000  0.6694400  3
  15767  15766  15765  15769     1  0.0000000  0.6508444  3
  15768  15766  15767  15771     1  0.0000000  1.0460000  1
  15768  15766  15767  15771     1  0.0000000  0.0000000  3
  15768  15766  15767  15783     1  0.0000000  1.0460000  1
  15768  15766  15767  15783     1  0.0000000  0.0000000  3
  15768  15766  15767  15770     1  0.0000000  0.6508444  3
  15768  15766  15772  15778     1  0.0000000  0.6973333  3
  15768  15766  15765  15773     1  0.0000000  1.0460000  1
  15768  15766  15765  15773     1  0.0000000  0.0000000  3
  15768  15766  15765  15769     1  0.0000000  0.6508444  3
  15769  15765  15766  15772     1  0.0000000  1.0460000  1
  15769  15765  15766  15772     1  0.0000000  0.0000000  3
  15769  15765  15773  15776     1  0.0000000  0.6973333  3
  15769  15765  15762  15774     1  0.0000000  1.0460000  1
  15769  15765  15762  15774     1  0.0000000  0.0000000  3
  15770  15767  15766  15772     1  0.0000000  0.6508444  3
  15779  15775  15781  15782     1  0.0000000  0.6973333  3
  15779  15775  15761  15783     1  0.0000000  1.0460000  1
  15779  15775  15761  15783     1  0.0000000  0.0000000  3
  15780  15775  15781  15782     1  0.0000000  0.6973333  3
  15780  15775  15761  15783     1  0.0000000  1.0460000  1
  15780  15775  15761  15783     1  0.0000000  0.0000000  3
  15784  15785  15788  15792     1  0.0000000  0.6508444  3
  15784  15785  15797  15800     1  0.0000000  1.0460000  1
  15784  15785  15797  15800     1  0.0000000  0.6694400  3
  15784  15798  15804  15805     1  0.0000000  1.0460000  1
  15784  15798  15804  15805     1  0.0000000  0.6694400  3
  15784  15806  15790  15793     1  0.0000000  1.6038667  3
  15785  15784  15798  15802     1  0.0000000  0.6508444  3
  15785  15784  15798  15803     1  0.0000000  0.6508444  3
  15785  15788  15789  15791     1  0.0000000  0.6508444  3
  15785  15788  15796  15799     1  0.0000000  1.0460000  1
  15785  15788  15796  15799     1  0.0000000  0.6694400  3
  15786  15784  15785  15788     1  0.0000000  0.6508444  3
  15786  15784  15785  15797     1  0.0000000  1.0460000  1
  15786  15784  15785  15797     1  0.0000000  0.0000000  3
  15786  15784  15785  15787     1  0.0000000  0.6508444  3
  15786  15784  15798  15804     1  0.0000000  1.0460000  1
  15786  15784  15798  15804     1  0.0000000  0.0000000  3
  15786  15784  15798  15802     1  0.0000000  0.6508444  3
  15786  15784  15798  15803     1  0.0000000  0.6508444  3
  15786  15784  15806  15790     1  0.0000000  1.6038667  3
  15787  15785  15784  15798     1  0.0000000  0.6508444  3
  15787  15785  15784  15806     1  0.0000000  1.0460000  1
  15787  15785  15784  15806     1  0.0000000  0.0000000  3
  15787  15785  15788  15789     1  0.0000000  0.6508444  3
  15787  15785  15788  15796     1  0.0000000  1.0460000  1
  15787  15785  15788  15796     1  0.0000000  0.0000000  3
  15787  15785  15788  15792     1  0.0000000  0.6508444  3
  15787  15785  15797  15800     1  0.0000000  0.6973333  3
  15788  15785  15797  15800     1  0.0000000  1.0460000  1
  15788  15785  15797  15800     1  0.0000000  0.6694400  3
  15788  15789  15790  15793     1  0.0000000  0.6508444  3
  15788  15789  15795  15801     1  0.0000000  1.0460000  1
  15788  15789  15795  15801     1  0.0000000  0.6694400  3
  15789  15788  15796  15799     1  0.0000000  1.0460000  1
  15789  15788  15796  15799     1  0.0000000  0.6694400  3
  15790  15789  15788  15792     1  0.0000000  0.6508444  3
  15790  15789  15795  15801     1  0.0000000  1.0460000  1
  15790  15789  15795  15801     1  0.0000000  0.6694400  3
  15791  15789  15788  15796     1  0.0000000  1.0460000  1
  15791  15789  15788  15796     1  0.0000000  0.0000000  3
  15791  15789  15788  15792     1  0.0000000  0.6508444  3
  15791  15789  15790  15794     1  0.0000000  1.0460000  1
  15791  15789  15790  15794     1  0.0000000  0.0000000  3
  15791  15789  15790  15806     1  0.0000000  1.0460000  1
  15791  15789  15790  15806     1  0.0000000  0.0000000  3
  15791  15789  15790  15793     1  0.0000000  0.6508444  3
  15791  15789  15795  15801     1  0.0000000  0.6973333  3
  15792  15788  15785  15797     1  0.0000000  1.0460000  1
  15792  15788  15785  15797     1  0.0000000  0.0000000  3
  15792  15788  15789  15795     1  0.0000000  1.0460000  1
  15792  15788  15789  15795     1  0.0000000  0.0000000  3
  15792  15788  15796  15799     1  0.0000000  0.6973333  3
  15793  15790  15789  15795     1  0.0000000  0.6508444  3
  15802  15798  15784  15806     1  0.0000000  1.0460000  1
  15802  15798  15784  15806     1  0.0000000  0.0000000  3
  15802  15798  15804  15805     1  0.0000000  0.6973333  3
  15803  15798  15784  15806     1  0.0000000  1.0460000  1
  15803  15798  15784  15806     1  0.0000000  0.0000000  3
  15803  15798  15804  15805     1  0.0000000  0.6973333  3
  15807  15808  15811  15815     1  0.0000000  0.6508444  3
  15807  15808  15820  15823     1  0.0000000  1.0460000  1
  15807  15808  15820  15823     1  0.0000000  0.6694400  3
  15807  15821  15827  15828     1  0.0000000  1.0460000  1
  15807  15821  15827  15828     1  0.0000000  0.6694400  3
  15807  15829  15813  15816     1  0.0000000  1.6038667  3
  15808  15811  15812  15814     1  0.0000000  0.6508444  3
  15808  15811  15819  15822     1  0.0000000  1.0460000  1
  15808  15811  15819  15822     1  0.0000000  0.6694400  3
  15808  15807  15821  15825     1  0.0000000  0.6508444  3
  15808  15807  15821  15826     1  0.0000000  0.6508444  3
  15809  15807  15808  15811     1  0.0000000  0.6508444  3
  15809  15807  15808  15820     1  0.0000000  1.0460000  1
  15809  15807  15808  15820     1  0.0000000  0.0000000  3
  15809  15807  15808  15810     1  0.0000000  0.6508444  3
  15809  15807  15821  15827     1  0.0000000  1.0460000  1
  15809  15807  15821  15827     1  0.0000000  0.0000000  3
  15809  15807  15821  15825     1  0.0000000  0.6508444  3
  15809  15807  15821  15826     1  0.0000000  0.6508444  3
  15809  15807  15829  15813     1  0.0000000  1.6038667  3
  15810  15808  15811  15812     1  0.0000000  0.6508444  3
  15810  15808  15811  15819     1  0.0000000  1.0460000  1
  15810  15808  15811  15819     1  0.0000000  0.0000000  3
  15810  15808  15811  15815     1  0.0000000  0.6508444  3
  15810  15808  15820  15823     1  0.0000000  0.6973333  3
  15810  15808  15807  15821     1  0.0000000  0.6508444  3
  15810  15808  15807  15829     1  0.0000000  1.0460000  1
  15810  15808  15807  15829     1  0.0000000  0.0000000  3
  15811  15812  15813  15816     1  0.0000000  0.6508444  3
  15811  15812  15818  15824     1  0.0000000  1.0460000  1
  15811  15812  15818  15824     1  0.0000000  0.6694400  3
  15811  15808  15820  15823     1  0.0000000  1.0460000  1
  15811  15808  15820  15823     1  0.0000000  0.6694400  3
  15812  15811  15819  15822     1  0.0000000  1.0460000  1
  15812  15811  15819  15822     1  0.0000000  0.6694400  3
  15813  15812  15818  15824     1  0.0000000  1.0460000  1
  15813  15812  15818  15824     1  0.0000000  0.6694400  3
  15813  15812  15811  15815     1  0.0000000  0.6508444  3
  15814  15812  15813  15817     1  0.0000000  1.0460000  1
  15814  15812  15813  15817     1  0.0000000  0.0000000  3
  15814  15812  15813  15829     1  0.0000000  1.0460000  1
  15814  15812  15813  15829     1  0.0000000  0.0000000  3
  15814  15812  15813  15816     1  0.0000000  0.6508444  3
  15814  15812  15818  15824     1  0.0000000  0.6973333  3
  15814  15812  15811  15819     1  0.0000000  1.0460000  1
  15814  15812  15811  15819     1  0.0000000  0.0000000  3
  15814  15812  15811  15815     1  0.0000000  0.6508444  3
  15815  15811  15812  15818     1  0.0000000  1.0460000  1
  15815  15811  15812  15818     1  0.0000000  0.0000000  3
  15815  15811  15819  15822     1  0.0000000  0.6973333  3
  15815  15811  15808  15820     1  0.0000000  1.0460000  1
  15815  15811  15808  15820     1  0.0000000  0.0000000  3
  15816  15813  15812  15818     1  0.0000000  0.6508444  3
  15825  15821  15827  15828     1  0.0000000  0.6973333  3
  15825  15821  15807  15829     1  0.0000000  1.0460000  1
  15825  15821  15807  15829     1  0.0000000  0.0000000  3
  15826  15821  15827  15828     1  0.0000000  0.6973333  3
  15826  15821  15807  15829     1  0.0000000  1.0460000  1
  15826  15821  15807  15829     1  0.0000000  0.0000000  3
  15830  15831  15834  15838     1  0.0000000  0.6508444  3
  15830  15831  15843  15846     1  0.0000000  1.0460000  1
  15830  15831  15843  15846     1  0.0000000  0.6694400  3
  15830  15844  15850  15851     1  0.0000000  1.0460000  1
  15830  15844  15850  15851     1  0.0000000  0.6694400  3
  15830  15852  15836  15839     1  0.0000000  1.6038667  3
  15831  15830  15844  15848     1  0.0000000  0.6508444  3
  15831  15830  15844  15849     1  0.0000000  0.6508444  3
  15831  15834  15835  15837     1  0.0000000  0.6508444  3
  15831  15834  15842  15845     1  0.0000000  1.0460000  1
  15831  15834  15842  15845     1  0.0000000  0.6694400  3
  15832  15830  15831  15834     1  0.0000000  0.6508444  3
  15832  15830  15831  15843     1  0.0000000  1.0460000  1
  15832  15830  15831  15843     1  0.0000000  0.0000000  3
  15832  15830  15831  15833     1  0.0000000  0.6508444  3
  15832  15830  15844  15850     1  0.0000000  1.0460000  1
  15832  15830  15844  15850     1  0.0000000  0.0000000  3
  15832  15830  15844  15848     1  0.0000000  0.6508444  3
  15832  15830  15844  15849     1  0.0000000  0.6508444  3
  15832  15830  15852  15836     1  0.0000000  1.6038667  3
  15833  15831  15830  15844     1  0.0000000  0.6508444  3
  15833  15831  15830  15852     1  0.0000000  1.0460000  1
  15833  15831  15830  15852     1  0.0000000  0.0000000  3
  15833  15831  15834  15835     1  0.0000000  0.6508444  3
  15833  15831  15834  15842     1  0.0000000  1.0460000  1
  15833  15831  15834  15842     1  0.0000000  0.0000000  3
  15833  15831  15834  15838     1  0.0000000  0.6508444  3
  15833  15831  15843  15846     1  0.0000000  0.6973333  3
  15834  15831  15843  15846     1  0.0000000  1.0460000  1
  15834  15831  15843  15846     1  0.0000000  0.6694400  3
  15834  15835  15836  15839     1  0.0000000  0.6508444  3
  15834  15835  15841  15847     1  0.0000000  1.0460000  1
  15834  15835  15841  15847     1  0.0000000  0.6694400  3
  15835  15834  15842  15845     1  0.0000000  1.0460000  1
  15835  15834  15842  15845     1  0.0000000  0.6694400  3
  15836  15835  15834  15838     1  0.0000000  0.6508444  3
  15836  15835  15841  15847     1  0.0000000  1.0460000  1
  15836  15835  15841  15847     1  0.0000000  0.6694400  3
  15837  15835  15834  15842     1  0.0000000  1.0460000  1
  15837  15835  15834  15842     1  0.0000000  0.0000000  3
  15837  15835  15834  15838     1  0.0000000  0.6508444  3
  15837  15835  15836  15840     1  0.0000000  1.0460000  1
  15837  15835  15836  15840     1  0.0000000  0.0000000  3
  15837  15835  15836  15852     1  0.0000000  1.0460000  1
  15837  15835  15836  15852     1  0.0000000  0.0000000  3
  15837  15835  15836  15839     1  0.0000000  0.6508444  3
  15837  15835  15841  15847     1  0.0000000  0.6973333  3
  15838  15834  15831  15843     1  0.0000000  1.0460000  1
  15838  15834  15831  15843     1  0.0000000  0.0000000  3
  15838  15834  15835  15841     1  0.0000000  1.0460000  1
  15838  15834  15835  15841     1  0.0000000  0.0000000  3
  15838  15834  15842  15845     1  0.0000000  0.6973333  3
  15839  15836  15835  15841     1  0.0000000  0.6508444  3
  15848  15844  15830  15852     1  0.0000000  1.0460000  1
  15848  15844  15830  15852     1  0.0000000  0.0000000  3
  15848  15844  15850  15851     1  0.0000000  0.6973333  3
  15849  15844  15830  15852     1  0.0000000  1.0460000  1
  15849  15844  15830  15852     1  0.0000000  0.0000000  3
  15849  15844  15850  15851     1  0.0000000  0.6973333  3
  15853  15854  15857  15861     1  0.0000000  0.6508444  3
  15853  15854  15866  15869     1  0.0000000  1.0460000  1
  15853  15854  15866  15869     1  0.0000000  0.6694400  3
  15853  15867  15873  15874     1  0.0000000  1.0460000  1
  15853  15867  15873  15874     1  0.0000000  0.6694400  3
  15853  15875  15859  15862     1  0.0000000  1.6038667  3
  15854  15857  15858  15860     1  0.0000000  0.6508444  3
  15854  15857  15865  15868     1  0.0000000  1.0460000  1
  15854  15857  15865  15868     1  0.0000000  0.6694400  3
  15854  15853  15867  15871     1  0.0000000  0.6508444  3
  15854  15853  15867  15872     1  0.0000000  0.6508444  3
  15855  15853  15854  15857     1  0.0000000  0.6508444  3
  15855  15853  15854  15866     1  0.0000000  1.0460000  1
  15855  15853  15854  15866     1  0.0000000  0.0000000  3
  15855  15853  15854  15856     1  0.0000000  0.6508444  3
  15855  15853  15867  15873     1  0.0000000  1.0460000  1
  15855  15853  15867  15873     1  0.0000000  0.0000000  3
  15855  15853  15867  15871     1  0.0000000  0.6508444  3
  15855  15853  15867  15872     1  0.0000000  0.6508444  3
  15855  15853  15875  15859     1  0.0000000  1.6038667  3
  15856  15854  15857  15858     1  0.0000000  0.6508444  3
  15856  15854  15857  15865     1  0.0000000  1.0460000  1
  15856  15854  15857  15865     1  0.0000000  0.0000000  3
  15856  15854  15857  15861     1  0.0000000  0.6508444  3
  15856  15854  15866  15869     1  0.0000000  0.6973333  3
  15856  15854  15853  15867     1  0.0000000  0.6508444  3
  15856  15854  15853  15875     1  0.0000000  1.0460000  1
  15856  15854  15853  15875     1  0.0000000  0.0000000  3
  15857  15858  15859  15862     1  0.0000000  0.6508444  3
  15857  15858  15864  15870     1  0.0000000  1.0460000  1
  15857  15858  15864  15870     1  0.0000000  0.6694400  3
  15857  15854  15866  15869     1  0.0000000  1.0460000  1
  15857  15854  15866  15869     1  0.0000000  0.6694400  3
  15858  15857  15865  15868     1  0.0000000  1.0460000  1
  15858  15857  15865  15868     1  0.0000000  0.6694400  3
  15859  15858  15864  15870     1  0.0000000  1.0460000  1
  15859  15858  15864  15870     1  0.0000000  0.6694400  3
  15859  15858  15857  15861     1  0.0000000  0.6508444  3
  15860  15858  15859  15863     1  0.0000000  1.0460000  1
  15860  15858  15859  15863     1  0.0000000  0.0000000  3
  15860  15858  15859  15875     1  0.0000000  1.0460000  1
  15860  15858  15859  15875     1  0.0000000  0.0000000  3
  15860  15858  15859  15862     1  0.0000000  0.6508444  3
  15860  15858  15864  15870     1  0.0000000  0.6973333  3
  15860  15858  15857  15865     1  0.0000000  1.0460000  1
  15860  15858  15857  15865     1  0.0000000  0.0000000  3
  15860  15858  15857  15861     1  0.0000000  0.6508444  3
  15861  15857  15858  15864     1  0.0000000  1.0460000  1
  15861  15857  15858  15864     1  0.0000000  0.0000000  3
  15861  15857  15865  15868     1  0.0000000  0.6973333  3
  15861  15857  15854  15866     1  0.0000000  1.0460000  1
  15861  15857  15854  15866     1  0.0000000  0.0000000  3
  15862  15859  15858  15864     1  0.0000000  0.6508444  3
  15871  15867  15873  15874     1  0.0000000  0.6973333  3
  15871  15867  15853  15875     1  0.0000000  1.0460000  1
  15871  15867  15853  15875     1  0.0000000  0.0000000  3
  15872  15867  15873  15874     1  0.0000000  0.6973333  3
  15872  15867  15853  15875     1  0.0000000  1.0460000  1
  15872  15867  15853  15875     1  0.0000000  0.0000000  3
  15876  15877  15880  15884     1  0.0000000  0.6508444  3
  15876  15877  15889  15892     1  0.0000000  1.0460000  1
  15876  15877  15889  15892     1  0.0000000  0.6694400  3
  15876  15890  15896  15897     1  0.0000000  1.0460000  1
  15876  15890  15896  15897     1  0.0000000  0.6694400  3
  15876  15898  15882  15885     1  0.0000000  1.6038667  3
  15877  15876  15890  15894     1  0.0000000  0.6508444  3
  15877  15876  15890  15895     1  0.0000000  0.6508444  3
  15877  15880  15881  15883     1  0.0000000  0.6508444  3
  15877  15880  15888  15891     1  0.0000000  1.0460000  1
  15877  15880  15888  15891     1  0.0000000  0.6694400  3
  15878  15876  15877  15880     1  0.0000000  0.6508444  3
  15878  15876  15877  15889     1  0.0000000  1.0460000  1
  15878  15876  15877  15889     1  0.0000000  0.0000000  3
  15878  15876  15877  15879     1  0.0000000  0.6508444  3
  15878  15876  15890  15896     1  0.0000000  1.0460000  1
  15878  15876  15890  15896     1  0.0000000  0.0000000  3
  15878  15876  15890  15894     1  0.0000000  0.6508444  3
  15878  15876  15890  15895     1  0.0000000  0.6508444  3
  15878  15876  15898  15882     1  0.0000000  1.6038667  3
  15879  15877  15876  15890     1  0.0000000  0.6508444  3
  15879  15877  15876  15898     1  0.0000000  1.0460000  1
  15879  15877  15876  15898     1  0.0000000  0.0000000  3
  15879  15877  15880  15881     1  0.0000000  0.6508444  3
  15879  15877  15880  15888     1  0.0000000  1.0460000  1
  15879  15877  15880  15888     1  0.0000000  0.0000000  3
  15879  15877  15880  15884     1  0.0000000  0.6508444  3
  15879  15877  15889  15892     1  0.0000000  0.6973333  3
  15880  15877  15889  15892     1  0.0000000  1.0460000  1
  15880  15877  15889  15892     1  0.0000000  0.6694400  3
  15880  15881  15882  15885     1  0.0000000  0.6508444  3
  15880  15881  15887  15893     1  0.0000000  1.0460000  1
  15880  15881  15887  15893     1  0.0000000  0.6694400  3
  15881  15880  15888  15891     1  0.0000000  1.0460000  1
  15881  15880  15888  15891     1  0.0000000  0.6694400  3
  15882  15881  15880  15884     1  0.0000000  0.6508444  3
  15882  15881  15887  15893     1  0.0000000  1.0460000  1
  15882  15881  15887  15893     1  0.0000000  0.6694400  3
  15883  15881  15880  15888     1  0.0000000  1.0460000  1
  15883  15881  15880  15888     1  0.0000000  0.0000000  3
  15883  15881  15880  15884     1  0.0000000  0.6508444  3
  15883  15881  15882  15886     1  0.0000000  1.0460000  1
  15883  15881  15882  15886     1  0.0000000  0.0000000  3
  15883  15881  15882  15898     1  0.0000000  1.0460000  1
  15883  15881  15882  15898     1  0.0000000  0.0000000  3
  15883  15881  15882  15885     1  0.0000000  0.6508444  3
  15883  15881  15887  15893     1  0.0000000  0.6973333  3
  15884  15880  15877  15889     1  0.0000000  1.0460000  1
  15884  15880  15877  15889     1  0.0000000  0.0000000  3
  15884  15880  15881  15887     1  0.0000000  1.0460000  1
  15884  15880  15881  15887     1  0.0000000  0.0000000  3
  15884  15880  15888  15891     1  0.0000000  0.6973333  3
  15885  15882  15881  15887     1  0.0000000  0.6508444  3
  15894  15890  15876  15898     1  0.0000000  1.0460000  1
  15894  15890  15876  15898     1  0.0000000  0.0000000  3
  15894  15890  15896  15897     1  0.0000000  0.6973333  3
  15895  15890  15876  15898     1  0.0000000  1.0460000  1
  15895  15890  15876  15898     1  0.0000000  0.0000000  3
  15895  15890  15896  15897     1  0.0000000  0.6973333  3
  15899  15900  15903  15907     1  0.0000000  0.6508444  3
  15899  15900  15912  15915     1  0.0000000  1.0460000  1
  15899  15900  15912  15915     1  0.0000000  0.6694400  3
  15899  15913  15919  15920     1  0.0000000  1.0460000  1
  15899  15913  15919  15920     1  0.0000000  0.6694400  3
  15899  15921  15905  15908     1  0.0000000  1.6038667  3
  15900  15903  15904  15906     1  0.0000000  0.6508444  3
  15900  15903  15911  15914     1  0.0000000  1.0460000  1
  15900  15903  15911  15914     1  0.0000000  0.6694400  3
  15900  15899  15913  15917     1  0.0000000  0.6508444  3
  15900  15899  15913  15918     1  0.0000000  0.6508444  3
  15901  15899  15900  15903     1  0.0000000  0.6508444  3
  15901  15899  15900  15912     1  0.0000000  1.0460000  1
  15901  15899  15900  15912     1  0.0000000  0.0000000  3
  15901  15899  15900  15902     1  0.0000000  0.6508444  3
  15901  15899  15913  15919     1  0.0000000  1.0460000  1
  15901  15899  15913  15919     1  0.0000000  0.0000000  3
  15901  15899  15913  15917     1  0.0000000  0.6508444  3
  15901  15899  15913  15918     1  0.0000000  0.6508444  3
  15901  15899  15921  15905     1  0.0000000  1.6038667  3
  15902  15900  15903  15904     1  0.0000000  0.6508444  3
  15902  15900  15903  15911     1  0.0000000  1.0460000  1
  15902  15900  15903  15911     1  0.0000000  0.0000000  3
  15902  15900  15903  15907     1  0.0000000  0.6508444  3
  15902  15900  15912  15915     1  0.0000000  0.6973333  3
  15902  15900  15899  15913     1  0.0000000  0.6508444  3
  15902  15900  15899  15921     1  0.0000000  1.0460000  1
  15902  15900  15899  15921     1  0.0000000  0.0000000  3
  15903  15904  15905  15908     1  0.0000000  0.6508444  3
  15903  15904  15910  15916     1  0.0000000  1.0460000  1
  15903  15904  15910  15916     1  0.0000000  0.6694400  3
  15903  15900  15912  15915     1  0.0000000  1.0460000  1
  15903  15900  15912  15915     1  0.0000000  0.6694400  3
  15904  15903  15911  15914     1  0.0000000  1.0460000  1
  15904  15903  15911  15914     1  0.0000000  0.6694400  3
  15905  15904  15910  15916     1  0.0000000  1.0460000  1
  15905  15904  15910  15916     1  0.0000000  0.6694400  3
  15905  15904  15903  15907     1  0.0000000  0.6508444  3
  15906  15904  15905  15909     1  0.0000000  1.0460000  1
  15906  15904  15905  15909     1  0.0000000  0.0000000  3
  15906  15904  15905  15921     1  0.0000000  1.0460000  1
  15906  15904  15905  15921     1  0.0000000  0.0000000  3
  15906  15904  15905  15908     1  0.0000000  0.6508444  3
  15906  15904  15910  15916     1  0.0000000  0.6973333  3
  15906  15904  15903  15911     1  0.0000000  1.0460000  1
  15906  15904  15903  15911     1  0.0000000  0.0000000  3
  15906  15904  15903  15907     1  0.0000000  0.6508444  3
  15907  15903  15904  15910     1  0.0000000  1.0460000  1
  15907  15903  15904  15910     1  0.0000000  0.0000000  3
  15907  15903  15911  15914     1  0.0000000  0.6973333  3
  15907  15903  15900  15912     1  0.0000000  1.0460000  1
  15907  15903  15900  15912     1  0.0000000  0.0000000  3
  15908  15905  15904  15910     1  0.0000000  0.6508444  3
  15917  15913  15919  15920     1  0.0000000  0.6973333  3
  15917  15913  15899  15921     1  0.0000000  1.0460000  1
  15917  15913  15899  15921     1  0.0000000  0.0000000  3
  15918  15913  15919  15920     1  0.0000000  0.6973333  3
  15918  15913  15899  15921     1  0.0000000  1.0460000  1
  15918  15913  15899  15921     1  0.0000000  0.0000000  3
  15922  15923  15926  15930     1  0.0000000  0.6508444  3
  15922  15923  15935  15938     1  0.0000000  1.0460000  1
  15922  15923  15935  15938     1  0.0000000  0.6694400  3
  15922  15936  15942  15943     1  0.0000000  1.0460000  1
  15922  15936  15942  15943     1  0.0000000  0.6694400  3
  15922  15944  15928  15931     1  0.0000000  1.6038667  3
  15923  15922  15936  15940     1  0.0000000  0.6508444  3
  15923  15922  15936  15941     1  0.0000000  0.6508444  3
  15923  15926  15927  15929     1  0.0000000  0.6508444  3
  15923  15926  15934  15937     1  0.0000000  1.0460000  1
  15923  15926  15934  15937     1  0.0000000  0.6694400  3
  15924  15922  15923  15926     1  0.0000000  0.6508444  3
  15924  15922  15923  15935     1  0.0000000  1.0460000  1
  15924  15922  15923  15935     1  0.0000000  0.0000000  3
  15924  15922  15923  15925     1  0.0000000  0.6508444  3
  15924  15922  15936  15942     1  0.0000000  1.0460000  1
  15924  15922  15936  15942     1  0.0000000  0.0000000  3
  15924  15922  15936  15940     1  0.0000000  0.6508444  3
  15924  15922  15936  15941     1  0.0000000  0.6508444  3
  15924  15922  15944  15928     1  0.0000000  1.6038667  3
  15925  15923  15922  15936     1  0.0000000  0.6508444  3
  15925  15923  15922  15944     1  0.0000000  1.0460000  1
  15925  15923  15922  15944     1  0.0000000  0.0000000  3
  15925  15923  15926  15927     1  0.0000000  0.6508444  3
  15925  15923  15926  15934     1  0.0000000  1.0460000  1
  15925  15923  15926  15934     1  0.0000000  0.0000000  3
  15925  15923  15926  15930     1  0.0000000  0.6508444  3
  15925  15923  15935  15938     1  0.0000000  0.6973333  3
  15926  15923  15935  15938     1  0.0000000  1.0460000  1
  15926  15923  15935  15938     1  0.0000000  0.6694400  3
  15926  15927  15928  15931     1  0.0000000  0.6508444  3
  15926  15927  15933  15939     1  0.0000000  1.0460000  1
  15926  15927  15933  15939     1  0.0000000  0.6694400  3
  15927  15926  15934  15937     1  0.0000000  1.0460000  1
  15927  15926  15934  15937     1  0.0000000  0.6694400  3
  15928  15927  15926  15930     1  0.0000000  0.6508444  3
  15928  15927  15933  15939     1  0.0000000  1.0460000  1
  15928  15927  15933  15939     1  0.0000000  0.6694400  3
  15929  15927  15926  15934     1  0.0000000  1.0460000  1
  15929  15927  15926  15934     1  0.0000000  0.0000000  3
  15929  15927  15926  15930     1  0.0000000  0.6508444  3
  15929  15927  15928  15932     1  0.0000000  1.0460000  1
  15929  15927  15928  15932     1  0.0000000  0.0000000  3
  15929  15927  15928  15944     1  0.0000000  1.0460000  1
  15929  15927  15928  15944     1  0.0000000  0.0000000  3
  15929  15927  15928  15931     1  0.0000000  0.6508444  3
  15929  15927  15933  15939     1  0.0000000  0.6973333  3
  15930  15926  15923  15935     1  0.0000000  1.0460000  1
  15930  15926  15923  15935     1  0.0000000  0.0000000  3
  15930  15926  15927  15933     1  0.0000000  1.0460000  1
  15930  15926  15927  15933     1  0.0000000  0.0000000  3
  15930  15926  15934  15937     1  0.0000000  0.6973333  3
  15931  15928  15927  15933     1  0.0000000  0.6508444  3
  15940  15936  15922  15944     1  0.0000000  1.0460000  1
  15940  15936  15922  15944     1  0.0000000  0.0000000  3
  15940  15936  15942  15943     1  0.0000000  0.6973333  3
  15941  15936  15922  15944     1  0.0000000  1.0460000  1
  15941  15936  15922  15944     1  0.0000000  0.0000000  3
  15941  15936  15942  15943     1  0.0000000  0.6973333  3
  15945  15946  15949  15953     1  0.0000000  0.6508444  3
  15945  15946  15958  15961     1  0.0000000  1.0460000  1
  15945  15946  15958  15961     1  0.0000000  0.6694400  3
  15945  15959  15965  15966     1  0.0000000  1.0460000  1
  15945  15959  15965  15966     1  0.0000000  0.6694400  3
  15945  15967  15951  15954     1  0.0000000  1.6038667  3
  15946  15949  15950  15952     1  0.0000000  0.6508444  3
  15946  15949  15957  15960     1  0.0000000  1.0460000  1
  15946  15949  15957  15960     1  0.0000000  0.6694400  3
  15946  15945  15959  15963     1  0.0000000  0.6508444  3
  15946  15945  15959  15964     1  0.0000000  0.6508444  3
  15947  15945  15946  15949     1  0.0000000  0.6508444  3
  15947  15945  15946  15958     1  0.0000000  1.0460000  1
  15947  15945  15946  15958     1  0.0000000  0.0000000  3
  15947  15945  15946  15948     1  0.0000000  0.6508444  3
  15947  15945  15959  15965     1  0.0000000  1.0460000  1
  15947  15945  15959  15965     1  0.0000000  0.0000000  3
  15947  15945  15959  15963     1  0.0000000  0.6508444  3
  15947  15945  15959  15964     1  0.0000000  0.6508444  3
  15947  15945  15967  15951     1  0.0000000  1.6038667  3
  15948  15946  15949  15950     1  0.0000000  0.6508444  3
  15948  15946  15949  15957     1  0.0000000  1.0460000  1
  15948  15946  15949  15957     1  0.0000000  0.0000000  3
  15948  15946  15949  15953     1  0.0000000  0.6508444  3
  15948  15946  15958  15961     1  0.0000000  0.6973333  3
  15948  15946  15945  15959     1  0.0000000  0.6508444  3
  15948  15946  15945  15967     1  0.0000000  1.0460000  1
  15948  15946  15945  15967     1  0.0000000  0.0000000  3
  15949  15950  15951  15954     1  0.0000000  0.6508444  3
  15949  15950  15956  15962     1  0.0000000  1.0460000  1
  15949  15950  15956  15962     1  0.0000000  0.6694400  3
  15949  15946  15958  15961     1  0.0000000  1.0460000  1
  15949  15946  15958  15961     1  0.0000000  0.6694400  3
  15950  15949  15957  15960     1  0.0000000  1.0460000  1
  15950  15949  15957  15960     1  0.0000000  0.6694400  3
  15951  15950  15956  15962     1  0.0000000  1.0460000  1
  15951  15950  15956  15962     1  0.0000000  0.6694400  3
  15951  15950  15949  15953     1  0.0000000  0.6508444  3
  15952  15950  15951  15955     1  0.0000000  1.0460000  1
  15952  15950  15951  15955     1  0.0000000  0.0000000  3
  15952  15950  15951  15967     1  0.0000000  1.0460000  1
  15952  15950  15951  15967     1  0.0000000  0.0000000  3
  15952  15950  15951  15954     1  0.0000000  0.6508444  3
  15952  15950  15956  15962     1  0.0000000  0.6973333  3
  15952  15950  15949  15957     1  0.0000000  1.0460000  1
  15952  15950  15949  15957     1  0.0000000  0.0000000  3
  15952  15950  15949  15953     1  0.0000000  0.6508444  3
  15953  15949  15950  15956     1  0.0000000  1.0460000  1
  15953  15949  15950  15956     1  0.0000000  0.0000000  3
  15953  15949  15957  15960     1  0.0000000  0.6973333  3
  15953  15949  15946  15958     1  0.0000000  1.0460000  1
  15953  15949  15946  15958     1  0.0000000  0.0000000  3
  15954  15951  15950  15956     1  0.0000000  0.6508444  3
  15963  15959  15965  15966     1  0.0000000  0.6973333  3
  15963  15959  15945  15967     1  0.0000000  1.0460000  1
  15963  15959  15945  15967     1  0.0000000  0.0000000  3
  15964  15959  15965  15966     1  0.0000000  0.6973333  3
  15964  15959  15945  15967     1  0.0000000  1.0460000  1
  15964  15959  15945  15967     1  0.0000000  0.0000000  3
  15968  15969  15972  15976     1  0.0000000  0.6508444  3
  15968  15969  15981  15984     1  0.0000000  1.0460000  1
  15968  15969  15981  15984     1  0.0000000  0.6694400  3
  15968  15982  15988  15989     1  0.0000000  1.0460000  1
  15968  15982  15988  15989     1  0.0000000  0.6694400  3
  15968  15990  15974  15977     1  0.0000000  1.6038667  3
  15969  15968  15982  15986     1  0.0000000  0.6508444  3
  15969  15968  15982  15987     1  0.0000000  0.6508444  3
  15969  15972  15973  15975     1  0.0000000  0.6508444  3
  15969  15972  15980  15983     1  0.0000000  1.0460000  1
  15969  15972  15980  15983     1  0.0000000  0.6694400  3
  15970  15968  15969  15972     1  0.0000000  0.6508444  3
  15970  15968  15969  15981     1  0.0000000  1.0460000  1
  15970  15968  15969  15981     1  0.0000000  0.0000000  3
  15970  15968  15969  15971     1  0.0000000  0.6508444  3
  15970  15968  15982  15988     1  0.0000000  1.0460000  1
  15970  15968  15982  15988     1  0.0000000  0.0000000  3
  15970  15968  15982  15986     1  0.0000000  0.6508444  3
  15970  15968  15982  15987     1  0.0000000  0.6508444  3
  15970  15968  15990  15974     1  0.0000000  1.6038667  3
  15971  15969  15968  15982     1  0.0000000  0.6508444  3
  15971  15969  15968  15990     1  0.0000000  1.0460000  1
  15971  15969  15968  15990     1  0.0000000  0.0000000  3
  15971  15969  15972  15973     1  0.0000000  0.6508444  3
  15971  15969  15972  15980     1  0.0000000  1.0460000  1
  15971  15969  15972  15980     1  0.0000000  0.0000000  3
  15971  15969  15972  15976     1  0.0000000  0.6508444  3
  15971  15969  15981  15984     1  0.0000000  0.6973333  3
  15972  15969  15981  15984     1  0.0000000  1.0460000  1
  15972  15969  15981  15984     1  0.0000000  0.6694400  3
  15972  15973  15974  15977     1  0.0000000  0.6508444  3
  15972  15973  15979  15985     1  0.0000000  1.0460000  1
  15972  15973  15979  15985     1  0.0000000  0.6694400  3
  15973  15972  15980  15983     1  0.0000000  1.0460000  1
  15973  15972  15980  15983     1  0.0000000  0.6694400  3
  15974  15973  15972  15976     1  0.0000000  0.6508444  3
  15974  15973  15979  15985     1  0.0000000  1.0460000  1
  15974  15973  15979  15985     1  0.0000000  0.6694400  3
  15975  15973  15972  15980     1  0.0000000  1.0460000  1
  15975  15973  15972  15980     1  0.0000000  0.0000000  3
  15975  15973  15972  15976     1  0.0000000  0.6508444  3
  15975  15973  15974  15978     1  0.0000000  1.0460000  1
  15975  15973  15974  15978     1  0.0000000  0.0000000  3
  15975  15973  15974  15990     1  0.0000000  1.0460000  1
  15975  15973  15974  15990     1  0.0000000  0.0000000  3
  15975  15973  15974  15977     1  0.0000000  0.6508444  3
  15975  15973  15979  15985     1  0.0000000  0.6973333  3
  15976  15972  15969  15981     1  0.0000000  1.0460000  1
  15976  15972  15969  15981     1  0.0000000  0.0000000  3
  15976  15972  15973  15979     1  0.0000000  1.0460000  1
  15976  15972  15973  15979     1  0.0000000  0.0000000  3
  15976  15972  15980  15983     1  0.0000000  0.6973333  3
  15977  15974  15973  15979     1  0.0000000  0.6508444  3
  15986  15982  15968  15990     1  0.0000000  1.0460000  1
  15986  15982  15968  15990     1  0.0000000  0.0000000  3
  15986  15982  15988  15989     1  0.0000000  0.6973333  3
  15987  15982  15968  15990     1  0.0000000  1.0460000  1
  15987  15982  15968  15990     1  0.0000000  0.0000000  3
  15987  15982  15988  15989     1  0.0000000  0.6973333  3
  15991  15992  15995  15999     1  0.0000000  0.6508444  3
  15991  15992  16004  16007     1  0.0000000  1.0460000  1
  15991  15992  16004  16007     1  0.0000000  0.6694400  3
  15991  16005  16011  16012     1  0.0000000  1.0460000  1
  15991  16005  16011  16012     1  0.0000000  0.6694400  3
  15991  16013  15997  16000     1  0.0000000  1.6038667  3
  15992  15995  15996  15998     1  0.0000000  0.6508444  3
  15992  15995  16003  16006     1  0.0000000  1.0460000  1
  15992  15995  16003  16006     1  0.0000000  0.6694400  3
  15992  15991  16005  16009     1  0.0000000  0.6508444  3
  15992  15991  16005  16010     1  0.0000000  0.6508444  3
  15993  15991  15992  15995     1  0.0000000  0.6508444  3
  15993  15991  15992  16004     1  0.0000000  1.0460000  1
  15993  15991  15992  16004     1  0.0000000  0.0000000  3
  15993  15991  15992  15994     1  0.0000000  0.6508444  3
  15993  15991  16005  16011     1  0.0000000  1.0460000  1
  15993  15991  16005  16011     1  0.0000000  0.0000000  3
  15993  15991  16005  16009     1  0.0000000  0.6508444  3
  15993  15991  16005  16010     1  0.0000000  0.6508444  3
  15993  15991  16013  15997     1  0.0000000  1.6038667  3
  15994  15992  15995  15996     1  0.0000000  0.6508444  3
  15994  15992  15995  16003     1  0.0000000  1.0460000  1
  15994  15992  15995  16003     1  0.0000000  0.0000000  3
  15994  15992  15995  15999     1  0.0000000  0.6508444  3
  15994  15992  16004  16007     1  0.0000000  0.6973333  3
  15994  15992  15991  16005     1  0.0000000  0.6508444  3
  15994  15992  15991  16013     1  0.0000000  1.0460000  1
  15994  15992  15991  16013     1  0.0000000  0.0000000  3
  15995  15996  15997  16000     1  0.0000000  0.6508444  3
  15995  15996  16002  16008     1  0.0000000  1.0460000  1
  15995  15996  16002  16008     1  0.0000000  0.6694400  3
  15995  15992  16004  16007     1  0.0000000  1.0460000  1
  15995  15992  16004  16007     1  0.0000000  0.6694400  3
  15996  15995  16003  16006     1  0.0000000  1.0460000  1
  15996  15995  16003  16006     1  0.0000000  0.6694400  3
  15997  15996  16002  16008     1  0.0000000  1.0460000  1
  15997  15996  16002  16008     1  0.0000000  0.6694400  3
  15997  15996  15995  15999     1  0.0000000  0.6508444  3
  15998  15996  15997  16001     1  0.0000000  1.0460000  1
  15998  15996  15997  16001     1  0.0000000  0.0000000  3
  15998  15996  15997  16013     1  0.0000000  1.0460000  1
  15998  15996  15997  16013     1  0.0000000  0.0000000  3
  15998  15996  15997  16000     1  0.0000000  0.6508444  3
  15998  15996  16002  16008     1  0.0000000  0.6973333  3
  15998  15996  15995  16003     1  0.0000000  1.0460000  1
  15998  15996  15995  16003     1  0.0000000  0.0000000  3
  15998  15996  15995  15999     1  0.0000000  0.6508444  3
  15999  15995  15996  16002     1  0.0000000  1.0460000  1
  15999  15995  15996  16002     1  0.0000000  0.0000000  3
  15999  15995  16003  16006     1  0.0000000  0.6973333  3
  15999  15995  15992  16004     1  0.0000000  1.0460000  1
  15999  15995  15992  16004     1  0.0000000  0.0000000  3
  16000  15997  15996  16002     1  0.0000000  0.6508444  3
  16009  16005  16011  16012     1  0.0000000  0.6973333  3
  16009  16005  15991  16013     1  0.0000000  1.0460000  1
  16009  16005  15991  16013     1  0.0000000  0.0000000  3
  16010  16005  16011  16012     1  0.0000000  0.6973333  3
  16010  16005  15991  16013     1  0.0000000  1.0460000  1
  16010  16005  15991  16013     1  0.0000000  0.0000000  3
  16014  16015  16018  16022     1  0.0000000  0.6508444  3
  16014  16015  16027  16030     1  0.0000000  1.0460000  1
  16014  16015  16027  16030     1  0.0000000  0.6694400  3
  16014  16028  16034  16035     1  0.0000000  1.0460000  1
  16014  16028  16034  16035     1  0.0000000  0.6694400  3
  16014  16036  16020  16023     1  0.0000000  1.6038667  3
  16015  16014  16028  16032     1  0.0000000  0.6508444  3
  16015  16014  16028  16033     1  0.0000000  0.6508444  3
  16015  16018  16019  16021     1  0.0000000  0.6508444  3
  16015  16018  16026  16029     1  0.0000000  1.0460000  1
  16015  16018  16026  16029     1  0.0000000  0.6694400  3
  16016  16014  16015  16018     1  0.0000000  0.6508444  3
  16016  16014  16015  16027     1  0.0000000  1.0460000  1
  16016  16014  16015  16027     1  0.0000000  0.0000000  3
  16016  16014  16015  16017     1  0.0000000  0.6508444  3
  16016  16014  16028  16034     1  0.0000000  1.0460000  1
  16016  16014  16028  16034     1  0.0000000  0.0000000  3
  16016  16014  16028  16032     1  0.0000000  0.6508444  3
  16016  16014  16028  16033     1  0.0000000  0.6508444  3
  16016  16014  16036  16020     1  0.0000000  1.6038667  3
  16017  16015  16014  16028     1  0.0000000  0.6508444  3
  16017  16015  16014  16036     1  0.0000000  1.0460000  1
  16017  16015  16014  16036     1  0.0000000  0.0000000  3
  16017  16015  16018  16019     1  0.0000000  0.6508444  3
  16017  16015  16018  16026     1  0.0000000  1.0460000  1
  16017  16015  16018  16026     1  0.0000000  0.0000000  3
  16017  16015  16018  16022     1  0.0000000  0.6508444  3
  16017  16015  16027  16030     1  0.0000000  0.6973333  3
  16018  16015  16027  16030     1  0.0000000  1.0460000  1
  16018  16015  16027  16030     1  0.0000000  0.6694400  3
  16018  16019  16020  16023     1  0.0000000  0.6508444  3
  16018  16019  16025  16031     1  0.0000000  1.0460000  1
  16018  16019  16025  16031     1  0.0000000  0.6694400  3
  16019  16018  16026  16029     1  0.0000000  1.0460000  1
  16019  16018  16026  16029     1  0.0000000  0.6694400  3
  16020  16019  16018  16022     1  0.0000000  0.6508444  3
  16020  16019  16025  16031     1  0.0000000  1.0460000  1
  16020  16019  16025  16031     1  0.0000000  0.6694400  3
  16021  16019  16018  16026     1  0.0000000  1.0460000  1
  16021  16019  16018  16026     1  0.0000000  0.0000000  3
  16021  16019  16018  16022     1  0.0000000  0.6508444  3
  16021  16019  16020  16024     1  0.0000000  1.0460000  1
  16021  16019  16020  16024     1  0.0000000  0.0000000  3
  16021  16019  16020  16036     1  0.0000000  1.0460000  1
  16021  16019  16020  16036     1  0.0000000  0.0000000  3
  16021  16019  16020  16023     1  0.0000000  0.6508444  3
  16021  16019  16025  16031     1  0.0000000  0.6973333  3
  16022  16018  16015  16027     1  0.0000000  1.0460000  1
  16022  16018  16015  16027     1  0.0000000  0.0000000  3
  16022  16018  16019  16025     1  0.0000000  1.0460000  1
  16022  16018  16019  16025     1  0.0000000  0.0000000  3
  16022  16018  16026  16029     1  0.0000000  0.6973333  3
  16023  16020  16019  16025     1  0.0000000  0.6508444  3
  16032  16028  16014  16036     1  0.0000000  1.0460000  1
  16032  16028  16014  16036     1  0.0000000  0.0000000  3
  16032  16028  16034  16035     1  0.0000000  0.6973333  3
  16033  16028  16014  16036     1  0.0000000  1.0460000  1
  16033  16028  16014  16036     1  0.0000000  0.0000000  3
  16033  16028  16034  16035     1  0.0000000  0.6973333  3
  16037  16038  16041  16045     1  0.0000000  0.6508444  3
  16037  16038  16050  16053     1  0.0000000  1.0460000  1
  16037  16038  16050  16053     1  0.0000000  0.6694400  3
  16037  16051  16057  16058     1  0.0000000  1.0460000  1
  16037  16051  16057  16058     1  0.0000000  0.6694400  3
  16037  16059  16043  16046     1  0.0000000  1.6038667  3
  16038  16041  16042  16044     1  0.0000000  0.6508444  3
  16038  16041  16049  16052     1  0.0000000  1.0460000  1
  16038  16041  16049  16052     1  0.0000000  0.6694400  3
  16038  16037  16051  16055     1  0.0000000  0.6508444  3
  16038  16037  16051  16056     1  0.0000000  0.6508444  3
  16039  16037  16038  16041     1  0.0000000  0.6508444  3
  16039  16037  16038  16050     1  0.0000000  1.0460000  1
  16039  16037  16038  16050     1  0.0000000  0.0000000  3
  16039  16037  16038  16040     1  0.0000000  0.6508444  3
  16039  16037  16051  16057     1  0.0000000  1.0460000  1
  16039  16037  16051  16057     1  0.0000000  0.0000000  3
  16039  16037  16051  16055     1  0.0000000  0.6508444  3
  16039  16037  16051  16056     1  0.0000000  0.6508444  3
  16039  16037  16059  16043     1  0.0000000  1.6038667  3
  16040  16038  16041  16042     1  0.0000000  0.6508444  3
  16040  16038  16041  16049     1  0.0000000  1.0460000  1
  16040  16038  16041  16049     1  0.0000000  0.0000000  3
  16040  16038  16041  16045     1  0.0000000  0.6508444  3
  16040  16038  16050  16053     1  0.0000000  0.6973333  3
  16040  16038  16037  16051     1  0.0000000  0.6508444  3
  16040  16038  16037  16059     1  0.0000000  1.0460000  1
  16040  16038  16037  16059     1  0.0000000  0.0000000  3
  16041  16042  16043  16046     1  0.0000000  0.6508444  3
  16041  16042  16048  16054     1  0.0000000  1.0460000  1
  16041  16042  16048  16054     1  0.0000000  0.6694400  3
  16041  16038  16050  16053     1  0.0000000  1.0460000  1
  16041  16038  16050  16053     1  0.0000000  0.6694400  3
  16042  16041  16049  16052     1  0.0000000  1.0460000  1
  16042  16041  16049  16052     1  0.0000000  0.6694400  3
  16043  16042  16048  16054     1  0.0000000  1.0460000  1
  16043  16042  16048  16054     1  0.0000000  0.6694400  3
  16043  16042  16041  16045     1  0.0000000  0.6508444  3
  16044  16042  16043  16047     1  0.0000000  1.0460000  1
  16044  16042  16043  16047     1  0.0000000  0.0000000  3
  16044  16042  16043  16059     1  0.0000000  1.0460000  1
  16044  16042  16043  16059     1  0.0000000  0.0000000  3
  16044  16042  16043  16046     1  0.0000000  0.6508444  3
  16044  16042  16048  16054     1  0.0000000  0.6973333  3
  16044  16042  16041  16049     1  0.0000000  1.0460000  1
  16044  16042  16041  16049     1  0.0000000  0.0000000  3
  16044  16042  16041  16045     1  0.0000000  0.6508444  3
  16045  16041  16042  16048     1  0.0000000  1.0460000  1
  16045  16041  16042  16048     1  0.0000000  0.0000000  3
  16045  16041  16049  16052     1  0.0000000  0.6973333  3
  16045  16041  16038  16050     1  0.0000000  1.0460000  1
  16045  16041  16038  16050     1  0.0000000  0.0000000  3
  16046  16043  16042  16048     1  0.0000000  0.6508444  3
  16055  16051  16057  16058     1  0.0000000  0.6973333  3
  16055  16051  16037  16059     1  0.0000000  1.0460000  1
  16055  16051  16037  16059     1  0.0000000  0.0000000  3
  16056  16051  16057  16058     1  0.0000000  0.6973333  3
  16056  16051  16037  16059     1  0.0000000  1.0460000  1
  16056  16051  16037  16059     1  0.0000000  0.0000000  3
  16060  16061  16064  16068     1  0.0000000  0.6508444  3
  16060  16061  16073  16076     1  0.0000000  1.0460000  1
  16060  16061  16073  16076     1  0.0000000  0.6694400  3
  16060  16074  16080  16081     1  0.0000000  1.0460000  1
  16060  16074  16080  16081     1  0.0000000  0.6694400  3
  16060  16082  16066  16069     1  0.0000000  1.6038667  3
  16061  16060  16074  16078     1  0.0000000  0.6508444  3
  16061  16060  16074  16079     1  0.0000000  0.6508444  3
  16061  16064  16065  16067     1  0.0000000  0.6508444  3
  16061  16064  16072  16075     1  0.0000000  1.0460000  1
  16061  16064  16072  16075     1  0.0000000  0.6694400  3
  16062  16060  16061  16064     1  0.0000000  0.6508444  3
  16062  16060  16061  16073     1  0.0000000  1.0460000  1
  16062  16060  16061  16073     1  0.0000000  0.0000000  3
  16062  16060  16061  16063     1  0.0000000  0.6508444  3
  16062  16060  16074  16080     1  0.0000000  1.0460000  1
  16062  16060  16074  16080     1  0.0000000  0.0000000  3
  16062  16060  16074  16078     1  0.0000000  0.6508444  3
  16062  16060  16074  16079     1  0.0000000  0.6508444  3
  16062  16060  16082  16066     1  0.0000000  1.6038667  3
  16063  16061  16060  16074     1  0.0000000  0.6508444  3
  16063  16061  16060  16082     1  0.0000000  1.0460000  1
  16063  16061  16060  16082     1  0.0000000  0.0000000  3
  16063  16061  16064  16065     1  0.0000000  0.6508444  3
  16063  16061  16064  16072     1  0.0000000  1.0460000  1
  16063  16061  16064  16072     1  0.0000000  0.0000000  3
  16063  16061  16064  16068     1  0.0000000  0.6508444  3
  16063  16061  16073  16076     1  0.0000000  0.6973333  3
  16064  16061  16073  16076     1  0.0000000  1.0460000  1
  16064  16061  16073  16076     1  0.0000000  0.6694400  3
  16064  16065  16066  16069     1  0.0000000  0.6508444  3
  16064  16065  16071  16077     1  0.0000000  1.0460000  1
  16064  16065  16071  16077     1  0.0000000  0.6694400  3
  16065  16064  16072  16075     1  0.0000000  1.0460000  1
  16065  16064  16072  16075     1  0.0000000  0.6694400  3
  16066  16065  16064  16068     1  0.0000000  0.6508444  3
  16066  16065  16071  16077     1  0.0000000  1.0460000  1
  16066  16065  16071  16077     1  0.0000000  0.6694400  3
  16067  16065  16064  16072     1  0.0000000  1.0460000  1
  16067  16065  16064  16072     1  0.0000000  0.0000000  3
  16067  16065  16064  16068     1  0.0000000  0.6508444  3
  16067  16065  16066  16070     1  0.0000000  1.0460000  1
  16067  16065  16066  16070     1  0.0000000  0.0000000  3
  16067  16065  16066  16082     1  0.0000000  1.0460000  1
  16067  16065  16066  16082     1  0.0000000  0.0000000  3
  16067  16065  16066  16069     1  0.0000000  0.6508444  3
  16067  16065  16071  16077     1  0.0000000  0.6973333  3
  16068  16064  16061  16073     1  0.0000000  1.0460000  1
  16068  16064  16061  16073     1  0.0000000  0.0000000  3
  16068  16064  16065  16071     1  0.0000000  1.0460000  1
  16068  16064  16065  16071     1  0.0000000  0.0000000  3
  16068  16064  16072  16075     1  0.0000000  0.6973333  3
  16069  16066  16065  16071     1  0.0000000  0.6508444  3
  16078  16074  16060  16082     1  0.0000000  1.0460000  1
  16078  16074  16060  16082     1  0.0000000  0.0000000  3
  16078  16074  16080  16081     1  0.0000000  0.6973333  3
  16079  16074  16060  16082     1  0.0000000  1.0460000  1
  16079  16074  16060  16082     1  0.0000000  0.0000000  3
  16079  16074  16080  16081     1  0.0000000  0.6973333  3
  16083  16084  16087  16091     1  0.0000000  0.6508444  3
  16083  16084  16096  16099     1  0.0000000  1.0460000  1
  16083  16084  16096  16099     1  0.0000000  0.6694400  3
  16083  16097  16103  16104     1  0.0000000  1.0460000  1
  16083  16097  16103  16104     1  0.0000000  0.6694400  3
  16083  16105  16089  16092     1  0.0000000  1.6038667  3
  16084  16087  16088  16090     1  0.0000000  0.6508444  3
  16084  16087  16095  16098     1  0.0000000  1.0460000  1
  16084  16087  16095  16098     1  0.0000000  0.6694400  3
  16084  16083  16097  16101     1  0.0000000  0.6508444  3
  16084  16083  16097  16102     1  0.0000000  0.6508444  3
  16085  16083  16084  16087     1  0.0000000  0.6508444  3
  16085  16083  16084  16096     1  0.0000000  1.0460000  1
  16085  16083  16084  16096     1  0.0000000  0.0000000  3
  16085  16083  16084  16086     1  0.0000000  0.6508444  3
  16085  16083  16097  16103     1  0.0000000  1.0460000  1
  16085  16083  16097  16103     1  0.0000000  0.0000000  3
  16085  16083  16097  16101     1  0.0000000  0.6508444  3
  16085  16083  16097  16102     1  0.0000000  0.6508444  3
  16085  16083  16105  16089     1  0.0000000  1.6038667  3
  16086  16084  16087  16088     1  0.0000000  0.6508444  3
  16086  16084  16087  16095     1  0.0000000  1.0460000  1
  16086  16084  16087  16095     1  0.0000000  0.0000000  3
  16086  16084  16087  16091     1  0.0000000  0.6508444  3
  16086  16084  16096  16099     1  0.0000000  0.6973333  3
  16086  16084  16083  16097     1  0.0000000  0.6508444  3
  16086  16084  16083  16105     1  0.0000000  1.0460000  1
  16086  16084  16083  16105     1  0.0000000  0.0000000  3
  16087  16088  16089  16092     1  0.0000000  0.6508444  3
  16087  16088  16094  16100     1  0.0000000  1.0460000  1
  16087  16088  16094  16100     1  0.0000000  0.6694400  3
  16087  16084  16096  16099     1  0.0000000  1.0460000  1
  16087  16084  16096  16099     1  0.0000000  0.6694400  3
  16088  16087  16095  16098     1  0.0000000  1.0460000  1
  16088  16087  16095  16098     1  0.0000000  0.6694400  3
  16089  16088  16094  16100     1  0.0000000  1.0460000  1
  16089  16088  16094  16100     1  0.0000000  0.6694400  3
  16089  16088  16087  16091     1  0.0000000  0.6508444  3
  16090  16088  16089  16093     1  0.0000000  1.0460000  1
  16090  16088  16089  16093     1  0.0000000  0.0000000  3
  16090  16088  16089  16105     1  0.0000000  1.0460000  1
  16090  16088  16089  16105     1  0.0000000  0.0000000  3
  16090  16088  16089  16092     1  0.0000000  0.6508444  3
  16090  16088  16094  16100     1  0.0000000  0.6973333  3
  16090  16088  16087  16095     1  0.0000000  1.0460000  1
  16090  16088  16087  16095     1  0.0000000  0.0000000  3
  16090  16088  16087  16091     1  0.0000000  0.6508444  3
  16091  16087  16088  16094     1  0.0000000  1.0460000  1
  16091  16087  16088  16094     1  0.0000000  0.0000000  3
  16091  16087  16095  16098     1  0.0000000  0.6973333  3
  16091  16087  16084  16096     1  0.0000000  1.0460000  1
  16091  16087  16084  16096     1  0.0000000  0.0000000  3
  16092  16089  16088  16094     1  0.0000000  0.6508444  3
  16101  16097  16103  16104     1  0.0000000  0.6973333  3
  16101  16097  16083  16105     1  0.0000000  1.0460000  1
  16101  16097  16083  16105     1  0.0000000  0.0000000  3
  16102  16097  16103  16104     1  0.0000000  0.6973333  3
  16102  16097  16083  16105     1  0.0000000  1.0460000  1
  16102  16097  16083  16105     1  0.0000000  0.0000000  3
  16106  16107  16110  16114     1  0.0000000  0.6508444  3
  16106  16107  16119  16122     1  0.0000000  1.0460000  1
  16106  16107  16119  16122     1  0.0000000  0.6694400  3
  16106  16120  16126  16127     1  0.0000000  1.0460000  1
  16106  16120  16126  16127     1  0.0000000  0.6694400  3
  16106  16128  16112  16115     1  0.0000000  1.6038667  3
  16107  16106  16120  16124     1  0.0000000  0.6508444  3
  16107  16106  16120  16125     1  0.0000000  0.6508444  3
  16107  16110  16111  16113     1  0.0000000  0.6508444  3
  16107  16110  16118  16121     1  0.0000000  1.0460000  1
  16107  16110  16118  16121     1  0.0000000  0.6694400  3
  16108  16106  16107  16110     1  0.0000000  0.6508444  3
  16108  16106  16107  16119     1  0.0000000  1.0460000  1
  16108  16106  16107  16119     1  0.0000000  0.0000000  3
  16108  16106  16107  16109     1  0.0000000  0.6508444  3
  16108  16106  16120  16126     1  0.0000000  1.0460000  1
  16108  16106  16120  16126     1  0.0000000  0.0000000  3
  16108  16106  16120  16124     1  0.0000000  0.6508444  3
  16108  16106  16120  16125     1  0.0000000  0.6508444  3
  16108  16106  16128  16112     1  0.0000000  1.6038667  3
  16109  16107  16106  16120     1  0.0000000  0.6508444  3
  16109  16107  16106  16128     1  0.0000000  1.0460000  1
  16109  16107  16106  16128     1  0.0000000  0.0000000  3
  16109  16107  16110  16111     1  0.0000000  0.6508444  3
  16109  16107  16110  16118     1  0.0000000  1.0460000  1
  16109  16107  16110  16118     1  0.0000000  0.0000000  3
  16109  16107  16110  16114     1  0.0000000  0.6508444  3
  16109  16107  16119  16122     1  0.0000000  0.6973333  3
  16110  16107  16119  16122     1  0.0000000  1.0460000  1
  16110  16107  16119  16122     1  0.0000000  0.6694400  3
  16110  16111  16112  16115     1  0.0000000  0.6508444  3
  16110  16111  16117  16123     1  0.0000000  1.0460000  1
  16110  16111  16117  16123     1  0.0000000  0.6694400  3
  16111  16110  16118  16121     1  0.0000000  1.0460000  1
  16111  16110  16118  16121     1  0.0000000  0.6694400  3
  16112  16111  16110  16114     1  0.0000000  0.6508444  3
  16112  16111  16117  16123     1  0.0000000  1.0460000  1
  16112  16111  16117  16123     1  0.0000000  0.6694400  3
  16113  16111  16110  16118     1  0.0000000  1.0460000  1
  16113  16111  16110  16118     1  0.0000000  0.0000000  3
  16113  16111  16110  16114     1  0.0000000  0.6508444  3
  16113  16111  16112  16116     1  0.0000000  1.0460000  1
  16113  16111  16112  16116     1  0.0000000  0.0000000  3
  16113  16111  16112  16128     1  0.0000000  1.0460000  1
  16113  16111  16112  16128     1  0.0000000  0.0000000  3
  16113  16111  16112  16115     1  0.0000000  0.6508444  3
  16113  16111  16117  16123     1  0.0000000  0.6973333  3
  16114  16110  16107  16119     1  0.0000000  1.0460000  1
  16114  16110  16107  16119     1  0.0000000  0.0000000  3
  16114  16110  16111  16117     1  0.0000000  1.0460000  1
  16114  16110  16111  16117     1  0.0000000  0.0000000  3
  16114  16110  16118  16121     1  0.0000000  0.6973333  3
  16115  16112  16111  16117     1  0.0000000  0.6508444  3
  16124  16120  16106  16128     1  0.0000000  1.0460000  1
  16124  16120  16106  16128     1  0.0000000  0.0000000  3
  16124  16120  16126  16127     1  0.0000000  0.6973333  3
  16125  16120  16106  16128     1  0.0000000  1.0460000  1
  16125  16120  16106  16128     1  0.0000000  0.0000000  3
  16125  16120  16126  16127     1  0.0000000  0.6973333  3
  16129  16130  16133  16137     1  0.0000000  0.6508444  3
  16129  16130  16142  16145     1  0.0000000  1.0460000  1
  16129  16130  16142  16145     1  0.0000000  0.6694400  3
  16129  16143  16149  16150     1  0.0000000  1.0460000  1
  16129  16143  16149  16150     1  0.0000000  0.6694400  3
  16129  16151  16135  16138     1  0.0000000  1.6038667  3
  16130  16133  16134  16136     1  0.0000000  0.6508444  3
  16130  16133  16141  16144     1  0.0000000  1.0460000  1
  16130  16133  16141  16144     1  0.0000000  0.6694400  3
  16130  16129  16143  16147     1  0.0000000  0.6508444  3
  16130  16129  16143  16148     1  0.0000000  0.6508444  3
  16131  16129  16130  16133     1  0.0000000  0.6508444  3
  16131  16129  16130  16142     1  0.0000000  1.0460000  1
  16131  16129  16130  16142     1  0.0000000  0.0000000  3
  16131  16129  16130  16132     1  0.0000000  0.6508444  3
  16131  16129  16143  16149     1  0.0000000  1.0460000  1
  16131  16129  16143  16149     1  0.0000000  0.0000000  3
  16131  16129  16143  16147     1  0.0000000  0.6508444  3
  16131  16129  16143  16148     1  0.0000000  0.6508444  3
  16131  16129  16151  16135     1  0.0000000  1.6038667  3
  16132  16130  16133  16134     1  0.0000000  0.6508444  3
  16132  16130  16133  16141     1  0.0000000  1.0460000  1
  16132  16130  16133  16141     1  0.0000000  0.0000000  3
  16132  16130  16133  16137     1  0.0000000  0.6508444  3
  16132  16130  16142  16145     1  0.0000000  0.6973333  3
  16132  16130  16129  16143     1  0.0000000  0.6508444  3
  16132  16130  16129  16151     1  0.0000000  1.0460000  1
  16132  16130  16129  16151     1  0.0000000  0.0000000  3
  16133  16134  16135  16138     1  0.0000000  0.6508444  3
  16133  16134  16140  16146     1  0.0000000  1.0460000  1
  16133  16134  16140  16146     1  0.0000000  0.6694400  3
  16133  16130  16142  16145     1  0.0000000  1.0460000  1
  16133  16130  16142  16145     1  0.0000000  0.6694400  3
  16134  16133  16141  16144     1  0.0000000  1.0460000  1
  16134  16133  16141  16144     1  0.0000000  0.6694400  3
  16135  16134  16140  16146     1  0.0000000  1.0460000  1
  16135  16134  16140  16146     1  0.0000000  0.6694400  3
  16135  16134  16133  16137     1  0.0000000  0.6508444  3
  16136  16134  16135  16139     1  0.0000000  1.0460000  1
  16136  16134  16135  16139     1  0.0000000  0.0000000  3
  16136  16134  16135  16151     1  0.0000000  1.0460000  1
  16136  16134  16135  16151     1  0.0000000  0.0000000  3
  16136  16134  16135  16138     1  0.0000000  0.6508444  3
  16136  16134  16140  16146     1  0.0000000  0.6973333  3
  16136  16134  16133  16141     1  0.0000000  1.0460000  1
  16136  16134  16133  16141     1  0.0000000  0.0000000  3
  16136  16134  16133  16137     1  0.0000000  0.6508444  3
  16137  16133  16134  16140     1  0.0000000  1.0460000  1
  16137  16133  16134  16140     1  0.0000000  0.0000000  3
  16137  16133  16141  16144     1  0.0000000  0.6973333  3
  16137  16133  16130  16142     1  0.0000000  1.0460000  1
  16137  16133  16130  16142     1  0.0000000  0.0000000  3
  16138  16135  16134  16140     1  0.0000000  0.6508444  3
  16147  16143  16149  16150     1  0.0000000  0.6973333  3
  16147  16143  16129  16151     1  0.0000000  1.0460000  1
  16147  16143  16129  16151     1  0.0000000  0.0000000  3
  16148  16143  16149  16150     1  0.0000000  0.6973333  3
  16148  16143  16129  16151     1  0.0000000  1.0460000  1
  16148  16143  16129  16151     1  0.0000000  0.0000000  3
  16152  16153  16156  16160     1  0.0000000  0.6508444  3
  16152  16153  16165  16168     1  0.0000000  1.0460000  1
  16152  16153  16165  16168     1  0.0000000  0.6694400  3
  16152  16166  16172  16173     1  0.0000000  1.0460000  1
  16152  16166  16172  16173     1  0.0000000  0.6694400  3
  16152  16174  16158  16161     1  0.0000000  1.6038667  3
  16153  16152  16166  16170     1  0.0000000  0.6508444  3
  16153  16152  16166  16171     1  0.0000000  0.6508444  3
  16153  16156  16157  16159     1  0.0000000  0.6508444  3
  16153  16156  16164  16167     1  0.0000000  1.0460000  1
  16153  16156  16164  16167     1  0.0000000  0.6694400  3
  16154  16152  16153  16156     1  0.0000000  0.6508444  3
  16154  16152  16153  16165     1  0.0000000  1.0460000  1
  16154  16152  16153  16165     1  0.0000000  0.0000000  3
  16154  16152  16153  16155     1  0.0000000  0.6508444  3
  16154  16152  16166  16172     1  0.0000000  1.0460000  1
  16154  16152  16166  16172     1  0.0000000  0.0000000  3
  16154  16152  16166  16170     1  0.0000000  0.6508444  3
  16154  16152  16166  16171     1  0.0000000  0.6508444  3
  16154  16152  16174  16158     1  0.0000000  1.6038667  3
  16155  16153  16152  16166     1  0.0000000  0.6508444  3
  16155  16153  16152  16174     1  0.0000000  1.0460000  1
  16155  16153  16152  16174     1  0.0000000  0.0000000  3
  16155  16153  16156  16157     1  0.0000000  0.6508444  3
  16155  16153  16156  16164     1  0.0000000  1.0460000  1
  16155  16153  16156  16164     1  0.0000000  0.0000000  3
  16155  16153  16156  16160     1  0.0000000  0.6508444  3
  16155  16153  16165  16168     1  0.0000000  0.6973333  3
  16156  16153  16165  16168     1  0.0000000  1.0460000  1
  16156  16153  16165  16168     1  0.0000000  0.6694400  3
  16156  16157  16158  16161     1  0.0000000  0.6508444  3
  16156  16157  16163  16169     1  0.0000000  1.0460000  1
  16156  16157  16163  16169     1  0.0000000  0.6694400  3
  16157  16156  16164  16167     1  0.0000000  1.0460000  1
  16157  16156  16164  16167     1  0.0000000  0.6694400  3
  16158  16157  16156  16160     1  0.0000000  0.6508444  3
  16158  16157  16163  16169     1  0.0000000  1.0460000  1
  16158  16157  16163  16169     1  0.0000000  0.6694400  3
  16159  16157  16156  16164     1  0.0000000  1.0460000  1
  16159  16157  16156  16164     1  0.0000000  0.0000000  3
  16159  16157  16156  16160     1  0.0000000  0.6508444  3
  16159  16157  16158  16162     1  0.0000000  1.0460000  1
  16159  16157  16158  16162     1  0.0000000  0.0000000  3
  16159  16157  16158  16174     1  0.0000000  1.0460000  1
  16159  16157  16158  16174     1  0.0000000  0.0000000  3
  16159  16157  16158  16161     1  0.0000000  0.6508444  3
  16159  16157  16163  16169     1  0.0000000  0.6973333  3
  16160  16156  16153  16165     1  0.0000000  1.0460000  1
  16160  16156  16153  16165     1  0.0000000  0.0000000  3
  16160  16156  16157  16163     1  0.0000000  1.0460000  1
  16160  16156  16157  16163     1  0.0000000  0.0000000  3
  16160  16156  16164  16167     1  0.0000000  0.6973333  3
  16161  16158  16157  16163     1  0.0000000  0.6508444  3
  16170  16166  16152  16174     1  0.0000000  1.0460000  1
  16170  16166  16152  16174     1  0.0000000  0.0000000  3
  16170  16166  16172  16173     1  0.0000000  0.6973333  3
  16171  16166  16152  16174     1  0.0000000  1.0460000  1
  16171  16166  16152  16174     1  0.0000000  0.0000000  3
  16171  16166  16172  16173     1  0.0000000  0.6973333  3
  16175  16176  16179  16183     1  0.0000000  0.6508444  3
  16175  16176  16188  16191     1  0.0000000  1.0460000  1
  16175  16176  16188  16191     1  0.0000000  0.6694400  3
  16175  16189  16195  16196     1  0.0000000  1.0460000  1
  16175  16189  16195  16196     1  0.0000000  0.6694400  3
  16175  16197  16181  16184     1  0.0000000  1.6038667  3
  16176  16179  16180  16182     1  0.0000000  0.6508444  3
  16176  16179  16187  16190     1  0.0000000  1.0460000  1
  16176  16179  16187  16190     1  0.0000000  0.6694400  3
  16176  16175  16189  16193     1  0.0000000  0.6508444  3
  16176  16175  16189  16194     1  0.0000000  0.6508444  3
  16177  16175  16176  16179     1  0.0000000  0.6508444  3
  16177  16175  16176  16188     1  0.0000000  1.0460000  1
  16177  16175  16176  16188     1  0.0000000  0.0000000  3
  16177  16175  16176  16178     1  0.0000000  0.6508444  3
  16177  16175  16189  16195     1  0.0000000  1.0460000  1
  16177  16175  16189  16195     1  0.0000000  0.0000000  3
  16177  16175  16189  16193     1  0.0000000  0.6508444  3
  16177  16175  16189  16194     1  0.0000000  0.6508444  3
  16177  16175  16197  16181     1  0.0000000  1.6038667  3
  16178  16176  16179  16180     1  0.0000000  0.6508444  3
  16178  16176  16179  16187     1  0.0000000  1.0460000  1
  16178  16176  16179  16187     1  0.0000000  0.0000000  3
  16178  16176  16179  16183     1  0.0000000  0.6508444  3
  16178  16176  16188  16191     1  0.0000000  0.6973333  3
  16178  16176  16175  16189     1  0.0000000  0.6508444  3
  16178  16176  16175  16197     1  0.0000000  1.0460000  1
  16178  16176  16175  16197     1  0.0000000  0.0000000  3
  16179  16180  16181  16184     1  0.0000000  0.6508444  3
  16179  16180  16186  16192     1  0.0000000  1.0460000  1
  16179  16180  16186  16192     1  0.0000000  0.6694400  3
  16179  16176  16188  16191     1  0.0000000  1.0460000  1
  16179  16176  16188  16191     1  0.0000000  0.6694400  3
  16180  16179  16187  16190     1  0.0000000  1.0460000  1
  16180  16179  16187  16190     1  0.0000000  0.6694400  3
  16181  16180  16186  16192     1  0.0000000  1.0460000  1
  16181  16180  16186  16192     1  0.0000000  0.6694400  3
  16181  16180  16179  16183     1  0.0000000  0.6508444  3
  16182  16180  16181  16185     1  0.0000000  1.0460000  1
  16182  16180  16181  16185     1  0.0000000  0.0000000  3
  16182  16180  16181  16197     1  0.0000000  1.0460000  1
  16182  16180  16181  16197     1  0.0000000  0.0000000  3
  16182  16180  16181  16184     1  0.0000000  0.6508444  3
  16182  16180  16186  16192     1  0.0000000  0.6973333  3
  16182  16180  16179  16187     1  0.0000000  1.0460000  1
  16182  16180  16179  16187     1  0.0000000  0.0000000  3
  16182  16180  16179  16183     1  0.0000000  0.6508444  3
  16183  16179  16180  16186     1  0.0000000  1.0460000  1
  16183  16179  16180  16186     1  0.0000000  0.0000000  3
  16183  16179  16187  16190     1  0.0000000  0.6973333  3
  16183  16179  16176  16188     1  0.0000000  1.0460000  1
  16183  16179  16176  16188     1  0.0000000  0.0000000  3
  16184  16181  16180  16186     1  0.0000000  0.6508444  3
  16193  16189  16195  16196     1  0.0000000  0.6973333  3
  16193  16189  16175  16197     1  0.0000000  1.0460000  1
  16193  16189  16175  16197     1  0.0000000  0.0000000  3
  16194  16189  16195  16196     1  0.0000000  0.6973333  3
  16194  16189  16175  16197     1  0.0000000  1.0460000  1
  16194  16189  16175  16197     1  0.0000000  0.0000000  3
  16198  16199  16202  16206     1  0.0000000  0.6508444  3
  16198  16199  16211  16214     1  0.0000000  1.0460000  1
  16198  16199  16211  16214     1  0.0000000  0.6694400  3
  16198  16212  16218  16219     1  0.0000000  1.0460000  1
  16198  16212  16218  16219     1  0.0000000  0.6694400  3
  16198  16220  16204  16207     1  0.0000000  1.6038667  3
  16199  16198  16212  16216     1  0.0000000  0.6508444  3
  16199  16198  16212  16217     1  0.0000000  0.6508444  3
  16199  16202  16203  16205     1  0.0000000  0.6508444  3
  16199  16202  16210  16213     1  0.0000000  1.0460000  1
  16199  16202  16210  16213     1  0.0000000  0.6694400  3
  16200  16198  16199  16202     1  0.0000000  0.6508444  3
  16200  16198  16199  16211     1  0.0000000  1.0460000  1
  16200  16198  16199  16211     1  0.0000000  0.0000000  3
  16200  16198  16199  16201     1  0.0000000  0.6508444  3
  16200  16198  16212  16218     1  0.0000000  1.0460000  1
  16200  16198  16212  16218     1  0.0000000  0.0000000  3
  16200  16198  16212  16216     1  0.0000000  0.6508444  3
  16200  16198  16212  16217     1  0.0000000  0.6508444  3
  16200  16198  16220  16204     1  0.0000000  1.6038667  3
  16201  16199  16198  16212     1  0.0000000  0.6508444  3
  16201  16199  16198  16220     1  0.0000000  1.0460000  1
  16201  16199  16198  16220     1  0.0000000  0.0000000  3
  16201  16199  16202  16203     1  0.0000000  0.6508444  3
  16201  16199  16202  16210     1  0.0000000  1.0460000  1
  16201  16199  16202  16210     1  0.0000000  0.0000000  3
  16201  16199  16202  16206     1  0.0000000  0.6508444  3
  16201  16199  16211  16214     1  0.0000000  0.6973333  3
  16202  16199  16211  16214     1  0.0000000  1.0460000  1
  16202  16199  16211  16214     1  0.0000000  0.6694400  3
  16202  16203  16204  16207     1  0.0000000  0.6508444  3
  16202  16203  16209  16215     1  0.0000000  1.0460000  1
  16202  16203  16209  16215     1  0.0000000  0.6694400  3
  16203  16202  16210  16213     1  0.0000000  1.0460000  1
  16203  16202  16210  16213     1  0.0000000  0.6694400  3
  16204  16203  16202  16206     1  0.0000000  0.6508444  3
  16204  16203  16209  16215     1  0.0000000  1.0460000  1
  16204  16203  16209  16215     1  0.0000000  0.6694400  3
  16205  16203  16202  16210     1  0.0000000  1.0460000  1
  16205  16203  16202  16210     1  0.0000000  0.0000000  3
  16205  16203  16202  16206     1  0.0000000  0.6508444  3
  16205  16203  16204  16208     1  0.0000000  1.0460000  1
  16205  16203  16204  16208     1  0.0000000  0.0000000  3
  16205  16203  16204  16220     1  0.0000000  1.0460000  1
  16205  16203  16204  16220     1  0.0000000  0.0000000  3
  16205  16203  16204  16207     1  0.0000000  0.6508444  3
  16205  16203  16209  16215     1  0.0000000  0.6973333  3
  16206  16202  16199  16211     1  0.0000000  1.0460000  1
  16206  16202  16199  16211     1  0.0000000  0.0000000  3
  16206  16202  16203  16209     1  0.0000000  1.0460000  1
  16206  16202  16203  16209     1  0.0000000  0.0000000  3
  16206  16202  16210  16213     1  0.0000000  0.6973333  3
  16207  16204  16203  16209     1  0.0000000  0.6508444  3
  16216  16212  16198  16220     1  0.0000000  1.0460000  1
  16216  16212  16198  16220     1  0.0000000  0.0000000  3
  16216  16212  16218  16219     1  0.0000000  0.6973333  3
  16217  16212  16198  16220     1  0.0000000  1.0460000  1
  16217  16212  16198  16220     1  0.0000000  0.0000000  3
  16217  16212  16218  16219     1  0.0000000  0.6973333  3
  16221  16222  16225  16229     1  0.0000000  0.6508444  3
  16221  16222  16234  16237     1  0.0000000  1.0460000  1
  16221  16222  16234  16237     1  0.0000000  0.6694400  3
  16221  16235  16241  16242     1  0.0000000  1.0460000  1
  16221  16235  16241  16242     1  0.0000000  0.6694400  3
  16221  16243  16227  16230     1  0.0000000  1.6038667  3
  16222  16225  16226  16228     1  0.0000000  0.6508444  3
  16222  16225  16233  16236     1  0.0000000  1.0460000  1
  16222  16225  16233  16236     1  0.0000000  0.6694400  3
  16222  16221  16235  16239     1  0.0000000  0.6508444  3
  16222  16221  16235  16240     1  0.0000000  0.6508444  3
  16223  16221  16222  16225     1  0.0000000  0.6508444  3
  16223  16221  16222  16234     1  0.0000000  1.0460000  1
  16223  16221  16222  16234     1  0.0000000  0.0000000  3
  16223  16221  16222  16224     1  0.0000000  0.6508444  3
  16223  16221  16235  16241     1  0.0000000  1.0460000  1
  16223  16221  16235  16241     1  0.0000000  0.0000000  3
  16223  16221  16235  16239     1  0.0000000  0.6508444  3
  16223  16221  16235  16240     1  0.0000000  0.6508444  3
  16223  16221  16243  16227     1  0.0000000  1.6038667  3
  16224  16222  16225  16226     1  0.0000000  0.6508444  3
  16224  16222  16225  16233     1  0.0000000  1.0460000  1
  16224  16222  16225  16233     1  0.0000000  0.0000000  3
  16224  16222  16225  16229     1  0.0000000  0.6508444  3
  16224  16222  16234  16237     1  0.0000000  0.6973333  3
  16224  16222  16221  16235     1  0.0000000  0.6508444  3
  16224  16222  16221  16243     1  0.0000000  1.0460000  1
  16224  16222  16221  16243     1  0.0000000  0.0000000  3
  16225  16226  16227  16230     1  0.0000000  0.6508444  3
  16225  16226  16232  16238     1  0.0000000  1.0460000  1
  16225  16226  16232  16238     1  0.0000000  0.6694400  3
  16225  16222  16234  16237     1  0.0000000  1.0460000  1
  16225  16222  16234  16237     1  0.0000000  0.6694400  3
  16226  16225  16233  16236     1  0.0000000  1.0460000  1
  16226  16225  16233  16236     1  0.0000000  0.6694400  3
  16227  16226  16232  16238     1  0.0000000  1.0460000  1
  16227  16226  16232  16238     1  0.0000000  0.6694400  3
  16227  16226  16225  16229     1  0.0000000  0.6508444  3
  16228  16226  16227  16231     1  0.0000000  1.0460000  1
  16228  16226  16227  16231     1  0.0000000  0.0000000  3
  16228  16226  16227  16243     1  0.0000000  1.0460000  1
  16228  16226  16227  16243     1  0.0000000  0.0000000  3
  16228  16226  16227  16230     1  0.0000000  0.6508444  3
  16228  16226  16232  16238     1  0.0000000  0.6973333  3
  16228  16226  16225  16233     1  0.0000000  1.0460000  1
  16228  16226  16225  16233     1  0.0000000  0.0000000  3
  16228  16226  16225  16229     1  0.0000000  0.6508444  3
  16229  16225  16226  16232     1  0.0000000  1.0460000  1
  16229  16225  16226  16232     1  0.0000000  0.0000000  3
  16229  16225  16233  16236     1  0.0000000  0.6973333  3
  16229  16225  16222  16234     1  0.0000000  1.0460000  1
  16229  16225  16222  16234     1  0.0000000  0.0000000  3
  16230  16227  16226  16232     1  0.0000000  0.6508444  3
  16239  16235  16241  16242     1  0.0000000  0.6973333  3
  16239  16235  16221  16243     1  0.0000000  1.0460000  1
  16239  16235  16221  16243     1  0.0000000  0.0000000  3
  16240  16235  16241  16242     1  0.0000000  0.6973333  3
  16240  16235  16221  16243     1  0.0000000  1.0460000  1
  16240  16235  16221  16243     1  0.0000000  0.0000000  3
  16244  16245  16248  16252     1  0.0000000  0.6508444  3
  16244  16245  16257  16260     1  0.0000000  1.0460000  1
  16244  16245  16257  16260     1  0.0000000  0.6694400  3
  16244  16258  16264  16265     1  0.0000000  1.0460000  1
  16244  16258  16264  16265     1  0.0000000  0.6694400  3
  16244  16266  16250  16253     1  0.0000000  1.6038667  3
  16245  16244  16258  16262     1  0.0000000  0.6508444  3
  16245  16244  16258  16263     1  0.0000000  0.6508444  3
  16245  16248  16249  16251     1  0.0000000  0.6508444  3
  16245  16248  16256  16259     1  0.0000000  1.0460000  1
  16245  16248  16256  16259     1  0.0000000  0.6694400  3
  16246  16244  16245  16248     1  0.0000000  0.6508444  3
  16246  16244  16245  16257     1  0.0000000  1.0460000  1
  16246  16244  16245  16257     1  0.0000000  0.0000000  3
  16246  16244  16245  16247     1  0.0000000  0.6508444  3
  16246  16244  16258  16264     1  0.0000000  1.0460000  1
  16246  16244  16258  16264     1  0.0000000  0.0000000  3
  16246  16244  16258  16262     1  0.0000000  0.6508444  3
  16246  16244  16258  16263     1  0.0000000  0.6508444  3
  16246  16244  16266  16250     1  0.0000000  1.6038667  3
  16247  16245  16244  16258     1  0.0000000  0.6508444  3
  16247  16245  16244  16266     1  0.0000000  1.0460000  1
  16247  16245  16244  16266     1  0.0000000  0.0000000  3
  16247  16245  16248  16249     1  0.0000000  0.6508444  3
  16247  16245  16248  16256     1  0.0000000  1.0460000  1
  16247  16245  16248  16256     1  0.0000000  0.0000000  3
  16247  16245  16248  16252     1  0.0000000  0.6508444  3
  16247  16245  16257  16260     1  0.0000000  0.6973333  3
  16248  16245  16257  16260     1  0.0000000  1.0460000  1
  16248  16245  16257  16260     1  0.0000000  0.6694400  3
  16248  16249  16250  16253     1  0.0000000  0.6508444  3
  16248  16249  16255  16261     1  0.0000000  1.0460000  1
  16248  16249  16255  16261     1  0.0000000  0.6694400  3
  16249  16248  16256  16259     1  0.0000000  1.0460000  1
  16249  16248  16256  16259     1  0.0000000  0.6694400  3
  16250  16249  16248  16252     1  0.0000000  0.6508444  3
  16250  16249  16255  16261     1  0.0000000  1.0460000  1
  16250  16249  16255  16261     1  0.0000000  0.6694400  3
  16251  16249  16248  16256     1  0.0000000  1.0460000  1
  16251  16249  16248  16256     1  0.0000000  0.0000000  3
  16251  16249  16248  16252     1  0.0000000  0.6508444  3
  16251  16249  16250  16254     1  0.0000000  1.0460000  1
  16251  16249  16250  16254     1  0.0000000  0.0000000  3
  16251  16249  16250  16266     1  0.0000000  1.0460000  1
  16251  16249  16250  16266     1  0.0000000  0.0000000  3
  16251  16249  16250  16253     1  0.0000000  0.6508444  3
  16251  16249  16255  16261     1  0.0000000  0.6973333  3
  16252  16248  16245  16257     1  0.0000000  1.0460000  1
  16252  16248  16245  16257     1  0.0000000  0.0000000  3
  16252  16248  16249  16255     1  0.0000000  1.0460000  1
  16252  16248  16249  16255     1  0.0000000  0.0000000  3
  16252  16248  16256  16259     1  0.0000000  0.6973333  3
  16253  16250  16249  16255     1  0.0000000  0.6508444  3
  16262  16258  16244  16266     1  0.0000000  1.0460000  1
  16262  16258  16244  16266     1  0.0000000  0.0000000  3
  16262  16258  16264  16265     1  0.0000000  0.6973333  3
  16263  16258  16244  16266     1  0.0000000  1.0460000  1
  16263  16258  16244  16266     1  0.0000000  0.0000000  3
  16263  16258  16264  16265     1  0.0000000  0.6973333  3
  16267  16268  16271  16275     1  0.0000000  0.6508444  3
  16267  16268  16280  16283     1  0.0000000  1.0460000  1
  16267  16268  16280  16283     1  0.0000000  0.6694400  3
  16267  16281  16287  16288     1  0.0000000  1.0460000  1
  16267  16281  16287  16288     1  0.0000000  0.6694400  3
  16267  16289  16273  16276     1  0.0000000  1.6038667  3
  16268  16271  16272  16274     1  0.0000000  0.6508444  3
  16268  16271  16279  16282     1  0.0000000  1.0460000  1
  16268  16271  16279  16282     1  0.0000000  0.6694400  3
  16268  16267  16281  16285     1  0.0000000  0.6508444  3
  16268  16267  16281  16286     1  0.0000000  0.6508444  3
  16269  16267  16268  16271     1  0.0000000  0.6508444  3
  16269  16267  16268  16280     1  0.0000000  1.0460000  1
  16269  16267  16268  16280     1  0.0000000  0.0000000  3
  16269  16267  16268  16270     1  0.0000000  0.6508444  3
  16269  16267  16281  16287     1  0.0000000  1.0460000  1
  16269  16267  16281  16287     1  0.0000000  0.0000000  3
  16269  16267  16281  16285     1  0.0000000  0.6508444  3
  16269  16267  16281  16286     1  0.0000000  0.6508444  3
  16269  16267  16289  16273     1  0.0000000  1.6038667  3
  16270  16268  16271  16272     1  0.0000000  0.6508444  3
  16270  16268  16271  16279     1  0.0000000  1.0460000  1
  16270  16268  16271  16279     1  0.0000000  0.0000000  3
  16270  16268  16271  16275     1  0.0000000  0.6508444  3
  16270  16268  16280  16283     1  0.0000000  0.6973333  3
  16270  16268  16267  16281     1  0.0000000  0.6508444  3
  16270  16268  16267  16289     1  0.0000000  1.0460000  1
  16270  16268  16267  16289     1  0.0000000  0.0000000  3
  16271  16272  16273  16276     1  0.0000000  0.6508444  3
  16271  16272  16278  16284     1  0.0000000  1.0460000  1
  16271  16272  16278  16284     1  0.0000000  0.6694400  3
  16271  16268  16280  16283     1  0.0000000  1.0460000  1
  16271  16268  16280  16283     1  0.0000000  0.6694400  3
  16272  16271  16279  16282     1  0.0000000  1.0460000  1
  16272  16271  16279  16282     1  0.0000000  0.6694400  3
  16273  16272  16278  16284     1  0.0000000  1.0460000  1
  16273  16272  16278  16284     1  0.0000000  0.6694400  3
  16273  16272  16271  16275     1  0.0000000  0.6508444  3
  16274  16272  16273  16277     1  0.0000000  1.0460000  1
  16274  16272  16273  16277     1  0.0000000  0.0000000  3
  16274  16272  16273  16289     1  0.0000000  1.0460000  1
  16274  16272  16273  16289     1  0.0000000  0.0000000  3
  16274  16272  16273  16276     1  0.0000000  0.6508444  3
  16274  16272  16278  16284     1  0.0000000  0.6973333  3
  16274  16272  16271  16279     1  0.0000000  1.0460000  1
  16274  16272  16271  16279     1  0.0000000  0.0000000  3
  16274  16272  16271  16275     1  0.0000000  0.6508444  3
  16275  16271  16272  16278     1  0.0000000  1.0460000  1
  16275  16271  16272  16278     1  0.0000000  0.0000000  3
  16275  16271  16279  16282     1  0.0000000  0.6973333  3
  16275  16271  16268  16280     1  0.0000000  1.0460000  1
  16275  16271  16268  16280     1  0.0000000  0.0000000  3
  16276  16273  16272  16278     1  0.0000000  0.6508444  3
  16285  16281  16287  16288     1  0.0000000  0.6973333  3
  16285  16281  16267  16289     1  0.0000000  1.0460000  1
  16285  16281  16267  16289     1  0.0000000  0.0000000  3
  16286  16281  16287  16288     1  0.0000000  0.6973333  3
  16286  16281  16267  16289     1  0.0000000  1.0460000  1
  16286  16281  16267  16289     1  0.0000000  0.0000000  3
  16290  16291  16294  16298     1  0.0000000  0.6508444  3
  16290  16291  16303  16306     1  0.0000000  1.0460000  1
  16290  16291  16303  16306     1  0.0000000  0.6694400  3
  16290  16304  16310  16311     1  0.0000000  1.0460000  1
  16290  16304  16310  16311     1  0.0000000  0.6694400  3
  16290  16312  16296  16299     1  0.0000000  1.6038667  3
  16291  16290  16304  16308     1  0.0000000  0.6508444  3
  16291  16290  16304  16309     1  0.0000000  0.6508444  3
  16291  16294  16295  16297     1  0.0000000  0.6508444  3
  16291  16294  16302  16305     1  0.0000000  1.0460000  1
  16291  16294  16302  16305     1  0.0000000  0.6694400  3
  16292  16290  16291  16294     1  0.0000000  0.6508444  3
  16292  16290  16291  16303     1  0.0000000  1.0460000  1
  16292  16290  16291  16303     1  0.0000000  0.0000000  3
  16292  16290  16291  16293     1  0.0000000  0.6508444  3
  16292  16290  16304  16310     1  0.0000000  1.0460000  1
  16292  16290  16304  16310     1  0.0000000  0.0000000  3
  16292  16290  16304  16308     1  0.0000000  0.6508444  3
  16292  16290  16304  16309     1  0.0000000  0.6508444  3
  16292  16290  16312  16296     1  0.0000000  1.6038667  3
  16293  16291  16290  16304     1  0.0000000  0.6508444  3
  16293  16291  16290  16312     1  0.0000000  1.0460000  1
  16293  16291  16290  16312     1  0.0000000  0.0000000  3
  16293  16291  16294  16295     1  0.0000000  0.6508444  3
  16293  16291  16294  16302     1  0.0000000  1.0460000  1
  16293  16291  16294  16302     1  0.0000000  0.0000000  3
  16293  16291  16294  16298     1  0.0000000  0.6508444  3
  16293  16291  16303  16306     1  0.0000000  0.6973333  3
  16294  16291  16303  16306     1  0.0000000  1.0460000  1
  16294  16291  16303  16306     1  0.0000000  0.6694400  3
  16294  16295  16296  16299     1  0.0000000  0.6508444  3
  16294  16295  16301  16307     1  0.0000000  1.0460000  1
  16294  16295  16301  16307     1  0.0000000  0.6694400  3
  16295  16294  16302  16305     1  0.0000000  1.0460000  1
  16295  16294  16302  16305     1  0.0000000  0.6694400  3
  16296  16295  16294  16298     1  0.0000000  0.6508444  3
  16296  16295  16301  16307     1  0.0000000  1.0460000  1
  16296  16295  16301  16307     1  0.0000000  0.6694400  3
  16297  16295  16294  16302     1  0.0000000  1.0460000  1
  16297  16295  16294  16302     1  0.0000000  0.0000000  3
  16297  16295  16294  16298     1  0.0000000  0.6508444  3
  16297  16295  16296  16300     1  0.0000000  1.0460000  1
  16297  16295  16296  16300     1  0.0000000  0.0000000  3
  16297  16295  16296  16312     1  0.0000000  1.0460000  1
  16297  16295  16296  16312     1  0.0000000  0.0000000  3
  16297  16295  16296  16299     1  0.0000000  0.6508444  3
  16297  16295  16301  16307     1  0.0000000  0.6973333  3
  16298  16294  16291  16303     1  0.0000000  1.0460000  1
  16298  16294  16291  16303     1  0.0000000  0.0000000  3
  16298  16294  16295  16301     1  0.0000000  1.0460000  1
  16298  16294  16295  16301     1  0.0000000  0.0000000  3
  16298  16294  16302  16305     1  0.0000000  0.6973333  3
  16299  16296  16295  16301     1  0.0000000  0.6508444  3
  16308  16304  16290  16312     1  0.0000000  1.0460000  1
  16308  16304  16290  16312     1  0.0000000  0.0000000  3
  16308  16304  16310  16311     1  0.0000000  0.6973333  3
  16309  16304  16290  16312     1  0.0000000  1.0460000  1
  16309  16304  16290  16312     1  0.0000000  0.0000000  3
  16309  16304  16310  16311     1  0.0000000  0.6973333  3
  16313  16314  16317  16321     1  0.0000000  0.6508444  3
  16313  16314  16326  16329     1  0.0000000  1.0460000  1
  16313  16314  16326  16329     1  0.0000000  0.6694400  3
  16313  16327  16333  16334     1  0.0000000  1.0460000  1
  16313  16327  16333  16334     1  0.0000000  0.6694400  3
  16313  16335  16319  16322     1  0.0000000  1.6038667  3
  16314  16317  16318  16320     1  0.0000000  0.6508444  3
  16314  16317  16325  16328     1  0.0000000  1.0460000  1
  16314  16317  16325  16328     1  0.0000000  0.6694400  3
  16314  16313  16327  16331     1  0.0000000  0.6508444  3
  16314  16313  16327  16332     1  0.0000000  0.6508444  3
  16315  16313  16314  16317     1  0.0000000  0.6508444  3
  16315  16313  16314  16326     1  0.0000000  1.0460000  1
  16315  16313  16314  16326     1  0.0000000  0.0000000  3
  16315  16313  16314  16316     1  0.0000000  0.6508444  3
  16315  16313  16327  16333     1  0.0000000  1.0460000  1
  16315  16313  16327  16333     1  0.0000000  0.0000000  3
  16315  16313  16327  16331     1  0.0000000  0.6508444  3
  16315  16313  16327  16332     1  0.0000000  0.6508444  3
  16315  16313  16335  16319     1  0.0000000  1.6038667  3
  16316  16314  16317  16318     1  0.0000000  0.6508444  3
  16316  16314  16317  16325     1  0.0000000  1.0460000  1
  16316  16314  16317  16325     1  0.0000000  0.0000000  3
  16316  16314  16317  16321     1  0.0000000  0.6508444  3
  16316  16314  16326  16329     1  0.0000000  0.6973333  3
  16316  16314  16313  16327     1  0.0000000  0.6508444  3
  16316  16314  16313  16335     1  0.0000000  1.0460000  1
  16316  16314  16313  16335     1  0.0000000  0.0000000  3
  16317  16318  16319  16322     1  0.0000000  0.6508444  3
  16317  16318  16324  16330     1  0.0000000  1.0460000  1
  16317  16318  16324  16330     1  0.0000000  0.6694400  3
  16317  16314  16326  16329     1  0.0000000  1.0460000  1
  16317  16314  16326  16329     1  0.0000000  0.6694400  3
  16318  16317  16325  16328     1  0.0000000  1.0460000  1
  16318  16317  16325  16328     1  0.0000000  0.6694400  3
  16319  16318  16324  16330     1  0.0000000  1.0460000  1
  16319  16318  16324  16330     1  0.0000000  0.6694400  3
  16319  16318  16317  16321     1  0.0000000  0.6508444  3
  16320  16318  16319  16323     1  0.0000000  1.0460000  1
  16320  16318  16319  16323     1  0.0000000  0.0000000  3
  16320  16318  16319  16335     1  0.0000000  1.0460000  1
  16320  16318  16319  16335     1  0.0000000  0.0000000  3
  16320  16318  16319  16322     1  0.0000000  0.6508444  3
  16320  16318  16324  16330     1  0.0000000  0.6973333  3
  16320  16318  16317  16325     1  0.0000000  1.0460000  1
  16320  16318  16317  16325     1  0.0000000  0.0000000  3
  16320  16318  16317  16321     1  0.0000000  0.6508444  3
  16321  16317  16318  16324     1  0.0000000  1.0460000  1
  16321  16317  16318  16324     1  0.0000000  0.0000000  3
  16321  16317  16325  16328     1  0.0000000  0.6973333  3
  16321  16317  16314  16326     1  0.0000000  1.0460000  1
  16321  16317  16314  16326     1  0.0000000  0.0000000  3
  16322  16319  16318  16324     1  0.0000000  0.6508444  3
  16331  16327  16333  16334     1  0.0000000  0.6973333  3
  16331  16327  16313  16335     1  0.0000000  1.0460000  1
  16331  16327  16313  16335     1  0.0000000  0.0000000  3
  16332  16327  16333  16334     1  0.0000000  0.6973333  3
  16332  16327  16313  16335     1  0.0000000  1.0460000  1
  16332  16327  16313  16335     1  0.0000000  0.0000000  3
  16336  16337  16340  16344     1  0.0000000  0.6508444  3
  16336  16337  16349  16352     1  0.0000000  1.0460000  1
  16336  16337  16349  16352     1  0.0000000  0.6694400  3
  16336  16350  16356  16357     1  0.0000000  1.0460000  1
  16336  16350  16356  16357     1  0.0000000  0.6694400  3
  16336  16358  16342  16345     1  0.0000000  1.6038667  3
  16337  16336  16350  16354     1  0.0000000  0.6508444  3
  16337  16336  16350  16355     1  0.0000000  0.6508444  3
  16337  16340  16341  16343     1  0.0000000  0.6508444  3
  16337  16340  16348  16351     1  0.0000000  1.0460000  1
  16337  16340  16348  16351     1  0.0000000  0.6694400  3
  16338  16336  16337  16340     1  0.0000000  0.6508444  3
  16338  16336  16337  16349     1  0.0000000  1.0460000  1
  16338  16336  16337  16349     1  0.0000000  0.0000000  3
  16338  16336  16337  16339     1  0.0000000  0.6508444  3
  16338  16336  16350  16356     1  0.0000000  1.0460000  1
  16338  16336  16350  16356     1  0.0000000  0.0000000  3
  16338  16336  16350  16354     1  0.0000000  0.6508444  3
  16338  16336  16350  16355     1  0.0000000  0.6508444  3
  16338  16336  16358  16342     1  0.0000000  1.6038667  3
  16339  16337  16336  16350     1  0.0000000  0.6508444  3
  16339  16337  16336  16358     1  0.0000000  1.0460000  1
  16339  16337  16336  16358     1  0.0000000  0.0000000  3
  16339  16337  16340  16341     1  0.0000000  0.6508444  3
  16339  16337  16340  16348     1  0.0000000  1.0460000  1
  16339  16337  16340  16348     1  0.0000000  0.0000000  3
  16339  16337  16340  16344     1  0.0000000  0.6508444  3
  16339  16337  16349  16352     1  0.0000000  0.6973333  3
  16340  16337  16349  16352     1  0.0000000  1.0460000  1
  16340  16337  16349  16352     1  0.0000000  0.6694400  3
  16340  16341  16342  16345     1  0.0000000  0.6508444  3
  16340  16341  16347  16353     1  0.0000000  1.0460000  1
  16340  16341  16347  16353     1  0.0000000  0.6694400  3
  16341  16340  16348  16351     1  0.0000000  1.0460000  1
  16341  16340  16348  16351     1  0.0000000  0.6694400  3
  16342  16341  16340  16344     1  0.0000000  0.6508444  3
  16342  16341  16347  16353     1  0.0000000  1.0460000  1
  16342  16341  16347  16353     1  0.0000000  0.6694400  3
  16343  16341  16340  16348     1  0.0000000  1.0460000  1
  16343  16341  16340  16348     1  0.0000000  0.0000000  3
  16343  16341  16340  16344     1  0.0000000  0.6508444  3
  16343  16341  16342  16346     1  0.0000000  1.0460000  1
  16343  16341  16342  16346     1  0.0000000  0.0000000  3
  16343  16341  16342  16358     1  0.0000000  1.0460000  1
  16343  16341  16342  16358     1  0.0000000  0.0000000  3
  16343  16341  16342  16345     1  0.0000000  0.6508444  3
  16343  16341  16347  16353     1  0.0000000  0.6973333  3
  16344  16340  16337  16349     1  0.0000000  1.0460000  1
  16344  16340  16337  16349     1  0.0000000  0.0000000  3
  16344  16340  16341  16347     1  0.0000000  1.0460000  1
  16344  16340  16341  16347     1  0.0000000  0.0000000  3
  16344  16340  16348  16351     1  0.0000000  0.6973333  3
  16345  16342  16341  16347     1  0.0000000  0.6508444  3
  16354  16350  16336  16358     1  0.0000000  1.0460000  1
  16354  16350  16336  16358     1  0.0000000  0.0000000  3
  16354  16350  16356  16357     1  0.0000000  0.6973333  3
  16355  16350  16336  16358     1  0.0000000  1.0460000  1
  16355  16350  16336  16358     1  0.0000000  0.0000000  3
  16355  16350  16356  16357     1  0.0000000  0.6973333  3
  16359  16360  16363  16367     1  0.0000000  0.6508444  3
  16359  16360  16372  16375     1  0.0000000  1.0460000  1
  16359  16360  16372  16375     1  0.0000000  0.6694400  3
  16359  16373  16379  16380     1  0.0000000  1.0460000  1
  16359  16373  16379  16380     1  0.0000000  0.6694400  3
  16359  16381  16365  16368     1  0.0000000  1.6038667  3
  16360  16363  16364  16366     1  0.0000000  0.6508444  3
  16360  16363  16371  16374     1  0.0000000  1.0460000  1
  16360  16363  16371  16374     1  0.0000000  0.6694400  3
  16360  16359  16373  16377     1  0.0000000  0.6508444  3
  16360  16359  16373  16378     1  0.0000000  0.6508444  3
  16361  16359  16360  16363     1  0.0000000  0.6508444  3
  16361  16359  16360  16372     1  0.0000000  1.0460000  1
  16361  16359  16360  16372     1  0.0000000  0.0000000  3
  16361  16359  16360  16362     1  0.0000000  0.6508444  3
  16361  16359  16373  16379     1  0.0000000  1.0460000  1
  16361  16359  16373  16379     1  0.0000000  0.0000000  3
  16361  16359  16373  16377     1  0.0000000  0.6508444  3
  16361  16359  16373  16378     1  0.0000000  0.6508444  3
  16361  16359  16381  16365     1  0.0000000  1.6038667  3
  16362  16360  16363  16364     1  0.0000000  0.6508444  3
  16362  16360  16363  16371     1  0.0000000  1.0460000  1
  16362  16360  16363  16371     1  0.0000000  0.0000000  3
  16362  16360  16363  16367     1  0.0000000  0.6508444  3
  16362  16360  16372  16375     1  0.0000000  0.6973333  3
  16362  16360  16359  16373     1  0.0000000  0.6508444  3
  16362  16360  16359  16381     1  0.0000000  1.0460000  1
  16362  16360  16359  16381     1  0.0000000  0.0000000  3
  16363  16364  16365  16368     1  0.0000000  0.6508444  3
  16363  16364  16370  16376     1  0.0000000  1.0460000  1
  16363  16364  16370  16376     1  0.0000000  0.6694400  3
  16363  16360  16372  16375     1  0.0000000  1.0460000  1
  16363  16360  16372  16375     1  0.0000000  0.6694400  3
  16364  16363  16371  16374     1  0.0000000  1.0460000  1
  16364  16363  16371  16374     1  0.0000000  0.6694400  3
  16365  16364  16370  16376     1  0.0000000  1.0460000  1
  16365  16364  16370  16376     1  0.0000000  0.6694400  3
  16365  16364  16363  16367     1  0.0000000  0.6508444  3
  16366  16364  16365  16369     1  0.0000000  1.0460000  1
  16366  16364  16365  16369     1  0.0000000  0.0000000  3
  16366  16364  16365  16381     1  0.0000000  1.0460000  1
  16366  16364  16365  16381     1  0.0000000  0.0000000  3
  16366  16364  16365  16368     1  0.0000000  0.6508444  3
  16366  16364  16370  16376     1  0.0000000  0.6973333  3
  16366  16364  16363  16371     1  0.0000000  1.0460000  1
  16366  16364  16363  16371     1  0.0000000  0.0000000  3
  16366  16364  16363  16367     1  0.0000000  0.6508444  3
  16367  16363  16364  16370     1  0.0000000  1.0460000  1
  16367  16363  16364  16370     1  0.0000000  0.0000000  3
  16367  16363  16371  16374     1  0.0000000  0.6973333  3
  16367  16363  16360  16372     1  0.0000000  1.0460000  1
  16367  16363  16360  16372     1  0.0000000  0.0000000  3
  16368  16365  16364  16370     1  0.0000000  0.6508444  3
  16377  16373  16379  16380     1  0.0000000  0.6973333  3
  16377  16373  16359  16381     1  0.0000000  1.0460000  1
  16377  16373  16359  16381     1  0.0000000  0.0000000  3
  16378  16373  16379  16380     1  0.0000000  0.6973333  3
  16378  16373  16359  16381     1  0.0000000  1.0460000  1
  16378  16373  16359  16381     1  0.0000000  0.0000000  3
  16382  16383  16386  16390     1  0.0000000  0.6508444  3
  16382  16383  16395  16398     1  0.0000000  1.0460000  1
  16382  16383  16395  16398     1  0.0000000  0.6694400  3
  16382  16396  16402  16403     1  0.0000000  1.0460000  1
  16382  16396  16402  16403     1  0.0000000  0.6694400  3
  16382  16404  16388  16391     1  0.0000000  1.6038667  3
  16383  16382  16396  16400     1  0.0000000  0.6508444  3
  16383  16382  16396  16401     1  0.0000000  0.6508444  3
  16383  16386  16387  16389     1  0.0000000  0.6508444  3
  16383  16386  16394  16397     1  0.0000000  1.0460000  1
  16383  16386  16394  16397     1  0.0000000  0.6694400  3
  16384  16382  16383  16386     1  0.0000000  0.6508444  3
  16384  16382  16383  16395     1  0.0000000  1.0460000  1
  16384  16382  16383  16395     1  0.0000000  0.0000000  3
  16384  16382  16383  16385     1  0.0000000  0.6508444  3
  16384  16382  16396  16402     1  0.0000000  1.0460000  1
  16384  16382  16396  16402     1  0.0000000  0.0000000  3
  16384  16382  16396  16400     1  0.0000000  0.6508444  3
  16384  16382  16396  16401     1  0.0000000  0.6508444  3
  16384  16382  16404  16388     1  0.0000000  1.6038667  3
  16385  16383  16382  16396     1  0.0000000  0.6508444  3
  16385  16383  16382  16404     1  0.0000000  1.0460000  1
  16385  16383  16382  16404     1  0.0000000  0.0000000  3
  16385  16383  16386  16387     1  0.0000000  0.6508444  3
  16385  16383  16386  16394     1  0.0000000  1.0460000  1
  16385  16383  16386  16394     1  0.0000000  0.0000000  3
  16385  16383  16386  16390     1  0.0000000  0.6508444  3
  16385  16383  16395  16398     1  0.0000000  0.6973333  3
  16386  16383  16395  16398     1  0.0000000  1.0460000  1
  16386  16383  16395  16398     1  0.0000000  0.6694400  3
  16386  16387  16388  16391     1  0.0000000  0.6508444  3
  16386  16387  16393  16399     1  0.0000000  1.0460000  1
  16386  16387  16393  16399     1  0.0000000  0.6694400  3
  16387  16386  16394  16397     1  0.0000000  1.0460000  1
  16387  16386  16394  16397     1  0.0000000  0.6694400  3
  16388  16387  16386  16390     1  0.0000000  0.6508444  3
  16388  16387  16393  16399     1  0.0000000  1.0460000  1
  16388  16387  16393  16399     1  0.0000000  0.6694400  3
  16389  16387  16386  16394     1  0.0000000  1.0460000  1
  16389  16387  16386  16394     1  0.0000000  0.0000000  3
  16389  16387  16386  16390     1  0.0000000  0.6508444  3
  16389  16387  16388  16392     1  0.0000000  1.0460000  1
  16389  16387  16388  16392     1  0.0000000  0.0000000  3
  16389  16387  16388  16404     1  0.0000000  1.0460000  1
  16389  16387  16388  16404     1  0.0000000  0.0000000  3
  16389  16387  16388  16391     1  0.0000000  0.6508444  3
  16389  16387  16393  16399     1  0.0000000  0.6973333  3
  16390  16386  16383  16395     1  0.0000000  1.0460000  1
  16390  16386  16383  16395     1  0.0000000  0.0000000  3
  16390  16386  16387  16393     1  0.0000000  1.0460000  1
  16390  16386  16387  16393     1  0.0000000  0.0000000  3
  16390  16386  16394  16397     1  0.0000000  0.6973333  3
  16391  16388  16387  16393     1  0.0000000  0.6508444  3
  16400  16396  16382  16404     1  0.0000000  1.0460000  1
  16400  16396  16382  16404     1  0.0000000  0.0000000  3
  16400  16396  16402  16403     1  0.0000000  0.6973333  3
  16401  16396  16382  16404     1  0.0000000  1.0460000  1
  16401  16396  16382  16404     1  0.0000000  0.0000000  3
  16401  16396  16402  16403     1  0.0000000  0.6973333  3
  16405  16406  16409  16413     1  0.0000000  0.6508444  3
  16405  16406  16418  16421     1  0.0000000  1.0460000  1
  16405  16406  16418  16421     1  0.0000000  0.6694400  3
  16405  16419  16425  16426     1  0.0000000  1.0460000  1
  16405  16419  16425  16426     1  0.0000000  0.6694400  3
  16405  16427  16411  16414     1  0.0000000  1.6038667  3
  16406  16409  16410  16412     1  0.0000000  0.6508444  3
  16406  16409  16417  16420     1  0.0000000  1.0460000  1
  16406  16409  16417  16420     1  0.0000000  0.6694400  3
  16406  16405  16419  16423     1  0.0000000  0.6508444  3
  16406  16405  16419  16424     1  0.0000000  0.6508444  3
  16407  16405  16406  16409     1  0.0000000  0.6508444  3
  16407  16405  16406  16418     1  0.0000000  1.0460000  1
  16407  16405  16406  16418     1  0.0000000  0.0000000  3
  16407  16405  16406  16408     1  0.0000000  0.6508444  3
  16407  16405  16419  16425     1  0.0000000  1.0460000  1
  16407  16405  16419  16425     1  0.0000000  0.0000000  3
  16407  16405  16419  16423     1  0.0000000  0.6508444  3
  16407  16405  16419  16424     1  0.0000000  0.6508444  3
  16407  16405  16427  16411     1  0.0000000  1.6038667  3
  16408  16406  16409  16410     1  0.0000000  0.6508444  3
  16408  16406  16409  16417     1  0.0000000  1.0460000  1
  16408  16406  16409  16417     1  0.0000000  0.0000000  3
  16408  16406  16409  16413     1  0.0000000  0.6508444  3
  16408  16406  16418  16421     1  0.0000000  0.6973333  3
  16408  16406  16405  16419     1  0.0000000  0.6508444  3
  16408  16406  16405  16427     1  0.0000000  1.0460000  1
  16408  16406  16405  16427     1  0.0000000  0.0000000  3
  16409  16410  16411  16414     1  0.0000000  0.6508444  3
  16409  16410  16416  16422     1  0.0000000  1.0460000  1
  16409  16410  16416  16422     1  0.0000000  0.6694400  3
  16409  16406  16418  16421     1  0.0000000  1.0460000  1
  16409  16406  16418  16421     1  0.0000000  0.6694400  3
  16410  16409  16417  16420     1  0.0000000  1.0460000  1
  16410  16409  16417  16420     1  0.0000000  0.6694400  3
  16411  16410  16416  16422     1  0.0000000  1.0460000  1
  16411  16410  16416  16422     1  0.0000000  0.6694400  3
  16411  16410  16409  16413     1  0.0000000  0.6508444  3
  16412  16410  16411  16415     1  0.0000000  1.0460000  1
  16412  16410  16411  16415     1  0.0000000  0.0000000  3
  16412  16410  16411  16427     1  0.0000000  1.0460000  1
  16412  16410  16411  16427     1  0.0000000  0.0000000  3
  16412  16410  16411  16414     1  0.0000000  0.6508444  3
  16412  16410  16416  16422     1  0.0000000  0.6973333  3
  16412  16410  16409  16417     1  0.0000000  1.0460000  1
  16412  16410  16409  16417     1  0.0000000  0.0000000  3
  16412  16410  16409  16413     1  0.0000000  0.6508444  3
  16413  16409  16410  16416     1  0.0000000  1.0460000  1
  16413  16409  16410  16416     1  0.0000000  0.0000000  3
  16413  16409  16417  16420     1  0.0000000  0.6973333  3
  16413  16409  16406  16418     1  0.0000000  1.0460000  1
  16413  16409  16406  16418     1  0.0000000  0.0000000  3
  16414  16411  16410  16416     1  0.0000000  0.6508444  3
  16423  16419  16425  16426     1  0.0000000  0.6973333  3
  16423  16419  16405  16427     1  0.0000000  1.0460000  1
  16423  16419  16405  16427     1  0.0000000  0.0000000  3
  16424  16419  16425  16426     1  0.0000000  0.6973333  3
  16424  16419  16405  16427     1  0.0000000  1.0460000  1
  16424  16419  16405  16427     1  0.0000000  0.0000000  3
  16428  16429  16432  16436     1  0.0000000  0.6508444  3
  16428  16429  16441  16444     1  0.0000000  1.0460000  1
  16428  16429  16441  16444     1  0.0000000  0.6694400  3
  16428  16442  16448  16449     1  0.0000000  1.0460000  1
  16428  16442  16448  16449     1  0.0000000  0.6694400  3
  16428  16450  16434  16437     1  0.0000000  1.6038667  3
  16429  16428  16442  16446     1  0.0000000  0.6508444  3
  16429  16428  16442  16447     1  0.0000000  0.6508444  3
  16429  16432  16433  16435     1  0.0000000  0.6508444  3
  16429  16432  16440  16443     1  0.0000000  1.0460000  1
  16429  16432  16440  16443     1  0.0000000  0.6694400  3
  16430  16428  16429  16432     1  0.0000000  0.6508444  3
  16430  16428  16429  16441     1  0.0000000  1.0460000  1
  16430  16428  16429  16441     1  0.0000000  0.0000000  3
  16430  16428  16429  16431     1  0.0000000  0.6508444  3
  16430  16428  16442  16448     1  0.0000000  1.0460000  1
  16430  16428  16442  16448     1  0.0000000  0.0000000  3
  16430  16428  16442  16446     1  0.0000000  0.6508444  3
  16430  16428  16442  16447     1  0.0000000  0.6508444  3
  16430  16428  16450  16434     1  0.0000000  1.6038667  3
  16431  16429  16428  16442     1  0.0000000  0.6508444  3
  16431  16429  16428  16450     1  0.0000000  1.0460000  1
  16431  16429  16428  16450     1  0.0000000  0.0000000  3
  16431  16429  16432  16433     1  0.0000000  0.6508444  3
  16431  16429  16432  16440     1  0.0000000  1.0460000  1
  16431  16429  16432  16440     1  0.0000000  0.0000000  3
  16431  16429  16432  16436     1  0.0000000  0.6508444  3
  16431  16429  16441  16444     1  0.0000000  0.6973333  3
  16432  16429  16441  16444     1  0.0000000  1.0460000  1
  16432  16429  16441  16444     1  0.0000000  0.6694400  3
  16432  16433  16434  16437     1  0.0000000  0.6508444  3
  16432  16433  16439  16445     1  0.0000000  1.0460000  1
  16432  16433  16439  16445     1  0.0000000  0.6694400  3
  16433  16432  16440  16443     1  0.0000000  1.0460000  1
  16433  16432  16440  16443     1  0.0000000  0.6694400  3
  16434  16433  16432  16436     1  0.0000000  0.6508444  3
  16434  16433  16439  16445     1  0.0000000  1.0460000  1
  16434  16433  16439  16445     1  0.0000000  0.6694400  3
  16435  16433  16432  16440     1  0.0000000  1.0460000  1
  16435  16433  16432  16440     1  0.0000000  0.0000000  3
  16435  16433  16432  16436     1  0.0000000  0.6508444  3
  16435  16433  16434  16438     1  0.0000000  1.0460000  1
  16435  16433  16434  16438     1  0.0000000  0.0000000  3
  16435  16433  16434  16450     1  0.0000000  1.0460000  1
  16435  16433  16434  16450     1  0.0000000  0.0000000  3
  16435  16433  16434  16437     1  0.0000000  0.6508444  3
  16435  16433  16439  16445     1  0.0000000  0.6973333  3
  16436  16432  16429  16441     1  0.0000000  1.0460000  1
  16436  16432  16429  16441     1  0.0000000  0.0000000  3
  16436  16432  16433  16439     1  0.0000000  1.0460000  1
  16436  16432  16433  16439     1  0.0000000  0.0000000  3
  16436  16432  16440  16443     1  0.0000000  0.6973333  3
  16437  16434  16433  16439     1  0.0000000  0.6508444  3
  16446  16442  16428  16450     1  0.0000000  1.0460000  1
  16446  16442  16428  16450     1  0.0000000  0.0000000  3
  16446  16442  16448  16449     1  0.0000000  0.6973333  3
  16447  16442  16428  16450     1  0.0000000  1.0460000  1
  16447  16442  16428  16450     1  0.0000000  0.0000000  3
  16447  16442  16448  16449     1  0.0000000  0.6973333  3
  16451  16452  16455  16459     1  0.0000000  0.6508444  3
  16451  16452  16464  16467     1  0.0000000  1.0460000  1
  16451  16452  16464  16467     1  0.0000000  0.6694400  3
  16451  16465  16471  16472     1  0.0000000  1.0460000  1
  16451  16465  16471  16472     1  0.0000000  0.6694400  3
  16451  16473  16457  16460     1  0.0000000  1.6038667  3
  16452  16455  16456  16458     1  0.0000000  0.6508444  3
  16452  16455  16463  16466     1  0.0000000  1.0460000  1
  16452  16455  16463  16466     1  0.0000000  0.6694400  3
  16452  16451  16465  16469     1  0.0000000  0.6508444  3
  16452  16451  16465  16470     1  0.0000000  0.6508444  3
  16453  16451  16452  16455     1  0.0000000  0.6508444  3
  16453  16451  16452  16464     1  0.0000000  1.0460000  1
  16453  16451  16452  16464     1  0.0000000  0.0000000  3
  16453  16451  16452  16454     1  0.0000000  0.6508444  3
  16453  16451  16465  16471     1  0.0000000  1.0460000  1
  16453  16451  16465  16471     1  0.0000000  0.0000000  3
  16453  16451  16465  16469     1  0.0000000  0.6508444  3
  16453  16451  16465  16470     1  0.0000000  0.6508444  3
  16453  16451  16473  16457     1  0.0000000  1.6038667  3
  16454  16452  16455  16456     1  0.0000000  0.6508444  3
  16454  16452  16455  16463     1  0.0000000  1.0460000  1
  16454  16452  16455  16463     1  0.0000000  0.0000000  3
  16454  16452  16455  16459     1  0.0000000  0.6508444  3
  16454  16452  16464  16467     1  0.0000000  0.6973333  3
  16454  16452  16451  16465     1  0.0000000  0.6508444  3
  16454  16452  16451  16473     1  0.0000000  1.0460000  1
  16454  16452  16451  16473     1  0.0000000  0.0000000  3
  16455  16456  16457  16460     1  0.0000000  0.6508444  3
  16455  16456  16462  16468     1  0.0000000  1.0460000  1
  16455  16456  16462  16468     1  0.0000000  0.6694400  3
  16455  16452  16464  16467     1  0.0000000  1.0460000  1
  16455  16452  16464  16467     1  0.0000000  0.6694400  3
  16456  16455  16463  16466     1  0.0000000  1.0460000  1
  16456  16455  16463  16466     1  0.0000000  0.6694400  3
  16457  16456  16462  16468     1  0.0000000  1.0460000  1
  16457  16456  16462  16468     1  0.0000000  0.6694400  3
  16457  16456  16455  16459     1  0.0000000  0.6508444  3
  16458  16456  16457  16461     1  0.0000000  1.0460000  1
  16458  16456  16457  16461     1  0.0000000  0.0000000  3
  16458  16456  16457  16473     1  0.0000000  1.0460000  1
  16458  16456  16457  16473     1  0.0000000  0.0000000  3
  16458  16456  16457  16460     1  0.0000000  0.6508444  3
  16458  16456  16462  16468     1  0.0000000  0.6973333  3
  16458  16456  16455  16463     1  0.0000000  1.0460000  1
  16458  16456  16455  16463     1  0.0000000  0.0000000  3
  16458  16456  16455  16459     1  0.0000000  0.6508444  3
  16459  16455  16456  16462     1  0.0000000  1.0460000  1
  16459  16455  16456  16462     1  0.0000000  0.0000000  3
  16459  16455  16463  16466     1  0.0000000  0.6973333  3
  16459  16455  16452  16464     1  0.0000000  1.0460000  1
  16459  16455  16452  16464     1  0.0000000  0.0000000  3
  16460  16457  16456  16462     1  0.0000000  0.6508444  3
  16469  16465  16471  16472     1  0.0000000  0.6973333  3
  16469  16465  16451  16473     1  0.0000000  1.0460000  1
  16469  16465  16451  16473     1  0.0000000  0.0000000  3
  16470  16465  16471  16472     1  0.0000000  0.6973333  3
  16470  16465  16451  16473     1  0.0000000  1.0460000  1
  16470  16465  16451  16473     1  0.0000000  0.0000000  3
  16474  16475  16478  16482     1  0.0000000  0.6508444  3
  16474  16475  16487  16490     1  0.0000000  1.0460000  1
  16474  16475  16487  16490     1  0.0000000  0.6694400  3
  16474  16488  16494  16495     1  0.0000000  1.0460000  1
  16474  16488  16494  16495     1  0.0000000  0.6694400  3
  16474  16496  16480  16483     1  0.0000000  1.6038667  3
  16475  16474  16488  16492     1  0.0000000  0.6508444  3
  16475  16474  16488  16493     1  0.0000000  0.6508444  3
  16475  16478  16479  16481     1  0.0000000  0.6508444  3
  16475  16478  16486  16489     1  0.0000000  1.0460000  1
  16475  16478  16486  16489     1  0.0000000  0.6694400  3
  16476  16474  16475  16478     1  0.0000000  0.6508444  3
  16476  16474  16475  16487     1  0.0000000  1.0460000  1
  16476  16474  16475  16487     1  0.0000000  0.0000000  3
  16476  16474  16475  16477     1  0.0000000  0.6508444  3
  16476  16474  16488  16494     1  0.0000000  1.0460000  1
  16476  16474  16488  16494     1  0.0000000  0.0000000  3
  16476  16474  16488  16492     1  0.0000000  0.6508444  3
  16476  16474  16488  16493     1  0.0000000  0.6508444  3
  16476  16474  16496  16480     1  0.0000000  1.6038667  3
  16477  16475  16474  16488     1  0.0000000  0.6508444  3
  16477  16475  16474  16496     1  0.0000000  1.0460000  1
  16477  16475  16474  16496     1  0.0000000  0.0000000  3
  16477  16475  16478  16479     1  0.0000000  0.6508444  3
  16477  16475  16478  16486     1  0.0000000  1.0460000  1
  16477  16475  16478  16486     1  0.0000000  0.0000000  3
  16477  16475  16478  16482     1  0.0000000  0.6508444  3
  16477  16475  16487  16490     1  0.0000000  0.6973333  3
  16478  16475  16487  16490     1  0.0000000  1.0460000  1
  16478  16475  16487  16490     1  0.0000000  0.6694400  3
  16478  16479  16480  16483     1  0.0000000  0.6508444  3
  16478  16479  16485  16491     1  0.0000000  1.0460000  1
  16478  16479  16485  16491     1  0.0000000  0.6694400  3
  16479  16478  16486  16489     1  0.0000000  1.0460000  1
  16479  16478  16486  16489     1  0.0000000  0.6694400  3
  16480  16479  16478  16482     1  0.0000000  0.6508444  3
  16480  16479  16485  16491     1  0.0000000  1.0460000  1
  16480  16479  16485  16491     1  0.0000000  0.6694400  3
  16481  16479  16478  16486     1  0.0000000  1.0460000  1
  16481  16479  16478  16486     1  0.0000000  0.0000000  3
  16481  16479  16478  16482     1  0.0000000  0.6508444  3
  16481  16479  16480  16484     1  0.0000000  1.0460000  1
  16481  16479  16480  16484     1  0.0000000  0.0000000  3
  16481  16479  16480  16496     1  0.0000000  1.0460000  1
  16481  16479  16480  16496     1  0.0000000  0.0000000  3
  16481  16479  16480  16483     1  0.0000000  0.6508444  3
  16481  16479  16485  16491     1  0.0000000  0.6973333  3
  16482  16478  16475  16487     1  0.0000000  1.0460000  1
  16482  16478  16475  16487     1  0.0000000  0.0000000  3
  16482  16478  16479  16485     1  0.0000000  1.0460000  1
  16482  16478  16479  16485     1  0.0000000  0.0000000  3
  16482  16478  16486  16489     1  0.0000000  0.6973333  3
  16483  16480  16479  16485     1  0.0000000  0.6508444  3
  16492  16488  16474  16496     1  0.0000000  1.0460000  1
  16492  16488  16474  16496     1  0.0000000  0.0000000  3
  16492  16488  16494  16495     1  0.0000000  0.6973333  3
  16493  16488  16474  16496     1  0.0000000  1.0460000  1
  16493  16488  16474  16496     1  0.0000000  0.0000000  3
  16493  16488  16494  16495     1  0.0000000  0.6973333  3
  16497  16498  16501  16505     1  0.0000000  0.6508444  3
  16497  16498  16510  16513     1  0.0000000  1.0460000  1
  16497  16498  16510  16513     1  0.0000000  0.6694400  3
  16497  16511  16517  16518     1  0.0000000  1.0460000  1
  16497  16511  16517  16518     1  0.0000000  0.6694400  3
  16497  16519  16503  16506     1  0.0000000  1.6038667  3
  16498  16501  16502  16504     1  0.0000000  0.6508444  3
  16498  16501  16509  16512     1  0.0000000  1.0460000  1
  16498  16501  16509  16512     1  0.0000000  0.6694400  3
  16498  16497  16511  16515     1  0.0000000  0.6508444  3
  16498  16497  16511  16516     1  0.0000000  0.6508444  3
  16499  16497  16498  16501     1  0.0000000  0.6508444  3
  16499  16497  16498  16510     1  0.0000000  1.0460000  1
  16499  16497  16498  16510     1  0.0000000  0.0000000  3
  16499  16497  16498  16500     1  0.0000000  0.6508444  3
  16499  16497  16511  16517     1  0.0000000  1.0460000  1
  16499  16497  16511  16517     1  0.0000000  0.0000000  3
  16499  16497  16511  16515     1  0.0000000  0.6508444  3
  16499  16497  16511  16516     1  0.0000000  0.6508444  3
  16499  16497  16519  16503     1  0.0000000  1.6038667  3
  16500  16498  16501  16502     1  0.0000000  0.6508444  3
  16500  16498  16501  16509     1  0.0000000  1.0460000  1
  16500  16498  16501  16509     1  0.0000000  0.0000000  3
  16500  16498  16501  16505     1  0.0000000  0.6508444  3
  16500  16498  16510  16513     1  0.0000000  0.6973333  3
  16500  16498  16497  16511     1  0.0000000  0.6508444  3
  16500  16498  16497  16519     1  0.0000000  1.0460000  1
  16500  16498  16497  16519     1  0.0000000  0.0000000  3
  16501  16502  16503  16506     1  0.0000000  0.6508444  3
  16501  16502  16508  16514     1  0.0000000  1.0460000  1
  16501  16502  16508  16514     1  0.0000000  0.6694400  3
  16501  16498  16510  16513     1  0.0000000  1.0460000  1
  16501  16498  16510  16513     1  0.0000000  0.6694400  3
  16502  16501  16509  16512     1  0.0000000  1.0460000  1
  16502  16501  16509  16512     1  0.0000000  0.6694400  3
  16503  16502  16508  16514     1  0.0000000  1.0460000  1
  16503  16502  16508  16514     1  0.0000000  0.6694400  3
  16503  16502  16501  16505     1  0.0000000  0.6508444  3
  16504  16502  16503  16507     1  0.0000000  1.0460000  1
  16504  16502  16503  16507     1  0.0000000  0.0000000  3
  16504  16502  16503  16519     1  0.0000000  1.0460000  1
  16504  16502  16503  16519     1  0.0000000  0.0000000  3
  16504  16502  16503  16506     1  0.0000000  0.6508444  3
  16504  16502  16508  16514     1  0.0000000  0.6973333  3
  16504  16502  16501  16509     1  0.0000000  1.0460000  1
  16504  16502  16501  16509     1  0.0000000  0.0000000  3
  16504  16502  16501  16505     1  0.0000000  0.6508444  3
  16505  16501  16502  16508     1  0.0000000  1.0460000  1
  16505  16501  16502  16508     1  0.0000000  0.0000000  3
  16505  16501  16509  16512     1  0.0000000  0.6973333  3
  16505  16501  16498  16510     1  0.0000000  1.0460000  1
  16505  16501  16498  16510     1  0.0000000  0.0000000  3
  16506  16503  16502  16508     1  0.0000000  0.6508444  3
  16515  16511  16517  16518     1  0.0000000  0.6973333  3
  16515  16511  16497  16519     1  0.0000000  1.0460000  1
  16515  16511  16497  16519     1  0.0000000  0.0000000  3
  16516  16511  16517  16518     1  0.0000000  0.6973333  3
  16516  16511  16497  16519     1  0.0000000  1.0460000  1
  16516  16511  16497  16519     1  0.0000000  0.0000000  3
  16520  16521  16524  16528     1  0.0000000  0.6508444  3
  16520  16521  16533  16536     1  0.0000000  1.0460000  1
  16520  16521  16533  16536     1  0.0000000  0.6694400  3
  16520  16534  16540  16541     1  0.0000000  1.0460000  1
  16520  16534  16540  16541     1  0.0000000  0.6694400  3
  16520  16542  16526  16529     1  0.0000000  1.6038667  3
  16521  16520  16534  16538     1  0.0000000  0.6508444  3
  16521  16520  16534  16539     1  0.0000000  0.6508444  3
  16521  16524  16525  16527     1  0.0000000  0.6508444  3
  16521  16524  16532  16535     1  0.0000000  1.0460000  1
  16521  16524  16532  16535     1  0.0000000  0.6694400  3
  16522  16520  16521  16524     1  0.0000000  0.6508444  3
  16522  16520  16521  16533     1  0.0000000  1.0460000  1
  16522  16520  16521  16533     1  0.0000000  0.0000000  3
  16522  16520  16521  16523     1  0.0000000  0.6508444  3
  16522  16520  16534  16540     1  0.0000000  1.0460000  1
  16522  16520  16534  16540     1  0.0000000  0.0000000  3
  16522  16520  16534  16538     1  0.0000000  0.6508444  3
  16522  16520  16534  16539     1  0.0000000  0.6508444  3
  16522  16520  16542  16526     1  0.0000000  1.6038667  3
  16523  16521  16520  16534     1  0.0000000  0.6508444  3
  16523  16521  16520  16542     1  0.0000000  1.0460000  1
  16523  16521  16520  16542     1  0.0000000  0.0000000  3
  16523  16521  16524  16525     1  0.0000000  0.6508444  3
  16523  16521  16524  16532     1  0.0000000  1.0460000  1
  16523  16521  16524  16532     1  0.0000000  0.0000000  3
  16523  16521  16524  16528     1  0.0000000  0.6508444  3
  16523  16521  16533  16536     1  0.0000000  0.6973333  3
  16524  16521  16533  16536     1  0.0000000  1.0460000  1
  16524  16521  16533  16536     1  0.0000000  0.6694400  3
  16524  16525  16526  16529     1  0.0000000  0.6508444  3
  16524  16525  16531  16537     1  0.0000000  1.0460000  1
  16524  16525  16531  16537     1  0.0000000  0.6694400  3
  16525  16524  16532  16535     1  0.0000000  1.0460000  1
  16525  16524  16532  16535     1  0.0000000  0.6694400  3
  16526  16525  16524  16528     1  0.0000000  0.6508444  3
  16526  16525  16531  16537     1  0.0000000  1.0460000  1
  16526  16525  16531  16537     1  0.0000000  0.6694400  3
  16527  16525  16524  16532     1  0.0000000  1.0460000  1
  16527  16525  16524  16532     1  0.0000000  0.0000000  3
  16527  16525  16524  16528     1  0.0000000  0.6508444  3
  16527  16525  16526  16530     1  0.0000000  1.0460000  1
  16527  16525  16526  16530     1  0.0000000  0.0000000  3
  16527  16525  16526  16542     1  0.0000000  1.0460000  1
  16527  16525  16526  16542     1  0.0000000  0.0000000  3
  16527  16525  16526  16529     1  0.0000000  0.6508444  3
  16527  16525  16531  16537     1  0.0000000  0.6973333  3
  16528  16524  16521  16533     1  0.0000000  1.0460000  1
  16528  16524  16521  16533     1  0.0000000  0.0000000  3
  16528  16524  16525  16531     1  0.0000000  1.0460000  1
  16528  16524  16525  16531     1  0.0000000  0.0000000  3
  16528  16524  16532  16535     1  0.0000000  0.6973333  3
  16529  16526  16525  16531     1  0.0000000  0.6508444  3
  16538  16534  16520  16542     1  0.0000000  1.0460000  1
  16538  16534  16520  16542     1  0.0000000  0.0000000  3
  16538  16534  16540  16541     1  0.0000000  0.6973333  3
  16539  16534  16520  16542     1  0.0000000  1.0460000  1
  16539  16534  16520  16542     1  0.0000000  0.0000000  3
  16539  16534  16540  16541     1  0.0000000  0.6973333  3
  16543  16544  16547  16551     1  0.0000000  0.6508444  3
  16543  16544  16556  16559     1  0.0000000  1.0460000  1
  16543  16544  16556  16559     1  0.0000000  0.6694400  3
  16543  16557  16563  16564     1  0.0000000  1.0460000  1
  16543  16557  16563  16564     1  0.0000000  0.6694400  3
  16543  16565  16549  16552     1  0.0000000  1.6038667  3
  16544  16547  16548  16550     1  0.0000000  0.6508444  3
  16544  16547  16555  16558     1  0.0000000  1.0460000  1
  16544  16547  16555  16558     1  0.0000000  0.6694400  3
  16544  16543  16557  16561     1  0.0000000  0.6508444  3
  16544  16543  16557  16562     1  0.0000000  0.6508444  3
  16545  16543  16544  16547     1  0.0000000  0.6508444  3
  16545  16543  16544  16556     1  0.0000000  1.0460000  1
  16545  16543  16544  16556     1  0.0000000  0.0000000  3
  16545  16543  16544  16546     1  0.0000000  0.6508444  3
  16545  16543  16557  16563     1  0.0000000  1.0460000  1
  16545  16543  16557  16563     1  0.0000000  0.0000000  3
  16545  16543  16557  16561     1  0.0000000  0.6508444  3
  16545  16543  16557  16562     1  0.0000000  0.6508444  3
  16545  16543  16565  16549     1  0.0000000  1.6038667  3
  16546  16544  16547  16548     1  0.0000000  0.6508444  3
  16546  16544  16547  16555     1  0.0000000  1.0460000  1
  16546  16544  16547  16555     1  0.0000000  0.0000000  3
  16546  16544  16547  16551     1  0.0000000  0.6508444  3
  16546  16544  16556  16559     1  0.0000000  0.6973333  3
  16546  16544  16543  16557     1  0.0000000  0.6508444  3
  16546  16544  16543  16565     1  0.0000000  1.0460000  1
  16546  16544  16543  16565     1  0.0000000  0.0000000  3
  16547  16548  16549  16552     1  0.0000000  0.6508444  3
  16547  16548  16554  16560     1  0.0000000  1.0460000  1
  16547  16548  16554  16560     1  0.0000000  0.6694400  3
  16547  16544  16556  16559     1  0.0000000  1.0460000  1
  16547  16544  16556  16559     1  0.0000000  0.6694400  3
  16548  16547  16555  16558     1  0.0000000  1.0460000  1
  16548  16547  16555  16558     1  0.0000000  0.6694400  3
  16549  16548  16554  16560     1  0.0000000  1.0460000  1
  16549  16548  16554  16560     1  0.0000000  0.6694400  3
  16549  16548  16547  16551     1  0.0000000  0.6508444  3
  16550  16548  16549  16553     1  0.0000000  1.0460000  1
  16550  16548  16549  16553     1  0.0000000  0.0000000  3
  16550  16548  16549  16565     1  0.0000000  1.0460000  1
  16550  16548  16549  16565     1  0.0000000  0.0000000  3
  16550  16548  16549  16552     1  0.0000000  0.6508444  3
  16550  16548  16554  16560     1  0.0000000  0.6973333  3
  16550  16548  16547  16555     1  0.0000000  1.0460000  1
  16550  16548  16547  16555     1  0.0000000  0.0000000  3
  16550  16548  16547  16551     1  0.0000000  0.6508444  3
  16551  16547  16548  16554     1  0.0000000  1.0460000  1
  16551  16547  16548  16554     1  0.0000000  0.0000000  3
  16551  16547  16555  16558     1  0.0000000  0.6973333  3
  16551  16547  16544  16556     1  0.0000000  1.0460000  1
  16551  16547  16544  16556     1  0.0000000  0.0000000  3
  16552  16549  16548  16554     1  0.0000000  0.6508444  3
  16561  16557  16563  16564     1  0.0000000  0.6973333  3
  16561  16557  16543  16565     1  0.0000000  1.0460000  1
  16561  16557  16543  16565     1  0.0000000  0.0000000  3
  16562  16557  16563  16564     1  0.0000000  0.6973333  3
  16562  16557  16543  16565     1  0.0000000  1.0460000  1
  16562  16557  16543  16565     1  0.0000000  0.0000000  3
  16566  16567  16570  16574     1  0.0000000  0.6508444  3
  16566  16567  16579  16582     1  0.0000000  1.0460000  1
  16566  16567  16579  16582     1  0.0000000  0.6694400  3
  16566  16580  16586  16587     1  0.0000000  1.0460000  1
  16566  16580  16586  16587     1  0.0000000  0.6694400  3
  16566  16588  16572  16575     1  0.0000000  1.6038667  3
  16567  16566  16580  16584     1  0.0000000  0.6508444  3
  16567  16566  16580  16585     1  0.0000000  0.6508444  3
  16567  16570  16571  16573     1  0.0000000  0.6508444  3
  16567  16570  16578  16581     1  0.0000000  1.0460000  1
  16567  16570  16578  16581     1  0.0000000  0.6694400  3
  16568  16566  16567  16570     1  0.0000000  0.6508444  3
  16568  16566  16567  16579     1  0.0000000  1.0460000  1
  16568  16566  16567  16579     1  0.0000000  0.0000000  3
  16568  16566  16567  16569     1  0.0000000  0.6508444  3
  16568  16566  16580  16586     1  0.0000000  1.0460000  1
  16568  16566  16580  16586     1  0.0000000  0.0000000  3
  16568  16566  16580  16584     1  0.0000000  0.6508444  3
  16568  16566  16580  16585     1  0.0000000  0.6508444  3
  16568  16566  16588  16572     1  0.0000000  1.6038667  3
  16569  16567  16566  16580     1  0.0000000  0.6508444  3
  16569  16567  16566  16588     1  0.0000000  1.0460000  1
  16569  16567  16566  16588     1  0.0000000  0.0000000  3
  16569  16567  16570  16571     1  0.0000000  0.6508444  3
  16569  16567  16570  16578     1  0.0000000  1.0460000  1
  16569  16567  16570  16578     1  0.0000000  0.0000000  3
  16569  16567  16570  16574     1  0.0000000  0.6508444  3
  16569  16567  16579  16582     1  0.0000000  0.6973333  3
  16570  16567  16579  16582     1  0.0000000  1.0460000  1
  16570  16567  16579  16582     1  0.0000000  0.6694400  3
  16570  16571  16572  16575     1  0.0000000  0.6508444  3
  16570  16571  16577  16583     1  0.0000000  1.0460000  1
  16570  16571  16577  16583     1  0.0000000  0.6694400  3
  16571  16570  16578  16581     1  0.0000000  1.0460000  1
  16571  16570  16578  16581     1  0.0000000  0.6694400  3
  16572  16571  16570  16574     1  0.0000000  0.6508444  3
  16572  16571  16577  16583     1  0.0000000  1.0460000  1
  16572  16571  16577  16583     1  0.0000000  0.6694400  3
  16573  16571  16570  16578     1  0.0000000  1.0460000  1
  16573  16571  16570  16578     1  0.0000000  0.0000000  3
  16573  16571  16570  16574     1  0.0000000  0.6508444  3
  16573  16571  16572  16576     1  0.0000000  1.0460000  1
  16573  16571  16572  16576     1  0.0000000  0.0000000  3
  16573  16571  16572  16588     1  0.0000000  1.0460000  1
  16573  16571  16572  16588     1  0.0000000  0.0000000  3
  16573  16571  16572  16575     1  0.0000000  0.6508444  3
  16573  16571  16577  16583     1  0.0000000  0.6973333  3
  16574  16570  16567  16579     1  0.0000000  1.0460000  1
  16574  16570  16567  16579     1  0.0000000  0.0000000  3
  16574  16570  16571  16577     1  0.0000000  1.0460000  1
  16574  16570  16571  16577     1  0.0000000  0.0000000  3
  16574  16570  16578  16581     1  0.0000000  0.6973333  3
  16575  16572  16571  16577     1  0.0000000  0.6508444  3
  16584  16580  16566  16588     1  0.0000000  1.0460000  1
  16584  16580  16566  16588     1  0.0000000  0.0000000  3
  16584  16580  16586  16587     1  0.0000000  0.6973333  3
  16585  16580  16566  16588     1  0.0000000  1.0460000  1
  16585  16580  16566  16588     1  0.0000000  0.0000000  3
  16585  16580  16586  16587     1  0.0000000  0.6973333  3
  16589  16590  16593  16597     1  0.0000000  0.6508444  3
  16589  16590  16602  16605     1  0.0000000  1.0460000  1
  16589  16590  16602  16605     1  0.0000000  0.6694400  3
  16589  16603  16609  16610     1  0.0000000  1.0460000  1
  16589  16603  16609  16610     1  0.0000000  0.6694400  3
  16589  16611  16595  16598     1  0.0000000  1.6038667  3
  16590  16593  16594  16596     1  0.0000000  0.6508444  3
  16590  16593  16601  16604     1  0.0000000  1.0460000  1
  16590  16593  16601  16604     1  0.0000000  0.6694400  3
  16590  16589  16603  16607     1  0.0000000  0.6508444  3
  16590  16589  16603  16608     1  0.0000000  0.6508444  3
  16591  16589  16590  16593     1  0.0000000  0.6508444  3
  16591  16589  16590  16602     1  0.0000000  1.0460000  1
  16591  16589  16590  16602     1  0.0000000  0.0000000  3
  16591  16589  16590  16592     1  0.0000000  0.6508444  3
  16591  16589  16603  16609     1  0.0000000  1.0460000  1
  16591  16589  16603  16609     1  0.0000000  0.0000000  3
  16591  16589  16603  16607     1  0.0000000  0.6508444  3
  16591  16589  16603  16608     1  0.0000000  0.6508444  3
  16591  16589  16611  16595     1  0.0000000  1.6038667  3
  16592  16590  16593  16594     1  0.0000000  0.6508444  3
  16592  16590  16593  16601     1  0.0000000  1.0460000  1
  16592  16590  16593  16601     1  0.0000000  0.0000000  3
  16592  16590  16593  16597     1  0.0000000  0.6508444  3
  16592  16590  16602  16605     1  0.0000000  0.6973333  3
  16592  16590  16589  16603     1  0.0000000  0.6508444  3
  16592  16590  16589  16611     1  0.0000000  1.0460000  1
  16592  16590  16589  16611     1  0.0000000  0.0000000  3
  16593  16594  16595  16598     1  0.0000000  0.6508444  3
  16593  16594  16600  16606     1  0.0000000  1.0460000  1
  16593  16594  16600  16606     1  0.0000000  0.6694400  3
  16593  16590  16602  16605     1  0.0000000  1.0460000  1
  16593  16590  16602  16605     1  0.0000000  0.6694400  3
  16594  16593  16601  16604     1  0.0000000  1.0460000  1
  16594  16593  16601  16604     1  0.0000000  0.6694400  3
  16595  16594  16600  16606     1  0.0000000  1.0460000  1
  16595  16594  16600  16606     1  0.0000000  0.6694400  3
  16595  16594  16593  16597     1  0.0000000  0.6508444  3
  16596  16594  16595  16599     1  0.0000000  1.0460000  1
  16596  16594  16595  16599     1  0.0000000  0.0000000  3
  16596  16594  16595  16611     1  0.0000000  1.0460000  1
  16596  16594  16595  16611     1  0.0000000  0.0000000  3
  16596  16594  16595  16598     1  0.0000000  0.6508444  3
  16596  16594  16600  16606     1  0.0000000  0.6973333  3
  16596  16594  16593  16601     1  0.0000000  1.0460000  1
  16596  16594  16593  16601     1  0.0000000  0.0000000  3
  16596  16594  16593  16597     1  0.0000000  0.6508444  3
  16597  16593  16594  16600     1  0.0000000  1.0460000  1
  16597  16593  16594  16600     1  0.0000000  0.0000000  3
  16597  16593  16601  16604     1  0.0000000  0.6973333  3
  16597  16593  16590  16602     1  0.0000000  1.0460000  1
  16597  16593  16590  16602     1  0.0000000  0.0000000  3
  16598  16595  16594  16600     1  0.0000000  0.6508444  3
  16607  16603  16609  16610     1  0.0000000  0.6973333  3
  16607  16603  16589  16611     1  0.0000000  1.0460000  1
  16607  16603  16589  16611     1  0.0000000  0.0000000  3
  16608  16603  16609  16610     1  0.0000000  0.6973333  3
  16608  16603  16589  16611     1  0.0000000  1.0460000  1
  16608  16603  16589  16611     1  0.0000000  0.0000000  3
  16612  16613  16616  16620     1  0.0000000  0.6508444  3
  16612  16613  16625  16628     1  0.0000000  1.0460000  1
  16612  16613  16625  16628     1  0.0000000  0.6694400  3
  16612  16626  16632  16633     1  0.0000000  1.0460000  1
  16612  16626  16632  16633     1  0.0000000  0.6694400  3
  16612  16634  16618  16621     1  0.0000000  1.6038667  3
  16613  16612  16626  16630     1  0.0000000  0.6508444  3
  16613  16612  16626  16631     1  0.0000000  0.6508444  3
  16613  16616  16617  16619     1  0.0000000  0.6508444  3
  16613  16616  16624  16627     1  0.0000000  1.0460000  1
  16613  16616  16624  16627     1  0.0000000  0.6694400  3
  16614  16612  16613  16616     1  0.0000000  0.6508444  3
  16614  16612  16613  16625     1  0.0000000  1.0460000  1
  16614  16612  16613  16625     1  0.0000000  0.0000000  3
  16614  16612  16613  16615     1  0.0000000  0.6508444  3
  16614  16612  16626  16632     1  0.0000000  1.0460000  1
  16614  16612  16626  16632     1  0.0000000  0.0000000  3
  16614  16612  16626  16630     1  0.0000000  0.6508444  3
  16614  16612  16626  16631     1  0.0000000  0.6508444  3
  16614  16612  16634  16618     1  0.0000000  1.6038667  3
  16615  16613  16612  16626     1  0.0000000  0.6508444  3
  16615  16613  16612  16634     1  0.0000000  1.0460000  1
  16615  16613  16612  16634     1  0.0000000  0.0000000  3
  16615  16613  16616  16617     1  0.0000000  0.6508444  3
  16615  16613  16616  16624     1  0.0000000  1.0460000  1
  16615  16613  16616  16624     1  0.0000000  0.0000000  3
  16615  16613  16616  16620     1  0.0000000  0.6508444  3
  16615  16613  16625  16628     1  0.0000000  0.6973333  3
  16616  16613  16625  16628     1  0.0000000  1.0460000  1
  16616  16613  16625  16628     1  0.0000000  0.6694400  3
  16616  16617  16618  16621     1  0.0000000  0.6508444  3
  16616  16617  16623  16629     1  0.0000000  1.0460000  1
  16616  16617  16623  16629     1  0.0000000  0.6694400  3
  16617  16616  16624  16627     1  0.0000000  1.0460000  1
  16617  16616  16624  16627     1  0.0000000  0.6694400  3
  16618  16617  16616  16620     1  0.0000000  0.6508444  3
  16618  16617  16623  16629     1  0.0000000  1.0460000  1
  16618  16617  16623  16629     1  0.0000000  0.6694400  3
  16619  16617  16616  16624     1  0.0000000  1.0460000  1
  16619  16617  16616  16624     1  0.0000000  0.0000000  3
  16619  16617  16616  16620     1  0.0000000  0.6508444  3
  16619  16617  16618  16622     1  0.0000000  1.0460000  1
  16619  16617  16618  16622     1  0.0000000  0.0000000  3
  16619  16617  16618  16634     1  0.0000000  1.0460000  1
  16619  16617  16618  16634     1  0.0000000  0.0000000  3
  16619  16617  16618  16621     1  0.0000000  0.6508444  3
  16619  16617  16623  16629     1  0.0000000  0.6973333  3
  16620  16616  16613  16625     1  0.0000000  1.0460000  1
  16620  16616  16613  16625     1  0.0000000  0.0000000  3
  16620  16616  16617  16623     1  0.0000000  1.0460000  1
  16620  16616  16617  16623     1  0.0000000  0.0000000  3
  16620  16616  16624  16627     1  0.0000000  0.6973333  3
  16621  16618  16617  16623     1  0.0000000  0.6508444  3
  16630  16626  16612  16634     1  0.0000000  1.0460000  1
  16630  16626  16612  16634     1  0.0000000  0.0000000  3
  16630  16626  16632  16633     1  0.0000000  0.6973333  3
  16631  16626  16612  16634     1  0.0000000  1.0460000  1
  16631  16626  16612  16634     1  0.0000000  0.0000000  3
  16631  16626  16632  16633     1  0.0000000  0.6973333  3
  16635  16636  16639  16643     1  0.0000000  0.6508444  3
  16635  16636  16648  16651     1  0.0000000  1.0460000  1
  16635  16636  16648  16651     1  0.0000000  0.6694400  3
  16635  16649  16655  16656     1  0.0000000  1.0460000  1
  16635  16649  16655  16656     1  0.0000000  0.6694400  3
  16635  16657  16641  16644     1  0.0000000  1.6038667  3
  16636  16639  16640  16642     1  0.0000000  0.6508444  3
  16636  16639  16647  16650     1  0.0000000  1.0460000  1
  16636  16639  16647  16650     1  0.0000000  0.6694400  3
  16636  16635  16649  16653     1  0.0000000  0.6508444  3
  16636  16635  16649  16654     1  0.0000000  0.6508444  3
  16637  16635  16636  16639     1  0.0000000  0.6508444  3
  16637  16635  16636  16648     1  0.0000000  1.0460000  1
  16637  16635  16636  16648     1  0.0000000  0.0000000  3
  16637  16635  16636  16638     1  0.0000000  0.6508444  3
  16637  16635  16649  16655     1  0.0000000  1.0460000  1
  16637  16635  16649  16655     1  0.0000000  0.0000000  3
  16637  16635  16649  16653     1  0.0000000  0.6508444  3
  16637  16635  16649  16654     1  0.0000000  0.6508444  3
  16637  16635  16657  16641     1  0.0000000  1.6038667  3
  16638  16636  16639  16640     1  0.0000000  0.6508444  3
  16638  16636  16639  16647     1  0.0000000  1.0460000  1
  16638  16636  16639  16647     1  0.0000000  0.0000000  3
  16638  16636  16639  16643     1  0.0000000  0.6508444  3
  16638  16636  16648  16651     1  0.0000000  0.6973333  3
  16638  16636  16635  16649     1  0.0000000  0.6508444  3
  16638  16636  16635  16657     1  0.0000000  1.0460000  1
  16638  16636  16635  16657     1  0.0000000  0.0000000  3
  16639  16640  16641  16644     1  0.0000000  0.6508444  3
  16639  16640  16646  16652     1  0.0000000  1.0460000  1
  16639  16640  16646  16652     1  0.0000000  0.6694400  3
  16639  16636  16648  16651     1  0.0000000  1.0460000  1
  16639  16636  16648  16651     1  0.0000000  0.6694400  3
  16640  16639  16647  16650     1  0.0000000  1.0460000  1
  16640  16639  16647  16650     1  0.0000000  0.6694400  3
  16641  16640  16646  16652     1  0.0000000  1.0460000  1
  16641  16640  16646  16652     1  0.0000000  0.6694400  3
  16641  16640  16639  16643     1  0.0000000  0.6508444  3
  16642  16640  16641  16645     1  0.0000000  1.0460000  1
  16642  16640  16641  16645     1  0.0000000  0.0000000  3
  16642  16640  16641  16657     1  0.0000000  1.0460000  1
  16642  16640  16641  16657     1  0.0000000  0.0000000  3
  16642  16640  16641  16644     1  0.0000000  0.6508444  3
  16642  16640  16646  16652     1  0.0000000  0.6973333  3
  16642  16640  16639  16647     1  0.0000000  1.0460000  1
  16642  16640  16639  16647     1  0.0000000  0.0000000  3
  16642  16640  16639  16643     1  0.0000000  0.6508444  3
  16643  16639  16640  16646     1  0.0000000  1.0460000  1
  16643  16639  16640  16646     1  0.0000000  0.0000000  3
  16643  16639  16647  16650     1  0.0000000  0.6973333  3
  16643  16639  16636  16648     1  0.0000000  1.0460000  1
  16643  16639  16636  16648     1  0.0000000  0.0000000  3
  16644  16641  16640  16646     1  0.0000000  0.6508444  3
  16653  16649  16655  16656     1  0.0000000  0.6973333  3
  16653  16649  16635  16657     1  0.0000000  1.0460000  1
  16653  16649  16635  16657     1  0.0000000  0.0000000  3
  16654  16649  16655  16656     1  0.0000000  0.6973333  3
  16654  16649  16635  16657     1  0.0000000  1.0460000  1
  16654  16649  16635  16657     1  0.0000000  0.0000000  3
  16658  16659  16662  16666     1  0.0000000  0.6508444  3
  16658  16659  16671  16674     1  0.0000000  1.0460000  1
  16658  16659  16671  16674     1  0.0000000  0.6694400  3
  16658  16672  16678  16679     1  0.0000000  1.0460000  1
  16658  16672  16678  16679     1  0.0000000  0.6694400  3
  16658  16680  16664  16667     1  0.0000000  1.6038667  3
  16659  16658  16672  16676     1  0.0000000  0.6508444  3
  16659  16658  16672  16677     1  0.0000000  0.6508444  3
  16659  16662  16663  16665     1  0.0000000  0.6508444  3
  16659  16662  16670  16673     1  0.0000000  1.0460000  1
  16659  16662  16670  16673     1  0.0000000  0.6694400  3
  16660  16658  16659  16662     1  0.0000000  0.6508444  3
  16660  16658  16659  16671     1  0.0000000  1.0460000  1
  16660  16658  16659  16671     1  0.0000000  0.0000000  3
  16660  16658  16659  16661     1  0.0000000  0.6508444  3
  16660  16658  16672  16678     1  0.0000000  1.0460000  1
  16660  16658  16672  16678     1  0.0000000  0.0000000  3
  16660  16658  16672  16676     1  0.0000000  0.6508444  3
  16660  16658  16672  16677     1  0.0000000  0.6508444  3
  16660  16658  16680  16664     1  0.0000000  1.6038667  3
  16661  16659  16658  16672     1  0.0000000  0.6508444  3
  16661  16659  16658  16680     1  0.0000000  1.0460000  1
  16661  16659  16658  16680     1  0.0000000  0.0000000  3
  16661  16659  16662  16663     1  0.0000000  0.6508444  3
  16661  16659  16662  16670     1  0.0000000  1.0460000  1
  16661  16659  16662  16670     1  0.0000000  0.0000000  3
  16661  16659  16662  16666     1  0.0000000  0.6508444  3
  16661  16659  16671  16674     1  0.0000000  0.6973333  3
  16662  16659  16671  16674     1  0.0000000  1.0460000  1
  16662  16659  16671  16674     1  0.0000000  0.6694400  3
  16662  16663  16664  16667     1  0.0000000  0.6508444  3
  16662  16663  16669  16675     1  0.0000000  1.0460000  1
  16662  16663  16669  16675     1  0.0000000  0.6694400  3
  16663  16662  16670  16673     1  0.0000000  1.0460000  1
  16663  16662  16670  16673     1  0.0000000  0.6694400  3
  16664  16663  16662  16666     1  0.0000000  0.6508444  3
  16664  16663  16669  16675     1  0.0000000  1.0460000  1
  16664  16663  16669  16675     1  0.0000000  0.6694400  3
  16665  16663  16662  16670     1  0.0000000  1.0460000  1
  16665  16663  16662  16670     1  0.0000000  0.0000000  3
  16665  16663  16662  16666     1  0.0000000  0.6508444  3
  16665  16663  16664  16668     1  0.0000000  1.0460000  1
  16665  16663  16664  16668     1  0.0000000  0.0000000  3
  16665  16663  16664  16680     1  0.0000000  1.0460000  1
  16665  16663  16664  16680     1  0.0000000  0.0000000  3
  16665  16663  16664  16667     1  0.0000000  0.6508444  3
  16665  16663  16669  16675     1  0.0000000  0.6973333  3
  16666  16662  16659  16671     1  0.0000000  1.0460000  1
  16666  16662  16659  16671     1  0.0000000  0.0000000  3
  16666  16662  16663  16669     1  0.0000000  1.0460000  1
  16666  16662  16663  16669     1  0.0000000  0.0000000  3
  16666  16662  16670  16673     1  0.0000000  0.6973333  3
  16667  16664  16663  16669     1  0.0000000  0.6508444  3
  16676  16672  16658  16680     1  0.0000000  1.0460000  1
  16676  16672  16658  16680     1  0.0000000  0.0000000  3
  16676  16672  16678  16679     1  0.0000000  0.6973333  3
  16677  16672  16658  16680     1  0.0000000  1.0460000  1
  16677  16672  16658  16680     1  0.0000000  0.0000000  3
  16677  16672  16678  16679     1  0.0000000  0.6973333  3
  16681  16682  16685  16689     1  0.0000000  0.6508444  3
  16681  16682  16694  16697     1  0.0000000  1.0460000  1
  16681  16682  16694  16697     1  0.0000000  0.6694400  3
  16681  16695  16701  16702     1  0.0000000  1.0460000  1
  16681  16695  16701  16702     1  0.0000000  0.6694400  3
  16681  16703  16687  16690     1  0.0000000  1.6038667  3
  16682  16685  16686  16688     1  0.0000000  0.6508444  3
  16682  16685  16693  16696     1  0.0000000  1.0460000  1
  16682  16685  16693  16696     1  0.0000000  0.6694400  3
  16682  16681  16695  16699     1  0.0000000  0.6508444  3
  16682  16681  16695  16700     1  0.0000000  0.6508444  3
  16683  16681  16682  16685     1  0.0000000  0.6508444  3
  16683  16681  16682  16694     1  0.0000000  1.0460000  1
  16683  16681  16682  16694     1  0.0000000  0.0000000  3
  16683  16681  16682  16684     1  0.0000000  0.6508444  3
  16683  16681  16695  16701     1  0.0000000  1.0460000  1
  16683  16681  16695  16701     1  0.0000000  0.0000000  3
  16683  16681  16695  16699     1  0.0000000  0.6508444  3
  16683  16681  16695  16700     1  0.0000000  0.6508444  3
  16683  16681  16703  16687     1  0.0000000  1.6038667  3
  16684  16682  16685  16686     1  0.0000000  0.6508444  3
  16684  16682  16685  16693     1  0.0000000  1.0460000  1
  16684  16682  16685  16693     1  0.0000000  0.0000000  3
  16684  16682  16685  16689     1  0.0000000  0.6508444  3
  16684  16682  16694  16697     1  0.0000000  0.6973333  3
  16684  16682  16681  16695     1  0.0000000  0.6508444  3
  16684  16682  16681  16703     1  0.0000000  1.0460000  1
  16684  16682  16681  16703     1  0.0000000  0.0000000  3
  16685  16686  16687  16690     1  0.0000000  0.6508444  3
  16685  16686  16692  16698     1  0.0000000  1.0460000  1
  16685  16686  16692  16698     1  0.0000000  0.6694400  3
  16685  16682  16694  16697     1  0.0000000  1.0460000  1
  16685  16682  16694  16697     1  0.0000000  0.6694400  3
  16686  16685  16693  16696     1  0.0000000  1.0460000  1
  16686  16685  16693  16696     1  0.0000000  0.6694400  3
  16687  16686  16692  16698     1  0.0000000  1.0460000  1
  16687  16686  16692  16698     1  0.0000000  0.6694400  3
  16687  16686  16685  16689     1  0.0000000  0.6508444  3
  16688  16686  16687  16691     1  0.0000000  1.0460000  1
  16688  16686  16687  16691     1  0.0000000  0.0000000  3
  16688  16686  16687  16703     1  0.0000000  1.0460000  1
  16688  16686  16687  16703     1  0.0000000  0.0000000  3
  16688  16686  16687  16690     1  0.0000000  0.6508444  3
  16688  16686  16692  16698     1  0.0000000  0.6973333  3
  16688  16686  16685  16693     1  0.0000000  1.0460000  1
  16688  16686  16685  16693     1  0.0000000  0.0000000  3
  16688  16686  16685  16689     1  0.0000000  0.6508444  3
  16689  16685  16686  16692     1  0.0000000  1.0460000  1
  16689  16685  16686  16692     1  0.0000000  0.0000000  3
  16689  16685  16693  16696     1  0.0000000  0.6973333  3
  16689  16685  16682  16694     1  0.0000000  1.0460000  1
  16689  16685  16682  16694     1  0.0000000  0.0000000  3
  16690  16687  16686  16692     1  0.0000000  0.6508444  3
  16699  16695  16701  16702     1  0.0000000  0.6973333  3
  16699  16695  16681  16703     1  0.0000000  1.0460000  1
  16699  16695  16681  16703     1  0.0000000  0.0000000  3
  16700  16695  16701  16702     1  0.0000000  0.6973333  3
  16700  16695  16681  16703     1  0.0000000  1.0460000  1
  16700  16695  16681  16703     1  0.0000000  0.0000000  3
  16704  16705  16708  16712     1  0.0000000  0.6508444  3
  16704  16705  16717  16720     1  0.0000000  1.0460000  1
  16704  16705  16717  16720     1  0.0000000  0.6694400  3
  16704  16718  16724  16725     1  0.0000000  1.0460000  1
  16704  16718  16724  16725     1  0.0000000  0.6694400  3
  16704  16726  16710  16713     1  0.0000000  1.6038667  3
  16705  16704  16718  16722     1  0.0000000  0.6508444  3
  16705  16704  16718  16723     1  0.0000000  0.6508444  3
  16705  16708  16709  16711     1  0.0000000  0.6508444  3
  16705  16708  16716  16719     1  0.0000000  1.0460000  1
  16705  16708  16716  16719     1  0.0000000  0.6694400  3
  16706  16704  16705  16708     1  0.0000000  0.6508444  3
  16706  16704  16705  16717     1  0.0000000  1.0460000  1
  16706  16704  16705  16717     1  0.0000000  0.0000000  3
  16706  16704  16705  16707     1  0.0000000  0.6508444  3
  16706  16704  16718  16724     1  0.0000000  1.0460000  1
  16706  16704  16718  16724     1  0.0000000  0.0000000  3
  16706  16704  16718  16722     1  0.0000000  0.6508444  3
  16706  16704  16718  16723     1  0.0000000  0.6508444  3
  16706  16704  16726  16710     1  0.0000000  1.6038667  3
  16707  16705  16704  16718     1  0.0000000  0.6508444  3
  16707  16705  16704  16726     1  0.0000000  1.0460000  1
  16707  16705  16704  16726     1  0.0000000  0.0000000  3
  16707  16705  16708  16709     1  0.0000000  0.6508444  3
  16707  16705  16708  16716     1  0.0000000  1.0460000  1
  16707  16705  16708  16716     1  0.0000000  0.0000000  3
  16707  16705  16708  16712     1  0.0000000  0.6508444  3
  16707  16705  16717  16720     1  0.0000000  0.6973333  3
  16708  16705  16717  16720     1  0.0000000  1.0460000  1
  16708  16705  16717  16720     1  0.0000000  0.6694400  3
  16708  16709  16710  16713     1  0.0000000  0.6508444  3
  16708  16709  16715  16721     1  0.0000000  1.0460000  1
  16708  16709  16715  16721     1  0.0000000  0.6694400  3
  16709  16708  16716  16719     1  0.0000000  1.0460000  1
  16709  16708  16716  16719     1  0.0000000  0.6694400  3
  16710  16709  16708  16712     1  0.0000000  0.6508444  3
  16710  16709  16715  16721     1  0.0000000  1.0460000  1
  16710  16709  16715  16721     1  0.0000000  0.6694400  3
  16711  16709  16708  16716     1  0.0000000  1.0460000  1
  16711  16709  16708  16716     1  0.0000000  0.0000000  3
  16711  16709  16708  16712     1  0.0000000  0.6508444  3
  16711  16709  16710  16714     1  0.0000000  1.0460000  1
  16711  16709  16710  16714     1  0.0000000  0.0000000  3
  16711  16709  16710  16726     1  0.0000000  1.0460000  1
  16711  16709  16710  16726     1  0.0000000  0.0000000  3
  16711  16709  16710  16713     1  0.0000000  0.6508444  3
  16711  16709  16715  16721     1  0.0000000  0.6973333  3
  16712  16708  16705  16717     1  0.0000000  1.0460000  1
  16712  16708  16705  16717     1  0.0000000  0.0000000  3
  16712  16708  16709  16715     1  0.0000000  1.0460000  1
  16712  16708  16709  16715     1  0.0000000  0.0000000  3
  16712  16708  16716  16719     1  0.0000000  0.6973333  3
  16713  16710  16709  16715     1  0.0000000  0.6508444  3
  16722  16718  16704  16726     1  0.0000000  1.0460000  1
  16722  16718  16704  16726     1  0.0000000  0.0000000  3
  16722  16718  16724  16725     1  0.0000000  0.6973333  3
  16723  16718  16704  16726     1  0.0000000  1.0460000  1
  16723  16718  16704  16726     1  0.0000000  0.0000000  3
  16723  16718  16724  16725     1  0.0000000  0.6973333  3
  16727  16728  16731  16735     1  0.0000000  0.6508444  3
  16727  16728  16740  16743     1  0.0000000  1.0460000  1
  16727  16728  16740  16743     1  0.0000000  0.6694400  3
  16727  16741  16747  16748     1  0.0000000  1.0460000  1
  16727  16741  16747  16748     1  0.0000000  0.6694400  3
  16727  16749  16733  16736     1  0.0000000  1.6038667  3
  16728  16731  16732  16734     1  0.0000000  0.6508444  3
  16728  16731  16739  16742     1  0.0000000  1.0460000  1
  16728  16731  16739  16742     1  0.0000000  0.6694400  3
  16728  16727  16741  16745     1  0.0000000  0.6508444  3
  16728  16727  16741  16746     1  0.0000000  0.6508444  3
  16729  16727  16728  16731     1  0.0000000  0.6508444  3
  16729  16727  16728  16740     1  0.0000000  1.0460000  1
  16729  16727  16728  16740     1  0.0000000  0.0000000  3
  16729  16727  16728  16730     1  0.0000000  0.6508444  3
  16729  16727  16741  16747     1  0.0000000  1.0460000  1
  16729  16727  16741  16747     1  0.0000000  0.0000000  3
  16729  16727  16741  16745     1  0.0000000  0.6508444  3
  16729  16727  16741  16746     1  0.0000000  0.6508444  3
  16729  16727  16749  16733     1  0.0000000  1.6038667  3
  16730  16728  16731  16732     1  0.0000000  0.6508444  3
  16730  16728  16731  16739     1  0.0000000  1.0460000  1
  16730  16728  16731  16739     1  0.0000000  0.0000000  3
  16730  16728  16731  16735     1  0.0000000  0.6508444  3
  16730  16728  16740  16743     1  0.0000000  0.6973333  3
  16730  16728  16727  16741     1  0.0000000  0.6508444  3
  16730  16728  16727  16749     1  0.0000000  1.0460000  1
  16730  16728  16727  16749     1  0.0000000  0.0000000  3
  16731  16732  16733  16736     1  0.0000000  0.6508444  3
  16731  16732  16738  16744     1  0.0000000  1.0460000  1
  16731  16732  16738  16744     1  0.0000000  0.6694400  3
  16731  16728  16740  16743     1  0.0000000  1.0460000  1
  16731  16728  16740  16743     1  0.0000000  0.6694400  3
  16732  16731  16739  16742     1  0.0000000  1.0460000  1
  16732  16731  16739  16742     1  0.0000000  0.6694400  3
  16733  16732  16738  16744     1  0.0000000  1.0460000  1
  16733  16732  16738  16744     1  0.0000000  0.6694400  3
  16733  16732  16731  16735     1  0.0000000  0.6508444  3
  16734  16732  16733  16737     1  0.0000000  1.0460000  1
  16734  16732  16733  16737     1  0.0000000  0.0000000  3
  16734  16732  16733  16749     1  0.0000000  1.0460000  1
  16734  16732  16733  16749     1  0.0000000  0.0000000  3
  16734  16732  16733  16736     1  0.0000000  0.6508444  3
  16734  16732  16738  16744     1  0.0000000  0.6973333  3
  16734  16732  16731  16739     1  0.0000000  1.0460000  1
  16734  16732  16731  16739     1  0.0000000  0.0000000  3
  16734  16732  16731  16735     1  0.0000000  0.6508444  3
  16735  16731  16732  16738     1  0.0000000  1.0460000  1
  16735  16731  16732  16738     1  0.0000000  0.0000000  3
  16735  16731  16739  16742     1  0.0000000  0.6973333  3
  16735  16731  16728  16740     1  0.0000000  1.0460000  1
  16735  16731  16728  16740     1  0.0000000  0.0000000  3
  16736  16733  16732  16738     1  0.0000000  0.6508444  3
  16745  16741  16747  16748     1  0.0000000  0.6973333  3
  16745  16741  16727  16749     1  0.0000000  1.0460000  1
  16745  16741  16727  16749     1  0.0000000  0.0000000  3
  16746  16741  16747  16748     1  0.0000000  0.6973333  3
  16746  16741  16727  16749     1  0.0000000  1.0460000  1
  16746  16741  16727  16749     1  0.0000000  0.0000000  3
  16750  16751  16754  16758     1  0.0000000  0.6508444  3
  16750  16751  16763  16766     1  0.0000000  1.0460000  1
  16750  16751  16763  16766     1  0.0000000  0.6694400  3
  16750  16764  16770  16771     1  0.0000000  1.0460000  1
  16750  16764  16770  16771     1  0.0000000  0.6694400  3
  16750  16772  16756  16759     1  0.0000000  1.6038667  3
  16751  16750  16764  16768     1  0.0000000  0.6508444  3
  16751  16750  16764  16769     1  0.0000000  0.6508444  3
  16751  16754  16755  16757     1  0.0000000  0.6508444  3
  16751  16754  16762  16765     1  0.0000000  1.0460000  1
  16751  16754  16762  16765     1  0.0000000  0.6694400  3
  16752  16750  16751  16754     1  0.0000000  0.6508444  3
  16752  16750  16751  16763     1  0.0000000  1.0460000  1
  16752  16750  16751  16763     1  0.0000000  0.0000000  3
  16752  16750  16751  16753     1  0.0000000  0.6508444  3
  16752  16750  16764  16770     1  0.0000000  1.0460000  1
  16752  16750  16764  16770     1  0.0000000  0.0000000  3
  16752  16750  16764  16768     1  0.0000000  0.6508444  3
  16752  16750  16764  16769     1  0.0000000  0.6508444  3
  16752  16750  16772  16756     1  0.0000000  1.6038667  3
  16753  16751  16750  16764     1  0.0000000  0.6508444  3
  16753  16751  16750  16772     1  0.0000000  1.0460000  1
  16753  16751  16750  16772     1  0.0000000  0.0000000  3
  16753  16751  16754  16755     1  0.0000000  0.6508444  3
  16753  16751  16754  16762     1  0.0000000  1.0460000  1
  16753  16751  16754  16762     1  0.0000000  0.0000000  3
  16753  16751  16754  16758     1  0.0000000  0.6508444  3
  16753  16751  16763  16766     1  0.0000000  0.6973333  3
  16754  16751  16763  16766     1  0.0000000  1.0460000  1
  16754  16751  16763  16766     1  0.0000000  0.6694400  3
  16754  16755  16756  16759     1  0.0000000  0.6508444  3
  16754  16755  16761  16767     1  0.0000000  1.0460000  1
  16754  16755  16761  16767     1  0.0000000  0.6694400  3
  16755  16754  16762  16765     1  0.0000000  1.0460000  1
  16755  16754  16762  16765     1  0.0000000  0.6694400  3
  16756  16755  16754  16758     1  0.0000000  0.6508444  3
  16756  16755  16761  16767     1  0.0000000  1.0460000  1
  16756  16755  16761  16767     1  0.0000000  0.6694400  3
  16757  16755  16754  16762     1  0.0000000  1.0460000  1
  16757  16755  16754  16762     1  0.0000000  0.0000000  3
  16757  16755  16754  16758     1  0.0000000  0.6508444  3
  16757  16755  16756  16760     1  0.0000000  1.0460000  1
  16757  16755  16756  16760     1  0.0000000  0.0000000  3
  16757  16755  16756  16772     1  0.0000000  1.0460000  1
  16757  16755  16756  16772     1  0.0000000  0.0000000  3
  16757  16755  16756  16759     1  0.0000000  0.6508444  3
  16757  16755  16761  16767     1  0.0000000  0.6973333  3
  16758  16754  16751  16763     1  0.0000000  1.0460000  1
  16758  16754  16751  16763     1  0.0000000  0.0000000  3
  16758  16754  16755  16761     1  0.0000000  1.0460000  1
  16758  16754  16755  16761     1  0.0000000  0.0000000  3
  16758  16754  16762  16765     1  0.0000000  0.6973333  3
  16759  16756  16755  16761     1  0.0000000  0.6508444  3
  16768  16764  16750  16772     1  0.0000000  1.0460000  1
  16768  16764  16750  16772     1  0.0000000  0.0000000  3
  16768  16764  16770  16771     1  0.0000000  0.6973333  3
  16769  16764  16750  16772     1  0.0000000  1.0460000  1
  16769  16764  16750  16772     1  0.0000000  0.0000000  3
  16769  16764  16770  16771     1  0.0000000  0.6973333  3
  16773  16774  16777  16781     1  0.0000000  0.6508444  3
  16773  16774  16786  16789     1  0.0000000  1.0460000  1
  16773  16774  16786  16789     1  0.0000000  0.6694400  3
  16773  16787  16793  16794     1  0.0000000  1.0460000  1
  16773  16787  16793  16794     1  0.0000000  0.6694400  3
  16773  16795  16779  16782     1  0.0000000  1.6038667  3
  16774  16777  16778  16780     1  0.0000000  0.6508444  3
  16774  16777  16785  16788     1  0.0000000  1.0460000  1
  16774  16777  16785  16788     1  0.0000000  0.6694400  3
  16774  16773  16787  16791     1  0.0000000  0.6508444  3
  16774  16773  16787  16792     1  0.0000000  0.6508444  3
  16775  16773  16774  16777     1  0.0000000  0.6508444  3
  16775  16773  16774  16786     1  0.0000000  1.0460000  1
  16775  16773  16774  16786     1  0.0000000  0.0000000  3
  16775  16773  16774  16776     1  0.0000000  0.6508444  3
  16775  16773  16787  16793     1  0.0000000  1.0460000  1
  16775  16773  16787  16793     1  0.0000000  0.0000000  3
  16775  16773  16787  16791     1  0.0000000  0.6508444  3
  16775  16773  16787  16792     1  0.0000000  0.6508444  3
  16775  16773  16795  16779     1  0.0000000  1.6038667  3
  16776  16774  16777  16778     1  0.0000000  0.6508444  3
  16776  16774  16777  16785     1  0.0000000  1.0460000  1
  16776  16774  16777  16785     1  0.0000000  0.0000000  3
  16776  16774  16777  16781     1  0.0000000  0.6508444  3
  16776  16774  16786  16789     1  0.0000000  0.6973333  3
  16776  16774  16773  16787     1  0.0000000  0.6508444  3
  16776  16774  16773  16795     1  0.0000000  1.0460000  1
  16776  16774  16773  16795     1  0.0000000  0.0000000  3
  16777  16778  16779  16782     1  0.0000000  0.6508444  3
  16777  16778  16784  16790     1  0.0000000  1.0460000  1
  16777  16778  16784  16790     1  0.0000000  0.6694400  3
  16777  16774  16786  16789     1  0.0000000  1.0460000  1
  16777  16774  16786  16789     1  0.0000000  0.6694400  3
  16778  16777  16785  16788     1  0.0000000  1.0460000  1
  16778  16777  16785  16788     1  0.0000000  0.6694400  3
  16779  16778  16784  16790     1  0.0000000  1.0460000  1
  16779  16778  16784  16790     1  0.0000000  0.6694400  3
  16779  16778  16777  16781     1  0.0000000  0.6508444  3
  16780  16778  16779  16783     1  0.0000000  1.0460000  1
  16780  16778  16779  16783     1  0.0000000  0.0000000  3
  16780  16778  16779  16795     1  0.0000000  1.0460000  1
  16780  16778  16779  16795     1  0.0000000  0.0000000  3
  16780  16778  16779  16782     1  0.0000000  0.6508444  3
  16780  16778  16784  16790     1  0.0000000  0.6973333  3
  16780  16778  16777  16785     1  0.0000000  1.0460000  1
  16780  16778  16777  16785     1  0.0000000  0.0000000  3
  16780  16778  16777  16781     1  0.0000000  0.6508444  3
  16781  16777  16778  16784     1  0.0000000  1.0460000  1
  16781  16777  16778  16784     1  0.0000000  0.0000000  3
  16781  16777  16785  16788     1  0.0000000  0.6973333  3
  16781  16777  16774  16786     1  0.0000000  1.0460000  1
  16781  16777  16774  16786     1  0.0000000  0.0000000  3
  16782  16779  16778  16784     1  0.0000000  0.6508444  3
  16791  16787  16793  16794     1  0.0000000  0.6973333  3
  16791  16787  16773  16795     1  0.0000000  1.0460000  1
  16791  16787  16773  16795     1  0.0000000  0.0000000  3
  16792  16787  16793  16794     1  0.0000000  0.6973333  3
  16792  16787  16773  16795     1  0.0000000  1.0460000  1
  16792  16787  16773  16795     1  0.0000000  0.0000000  3
  16796  16797  16800  16804     1  0.0000000  0.6508444  3
  16796  16797  16809  16812     1  0.0000000  1.0460000  1
  16796  16797  16809  16812     1  0.0000000  0.6694400  3
  16796  16810  16816  16817     1  0.0000000  1.0460000  1
  16796  16810  16816  16817     1  0.0000000  0.6694400  3
  16796  16818  16802  16805     1  0.0000000  1.6038667  3
  16797  16796  16810  16814     1  0.0000000  0.6508444  3
  16797  16796  16810  16815     1  0.0000000  0.6508444  3
  16797  16800  16801  16803     1  0.0000000  0.6508444  3
  16797  16800  16808  16811     1  0.0000000  1.0460000  1
  16797  16800  16808  16811     1  0.0000000  0.6694400  3
  16798  16796  16797  16800     1  0.0000000  0.6508444  3
  16798  16796  16797  16809     1  0.0000000  1.0460000  1
  16798  16796  16797  16809     1  0.0000000  0.0000000  3
  16798  16796  16797  16799     1  0.0000000  0.6508444  3
  16798  16796  16810  16816     1  0.0000000  1.0460000  1
  16798  16796  16810  16816     1  0.0000000  0.0000000  3
  16798  16796  16810  16814     1  0.0000000  0.6508444  3
  16798  16796  16810  16815     1  0.0000000  0.6508444  3
  16798  16796  16818  16802     1  0.0000000  1.6038667  3
  16799  16797  16796  16810     1  0.0000000  0.6508444  3
  16799  16797  16796  16818     1  0.0000000  1.0460000  1
  16799  16797  16796  16818     1  0.0000000  0.0000000  3
  16799  16797  16800  16801     1  0.0000000  0.6508444  3
  16799  16797  16800  16808     1  0.0000000  1.0460000  1
  16799  16797  16800  16808     1  0.0000000  0.0000000  3
  16799  16797  16800  16804     1  0.0000000  0.6508444  3
  16799  16797  16809  16812     1  0.0000000  0.6973333  3
  16800  16797  16809  16812     1  0.0000000  1.0460000  1
  16800  16797  16809  16812     1  0.0000000  0.6694400  3
  16800  16801  16802  16805     1  0.0000000  0.6508444  3
  16800  16801  16807  16813     1  0.0000000  1.0460000  1
  16800  16801  16807  16813     1  0.0000000  0.6694400  3
  16801  16800  16808  16811     1  0.0000000  1.0460000  1
  16801  16800  16808  16811     1  0.0000000  0.6694400  3
  16802  16801  16800  16804     1  0.0000000  0.6508444  3
  16802  16801  16807  16813     1  0.0000000  1.0460000  1
  16802  16801  16807  16813     1  0.0000000  0.6694400  3
  16803  16801  16800  16808     1  0.0000000  1.0460000  1
  16803  16801  16800  16808     1  0.0000000  0.0000000  3
  16803  16801  16800  16804     1  0.0000000  0.6508444  3
  16803  16801  16802  16806     1  0.0000000  1.0460000  1
  16803  16801  16802  16806     1  0.0000000  0.0000000  3
  16803  16801  16802  16818     1  0.0000000  1.0460000  1
  16803  16801  16802  16818     1  0.0000000  0.0000000  3
  16803  16801  16802  16805     1  0.0000000  0.6508444  3
  16803  16801  16807  16813     1  0.0000000  0.6973333  3
  16804  16800  16797  16809     1  0.0000000  1.0460000  1
  16804  16800  16797  16809     1  0.0000000  0.0000000  3
  16804  16800  16801  16807     1  0.0000000  1.0460000  1
  16804  16800  16801  16807     1  0.0000000  0.0000000  3
  16804  16800  16808  16811     1  0.0000000  0.6973333  3
  16805  16802  16801  16807     1  0.0000000  0.6508444  3
  16814  16810  16796  16818     1  0.0000000  1.0460000  1
  16814  16810  16796  16818     1  0.0000000  0.0000000  3
  16814  16810  16816  16817     1  0.0000000  0.6973333  3
  16815  16810  16796  16818     1  0.0000000  1.0460000  1
  16815  16810  16796  16818     1  0.0000000  0.0000000  3
  16815  16810  16816  16817     1  0.0000000  0.6973333  3
  16819  16820  16823  16827     1  0.0000000  0.6508444  3
  16819  16820  16832  16835     1  0.0000000  1.0460000  1
  16819  16820  16832  16835     1  0.0000000  0.6694400  3
  16819  16833  16839  16840     1  0.0000000  1.0460000  1
  16819  16833  16839  16840     1  0.0000000  0.6694400  3
  16819  16841  16825  16828     1  0.0000000  1.6038667  3
  16820  16823  16824  16826     1  0.0000000  0.6508444  3
  16820  16823  16831  16834     1  0.0000000  1.0460000  1
  16820  16823  16831  16834     1  0.0000000  0.6694400  3
  16820  16819  16833  16837     1  0.0000000  0.6508444  3
  16820  16819  16833  16838     1  0.0000000  0.6508444  3
  16821  16819  16820  16823     1  0.0000000  0.6508444  3
  16821  16819  16820  16832     1  0.0000000  1.0460000  1
  16821  16819  16820  16832     1  0.0000000  0.0000000  3
  16821  16819  16820  16822     1  0.0000000  0.6508444  3
  16821  16819  16833  16839     1  0.0000000  1.0460000  1
  16821  16819  16833  16839     1  0.0000000  0.0000000  3
  16821  16819  16833  16837     1  0.0000000  0.6508444  3
  16821  16819  16833  16838     1  0.0000000  0.6508444  3
  16821  16819  16841  16825     1  0.0000000  1.6038667  3
  16822  16820  16823  16824     1  0.0000000  0.6508444  3
  16822  16820  16823  16831     1  0.0000000  1.0460000  1
  16822  16820  16823  16831     1  0.0000000  0.0000000  3
  16822  16820  16823  16827     1  0.0000000  0.6508444  3
  16822  16820  16832  16835     1  0.0000000  0.6973333  3
  16822  16820  16819  16833     1  0.0000000  0.6508444  3
  16822  16820  16819  16841     1  0.0000000  1.0460000  1
  16822  16820  16819  16841     1  0.0000000  0.0000000  3
  16823  16824  16825  16828     1  0.0000000  0.6508444  3
  16823  16824  16830  16836     1  0.0000000  1.0460000  1
  16823  16824  16830  16836     1  0.0000000  0.6694400  3
  16823  16820  16832  16835     1  0.0000000  1.0460000  1
  16823  16820  16832  16835     1  0.0000000  0.6694400  3
  16824  16823  16831  16834     1  0.0000000  1.0460000  1
  16824  16823  16831  16834     1  0.0000000  0.6694400  3
  16825  16824  16830  16836     1  0.0000000  1.0460000  1
  16825  16824  16830  16836     1  0.0000000  0.6694400  3
  16825  16824  16823  16827     1  0.0000000  0.6508444  3
  16826  16824  16825  16829     1  0.0000000  1.0460000  1
  16826  16824  16825  16829     1  0.0000000  0.0000000  3
  16826  16824  16825  16841     1  0.0000000  1.0460000  1
  16826  16824  16825  16841     1  0.0000000  0.0000000  3
  16826  16824  16825  16828     1  0.0000000  0.6508444  3
  16826  16824  16830  16836     1  0.0000000  0.6973333  3
  16826  16824  16823  16831     1  0.0000000  1.0460000  1
  16826  16824  16823  16831     1  0.0000000  0.0000000  3
  16826  16824  16823  16827     1  0.0000000  0.6508444  3
  16827  16823  16824  16830     1  0.0000000  1.0460000  1
  16827  16823  16824  16830     1  0.0000000  0.0000000  3
  16827  16823  16831  16834     1  0.0000000  0.6973333  3
  16827  16823  16820  16832     1  0.0000000  1.0460000  1
  16827  16823  16820  16832     1  0.0000000  0.0000000  3
  16828  16825  16824  16830     1  0.0000000  0.6508444  3
  16837  16833  16839  16840     1  0.0000000  0.6973333  3
  16837  16833  16819  16841     1  0.0000000  1.0460000  1
  16837  16833  16819  16841     1  0.0000000  0.0000000  3
  16838  16833  16839  16840     1  0.0000000  0.6973333  3
  16838  16833  16819  16841     1  0.0000000  1.0460000  1
  16838  16833  16819  16841     1  0.0000000  0.0000000  3
  16842  16843  16846  16850     1  0.0000000  0.6508444  3
  16842  16843  16855  16858     1  0.0000000  1.0460000  1
  16842  16843  16855  16858     1  0.0000000  0.6694400  3
  16842  16856  16862  16863     1  0.0000000  1.0460000  1
  16842  16856  16862  16863     1  0.0000000  0.6694400  3
  16842  16864  16848  16851     1  0.0000000  1.6038667  3
  16843  16842  16856  16860     1  0.0000000  0.6508444  3
  16843  16842  16856  16861     1  0.0000000  0.6508444  3
  16843  16846  16847  16849     1  0.0000000  0.6508444  3
  16843  16846  16854  16857     1  0.0000000  1.0460000  1
  16843  16846  16854  16857     1  0.0000000  0.6694400  3
  16844  16842  16843  16846     1  0.0000000  0.6508444  3
  16844  16842  16843  16855     1  0.0000000  1.0460000  1
  16844  16842  16843  16855     1  0.0000000  0.0000000  3
  16844  16842  16843  16845     1  0.0000000  0.6508444  3
  16844  16842  16856  16862     1  0.0000000  1.0460000  1
  16844  16842  16856  16862     1  0.0000000  0.0000000  3
  16844  16842  16856  16860     1  0.0000000  0.6508444  3
  16844  16842  16856  16861     1  0.0000000  0.6508444  3
  16844  16842  16864  16848     1  0.0000000  1.6038667  3
  16845  16843  16842  16856     1  0.0000000  0.6508444  3
  16845  16843  16842  16864     1  0.0000000  1.0460000  1
  16845  16843  16842  16864     1  0.0000000  0.0000000  3
  16845  16843  16846  16847     1  0.0000000  0.6508444  3
  16845  16843  16846  16854     1  0.0000000  1.0460000  1
  16845  16843  16846  16854     1  0.0000000  0.0000000  3
  16845  16843  16846  16850     1  0.0000000  0.6508444  3
  16845  16843  16855  16858     1  0.0000000  0.6973333  3
  16846  16843  16855  16858     1  0.0000000  1.0460000  1
  16846  16843  16855  16858     1  0.0000000  0.6694400  3
  16846  16847  16848  16851     1  0.0000000  0.6508444  3
  16846  16847  16853  16859     1  0.0000000  1.0460000  1
  16846  16847  16853  16859     1  0.0000000  0.6694400  3
  16847  16846  16854  16857     1  0.0000000  1.0460000  1
  16847  16846  16854  16857     1  0.0000000  0.6694400  3
  16848  16847  16846  16850     1  0.0000000  0.6508444  3
  16848  16847  16853  16859     1  0.0000000  1.0460000  1
  16848  16847  16853  16859     1  0.0000000  0.6694400  3
  16849  16847  16846  16854     1  0.0000000  1.0460000  1
  16849  16847  16846  16854     1  0.0000000  0.0000000  3
  16849  16847  16846  16850     1  0.0000000  0.6508444  3
  16849  16847  16848  16852     1  0.0000000  1.0460000  1
  16849  16847  16848  16852     1  0.0000000  0.0000000  3
  16849  16847  16848  16864     1  0.0000000  1.0460000  1
  16849  16847  16848  16864     1  0.0000000  0.0000000  3
  16849  16847  16848  16851     1  0.0000000  0.6508444  3
  16849  16847  16853  16859     1  0.0000000  0.6973333  3
  16850  16846  16843  16855     1  0.0000000  1.0460000  1
  16850  16846  16843  16855     1  0.0000000  0.0000000  3
  16850  16846  16847  16853     1  0.0000000  1.0460000  1
  16850  16846  16847  16853     1  0.0000000  0.0000000  3
  16850  16846  16854  16857     1  0.0000000  0.6973333  3
  16851  16848  16847  16853     1  0.0000000  0.6508444  3
  16860  16856  16842  16864     1  0.0000000  1.0460000  1
  16860  16856  16842  16864     1  0.0000000  0.0000000  3
  16860  16856  16862  16863     1  0.0000000  0.6973333  3
  16861  16856  16842  16864     1  0.0000000  1.0460000  1
  16861  16856  16842  16864     1  0.0000000  0.0000000  3
  16861  16856  16862  16863     1  0.0000000  0.6973333  3
  16865  16866  16869  16873     1  0.0000000  0.6508444  3
  16865  16866  16878  16881     1  0.0000000  1.0460000  1
  16865  16866  16878  16881     1  0.0000000  0.6694400  3
  16865  16879  16885  16886     1  0.0000000  1.0460000  1
  16865  16879  16885  16886     1  0.0000000  0.6694400  3
  16865  16887  16871  16874     1  0.0000000  1.6038667  3
  16866  16869  16870  16872     1  0.0000000  0.6508444  3
  16866  16869  16877  16880     1  0.0000000  1.0460000  1
  16866  16869  16877  16880     1  0.0000000  0.6694400  3
  16866  16865  16879  16883     1  0.0000000  0.6508444  3
  16866  16865  16879  16884     1  0.0000000  0.6508444  3
  16867  16865  16866  16869     1  0.0000000  0.6508444  3
  16867  16865  16866  16878     1  0.0000000  1.0460000  1
  16867  16865  16866  16878     1  0.0000000  0.0000000  3
  16867  16865  16866  16868     1  0.0000000  0.6508444  3
  16867  16865  16879  16885     1  0.0000000  1.0460000  1
  16867  16865  16879  16885     1  0.0000000  0.0000000  3
  16867  16865  16879  16883     1  0.0000000  0.6508444  3
  16867  16865  16879  16884     1  0.0000000  0.6508444  3
  16867  16865  16887  16871     1  0.0000000  1.6038667  3
  16868  16866  16869  16870     1  0.0000000  0.6508444  3
  16868  16866  16869  16877     1  0.0000000  1.0460000  1
  16868  16866  16869  16877     1  0.0000000  0.0000000  3
  16868  16866  16869  16873     1  0.0000000  0.6508444  3
  16868  16866  16878  16881     1  0.0000000  0.6973333  3
  16868  16866  16865  16879     1  0.0000000  0.6508444  3
  16868  16866  16865  16887     1  0.0000000  1.0460000  1
  16868  16866  16865  16887     1  0.0000000  0.0000000  3
  16869  16870  16871  16874     1  0.0000000  0.6508444  3
  16869  16870  16876  16882     1  0.0000000  1.0460000  1
  16869  16870  16876  16882     1  0.0000000  0.6694400  3
  16869  16866  16878  16881     1  0.0000000  1.0460000  1
  16869  16866  16878  16881     1  0.0000000  0.6694400  3
  16870  16869  16877  16880     1  0.0000000  1.0460000  1
  16870  16869  16877  16880     1  0.0000000  0.6694400  3
  16871  16870  16876  16882     1  0.0000000  1.0460000  1
  16871  16870  16876  16882     1  0.0000000  0.6694400  3
  16871  16870  16869  16873     1  0.0000000  0.6508444  3
  16872  16870  16871  16875     1  0.0000000  1.0460000  1
  16872  16870  16871  16875     1  0.0000000  0.0000000  3
  16872  16870  16871  16887     1  0.0000000  1.0460000  1
  16872  16870  16871  16887     1  0.0000000  0.0000000  3
  16872  16870  16871  16874     1  0.0000000  0.6508444  3
  16872  16870  16876  16882     1  0.0000000  0.6973333  3
  16872  16870  16869  16877     1  0.0000000  1.0460000  1
  16872  16870  16869  16877     1  0.0000000  0.0000000  3
  16872  16870  16869  16873     1  0.0000000  0.6508444  3
  16873  16869  16870  16876     1  0.0000000  1.0460000  1
  16873  16869  16870  16876     1  0.0000000  0.0000000  3
  16873  16869  16877  16880     1  0.0000000  0.6973333  3
  16873  16869  16866  16878     1  0.0000000  1.0460000  1
  16873  16869  16866  16878     1  0.0000000  0.0000000  3
  16874  16871  16870  16876     1  0.0000000  0.6508444  3
  16883  16879  16885  16886     1  0.0000000  0.6973333  3
  16883  16879  16865  16887     1  0.0000000  1.0460000  1
  16883  16879  16865  16887     1  0.0000000  0.0000000  3
  16884  16879  16885  16886     1  0.0000000  0.6973333  3
  16884  16879  16865  16887     1  0.0000000  1.0460000  1
  16884  16879  16865  16887     1  0.0000000  0.0000000  3
  16888  16889  16892  16896     1  0.0000000  0.6508444  3
  16888  16889  16901  16904     1  0.0000000  1.0460000  1
  16888  16889  16901  16904     1  0.0000000  0.6694400  3
  16888  16902  16908  16909     1  0.0000000  1.0460000  1
  16888  16902  16908  16909     1  0.0000000  0.6694400  3
  16888  16910  16894  16897     1  0.0000000  1.6038667  3
  16889  16888  16902  16906     1  0.0000000  0.6508444  3
  16889  16888  16902  16907     1  0.0000000  0.6508444  3
  16889  16892  16893  16895     1  0.0000000  0.6508444  3
  16889  16892  16900  16903     1  0.0000000  1.0460000  1
  16889  16892  16900  16903     1  0.0000000  0.6694400  3
  16890  16888  16889  16892     1  0.0000000  0.6508444  3
  16890  16888  16889  16901     1  0.0000000  1.0460000  1
  16890  16888  16889  16901     1  0.0000000  0.0000000  3
  16890  16888  16889  16891     1  0.0000000  0.6508444  3
  16890  16888  16902  16908     1  0.0000000  1.0460000  1
  16890  16888  16902  16908     1  0.0000000  0.0000000  3
  16890  16888  16902  16906     1  0.0000000  0.6508444  3
  16890  16888  16902  16907     1  0.0000000  0.6508444  3
  16890  16888  16910  16894     1  0.0000000  1.6038667  3
  16891  16889  16888  16902     1  0.0000000  0.6508444  3
  16891  16889  16888  16910     1  0.0000000  1.0460000  1
  16891  16889  16888  16910     1  0.0000000  0.0000000  3
  16891  16889  16892  16893     1  0.0000000  0.6508444  3
  16891  16889  16892  16900     1  0.0000000  1.0460000  1
  16891  16889  16892  16900     1  0.0000000  0.0000000  3
  16891  16889  16892  16896     1  0.0000000  0.6508444  3
  16891  16889  16901  16904     1  0.0000000  0.6973333  3
  16892  16889  16901  16904     1  0.0000000  1.0460000  1
  16892  16889  16901  16904     1  0.0000000  0.6694400  3
  16892  16893  16894  16897     1  0.0000000  0.6508444  3
  16892  16893  16899  16905     1  0.0000000  1.0460000  1
  16892  16893  16899  16905     1  0.0000000  0.6694400  3
  16893  16892  16900  16903     1  0.0000000  1.0460000  1
  16893  16892  16900  16903     1  0.0000000  0.6694400  3
  16894  16893  16892  16896     1  0.0000000  0.6508444  3
  16894  16893  16899  16905     1  0.0000000  1.0460000  1
  16894  16893  16899  16905     1  0.0000000  0.6694400  3
  16895  16893  16892  16900     1  0.0000000  1.0460000  1
  16895  16893  16892  16900     1  0.0000000  0.0000000  3
  16895  16893  16892  16896     1  0.0000000  0.6508444  3
  16895  16893  16894  16898     1  0.0000000  1.0460000  1
  16895  16893  16894  16898     1  0.0000000  0.0000000  3
  16895  16893  16894  16910     1  0.0000000  1.0460000  1
  16895  16893  16894  16910     1  0.0000000  0.0000000  3
  16895  16893  16894  16897     1  0.0000000  0.6508444  3
  16895  16893  16899  16905     1  0.0000000  0.6973333  3
  16896  16892  16889  16901     1  0.0000000  1.0460000  1
  16896  16892  16889  16901     1  0.0000000  0.0000000  3
  16896  16892  16893  16899     1  0.0000000  1.0460000  1
  16896  16892  16893  16899     1  0.0000000  0.0000000  3
  16896  16892  16900  16903     1  0.0000000  0.6973333  3
  16897  16894  16893  16899     1  0.0000000  0.6508444  3
  16906  16902  16888  16910     1  0.0000000  1.0460000  1
  16906  16902  16888  16910     1  0.0000000  0.0000000  3
  16906  16902  16908  16909     1  0.0000000  0.6973333  3
  16907  16902  16888  16910     1  0.0000000  1.0460000  1
  16907  16902  16888  16910     1  0.0000000  0.0000000  3
  16907  16902  16908  16909     1  0.0000000  0.6973333  3
  16911  16912  16915  16919     1  0.0000000  0.6508444  3
  16911  16912  16924  16927     1  0.0000000  1.0460000  1
  16911  16912  16924  16927     1  0.0000000  0.6694400  3
  16911  16925  16931  16932     1  0.0000000  1.0460000  1
  16911  16925  16931  16932     1  0.0000000  0.6694400  3
  16911  16933  16917  16920     1  0.0000000  1.6038667  3
  16912  16915  16916  16918     1  0.0000000  0.6508444  3
  16912  16915  16923  16926     1  0.0000000  1.0460000  1
  16912  16915  16923  16926     1  0.0000000  0.6694400  3
  16912  16911  16925  16929     1  0.0000000  0.6508444  3
  16912  16911  16925  16930     1  0.0000000  0.6508444  3
  16913  16911  16912  16915     1  0.0000000  0.6508444  3
  16913  16911  16912  16924     1  0.0000000  1.0460000  1
  16913  16911  16912  16924     1  0.0000000  0.0000000  3
  16913  16911  16912  16914     1  0.0000000  0.6508444  3
  16913  16911  16925  16931     1  0.0000000  1.0460000  1
  16913  16911  16925  16931     1  0.0000000  0.0000000  3
  16913  16911  16925  16929     1  0.0000000  0.6508444  3
  16913  16911  16925  16930     1  0.0000000  0.6508444  3
  16913  16911  16933  16917     1  0.0000000  1.6038667  3
  16914  16912  16915  16916     1  0.0000000  0.6508444  3
  16914  16912  16915  16923     1  0.0000000  1.0460000  1
  16914  16912  16915  16923     1  0.0000000  0.0000000  3
  16914  16912  16915  16919     1  0.0000000  0.6508444  3
  16914  16912  16924  16927     1  0.0000000  0.6973333  3
  16914  16912  16911  16925     1  0.0000000  0.6508444  3
  16914  16912  16911  16933     1  0.0000000  1.0460000  1
  16914  16912  16911  16933     1  0.0000000  0.0000000  3
  16915  16916  16917  16920     1  0.0000000  0.6508444  3
  16915  16916  16922  16928     1  0.0000000  1.0460000  1
  16915  16916  16922  16928     1  0.0000000  0.6694400  3
  16915  16912  16924  16927     1  0.0000000  1.0460000  1
  16915  16912  16924  16927     1  0.0000000  0.6694400  3
  16916  16915  16923  16926     1  0.0000000  1.0460000  1
  16916  16915  16923  16926     1  0.0000000  0.6694400  3
  16917  16916  16922  16928     1  0.0000000  1.0460000  1
  16917  16916  16922  16928     1  0.0000000  0.6694400  3
  16917  16916  16915  16919     1  0.0000000  0.6508444  3
  16918  16916  16917  16921     1  0.0000000  1.0460000  1
  16918  16916  16917  16921     1  0.0000000  0.0000000  3
  16918  16916  16917  16933     1  0.0000000  1.0460000  1
  16918  16916  16917  16933     1  0.0000000  0.0000000  3
  16918  16916  16917  16920     1  0.0000000  0.6508444  3
  16918  16916  16922  16928     1  0.0000000  0.6973333  3
  16918  16916  16915  16923     1  0.0000000  1.0460000  1
  16918  16916  16915  16923     1  0.0000000  0.0000000  3
  16918  16916  16915  16919     1  0.0000000  0.6508444  3
  16919  16915  16916  16922     1  0.0000000  1.0460000  1
  16919  16915  16916  16922     1  0.0000000  0.0000000  3
  16919  16915  16923  16926     1  0.0000000  0.6973333  3
  16919  16915  16912  16924     1  0.0000000  1.0460000  1
  16919  16915  16912  16924     1  0.0000000  0.0000000  3
  16920  16917  16916  16922     1  0.0000000  0.6508444  3
  16929  16925  16931  16932     1  0.0000000  0.6973333  3
  16929  16925  16911  16933     1  0.0000000  1.0460000  1
  16929  16925  16911  16933     1  0.0000000  0.0000000  3
  16930  16925  16931  16932     1  0.0000000  0.6973333  3
  16930  16925  16911  16933     1  0.0000000  1.0460000  1
  16930  16925  16911  16933     1  0.0000000  0.0000000  3
  16934  16935  16938  16942     1  0.0000000  0.6508444  3
  16934  16935  16947  16950     1  0.0000000  1.0460000  1
  16934  16935  16947  16950     1  0.0000000  0.6694400  3
  16934  16948  16954  16955     1  0.0000000  1.0460000  1
  16934  16948  16954  16955     1  0.0000000  0.6694400  3
  16934  16956  16940  16943     1  0.0000000  1.6038667  3
  16935  16934  16948  16952     1  0.0000000  0.6508444  3
  16935  16934  16948  16953     1  0.0000000  0.6508444  3
  16935  16938  16939  16941     1  0.0000000  0.6508444  3
  16935  16938  16946  16949     1  0.0000000  1.0460000  1
  16935  16938  16946  16949     1  0.0000000  0.6694400  3
  16936  16934  16935  16938     1  0.0000000  0.6508444  3
  16936  16934  16935  16947     1  0.0000000  1.0460000  1
  16936  16934  16935  16947     1  0.0000000  0.0000000  3
  16936  16934  16935  16937     1  0.0000000  0.6508444  3
  16936  16934  16948  16954     1  0.0000000  1.0460000  1
  16936  16934  16948  16954     1  0.0000000  0.0000000  3
  16936  16934  16948  16952     1  0.0000000  0.6508444  3
  16936  16934  16948  16953     1  0.0000000  0.6508444  3
  16936  16934  16956  16940     1  0.0000000  1.6038667  3
  16937  16935  16934  16948     1  0.0000000  0.6508444  3
  16937  16935  16934  16956     1  0.0000000  1.0460000  1
  16937  16935  16934  16956     1  0.0000000  0.0000000  3
  16937  16935  16938  16939     1  0.0000000  0.6508444  3
  16937  16935  16938  16946     1  0.0000000  1.0460000  1
  16937  16935  16938  16946     1  0.0000000  0.0000000  3
  16937  16935  16938  16942     1  0.0000000  0.6508444  3
  16937  16935  16947  16950     1  0.0000000  0.6973333  3
  16938  16935  16947  16950     1  0.0000000  1.0460000  1
  16938  16935  16947  16950     1  0.0000000  0.6694400  3
  16938  16939  16940  16943     1  0.0000000  0.6508444  3
  16938  16939  16945  16951     1  0.0000000  1.0460000  1
  16938  16939  16945  16951     1  0.0000000  0.6694400  3
  16939  16938  16946  16949     1  0.0000000  1.0460000  1
  16939  16938  16946  16949     1  0.0000000  0.6694400  3
  16940  16939  16938  16942     1  0.0000000  0.6508444  3
  16940  16939  16945  16951     1  0.0000000  1.0460000  1
  16940  16939  16945  16951     1  0.0000000  0.6694400  3
  16941  16939  16938  16946     1  0.0000000  1.0460000  1
  16941  16939  16938  16946     1  0.0000000  0.0000000  3
  16941  16939  16938  16942     1  0.0000000  0.6508444  3
  16941  16939  16940  16944     1  0.0000000  1.0460000  1
  16941  16939  16940  16944     1  0.0000000  0.0000000  3
  16941  16939  16940  16956     1  0.0000000  1.0460000  1
  16941  16939  16940  16956     1  0.0000000  0.0000000  3
  16941  16939  16940  16943     1  0.0000000  0.6508444  3
  16941  16939  16945  16951     1  0.0000000  0.6973333  3
  16942  16938  16935  16947     1  0.0000000  1.0460000  1
  16942  16938  16935  16947     1  0.0000000  0.0000000  3
  16942  16938  16939  16945     1  0.0000000  1.0460000  1
  16942  16938  16939  16945     1  0.0000000  0.0000000  3
  16942  16938  16946  16949     1  0.0000000  0.6973333  3
  16943  16940  16939  16945     1  0.0000000  0.6508444  3
  16952  16948  16934  16956     1  0.0000000  1.0460000  1
  16952  16948  16934  16956     1  0.0000000  0.0000000  3
  16952  16948  16954  16955     1  0.0000000  0.6973333  3
  16953  16948  16934  16956     1  0.0000000  1.0460000  1
  16953  16948  16934  16956     1  0.0000000  0.0000000  3
  16953  16948  16954  16955     1  0.0000000  0.6973333  3
  16957  16958  16961  16965     1  0.0000000  0.6508444  3
  16957  16958  16970  16973     1  0.0000000  1.0460000  1
  16957  16958  16970  16973     1  0.0000000  0.6694400  3
  16957  16971  16977  16978     1  0.0000000  1.0460000  1
  16957  16971  16977  16978     1  0.0000000  0.6694400  3
  16957  16979  16963  16966     1  0.0000000  1.6038667  3
  16958  16961  16962  16964     1  0.0000000  0.6508444  3
  16958  16961  16969  16972     1  0.0000000  1.0460000  1
  16958  16961  16969  16972     1  0.0000000  0.6694400  3
  16958  16957  16971  16975     1  0.0000000  0.6508444  3
  16958  16957  16971  16976     1  0.0000000  0.6508444  3
  16959  16957  16958  16961     1  0.0000000  0.6508444  3
  16959  16957  16958  16970     1  0.0000000  1.0460000  1
  16959  16957  16958  16970     1  0.0000000  0.0000000  3
  16959  16957  16958  16960     1  0.0000000  0.6508444  3
  16959  16957  16971  16977     1  0.0000000  1.0460000  1
  16959  16957  16971  16977     1  0.0000000  0.0000000  3
  16959  16957  16971  16975     1  0.0000000  0.6508444  3
  16959  16957  16971  16976     1  0.0000000  0.6508444  3
  16959  16957  16979  16963     1  0.0000000  1.6038667  3
  16960  16958  16961  16962     1  0.0000000  0.6508444  3
  16960  16958  16961  16969     1  0.0000000  1.0460000  1
  16960  16958  16961  16969     1  0.0000000  0.0000000  3
  16960  16958  16961  16965     1  0.0000000  0.6508444  3
  16960  16958  16970  16973     1  0.0000000  0.6973333  3
  16960  16958  16957  16971     1  0.0000000  0.6508444  3
  16960  16958  16957  16979     1  0.0000000  1.0460000  1
  16960  16958  16957  16979     1  0.0000000  0.0000000  3
  16961  16962  16963  16966     1  0.0000000  0.6508444  3
  16961  16962  16968  16974     1  0.0000000  1.0460000  1
  16961  16962  16968  16974     1  0.0000000  0.6694400  3
  16961  16958  16970  16973     1  0.0000000  1.0460000  1
  16961  16958  16970  16973     1  0.0000000  0.6694400  3
  16962  16961  16969  16972     1  0.0000000  1.0460000  1
  16962  16961  16969  16972     1  0.0000000  0.6694400  3
  16963  16962  16968  16974     1  0.0000000  1.0460000  1
  16963  16962  16968  16974     1  0.0000000  0.6694400  3
  16963  16962  16961  16965     1  0.0000000  0.6508444  3
  16964  16962  16963  16967     1  0.0000000  1.0460000  1
  16964  16962  16963  16967     1  0.0000000  0.0000000  3
  16964  16962  16963  16979     1  0.0000000  1.0460000  1
  16964  16962  16963  16979     1  0.0000000  0.0000000  3
  16964  16962  16963  16966     1  0.0000000  0.6508444  3
  16964  16962  16968  16974     1  0.0000000  0.6973333  3
  16964  16962  16961  16969     1  0.0000000  1.0460000  1
  16964  16962  16961  16969     1  0.0000000  0.0000000  3
  16964  16962  16961  16965     1  0.0000000  0.6508444  3
  16965  16961  16962  16968     1  0.0000000  1.0460000  1
  16965  16961  16962  16968     1  0.0000000  0.0000000  3
  16965  16961  16969  16972     1  0.0000000  0.6973333  3
  16965  16961  16958  16970     1  0.0000000  1.0460000  1
  16965  16961  16958  16970     1  0.0000000  0.0000000  3
  16966  16963  16962  16968     1  0.0000000  0.6508444  3
  16975  16971  16977  16978     1  0.0000000  0.6973333  3
  16975  16971  16957  16979     1  0.0000000  1.0460000  1
  16975  16971  16957  16979     1  0.0000000  0.0000000  3
  16976  16971  16977  16978     1  0.0000000  0.6973333  3
  16976  16971  16957  16979     1  0.0000000  1.0460000  1
  16976  16971  16957  16979     1  0.0000000  0.0000000  3
  16980  16981  16984  16988     1  0.0000000  0.6508444  3
  16980  16981  16993  16996     1  0.0000000  1.0460000  1
  16980  16981  16993  16996     1  0.0000000  0.6694400  3
  16980  16994  17000  17001     1  0.0000000  1.0460000  1
  16980  16994  17000  17001     1  0.0000000  0.6694400  3
  16980  17002  16986  16989     1  0.0000000  1.6038667  3
  16981  16980  16994  16998     1  0.0000000  0.6508444  3
  16981  16980  16994  16999     1  0.0000000  0.6508444  3
  16981  16984  16985  16987     1  0.0000000  0.6508444  3
  16981  16984  16992  16995     1  0.0000000  1.0460000  1
  16981  16984  16992  16995     1  0.0000000  0.6694400  3
  16982  16980  16981  16984     1  0.0000000  0.6508444  3
  16982  16980  16981  16993     1  0.0000000  1.0460000  1
  16982  16980  16981  16993     1  0.0000000  0.0000000  3
  16982  16980  16981  16983     1  0.0000000  0.6508444  3
  16982  16980  16994  17000     1  0.0000000  1.0460000  1
  16982  16980  16994  17000     1  0.0000000  0.0000000  3
  16982  16980  16994  16998     1  0.0000000  0.6508444  3
  16982  16980  16994  16999     1  0.0000000  0.6508444  3
  16982  16980  17002  16986     1  0.0000000  1.6038667  3
  16983  16981  16980  16994     1  0.0000000  0.6508444  3
  16983  16981  16980  17002     1  0.0000000  1.0460000  1
  16983  16981  16980  17002     1  0.0000000  0.0000000  3
  16983  16981  16984  16985     1  0.0000000  0.6508444  3
  16983  16981  16984  16992     1  0.0000000  1.0460000  1
  16983  16981  16984  16992     1  0.0000000  0.0000000  3
  16983  16981  16984  16988     1  0.0000000  0.6508444  3
  16983  16981  16993  16996     1  0.0000000  0.6973333  3
  16984  16981  16993  16996     1  0.0000000  1.0460000  1
  16984  16981  16993  16996     1  0.0000000  0.6694400  3
  16984  16985  16986  16989     1  0.0000000  0.6508444  3
  16984  16985  16991  16997     1  0.0000000  1.0460000  1
  16984  16985  16991  16997     1  0.0000000  0.6694400  3
  16985  16984  16992  16995     1  0.0000000  1.0460000  1
  16985  16984  16992  16995     1  0.0000000  0.6694400  3
  16986  16985  16984  16988     1  0.0000000  0.6508444  3
  16986  16985  16991  16997     1  0.0000000  1.0460000  1
  16986  16985  16991  16997     1  0.0000000  0.6694400  3
  16987  16985  16984  16992     1  0.0000000  1.0460000  1
  16987  16985  16984  16992     1  0.0000000  0.0000000  3
  16987  16985  16984  16988     1  0.0000000  0.6508444  3
  16987  16985  16986  16990     1  0.0000000  1.0460000  1
  16987  16985  16986  16990     1  0.0000000  0.0000000  3
  16987  16985  16986  17002     1  0.0000000  1.0460000  1
  16987  16985  16986  17002     1  0.0000000  0.0000000  3
  16987  16985  16986  16989     1  0.0000000  0.6508444  3
  16987  16985  16991  16997     1  0.0000000  0.6973333  3
  16988  16984  16981  16993     1  0.0000000  1.0460000  1
  16988  16984  16981  16993     1  0.0000000  0.0000000  3
  16988  16984  16985  16991     1  0.0000000  1.0460000  1
  16988  16984  16985  16991     1  0.0000000  0.0000000  3
  16988  16984  16992  16995     1  0.0000000  0.6973333  3
  16989  16986  16985  16991     1  0.0000000  0.6508444  3
  16998  16994  16980  17002     1  0.0000000  1.0460000  1
  16998  16994  16980  17002     1  0.0000000  0.0000000  3
  16998  16994  17000  17001     1  0.0000000  0.6973333  3
  16999  16994  16980  17002     1  0.0000000  1.0460000  1
  16999  16994  16980  17002     1  0.0000000  0.0000000  3
  16999  16994  17000  17001     1  0.0000000  0.6973333  3
  17003  17004  17007  17011     1  0.0000000  0.6508444  3
  17003  17004  17016  17019     1  0.0000000  1.0460000  1
  17003  17004  17016  17019     1  0.0000000  0.6694400  3
  17003  17017  17023  17024     1  0.0000000  1.0460000  1
  17003  17017  17023  17024     1  0.0000000  0.6694400  3
  17003  17025  17009  17012     1  0.0000000  1.6038667  3
  17004  17007  17008  17010     1  0.0000000  0.6508444  3
  17004  17007  17015  17018     1  0.0000000  1.0460000  1
  17004  17007  17015  17018     1  0.0000000  0.6694400  3
  17004  17003  17017  17021     1  0.0000000  0.6508444  3
  17004  17003  17017  17022     1  0.0000000  0.6508444  3
  17005  17003  17004  17007     1  0.0000000  0.6508444  3
  17005  17003  17004  17016     1  0.0000000  1.0460000  1
  17005  17003  17004  17016     1  0.0000000  0.0000000  3
  17005  17003  17004  17006     1  0.0000000  0.6508444  3
  17005  17003  17017  17023     1  0.0000000  1.0460000  1
  17005  17003  17017  17023     1  0.0000000  0.0000000  3
  17005  17003  17017  17021     1  0.0000000  0.6508444  3
  17005  17003  17017  17022     1  0.0000000  0.6508444  3
  17005  17003  17025  17009     1  0.0000000  1.6038667  3
  17006  17004  17007  17008     1  0.0000000  0.6508444  3
  17006  17004  17007  17015     1  0.0000000  1.0460000  1
  17006  17004  17007  17015     1  0.0000000  0.0000000  3
  17006  17004  17007  17011     1  0.0000000  0.6508444  3
  17006  17004  17016  17019     1  0.0000000  0.6973333  3
  17006  17004  17003  17017     1  0.0000000  0.6508444  3
  17006  17004  17003  17025     1  0.0000000  1.0460000  1
  17006  17004  17003  17025     1  0.0000000  0.0000000  3
  17007  17008  17009  17012     1  0.0000000  0.6508444  3
  17007  17008  17014  17020     1  0.0000000  1.0460000  1
  17007  17008  17014  17020     1  0.0000000  0.6694400  3
  17007  17004  17016  17019     1  0.0000000  1.0460000  1
  17007  17004  17016  17019     1  0.0000000  0.6694400  3
  17008  17007  17015  17018     1  0.0000000  1.0460000  1
  17008  17007  17015  17018     1  0.0000000  0.6694400  3
  17009  17008  17014  17020     1  0.0000000  1.0460000  1
  17009  17008  17014  17020     1  0.0000000  0.6694400  3
  17009  17008  17007  17011     1  0.0000000  0.6508444  3
  17010  17008  17009  17013     1  0.0000000  1.0460000  1
  17010  17008  17009  17013     1  0.0000000  0.0000000  3
  17010  17008  17009  17025     1  0.0000000  1.0460000  1
  17010  17008  17009  17025     1  0.0000000  0.0000000  3
  17010  17008  17009  17012     1  0.0000000  0.6508444  3
  17010  17008  17014  17020     1  0.0000000  0.6973333  3
  17010  17008  17007  17015     1  0.0000000  1.0460000  1
  17010  17008  17007  17015     1  0.0000000  0.0000000  3
  17010  17008  17007  17011     1  0.0000000  0.6508444  3
  17011  17007  17008  17014     1  0.0000000  1.0460000  1
  17011  17007  17008  17014     1  0.0000000  0.0000000  3
  17011  17007  17015  17018     1  0.0000000  0.6973333  3
  17011  17007  17004  17016     1  0.0000000  1.0460000  1
  17011  17007  17004  17016     1  0.0000000  0.0000000  3
  17012  17009  17008  17014     1  0.0000000  0.6508444  3
  17021  17017  17023  17024     1  0.0000000  0.6973333  3
  17021  17017  17003  17025     1  0.0000000  1.0460000  1
  17021  17017  17003  17025     1  0.0000000  0.0000000  3
  17022  17017  17023  17024     1  0.0000000  0.6973333  3
  17022  17017  17003  17025     1  0.0000000  1.0460000  1
  17022  17017  17003  17025     1  0.0000000  0.0000000  3
  17026  17027  17030  17034     1  0.0000000  0.6508444  3
  17026  17027  17039  17042     1  0.0000000  1.0460000  1
  17026  17027  17039  17042     1  0.0000000  0.6694400  3
  17026  17040  17046  17047     1  0.0000000  1.0460000  1
  17026  17040  17046  17047     1  0.0000000  0.6694400  3
  17026  17048  17032  17035     1  0.0000000  1.6038667  3
  17027  17026  17040  17044     1  0.0000000  0.6508444  3
  17027  17026  17040  17045     1  0.0000000  0.6508444  3
  17027  17030  17031  17033     1  0.0000000  0.6508444  3
  17027  17030  17038  17041     1  0.0000000  1.0460000  1
  17027  17030  17038  17041     1  0.0000000  0.6694400  3
  17028  17026  17027  17030     1  0.0000000  0.6508444  3
  17028  17026  17027  17039     1  0.0000000  1.0460000  1
  17028  17026  17027  17039     1  0.0000000  0.0000000  3
  17028  17026  17027  17029     1  0.0000000  0.6508444  3
  17028  17026  17040  17046     1  0.0000000  1.0460000  1
  17028  17026  17040  17046     1  0.0000000  0.0000000  3
  17028  17026  17040  17044     1  0.0000000  0.6508444  3
  17028  17026  17040  17045     1  0.0000000  0.6508444  3
  17028  17026  17048  17032     1  0.0000000  1.6038667  3
  17029  17027  17026  17040     1  0.0000000  0.6508444  3
  17029  17027  17026  17048     1  0.0000000  1.0460000  1
  17029  17027  17026  17048     1  0.0000000  0.0000000  3
  17029  17027  17030  17031     1  0.0000000  0.6508444  3
  17029  17027  17030  17038     1  0.0000000  1.0460000  1
  17029  17027  17030  17038     1  0.0000000  0.0000000  3
  17029  17027  17030  17034     1  0.0000000  0.6508444  3
  17029  17027  17039  17042     1  0.0000000  0.6973333  3
  17030  17027  17039  17042     1  0.0000000  1.0460000  1
  17030  17027  17039  17042     1  0.0000000  0.6694400  3
  17030  17031  17032  17035     1  0.0000000  0.6508444  3
  17030  17031  17037  17043     1  0.0000000  1.0460000  1
  17030  17031  17037  17043     1  0.0000000  0.6694400  3
  17031  17030  17038  17041     1  0.0000000  1.0460000  1
  17031  17030  17038  17041     1  0.0000000  0.6694400  3
  17032  17031  17030  17034     1  0.0000000  0.6508444  3
  17032  17031  17037  17043     1  0.0000000  1.0460000  1
  17032  17031  17037  17043     1  0.0000000  0.6694400  3
  17033  17031  17030  17038     1  0.0000000  1.0460000  1
  17033  17031  17030  17038     1  0.0000000  0.0000000  3
  17033  17031  17030  17034     1  0.0000000  0.6508444  3
  17033  17031  17032  17036     1  0.0000000  1.0460000  1
  17033  17031  17032  17036     1  0.0000000  0.0000000  3
  17033  17031  17032  17048     1  0.0000000  1.0460000  1
  17033  17031  17032  17048     1  0.0000000  0.0000000  3
  17033  17031  17032  17035     1  0.0000000  0.6508444  3
  17033  17031  17037  17043     1  0.0000000  0.6973333  3
  17034  17030  17027  17039     1  0.0000000  1.0460000  1
  17034  17030  17027  17039     1  0.0000000  0.0000000  3
  17034  17030  17031  17037     1  0.0000000  1.0460000  1
  17034  17030  17031  17037     1  0.0000000  0.0000000  3
  17034  17030  17038  17041     1  0.0000000  0.6973333  3
  17035  17032  17031  17037     1  0.0000000  0.6508444  3
  17044  17040  17026  17048     1  0.0000000  1.0460000  1
  17044  17040  17026  17048     1  0.0000000  0.0000000  3
  17044  17040  17046  17047     1  0.0000000  0.6973333  3
  17045  17040  17026  17048     1  0.0000000  1.0460000  1
  17045  17040  17026  17048     1  0.0000000  0.0000000  3
  17045  17040  17046  17047     1  0.0000000  0.6973333  3
  17049  17050  17053  17057     1  0.0000000  0.6508444  3
  17049  17050  17062  17065     1  0.0000000  1.0460000  1
  17049  17050  17062  17065     1  0.0000000  0.6694400  3
  17049  17063  17069  17070     1  0.0000000  1.0460000  1
  17049  17063  17069  17070     1  0.0000000  0.6694400  3
  17049  17071  17055  17058     1  0.0000000  1.6038667  3
  17050  17053  17054  17056     1  0.0000000  0.6508444  3
  17050  17053  17061  17064     1  0.0000000  1.0460000  1
  17050  17053  17061  17064     1  0.0000000  0.6694400  3
  17050  17049  17063  17067     1  0.0000000  0.6508444  3
  17050  17049  17063  17068     1  0.0000000  0.6508444  3
  17051  17049  17050  17053     1  0.0000000  0.6508444  3
  17051  17049  17050  17062     1  0.0000000  1.0460000  1
  17051  17049  17050  17062     1  0.0000000  0.0000000  3
  17051  17049  17050  17052     1  0.0000000  0.6508444  3
  17051  17049  17063  17069     1  0.0000000  1.0460000  1
  17051  17049  17063  17069     1  0.0000000  0.0000000  3
  17051  17049  17063  17067     1  0.0000000  0.6508444  3
  17051  17049  17063  17068     1  0.0000000  0.6508444  3
  17051  17049  17071  17055     1  0.0000000  1.6038667  3
  17052  17050  17053  17054     1  0.0000000  0.6508444  3
  17052  17050  17053  17061     1  0.0000000  1.0460000  1
  17052  17050  17053  17061     1  0.0000000  0.0000000  3
  17052  17050  17053  17057     1  0.0000000  0.6508444  3
  17052  17050  17062  17065     1  0.0000000  0.6973333  3
  17052  17050  17049  17063     1  0.0000000  0.6508444  3
  17052  17050  17049  17071     1  0.0000000  1.0460000  1
  17052  17050  17049  17071     1  0.0000000  0.0000000  3
  17053  17054  17055  17058     1  0.0000000  0.6508444  3
  17053  17054  17060  17066     1  0.0000000  1.0460000  1
  17053  17054  17060  17066     1  0.0000000  0.6694400  3
  17053  17050  17062  17065     1  0.0000000  1.0460000  1
  17053  17050  17062  17065     1  0.0000000  0.6694400  3
  17054  17053  17061  17064     1  0.0000000  1.0460000  1
  17054  17053  17061  17064     1  0.0000000  0.6694400  3
  17055  17054  17060  17066     1  0.0000000  1.0460000  1
  17055  17054  17060  17066     1  0.0000000  0.6694400  3
  17055  17054  17053  17057     1  0.0000000  0.6508444  3
  17056  17054  17055  17059     1  0.0000000  1.0460000  1
  17056  17054  17055  17059     1  0.0000000  0.0000000  3
  17056  17054  17055  17071     1  0.0000000  1.0460000  1
  17056  17054  17055  17071     1  0.0000000  0.0000000  3
  17056  17054  17055  17058     1  0.0000000  0.6508444  3
  17056  17054  17060  17066     1  0.0000000  0.6973333  3
  17056  17054  17053  17061     1  0.0000000  1.0460000  1
  17056  17054  17053  17061     1  0.0000000  0.0000000  3
  17056  17054  17053  17057     1  0.0000000  0.6508444  3
  17057  17053  17054  17060     1  0.0000000  1.0460000  1
  17057  17053  17054  17060     1  0.0000000  0.0000000  3
  17057  17053  17061  17064     1  0.0000000  0.6973333  3
  17057  17053  17050  17062     1  0.0000000  1.0460000  1
  17057  17053  17050  17062     1  0.0000000  0.0000000  3
  17058  17055  17054  17060     1  0.0000000  0.6508444  3
  17067  17063  17069  17070     1  0.0000000  0.6973333  3
  17067  17063  17049  17071     1  0.0000000  1.0460000  1
  17067  17063  17049  17071     1  0.0000000  0.0000000  3
  17068  17063  17069  17070     1  0.0000000  0.6973333  3
  17068  17063  17049  17071     1  0.0000000  1.0460000  1
  17068  17063  17049  17071     1  0.0000000  0.0000000  3
  17072  17073  17076  17080     1  0.0000000  0.6508444  3
  17072  17073  17085  17088     1  0.0000000  1.0460000  1
  17072  17073  17085  17088     1  0.0000000  0.6694400  3
  17072  17086  17092  17093     1  0.0000000  1.0460000  1
  17072  17086  17092  17093     1  0.0000000  0.6694400  3
  17072  17094  17078  17081     1  0.0000000  1.6038667  3
  17073  17072  17086  17090     1  0.0000000  0.6508444  3
  17073  17072  17086  17091     1  0.0000000  0.6508444  3
  17073  17076  17077  17079     1  0.0000000  0.6508444  3
  17073  17076  17084  17087     1  0.0000000  1.0460000  1
  17073  17076  17084  17087     1  0.0000000  0.6694400  3
  17074  17072  17073  17076     1  0.0000000  0.6508444  3
  17074  17072  17073  17085     1  0.0000000  1.0460000  1
  17074  17072  17073  17085     1  0.0000000  0.0000000  3
  17074  17072  17073  17075     1  0.0000000  0.6508444  3
  17074  17072  17086  17092     1  0.0000000  1.0460000  1
  17074  17072  17086  17092     1  0.0000000  0.0000000  3
  17074  17072  17086  17090     1  0.0000000  0.6508444  3
  17074  17072  17086  17091     1  0.0000000  0.6508444  3
  17074  17072  17094  17078     1  0.0000000  1.6038667  3
  17075  17073  17072  17086     1  0.0000000  0.6508444  3
  17075  17073  17072  17094     1  0.0000000  1.0460000  1
  17075  17073  17072  17094     1  0.0000000  0.0000000  3
  17075  17073  17076  17077     1  0.0000000  0.6508444  3
  17075  17073  17076  17084     1  0.0000000  1.0460000  1
  17075  17073  17076  17084     1  0.0000000  0.0000000  3
  17075  17073  17076  17080     1  0.0000000  0.6508444  3
  17075  17073  17085  17088     1  0.0000000  0.6973333  3
  17076  17073  17085  17088     1  0.0000000  1.0460000  1
  17076  17073  17085  17088     1  0.0000000  0.6694400  3
  17076  17077  17078  17081     1  0.0000000  0.6508444  3
  17076  17077  17083  17089     1  0.0000000  1.0460000  1
  17076  17077  17083  17089     1  0.0000000  0.6694400  3
  17077  17076  17084  17087     1  0.0000000  1.0460000  1
  17077  17076  17084  17087     1  0.0000000  0.6694400  3
  17078  17077  17076  17080     1  0.0000000  0.6508444  3
  17078  17077  17083  17089     1  0.0000000  1.0460000  1
  17078  17077  17083  17089     1  0.0000000  0.6694400  3
  17079  17077  17076  17084     1  0.0000000  1.0460000  1
  17079  17077  17076  17084     1  0.0000000  0.0000000  3
  17079  17077  17076  17080     1  0.0000000  0.6508444  3
  17079  17077  17078  17082     1  0.0000000  1.0460000  1
  17079  17077  17078  17082     1  0.0000000  0.0000000  3
  17079  17077  17078  17094     1  0.0000000  1.0460000  1
  17079  17077  17078  17094     1  0.0000000  0.0000000  3
  17079  17077  17078  17081     1  0.0000000  0.6508444  3
  17079  17077  17083  17089     1  0.0000000  0.6973333  3
  17080  17076  17073  17085     1  0.0000000  1.0460000  1
  17080  17076  17073  17085     1  0.0000000  0.0000000  3
  17080  17076  17077  17083     1  0.0000000  1.0460000  1
  17080  17076  17077  17083     1  0.0000000  0.0000000  3
  17080  17076  17084  17087     1  0.0000000  0.6973333  3
  17081  17078  17077  17083     1  0.0000000  0.6508444  3
  17090  17086  17072  17094     1  0.0000000  1.0460000  1
  17090  17086  17072  17094     1  0.0000000  0.0000000  3
  17090  17086  17092  17093     1  0.0000000  0.6973333  3
  17091  17086  17072  17094     1  0.0000000  1.0460000  1
  17091  17086  17072  17094     1  0.0000000  0.0000000  3
  17091  17086  17092  17093     1  0.0000000  0.6973333  3
  17095  17096  17099  17103     1  0.0000000  0.6508444  3
  17095  17096  17108  17111     1  0.0000000  1.0460000  1
  17095  17096  17108  17111     1  0.0000000  0.6694400  3
  17095  17109  17115  17116     1  0.0000000  1.0460000  1
  17095  17109  17115  17116     1  0.0000000  0.6694400  3
  17095  17117  17101  17104     1  0.0000000  1.6038667  3
  17096  17099  17100  17102     1  0.0000000  0.6508444  3
  17096  17099  17107  17110     1  0.0000000  1.0460000  1
  17096  17099  17107  17110     1  0.0000000  0.6694400  3
  17096  17095  17109  17113     1  0.0000000  0.6508444  3
  17096  17095  17109  17114     1  0.0000000  0.6508444  3
  17097  17095  17096  17099     1  0.0000000  0.6508444  3
  17097  17095  17096  17108     1  0.0000000  1.0460000  1
  17097  17095  17096  17108     1  0.0000000  0.0000000  3
  17097  17095  17096  17098     1  0.0000000  0.6508444  3
  17097  17095  17109  17115     1  0.0000000  1.0460000  1
  17097  17095  17109  17115     1  0.0000000  0.0000000  3
  17097  17095  17109  17113     1  0.0000000  0.6508444  3
  17097  17095  17109  17114     1  0.0000000  0.6508444  3
  17097  17095  17117  17101     1  0.0000000  1.6038667  3
  17098  17096  17099  17100     1  0.0000000  0.6508444  3
  17098  17096  17099  17107     1  0.0000000  1.0460000  1
  17098  17096  17099  17107     1  0.0000000  0.0000000  3
  17098  17096  17099  17103     1  0.0000000  0.6508444  3
  17098  17096  17108  17111     1  0.0000000  0.6973333  3
  17098  17096  17095  17109     1  0.0000000  0.6508444  3
  17098  17096  17095  17117     1  0.0000000  1.0460000  1
  17098  17096  17095  17117     1  0.0000000  0.0000000  3
  17099  17100  17101  17104     1  0.0000000  0.6508444  3
  17099  17100  17106  17112     1  0.0000000  1.0460000  1
  17099  17100  17106  17112     1  0.0000000  0.6694400  3
  17099  17096  17108  17111     1  0.0000000  1.0460000  1
  17099  17096  17108  17111     1  0.0000000  0.6694400  3
  17100  17099  17107  17110     1  0.0000000  1.0460000  1
  17100  17099  17107  17110     1  0.0000000  0.6694400  3
  17101  17100  17106  17112     1  0.0000000  1.0460000  1
  17101  17100  17106  17112     1  0.0000000  0.6694400  3
  17101  17100  17099  17103     1  0.0000000  0.6508444  3
  17102  17100  17101  17105     1  0.0000000  1.0460000  1
  17102  17100  17101  17105     1  0.0000000  0.0000000  3
  17102  17100  17101  17117     1  0.0000000  1.0460000  1
  17102  17100  17101  17117     1  0.0000000  0.0000000  3
  17102  17100  17101  17104     1  0.0000000  0.6508444  3
  17102  17100  17106  17112     1  0.0000000  0.6973333  3
  17102  17100  17099  17107     1  0.0000000  1.0460000  1
  17102  17100  17099  17107     1  0.0000000  0.0000000  3
  17102  17100  17099  17103     1  0.0000000  0.6508444  3
  17103  17099  17100  17106     1  0.0000000  1.0460000  1
  17103  17099  17100  17106     1  0.0000000  0.0000000  3
  17103  17099  17107  17110     1  0.0000000  0.6973333  3
  17103  17099  17096  17108     1  0.0000000  1.0460000  1
  17103  17099  17096  17108     1  0.0000000  0.0000000  3
  17104  17101  17100  17106     1  0.0000000  0.6508444  3
  17113  17109  17115  17116     1  0.0000000  0.6973333  3
  17113  17109  17095  17117     1  0.0000000  1.0460000  1
  17113  17109  17095  17117     1  0.0000000  0.0000000  3
  17114  17109  17115  17116     1  0.0000000  0.6973333  3
  17114  17109  17095  17117     1  0.0000000  1.0460000  1
  17114  17109  17095  17117     1  0.0000000  0.0000000  3
  17118  17119  17122  17126     1  0.0000000  0.6508444  3
  17118  17119  17131  17134     1  0.0000000  1.0460000  1
  17118  17119  17131  17134     1  0.0000000  0.6694400  3
  17118  17132  17138  17139     1  0.0000000  1.0460000  1
  17118  17132  17138  17139     1  0.0000000  0.6694400  3
  17118  17140  17124  17127     1  0.0000000  1.6038667  3
  17119  17118  17132  17136     1  0.0000000  0.6508444  3
  17119  17118  17132  17137     1  0.0000000  0.6508444  3
  17119  17122  17123  17125     1  0.0000000  0.6508444  3
  17119  17122  17130  17133     1  0.0000000  1.0460000  1
  17119  17122  17130  17133     1  0.0000000  0.6694400  3
  17120  17118  17119  17122     1  0.0000000  0.6508444  3
  17120  17118  17119  17131     1  0.0000000  1.0460000  1
  17120  17118  17119  17131     1  0.0000000  0.0000000  3
  17120  17118  17119  17121     1  0.0000000  0.6508444  3
  17120  17118  17132  17138     1  0.0000000  1.0460000  1
  17120  17118  17132  17138     1  0.0000000  0.0000000  3
  17120  17118  17132  17136     1  0.0000000  0.6508444  3
  17120  17118  17132  17137     1  0.0000000  0.6508444  3
  17120  17118  17140  17124     1  0.0000000  1.6038667  3
  17121  17119  17118  17132     1  0.0000000  0.6508444  3
  17121  17119  17118  17140     1  0.0000000  1.0460000  1
  17121  17119  17118  17140     1  0.0000000  0.0000000  3
  17121  17119  17122  17123     1  0.0000000  0.6508444  3
  17121  17119  17122  17130     1  0.0000000  1.0460000  1
  17121  17119  17122  17130     1  0.0000000  0.0000000  3
  17121  17119  17122  17126     1  0.0000000  0.6508444  3
  17121  17119  17131  17134     1  0.0000000  0.6973333  3
  17122  17119  17131  17134     1  0.0000000  1.0460000  1
  17122  17119  17131  17134     1  0.0000000  0.6694400  3
  17122  17123  17124  17127     1  0.0000000  0.6508444  3
  17122  17123  17129  17135     1  0.0000000  1.0460000  1
  17122  17123  17129  17135     1  0.0000000  0.6694400  3
  17123  17122  17130  17133     1  0.0000000  1.0460000  1
  17123  17122  17130  17133     1  0.0000000  0.6694400  3
  17124  17123  17122  17126     1  0.0000000  0.6508444  3
  17124  17123  17129  17135     1  0.0000000  1.0460000  1
  17124  17123  17129  17135     1  0.0000000  0.6694400  3
  17125  17123  17122  17130     1  0.0000000  1.0460000  1
  17125  17123  17122  17130     1  0.0000000  0.0000000  3
  17125  17123  17122  17126     1  0.0000000  0.6508444  3
  17125  17123  17124  17128     1  0.0000000  1.0460000  1
  17125  17123  17124  17128     1  0.0000000  0.0000000  3
  17125  17123  17124  17140     1  0.0000000  1.0460000  1
  17125  17123  17124  17140     1  0.0000000  0.0000000  3
  17125  17123  17124  17127     1  0.0000000  0.6508444  3
  17125  17123  17129  17135     1  0.0000000  0.6973333  3
  17126  17122  17119  17131     1  0.0000000  1.0460000  1
  17126  17122  17119  17131     1  0.0000000  0.0000000  3
  17126  17122  17123  17129     1  0.0000000  1.0460000  1
  17126  17122  17123  17129     1  0.0000000  0.0000000  3
  17126  17122  17130  17133     1  0.0000000  0.6973333  3
  17127  17124  17123  17129     1  0.0000000  0.6508444  3
  17136  17132  17118  17140     1  0.0000000  1.0460000  1
  17136  17132  17118  17140     1  0.0000000  0.0000000  3
  17136  17132  17138  17139     1  0.0000000  0.6973333  3
  17137  17132  17118  17140     1  0.0000000  1.0460000  1
  17137  17132  17118  17140     1  0.0000000  0.0000000  3
  17137  17132  17138  17139     1  0.0000000  0.6973333  3
  17141  17142  17145  17149     1  0.0000000  0.6508444  3
  17141  17142  17154  17157     1  0.0000000  1.0460000  1
  17141  17142  17154  17157     1  0.0000000  0.6694400  3
  17141  17155  17161  17162     1  0.0000000  1.0460000  1
  17141  17155  17161  17162     1  0.0000000  0.6694400  3
  17141  17163  17147  17150     1  0.0000000  1.6038667  3
  17142  17145  17146  17148     1  0.0000000  0.6508444  3
  17142  17145  17153  17156     1  0.0000000  1.0460000  1
  17142  17145  17153  17156     1  0.0000000  0.6694400  3
  17142  17141  17155  17159     1  0.0000000  0.6508444  3
  17142  17141  17155  17160     1  0.0000000  0.6508444  3
  17143  17141  17142  17145     1  0.0000000  0.6508444  3
  17143  17141  17142  17154     1  0.0000000  1.0460000  1
  17143  17141  17142  17154     1  0.0000000  0.0000000  3
  17143  17141  17142  17144     1  0.0000000  0.6508444  3
  17143  17141  17155  17161     1  0.0000000  1.0460000  1
  17143  17141  17155  17161     1  0.0000000  0.0000000  3
  17143  17141  17155  17159     1  0.0000000  0.6508444  3
  17143  17141  17155  17160     1  0.0000000  0.6508444  3
  17143  17141  17163  17147     1  0.0000000  1.6038667  3
  17144  17142  17145  17146     1  0.0000000  0.6508444  3
  17144  17142  17145  17153     1  0.0000000  1.0460000  1
  17144  17142  17145  17153     1  0.0000000  0.0000000  3
  17144  17142  17145  17149     1  0.0000000  0.6508444  3
  17144  17142  17154  17157     1  0.0000000  0.6973333  3
  17144  17142  17141  17155     1  0.0000000  0.6508444  3
  17144  17142  17141  17163     1  0.0000000  1.0460000  1
  17144  17142  17141  17163     1  0.0000000  0.0000000  3
  17145  17146  17147  17150     1  0.0000000  0.6508444  3
  17145  17146  17152  17158     1  0.0000000  1.0460000  1
  17145  17146  17152  17158     1  0.0000000  0.6694400  3
  17145  17142  17154  17157     1  0.0000000  1.0460000  1
  17145  17142  17154  17157     1  0.0000000  0.6694400  3
  17146  17145  17153  17156     1  0.0000000  1.0460000  1
  17146  17145  17153  17156     1  0.0000000  0.6694400  3
  17147  17146  17152  17158     1  0.0000000  1.0460000  1
  17147  17146  17152  17158     1  0.0000000  0.6694400  3
  17147  17146  17145  17149     1  0.0000000  0.6508444  3
  17148  17146  17147  17151     1  0.0000000  1.0460000  1
  17148  17146  17147  17151     1  0.0000000  0.0000000  3
  17148  17146  17147  17163     1  0.0000000  1.0460000  1
  17148  17146  17147  17163     1  0.0000000  0.0000000  3
  17148  17146  17147  17150     1  0.0000000  0.6508444  3
  17148  17146  17152  17158     1  0.0000000  0.6973333  3
  17148  17146  17145  17153     1  0.0000000  1.0460000  1
  17148  17146  17145  17153     1  0.0000000  0.0000000  3
  17148  17146  17145  17149     1  0.0000000  0.6508444  3
  17149  17145  17146  17152     1  0.0000000  1.0460000  1
  17149  17145  17146  17152     1  0.0000000  0.0000000  3
  17149  17145  17153  17156     1  0.0000000  0.6973333  3
  17149  17145  17142  17154     1  0.0000000  1.0460000  1
  17149  17145  17142  17154     1  0.0000000  0.0000000  3
  17150  17147  17146  17152     1  0.0000000  0.6508444  3
  17159  17155  17161  17162     1  0.0000000  0.6973333  3
  17159  17155  17141  17163     1  0.0000000  1.0460000  1
  17159  17155  17141  17163     1  0.0000000  0.0000000  3
  17160  17155  17161  17162     1  0.0000000  0.6973333  3
  17160  17155  17141  17163     1  0.0000000  1.0460000  1
  17160  17155  17141  17163     1  0.0000000  0.0000000  3
  17164  17165  17168  17172     1  0.0000000  0.6508444  3
  17164  17165  17177  17180     1  0.0000000  1.0460000  1
  17164  17165  17177  17180     1  0.0000000  0.6694400  3
  17164  17178  17184  17185     1  0.0000000  1.0460000  1
  17164  17178  17184  17185     1  0.0000000  0.6694400  3
  17164  17186  17170  17173     1  0.0000000  1.6038667  3
  17165  17164  17178  17182     1  0.0000000  0.6508444  3
  17165  17164  17178  17183     1  0.0000000  0.6508444  3
  17165  17168  17169  17171     1  0.0000000  0.6508444  3
  17165  17168  17176  17179     1  0.0000000  1.0460000  1
  17165  17168  17176  17179     1  0.0000000  0.6694400  3
  17166  17164  17165  17168     1  0.0000000  0.6508444  3
  17166  17164  17165  17177     1  0.0000000  1.0460000  1
  17166  17164  17165  17177     1  0.0000000  0.0000000  3
  17166  17164  17165  17167     1  0.0000000  0.6508444  3
  17166  17164  17178  17184     1  0.0000000  1.0460000  1
  17166  17164  17178  17184     1  0.0000000  0.0000000  3
  17166  17164  17178  17182     1  0.0000000  0.6508444  3
  17166  17164  17178  17183     1  0.0000000  0.6508444  3
  17166  17164  17186  17170     1  0.0000000  1.6038667  3
  17167  17165  17164  17178     1  0.0000000  0.6508444  3
  17167  17165  17164  17186     1  0.0000000  1.0460000  1
  17167  17165  17164  17186     1  0.0000000  0.0000000  3
  17167  17165  17168  17169     1  0.0000000  0.6508444  3
  17167  17165  17168  17176     1  0.0000000  1.0460000  1
  17167  17165  17168  17176     1  0.0000000  0.0000000  3
  17167  17165  17168  17172     1  0.0000000  0.6508444  3
  17167  17165  17177  17180     1  0.0000000  0.6973333  3
  17168  17165  17177  17180     1  0.0000000  1.0460000  1
  17168  17165  17177  17180     1  0.0000000  0.6694400  3
  17168  17169  17170  17173     1  0.0000000  0.6508444  3
  17168  17169  17175  17181     1  0.0000000  1.0460000  1
  17168  17169  17175  17181     1  0.0000000  0.6694400  3
  17169  17168  17176  17179     1  0.0000000  1.0460000  1
  17169  17168  17176  17179     1  0.0000000  0.6694400  3
  17170  17169  17168  17172     1  0.0000000  0.6508444  3
  17170  17169  17175  17181     1  0.0000000  1.0460000  1
  17170  17169  17175  17181     1  0.0000000  0.6694400  3
  17171  17169  17168  17176     1  0.0000000  1.0460000  1
  17171  17169  17168  17176     1  0.0000000  0.0000000  3
  17171  17169  17168  17172     1  0.0000000  0.6508444  3
  17171  17169  17170  17174     1  0.0000000  1.0460000  1
  17171  17169  17170  17174     1  0.0000000  0.0000000  3
  17171  17169  17170  17186     1  0.0000000  1.0460000  1
  17171  17169  17170  17186     1  0.0000000  0.0000000  3
  17171  17169  17170  17173     1  0.0000000  0.6508444  3
  17171  17169  17175  17181     1  0.0000000  0.6973333  3
  17172  17168  17165  17177     1  0.0000000  1.0460000  1
  17172  17168  17165  17177     1  0.0000000  0.0000000  3
  17172  17168  17169  17175     1  0.0000000  1.0460000  1
  17172  17168  17169  17175     1  0.0000000  0.0000000  3
  17172  17168  17176  17179     1  0.0000000  0.6973333  3
  17173  17170  17169  17175     1  0.0000000  0.6508444  3
  17182  17178  17164  17186     1  0.0000000  1.0460000  1
  17182  17178  17164  17186     1  0.0000000  0.0000000  3
  17182  17178  17184  17185     1  0.0000000  0.6973333  3
  17183  17178  17164  17186     1  0.0000000  1.0460000  1
  17183  17178  17164  17186     1  0.0000000  0.0000000  3
  17183  17178  17184  17185     1  0.0000000  0.6973333  3
  17187  17188  17191  17195     1  0.0000000  0.6508444  3
  17187  17188  17200  17203     1  0.0000000  1.0460000  1
  17187  17188  17200  17203     1  0.0000000  0.6694400  3
  17187  17201  17207  17208     1  0.0000000  1.0460000  1
  17187  17201  17207  17208     1  0.0000000  0.6694400  3
  17187  17209  17193  17196     1  0.0000000  1.6038667  3
  17188  17191  17192  17194     1  0.0000000  0.6508444  3
  17188  17191  17199  17202     1  0.0000000  1.0460000  1
  17188  17191  17199  17202     1  0.0000000  0.6694400  3
  17188  17187  17201  17205     1  0.0000000  0.6508444  3
  17188  17187  17201  17206     1  0.0000000  0.6508444  3
  17189  17187  17188  17191     1  0.0000000  0.6508444  3
  17189  17187  17188  17200     1  0.0000000  1.0460000  1
  17189  17187  17188  17200     1  0.0000000  0.0000000  3
  17189  17187  17188  17190     1  0.0000000  0.6508444  3
  17189  17187  17201  17207     1  0.0000000  1.0460000  1
  17189  17187  17201  17207     1  0.0000000  0.0000000  3
  17189  17187  17201  17205     1  0.0000000  0.6508444  3
  17189  17187  17201  17206     1  0.0000000  0.6508444  3
  17189  17187  17209  17193     1  0.0000000  1.6038667  3
  17190  17188  17191  17192     1  0.0000000  0.6508444  3
  17190  17188  17191  17199     1  0.0000000  1.0460000  1
  17190  17188  17191  17199     1  0.0000000  0.0000000  3
  17190  17188  17191  17195     1  0.0000000  0.6508444  3
  17190  17188  17200  17203     1  0.0000000  0.6973333  3
  17190  17188  17187  17201     1  0.0000000  0.6508444  3
  17190  17188  17187  17209     1  0.0000000  1.0460000  1
  17190  17188  17187  17209     1  0.0000000  0.0000000  3
  17191  17192  17193  17196     1  0.0000000  0.6508444  3
  17191  17192  17198  17204     1  0.0000000  1.0460000  1
  17191  17192  17198  17204     1  0.0000000  0.6694400  3
  17191  17188  17200  17203     1  0.0000000  1.0460000  1
  17191  17188  17200  17203     1  0.0000000  0.6694400  3
  17192  17191  17199  17202     1  0.0000000  1.0460000  1
  17192  17191  17199  17202     1  0.0000000  0.6694400  3
  17193  17192  17198  17204     1  0.0000000  1.0460000  1
  17193  17192  17198  17204     1  0.0000000  0.6694400  3
  17193  17192  17191  17195     1  0.0000000  0.6508444  3
  17194  17192  17193  17197     1  0.0000000  1.0460000  1
  17194  17192  17193  17197     1  0.0000000  0.0000000  3
  17194  17192  17193  17209     1  0.0000000  1.0460000  1
  17194  17192  17193  17209     1  0.0000000  0.0000000  3
  17194  17192  17193  17196     1  0.0000000  0.6508444  3
  17194  17192  17198  17204     1  0.0000000  0.6973333  3
  17194  17192  17191  17199     1  0.0000000  1.0460000  1
  17194  17192  17191  17199     1  0.0000000  0.0000000  3
  17194  17192  17191  17195     1  0.0000000  0.6508444  3
  17195  17191  17192  17198     1  0.0000000  1.0460000  1
  17195  17191  17192  17198     1  0.0000000  0.0000000  3
  17195  17191  17199  17202     1  0.0000000  0.6973333  3
  17195  17191  17188  17200     1  0.0000000  1.0460000  1
  17195  17191  17188  17200     1  0.0000000  0.0000000  3
  17196  17193  17192  17198     1  0.0000000  0.6508444  3
  17205  17201  17207  17208     1  0.0000000  0.6973333  3
  17205  17201  17187  17209     1  0.0000000  1.0460000  1
  17205  17201  17187  17209     1  0.0000000  0.0000000  3
  17206  17201  17207  17208     1  0.0000000  0.6973333  3
  17206  17201  17187  17209     1  0.0000000  1.0460000  1
  17206  17201  17187  17209     1  0.0000000  0.0000000  3
  17210  17211  17214  17218     1  0.0000000  0.6508444  3
  17210  17211  17223  17226     1  0.0000000  1.0460000  1
  17210  17211  17223  17226     1  0.0000000  0.6694400  3
  17210  17224  17230  17231     1  0.0000000  1.0460000  1
  17210  17224  17230  17231     1  0.0000000  0.6694400  3
  17210  17232  17216  17219     1  0.0000000  1.6038667  3
  17211  17210  17224  17228     1  0.0000000  0.6508444  3
  17211  17210  17224  17229     1  0.0000000  0.6508444  3
  17211  17214  17215  17217     1  0.0000000  0.6508444  3
  17211  17214  17222  17225     1  0.0000000  1.0460000  1
  17211  17214  17222  17225     1  0.0000000  0.6694400  3
  17212  17210  17211  17214     1  0.0000000  0.6508444  3
  17212  17210  17211  17223     1  0.0000000  1.0460000  1
  17212  17210  17211  17223     1  0.0000000  0.0000000  3
  17212  17210  17211  17213     1  0.0000000  0.6508444  3
  17212  17210  17224  17230     1  0.0000000  1.0460000  1
  17212  17210  17224  17230     1  0.0000000  0.0000000  3
  17212  17210  17224  17228     1  0.0000000  0.6508444  3
  17212  17210  17224  17229     1  0.0000000  0.6508444  3
  17212  17210  17232  17216     1  0.0000000  1.6038667  3
  17213  17211  17210  17224     1  0.0000000  0.6508444  3
  17213  17211  17210  17232     1  0.0000000  1.0460000  1
  17213  17211  17210  17232     1  0.0000000  0.0000000  3
  17213  17211  17214  17215     1  0.0000000  0.6508444  3
  17213  17211  17214  17222     1  0.0000000  1.0460000  1
  17213  17211  17214  17222     1  0.0000000  0.0000000  3
  17213  17211  17214  17218     1  0.0000000  0.6508444  3
  17213  17211  17223  17226     1  0.0000000  0.6973333  3
  17214  17211  17223  17226     1  0.0000000  1.0460000  1
  17214  17211  17223  17226     1  0.0000000  0.6694400  3
  17214  17215  17216  17219     1  0.0000000  0.6508444  3
  17214  17215  17221  17227     1  0.0000000  1.0460000  1
  17214  17215  17221  17227     1  0.0000000  0.6694400  3
  17215  17214  17222  17225     1  0.0000000  1.0460000  1
  17215  17214  17222  17225     1  0.0000000  0.6694400  3
  17216  17215  17214  17218     1  0.0000000  0.6508444  3
  17216  17215  17221  17227     1  0.0000000  1.0460000  1
  17216  17215  17221  17227     1  0.0000000  0.6694400  3
  17217  17215  17214  17222     1  0.0000000  1.0460000  1
  17217  17215  17214  17222     1  0.0000000  0.0000000  3
  17217  17215  17214  17218     1  0.0000000  0.6508444  3
  17217  17215  17216  17220     1  0.0000000  1.0460000  1
  17217  17215  17216  17220     1  0.0000000  0.0000000  3
  17217  17215  17216  17232     1  0.0000000  1.0460000  1
  17217  17215  17216  17232     1  0.0000000  0.0000000  3
  17217  17215  17216  17219     1  0.0000000  0.6508444  3
  17217  17215  17221  17227     1  0.0000000  0.6973333  3
  17218  17214  17211  17223     1  0.0000000  1.0460000  1
  17218  17214  17211  17223     1  0.0000000  0.0000000  3
  17218  17214  17215  17221     1  0.0000000  1.0460000  1
  17218  17214  17215  17221     1  0.0000000  0.0000000  3
  17218  17214  17222  17225     1  0.0000000  0.6973333  3
  17219  17216  17215  17221     1  0.0000000  0.6508444  3
  17228  17224  17210  17232     1  0.0000000  1.0460000  1
  17228  17224  17210  17232     1  0.0000000  0.0000000  3
  17228  17224  17230  17231     1  0.0000000  0.6973333  3
  17229  17224  17210  17232     1  0.0000000  1.0460000  1
  17229  17224  17210  17232     1  0.0000000  0.0000000  3
  17229  17224  17230  17231     1  0.0000000  0.6973333  3
  17233  17234  17237  17241     1  0.0000000  0.6508444  3
  17233  17234  17246  17249     1  0.0000000  1.0460000  1
  17233  17234  17246  17249     1  0.0000000  0.6694400  3
  17233  17247  17253  17254     1  0.0000000  1.0460000  1
  17233  17247  17253  17254     1  0.0000000  0.6694400  3
  17233  17255  17239  17242     1  0.0000000  1.6038667  3
  17234  17237  17238  17240     1  0.0000000  0.6508444  3
  17234  17237  17245  17248     1  0.0000000  1.0460000  1
  17234  17237  17245  17248     1  0.0000000  0.6694400  3
  17234  17233  17247  17251     1  0.0000000  0.6508444  3
  17234  17233  17247  17252     1  0.0000000  0.6508444  3
  17235  17233  17234  17237     1  0.0000000  0.6508444  3
  17235  17233  17234  17246     1  0.0000000  1.0460000  1
  17235  17233  17234  17246     1  0.0000000  0.0000000  3
  17235  17233  17234  17236     1  0.0000000  0.6508444  3
  17235  17233  17247  17253     1  0.0000000  1.0460000  1
  17235  17233  17247  17253     1  0.0000000  0.0000000  3
  17235  17233  17247  17251     1  0.0000000  0.6508444  3
  17235  17233  17247  17252     1  0.0000000  0.6508444  3
  17235  17233  17255  17239     1  0.0000000  1.6038667  3
  17236  17234  17237  17238     1  0.0000000  0.6508444  3
  17236  17234  17237  17245     1  0.0000000  1.0460000  1
  17236  17234  17237  17245     1  0.0000000  0.0000000  3
  17236  17234  17237  17241     1  0.0000000  0.6508444  3
  17236  17234  17246  17249     1  0.0000000  0.6973333  3
  17236  17234  17233  17247     1  0.0000000  0.6508444  3
  17236  17234  17233  17255     1  0.0000000  1.0460000  1
  17236  17234  17233  17255     1  0.0000000  0.0000000  3
  17237  17238  17239  17242     1  0.0000000  0.6508444  3
  17237  17238  17244  17250     1  0.0000000  1.0460000  1
  17237  17238  17244  17250     1  0.0000000  0.6694400  3
  17237  17234  17246  17249     1  0.0000000  1.0460000  1
  17237  17234  17246  17249     1  0.0000000  0.6694400  3
  17238  17237  17245  17248     1  0.0000000  1.0460000  1
  17238  17237  17245  17248     1  0.0000000  0.6694400  3
  17239  17238  17244  17250     1  0.0000000  1.0460000  1
  17239  17238  17244  17250     1  0.0000000  0.6694400  3
  17239  17238  17237  17241     1  0.0000000  0.6508444  3
  17240  17238  17239  17243     1  0.0000000  1.0460000  1
  17240  17238  17239  17243     1  0.0000000  0.0000000  3
  17240  17238  17239  17255     1  0.0000000  1.0460000  1
  17240  17238  17239  17255     1  0.0000000  0.0000000  3
  17240  17238  17239  17242     1  0.0000000  0.6508444  3
  17240  17238  17244  17250     1  0.0000000  0.6973333  3
  17240  17238  17237  17245     1  0.0000000  1.0460000  1
  17240  17238  17237  17245     1  0.0000000  0.0000000  3
  17240  17238  17237  17241     1  0.0000000  0.6508444  3
  17241  17237  17238  17244     1  0.0000000  1.0460000  1
  17241  17237  17238  17244     1  0.0000000  0.0000000  3
  17241  17237  17245  17248     1  0.0000000  0.6973333  3
  17241  17237  17234  17246     1  0.0000000  1.0460000  1
  17241  17237  17234  17246     1  0.0000000  0.0000000  3
  17242  17239  17238  17244     1  0.0000000  0.6508444  3
  17251  17247  17253  17254     1  0.0000000  0.6973333  3
  17251  17247  17233  17255     1  0.0000000  1.0460000  1
  17251  17247  17233  17255     1  0.0000000  0.0000000  3
  17252  17247  17253  17254     1  0.0000000  0.6973333  3
  17252  17247  17233  17255     1  0.0000000  1.0460000  1
  17252  17247  17233  17255     1  0.0000000  0.0000000  3
  17256  17257  17260  17264     1  0.0000000  0.6508444  3
  17256  17257  17269  17272     1  0.0000000  1.0460000  1
  17256  17257  17269  17272     1  0.0000000  0.6694400  3
  17256  17270  17276  17277     1  0.0000000  1.0460000  1
  17256  17270  17276  17277     1  0.0000000  0.6694400  3
  17256  17278  17262  17265     1  0.0000000  1.6038667  3
  17257  17256  17270  17274     1  0.0000000  0.6508444  3
  17257  17256  17270  17275     1  0.0000000  0.6508444  3
  17257  17260  17261  17263     1  0.0000000  0.6508444  3
  17257  17260  17268  17271     1  0.0000000  1.0460000  1
  17257  17260  17268  17271     1  0.0000000  0.6694400  3
  17258  17256  17257  17260     1  0.0000000  0.6508444  3
  17258  17256  17257  17269     1  0.0000000  1.0460000  1
  17258  17256  17257  17269     1  0.0000000  0.0000000  3
  17258  17256  17257  17259     1  0.0000000  0.6508444  3
  17258  17256  17270  17276     1  0.0000000  1.0460000  1
  17258  17256  17270  17276     1  0.0000000  0.0000000  3
  17258  17256  17270  17274     1  0.0000000  0.6508444  3
  17258  17256  17270  17275     1  0.0000000  0.6508444  3
  17258  17256  17278  17262     1  0.0000000  1.6038667  3
  17259  17257  17256  17270     1  0.0000000  0.6508444  3
  17259  17257  17256  17278     1  0.0000000  1.0460000  1
  17259  17257  17256  17278     1  0.0000000  0.0000000  3
  17259  17257  17260  17261     1  0.0000000  0.6508444  3
  17259  17257  17260  17268     1  0.0000000  1.0460000  1
  17259  17257  17260  17268     1  0.0000000  0.0000000  3
  17259  17257  17260  17264     1  0.0000000  0.6508444  3
  17259  17257  17269  17272     1  0.0000000  0.6973333  3
  17260  17257  17269  17272     1  0.0000000  1.0460000  1
  17260  17257  17269  17272     1  0.0000000  0.6694400  3
  17260  17261  17262  17265     1  0.0000000  0.6508444  3
  17260  17261  17267  17273     1  0.0000000  1.0460000  1
  17260  17261  17267  17273     1  0.0000000  0.6694400  3
  17261  17260  17268  17271     1  0.0000000  1.0460000  1
  17261  17260  17268  17271     1  0.0000000  0.6694400  3
  17262  17261  17260  17264     1  0.0000000  0.6508444  3
  17262  17261  17267  17273     1  0.0000000  1.0460000  1
  17262  17261  17267  17273     1  0.0000000  0.6694400  3
  17263  17261  17260  17268     1  0.0000000  1.0460000  1
  17263  17261  17260  17268     1  0.0000000  0.0000000  3
  17263  17261  17260  17264     1  0.0000000  0.6508444  3
  17263  17261  17262  17266     1  0.0000000  1.0460000  1
  17263  17261  17262  17266     1  0.0000000  0.0000000  3
  17263  17261  17262  17278     1  0.0000000  1.0460000  1
  17263  17261  17262  17278     1  0.0000000  0.0000000  3
  17263  17261  17262  17265     1  0.0000000  0.6508444  3
  17263  17261  17267  17273     1  0.0000000  0.6973333  3
  17264  17260  17257  17269     1  0.0000000  1.0460000  1
  17264  17260  17257  17269     1  0.0000000  0.0000000  3
  17264  17260  17261  17267     1  0.0000000  1.0460000  1
  17264  17260  17261  17267     1  0.0000000  0.0000000  3
  17264  17260  17268  17271     1  0.0000000  0.6973333  3
  17265  17262  17261  17267     1  0.0000000  0.6508444  3
  17274  17270  17256  17278     1  0.0000000  1.0460000  1
  17274  17270  17256  17278     1  0.0000000  0.0000000  3
  17274  17270  17276  17277     1  0.0000000  0.6973333  3
  17275  17270  17256  17278     1  0.0000000  1.0460000  1
  17275  17270  17256  17278     1  0.0000000  0.0000000  3
  17275  17270  17276  17277     1  0.0000000  0.6973333  3
  17279  17280  17283  17287     1  0.0000000  0.6508444  3
  17279  17280  17292  17295     1  0.0000000  1.0460000  1
  17279  17280  17292  17295     1  0.0000000  0.6694400  3
  17279  17293  17299  17300     1  0.0000000  1.0460000  1
  17279  17293  17299  17300     1  0.0000000  0.6694400  3
  17279  17301  17285  17288     1  0.0000000  1.6038667  3
  17280  17283  17284  17286     1  0.0000000  0.6508444  3
  17280  17283  17291  17294     1  0.0000000  1.0460000  1
  17280  17283  17291  17294     1  0.0000000  0.6694400  3
  17280  17279  17293  17297     1  0.0000000  0.6508444  3
  17280  17279  17293  17298     1  0.0000000  0.6508444  3
  17281  17279  17280  17283     1  0.0000000  0.6508444  3
  17281  17279  17280  17292     1  0.0000000  1.0460000  1
  17281  17279  17280  17292     1  0.0000000  0.0000000  3
  17281  17279  17280  17282     1  0.0000000  0.6508444  3
  17281  17279  17293  17299     1  0.0000000  1.0460000  1
  17281  17279  17293  17299     1  0.0000000  0.0000000  3
  17281  17279  17293  17297     1  0.0000000  0.6508444  3
  17281  17279  17293  17298     1  0.0000000  0.6508444  3
  17281  17279  17301  17285     1  0.0000000  1.6038667  3
  17282  17280  17283  17284     1  0.0000000  0.6508444  3
  17282  17280  17283  17291     1  0.0000000  1.0460000  1
  17282  17280  17283  17291     1  0.0000000  0.0000000  3
  17282  17280  17283  17287     1  0.0000000  0.6508444  3
  17282  17280  17292  17295     1  0.0000000  0.6973333  3
  17282  17280  17279  17293     1  0.0000000  0.6508444  3
  17282  17280  17279  17301     1  0.0000000  1.0460000  1
  17282  17280  17279  17301     1  0.0000000  0.0000000  3
  17283  17284  17285  17288     1  0.0000000  0.6508444  3
  17283  17284  17290  17296     1  0.0000000  1.0460000  1
  17283  17284  17290  17296     1  0.0000000  0.6694400  3
  17283  17280  17292  17295     1  0.0000000  1.0460000  1
  17283  17280  17292  17295     1  0.0000000  0.6694400  3
  17284  17283  17291  17294     1  0.0000000  1.0460000  1
  17284  17283  17291  17294     1  0.0000000  0.6694400  3
  17285  17284  17290  17296     1  0.0000000  1.0460000  1
  17285  17284  17290  17296     1  0.0000000  0.6694400  3
  17285  17284  17283  17287     1  0.0000000  0.6508444  3
  17286  17284  17285  17289     1  0.0000000  1.0460000  1
  17286  17284  17285  17289     1  0.0000000  0.0000000  3
  17286  17284  17285  17301     1  0.0000000  1.0460000  1
  17286  17284  17285  17301     1  0.0000000  0.0000000  3
  17286  17284  17285  17288     1  0.0000000  0.6508444  3
  17286  17284  17290  17296     1  0.0000000  0.6973333  3
  17286  17284  17283  17291     1  0.0000000  1.0460000  1
  17286  17284  17283  17291     1  0.0000000  0.0000000  3
  17286  17284  17283  17287     1  0.0000000  0.6508444  3
  17287  17283  17284  17290     1  0.0000000  1.0460000  1
  17287  17283  17284  17290     1  0.0000000  0.0000000  3
  17287  17283  17291  17294     1  0.0000000  0.6973333  3
  17287  17283  17280  17292     1  0.0000000  1.0460000  1
  17287  17283  17280  17292     1  0.0000000  0.0000000  3
  17288  17285  17284  17290     1  0.0000000  0.6508444  3
  17297  17293  17299  17300     1  0.0000000  0.6973333  3
  17297  17293  17279  17301     1  0.0000000  1.0460000  1
  17297  17293  17279  17301     1  0.0000000  0.0000000  3
  17298  17293  17299  17300     1  0.0000000  0.6973333  3
  17298  17293  17279  17301     1  0.0000000  1.0460000  1
  17298  17293  17279  17301     1  0.0000000  0.0000000  3
  17302  17303  17306  17310     1  0.0000000  0.6508444  3
  17302  17303  17315  17318     1  0.0000000  1.0460000  1
  17302  17303  17315  17318     1  0.0000000  0.6694400  3
  17302  17316  17322  17323     1  0.0000000  1.0460000  1
  17302  17316  17322  17323     1  0.0000000  0.6694400  3
  17302  17324  17308  17311     1  0.0000000  1.6038667  3
  17303  17302  17316  17320     1  0.0000000  0.6508444  3
  17303  17302  17316  17321     1  0.0000000  0.6508444  3
  17303  17306  17307  17309     1  0.0000000  0.6508444  3
  17303  17306  17314  17317     1  0.0000000  1.0460000  1
  17303  17306  17314  17317     1  0.0000000  0.6694400  3
  17304  17302  17303  17306     1  0.0000000  0.6508444  3
  17304  17302  17303  17315     1  0.0000000  1.0460000  1
  17304  17302  17303  17315     1  0.0000000  0.0000000  3
  17304  17302  17303  17305     1  0.0000000  0.6508444  3
  17304  17302  17316  17322     1  0.0000000  1.0460000  1
  17304  17302  17316  17322     1  0.0000000  0.0000000  3
  17304  17302  17316  17320     1  0.0000000  0.6508444  3
  17304  17302  17316  17321     1  0.0000000  0.6508444  3
  17304  17302  17324  17308     1  0.0000000  1.6038667  3
  17305  17303  17302  17316     1  0.0000000  0.6508444  3
  17305  17303  17302  17324     1  0.0000000  1.0460000  1
  17305  17303  17302  17324     1  0.0000000  0.0000000  3
  17305  17303  17306  17307     1  0.0000000  0.6508444  3
  17305  17303  17306  17314     1  0.0000000  1.0460000  1
  17305  17303  17306  17314     1  0.0000000  0.0000000  3
  17305  17303  17306  17310     1  0.0000000  0.6508444  3
  17305  17303  17315  17318     1  0.0000000  0.6973333  3
  17306  17303  17315  17318     1  0.0000000  1.0460000  1
  17306  17303  17315  17318     1  0.0000000  0.6694400  3
  17306  17307  17308  17311     1  0.0000000  0.6508444  3
  17306  17307  17313  17319     1  0.0000000  1.0460000  1
  17306  17307  17313  17319     1  0.0000000  0.6694400  3
  17307  17306  17314  17317     1  0.0000000  1.0460000  1
  17307  17306  17314  17317     1  0.0000000  0.6694400  3
  17308  17307  17306  17310     1  0.0000000  0.6508444  3
  17308  17307  17313  17319     1  0.0000000  1.0460000  1
  17308  17307  17313  17319     1  0.0000000  0.6694400  3
  17309  17307  17306  17314     1  0.0000000  1.0460000  1
  17309  17307  17306  17314     1  0.0000000  0.0000000  3
  17309  17307  17306  17310     1  0.0000000  0.6508444  3
  17309  17307  17308  17312     1  0.0000000  1.0460000  1
  17309  17307  17308  17312     1  0.0000000  0.0000000  3
  17309  17307  17308  17324     1  0.0000000  1.0460000  1
  17309  17307  17308  17324     1  0.0000000  0.0000000  3
  17309  17307  17308  17311     1  0.0000000  0.6508444  3
  17309  17307  17313  17319     1  0.0000000  0.6973333  3
  17310  17306  17303  17315     1  0.0000000  1.0460000  1
  17310  17306  17303  17315     1  0.0000000  0.0000000  3
  17310  17306  17307  17313     1  0.0000000  1.0460000  1
  17310  17306  17307  17313     1  0.0000000  0.0000000  3
  17310  17306  17314  17317     1  0.0000000  0.6973333  3
  17311  17308  17307  17313     1  0.0000000  0.6508444  3
  17320  17316  17302  17324     1  0.0000000  1.0460000  1
  17320  17316  17302  17324     1  0.0000000  0.0000000  3
  17320  17316  17322  17323     1  0.0000000  0.6973333  3
  17321  17316  17302  17324     1  0.0000000  1.0460000  1
  17321  17316  17302  17324     1  0.0000000  0.0000000  3
  17321  17316  17322  17323     1  0.0000000  0.6973333  3
  17325  17326  17329  17333     1  0.0000000  0.6508444  3
  17325  17326  17338  17341     1  0.0000000  1.0460000  1
  17325  17326  17338  17341     1  0.0000000  0.6694400  3
  17325  17339  17345  17346     1  0.0000000  1.0460000  1
  17325  17339  17345  17346     1  0.0000000  0.6694400  3
  17325  17347  17331  17334     1  0.0000000  1.6038667  3
  17326  17329  17330  17332     1  0.0000000  0.6508444  3
  17326  17329  17337  17340     1  0.0000000  1.0460000  1
  17326  17329  17337  17340     1  0.0000000  0.6694400  3
  17326  17325  17339  17343     1  0.0000000  0.6508444  3
  17326  17325  17339  17344     1  0.0000000  0.6508444  3
  17327  17325  17326  17329     1  0.0000000  0.6508444  3
  17327  17325  17326  17338     1  0.0000000  1.0460000  1
  17327  17325  17326  17338     1  0.0000000  0.0000000  3
  17327  17325  17326  17328     1  0.0000000  0.6508444  3
  17327  17325  17339  17345     1  0.0000000  1.0460000  1
  17327  17325  17339  17345     1  0.0000000  0.0000000  3
  17327  17325  17339  17343     1  0.0000000  0.6508444  3
  17327  17325  17339  17344     1  0.0000000  0.6508444  3
  17327  17325  17347  17331     1  0.0000000  1.6038667  3
  17328  17326  17329  17330     1  0.0000000  0.6508444  3
  17328  17326  17329  17337     1  0.0000000  1.0460000  1
  17328  17326  17329  17337     1  0.0000000  0.0000000  3
  17328  17326  17329  17333     1  0.0000000  0.6508444  3
  17328  17326  17338  17341     1  0.0000000  0.6973333  3
  17328  17326  17325  17339     1  0.0000000  0.6508444  3
  17328  17326  17325  17347     1  0.0000000  1.0460000  1
  17328  17326  17325  17347     1  0.0000000  0.0000000  3
  17329  17330  17331  17334     1  0.0000000  0.6508444  3
  17329  17330  17336  17342     1  0.0000000  1.0460000  1
  17329  17330  17336  17342     1  0.0000000  0.6694400  3
  17329  17326  17338  17341     1  0.0000000  1.0460000  1
  17329  17326  17338  17341     1  0.0000000  0.6694400  3
  17330  17329  17337  17340     1  0.0000000  1.0460000  1
  17330  17329  17337  17340     1  0.0000000  0.6694400  3
  17331  17330  17336  17342     1  0.0000000  1.0460000  1
  17331  17330  17336  17342     1  0.0000000  0.6694400  3
  17331  17330  17329  17333     1  0.0000000  0.6508444  3
  17332  17330  17331  17335     1  0.0000000  1.0460000  1
  17332  17330  17331  17335     1  0.0000000  0.0000000  3
  17332  17330  17331  17347     1  0.0000000  1.0460000  1
  17332  17330  17331  17347     1  0.0000000  0.0000000  3
  17332  17330  17331  17334     1  0.0000000  0.6508444  3
  17332  17330  17336  17342     1  0.0000000  0.6973333  3
  17332  17330  17329  17337     1  0.0000000  1.0460000  1
  17332  17330  17329  17337     1  0.0000000  0.0000000  3
  17332  17330  17329  17333     1  0.0000000  0.6508444  3
  17333  17329  17330  17336     1  0.0000000  1.0460000  1
  17333  17329  17330  17336     1  0.0000000  0.0000000  3
  17333  17329  17337  17340     1  0.0000000  0.6973333  3
  17333  17329  17326  17338     1  0.0000000  1.0460000  1
  17333  17329  17326  17338     1  0.0000000  0.0000000  3
  17334  17331  17330  17336     1  0.0000000  0.6508444  3
  17343  17339  17345  17346     1  0.0000000  0.6973333  3
  17343  17339  17325  17347     1  0.0000000  1.0460000  1
  17343  17339  17325  17347     1  0.0000000  0.0000000  3
  17344  17339  17345  17346     1  0.0000000  0.6973333  3
  17344  17339  17325  17347     1  0.0000000  1.0460000  1
  17344  17339  17325  17347     1  0.0000000  0.0000000  3
  17348  17349  17352  17356     1  0.0000000  0.6508444  3
  17348  17349  17361  17364     1  0.0000000  1.0460000  1
  17348  17349  17361  17364     1  0.0000000  0.6694400  3
  17348  17362  17368  17369     1  0.0000000  1.0460000  1
  17348  17362  17368  17369     1  0.0000000  0.6694400  3
  17348  17370  17354  17357     1  0.0000000  1.6038667  3
  17349  17348  17362  17366     1  0.0000000  0.6508444  3
  17349  17348  17362  17367     1  0.0000000  0.6508444  3
  17349  17352  17353  17355     1  0.0000000  0.6508444  3
  17349  17352  17360  17363     1  0.0000000  1.0460000  1
  17349  17352  17360  17363     1  0.0000000  0.6694400  3
  17350  17348  17349  17352     1  0.0000000  0.6508444  3
  17350  17348  17349  17361     1  0.0000000  1.0460000  1
  17350  17348  17349  17361     1  0.0000000  0.0000000  3
  17350  17348  17349  17351     1  0.0000000  0.6508444  3
  17350  17348  17362  17368     1  0.0000000  1.0460000  1
  17350  17348  17362  17368     1  0.0000000  0.0000000  3
  17350  17348  17362  17366     1  0.0000000  0.6508444  3
  17350  17348  17362  17367     1  0.0000000  0.6508444  3
  17350  17348  17370  17354     1  0.0000000  1.6038667  3
  17351  17349  17348  17362     1  0.0000000  0.6508444  3
  17351  17349  17348  17370     1  0.0000000  1.0460000  1
  17351  17349  17348  17370     1  0.0000000  0.0000000  3
  17351  17349  17352  17353     1  0.0000000  0.6508444  3
  17351  17349  17352  17360     1  0.0000000  1.0460000  1
  17351  17349  17352  17360     1  0.0000000  0.0000000  3
  17351  17349  17352  17356     1  0.0000000  0.6508444  3
  17351  17349  17361  17364     1  0.0000000  0.6973333  3
  17352  17349  17361  17364     1  0.0000000  1.0460000  1
  17352  17349  17361  17364     1  0.0000000  0.6694400  3
  17352  17353  17354  17357     1  0.0000000  0.6508444  3
  17352  17353  17359  17365     1  0.0000000  1.0460000  1
  17352  17353  17359  17365     1  0.0000000  0.6694400  3
  17353  17352  17360  17363     1  0.0000000  1.0460000  1
  17353  17352  17360  17363     1  0.0000000  0.6694400  3
  17354  17353  17352  17356     1  0.0000000  0.6508444  3
  17354  17353  17359  17365     1  0.0000000  1.0460000  1
  17354  17353  17359  17365     1  0.0000000  0.6694400  3
  17355  17353  17352  17360     1  0.0000000  1.0460000  1
  17355  17353  17352  17360     1  0.0000000  0.0000000  3
  17355  17353  17352  17356     1  0.0000000  0.6508444  3
  17355  17353  17354  17358     1  0.0000000  1.0460000  1
  17355  17353  17354  17358     1  0.0000000  0.0000000  3
  17355  17353  17354  17370     1  0.0000000  1.0460000  1
  17355  17353  17354  17370     1  0.0000000  0.0000000  3
  17355  17353  17354  17357     1  0.0000000  0.6508444  3
  17355  17353  17359  17365     1  0.0000000  0.6973333  3
  17356  17352  17349  17361     1  0.0000000  1.0460000  1
  17356  17352  17349  17361     1  0.0000000  0.0000000  3
  17356  17352  17353  17359     1  0.0000000  1.0460000  1
  17356  17352  17353  17359     1  0.0000000  0.0000000  3
  17356  17352  17360  17363     1  0.0000000  0.6973333  3
  17357  17354  17353  17359     1  0.0000000  0.6508444  3
  17366  17362  17348  17370     1  0.0000000  1.0460000  1
  17366  17362  17348  17370     1  0.0000000  0.0000000  3
  17366  17362  17368  17369     1  0.0000000  0.6973333  3
  17367  17362  17348  17370     1  0.0000000  1.0460000  1
  17367  17362  17348  17370     1  0.0000000  0.0000000  3
  17367  17362  17368  17369     1  0.0000000  0.6973333  3
  17371  17372  17375  17379     1  0.0000000  0.6508444  3
  17371  17372  17384  17387     1  0.0000000  1.0460000  1
  17371  17372  17384  17387     1  0.0000000  0.6694400  3
  17371  17385  17391  17392     1  0.0000000  1.0460000  1
  17371  17385  17391  17392     1  0.0000000  0.6694400  3
  17371  17393  17377  17380     1  0.0000000  1.6038667  3
  17372  17375  17376  17378     1  0.0000000  0.6508444  3
  17372  17375  17383  17386     1  0.0000000  1.0460000  1
  17372  17375  17383  17386     1  0.0000000  0.6694400  3
  17372  17371  17385  17389     1  0.0000000  0.6508444  3
  17372  17371  17385  17390     1  0.0000000  0.6508444  3
  17373  17371  17372  17375     1  0.0000000  0.6508444  3
  17373  17371  17372  17384     1  0.0000000  1.0460000  1
  17373  17371  17372  17384     1  0.0000000  0.0000000  3
  17373  17371  17372  17374     1  0.0000000  0.6508444  3
  17373  17371  17385  17391     1  0.0000000  1.0460000  1
  17373  17371  17385  17391     1  0.0000000  0.0000000  3
  17373  17371  17385  17389     1  0.0000000  0.6508444  3
  17373  17371  17385  17390     1  0.0000000  0.6508444  3
  17373  17371  17393  17377     1  0.0000000  1.6038667  3
  17374  17372  17375  17376     1  0.0000000  0.6508444  3
  17374  17372  17375  17383     1  0.0000000  1.0460000  1
  17374  17372  17375  17383     1  0.0000000  0.0000000  3
  17374  17372  17375  17379     1  0.0000000  0.6508444  3
  17374  17372  17384  17387     1  0.0000000  0.6973333  3
  17374  17372  17371  17385     1  0.0000000  0.6508444  3
  17374  17372  17371  17393     1  0.0000000  1.0460000  1
  17374  17372  17371  17393     1  0.0000000  0.0000000  3
  17375  17376  17377  17380     1  0.0000000  0.6508444  3
  17375  17376  17382  17388     1  0.0000000  1.0460000  1
  17375  17376  17382  17388     1  0.0000000  0.6694400  3
  17375  17372  17384  17387     1  0.0000000  1.0460000  1
  17375  17372  17384  17387     1  0.0000000  0.6694400  3
  17376  17375  17383  17386     1  0.0000000  1.0460000  1
  17376  17375  17383  17386     1  0.0000000  0.6694400  3
  17377  17376  17382  17388     1  0.0000000  1.0460000  1
  17377  17376  17382  17388     1  0.0000000  0.6694400  3
  17377  17376  17375  17379     1  0.0000000  0.6508444  3
  17378  17376  17377  17381     1  0.0000000  1.0460000  1
  17378  17376  17377  17381     1  0.0000000  0.0000000  3
  17378  17376  17377  17393     1  0.0000000  1.0460000  1
  17378  17376  17377  17393     1  0.0000000  0.0000000  3
  17378  17376  17377  17380     1  0.0000000  0.6508444  3
  17378  17376  17382  17388     1  0.0000000  0.6973333  3
  17378  17376  17375  17383     1  0.0000000  1.0460000  1
  17378  17376  17375  17383     1  0.0000000  0.0000000  3
  17378  17376  17375  17379     1  0.0000000  0.6508444  3
  17379  17375  17376  17382     1  0.0000000  1.0460000  1
  17379  17375  17376  17382     1  0.0000000  0.0000000  3
  17379  17375  17383  17386     1  0.0000000  0.6973333  3
  17379  17375  17372  17384     1  0.0000000  1.0460000  1
  17379  17375  17372  17384     1  0.0000000  0.0000000  3
  17380  17377  17376  17382     1  0.0000000  0.6508444  3
  17389  17385  17391  17392     1  0.0000000  0.6973333  3
  17389  17385  17371  17393     1  0.0000000  1.0460000  1
  17389  17385  17371  17393     1  0.0000000  0.0000000  3
  17390  17385  17391  17392     1  0.0000000  0.6973333  3
  17390  17385  17371  17393     1  0.0000000  1.0460000  1
  17390  17385  17371  17393     1  0.0000000  0.0000000  3
  17394  17395  17398  17402     1  0.0000000  0.6508444  3
  17394  17395  17407  17410     1  0.0000000  1.0460000  1
  17394  17395  17407  17410     1  0.0000000  0.6694400  3
  17394  17408  17414  17415     1  0.0000000  1.0460000  1
  17394  17408  17414  17415     1  0.0000000  0.6694400  3
  17394  17416  17400  17403     1  0.0000000  1.6038667  3
  17395  17394  17408  17412     1  0.0000000  0.6508444  3
  17395  17394  17408  17413     1  0.0000000  0.6508444  3
  17395  17398  17399  17401     1  0.0000000  0.6508444  3
  17395  17398  17406  17409     1  0.0000000  1.0460000  1
  17395  17398  17406  17409     1  0.0000000  0.6694400  3
  17396  17394  17395  17398     1  0.0000000  0.6508444  3
  17396  17394  17395  17407     1  0.0000000  1.0460000  1
  17396  17394  17395  17407     1  0.0000000  0.0000000  3
  17396  17394  17395  17397     1  0.0000000  0.6508444  3
  17396  17394  17408  17414     1  0.0000000  1.0460000  1
  17396  17394  17408  17414     1  0.0000000  0.0000000  3
  17396  17394  17408  17412     1  0.0000000  0.6508444  3
  17396  17394  17408  17413     1  0.0000000  0.6508444  3
  17396  17394  17416  17400     1  0.0000000  1.6038667  3
  17397  17395  17394  17408     1  0.0000000  0.6508444  3
  17397  17395  17394  17416     1  0.0000000  1.0460000  1
  17397  17395  17394  17416     1  0.0000000  0.0000000  3
  17397  17395  17398  17399     1  0.0000000  0.6508444  3
  17397  17395  17398  17406     1  0.0000000  1.0460000  1
  17397  17395  17398  17406     1  0.0000000  0.0000000  3
  17397  17395  17398  17402     1  0.0000000  0.6508444  3
  17397  17395  17407  17410     1  0.0000000  0.6973333  3
  17398  17395  17407  17410     1  0.0000000  1.0460000  1
  17398  17395  17407  17410     1  0.0000000  0.6694400  3
  17398  17399  17400  17403     1  0.0000000  0.6508444  3
  17398  17399  17405  17411     1  0.0000000  1.0460000  1
  17398  17399  17405  17411     1  0.0000000  0.6694400  3
  17399  17398  17406  17409     1  0.0000000  1.0460000  1
  17399  17398  17406  17409     1  0.0000000  0.6694400  3
  17400  17399  17398  17402     1  0.0000000  0.6508444  3
  17400  17399  17405  17411     1  0.0000000  1.0460000  1
  17400  17399  17405  17411     1  0.0000000  0.6694400  3
  17401  17399  17398  17406     1  0.0000000  1.0460000  1
  17401  17399  17398  17406     1  0.0000000  0.0000000  3
  17401  17399  17398  17402     1  0.0000000  0.6508444  3
  17401  17399  17400  17404     1  0.0000000  1.0460000  1
  17401  17399  17400  17404     1  0.0000000  0.0000000  3
  17401  17399  17400  17416     1  0.0000000  1.0460000  1
  17401  17399  17400  17416     1  0.0000000  0.0000000  3
  17401  17399  17400  17403     1  0.0000000  0.6508444  3
  17401  17399  17405  17411     1  0.0000000  0.6973333  3
  17402  17398  17395  17407     1  0.0000000  1.0460000  1
  17402  17398  17395  17407     1  0.0000000  0.0000000  3
  17402  17398  17399  17405     1  0.0000000  1.0460000  1
  17402  17398  17399  17405     1  0.0000000  0.0000000  3
  17402  17398  17406  17409     1  0.0000000  0.6973333  3
  17403  17400  17399  17405     1  0.0000000  0.6508444  3
  17412  17408  17394  17416     1  0.0000000  1.0460000  1
  17412  17408  17394  17416     1  0.0000000  0.0000000  3
  17412  17408  17414  17415     1  0.0000000  0.6973333  3
  17413  17408  17394  17416     1  0.0000000  1.0460000  1
  17413  17408  17394  17416     1  0.0000000  0.0000000  3
  17413  17408  17414  17415     1  0.0000000  0.6973333  3
  17417  17418  17421  17425     1  0.0000000  0.6508444  3
  17417  17418  17430  17433     1  0.0000000  1.0460000  1
  17417  17418  17430  17433     1  0.0000000  0.6694400  3
  17417  17431  17437  17438     1  0.0000000  1.0460000  1
  17417  17431  17437  17438     1  0.0000000  0.6694400  3
  17417  17439  17423  17426     1  0.0000000  1.6038667  3
  17418  17421  17422  17424     1  0.0000000  0.6508444  3
  17418  17421  17429  17432     1  0.0000000  1.0460000  1
  17418  17421  17429  17432     1  0.0000000  0.6694400  3
  17418  17417  17431  17435     1  0.0000000  0.6508444  3
  17418  17417  17431  17436     1  0.0000000  0.6508444  3
  17419  17417  17418  17421     1  0.0000000  0.6508444  3
  17419  17417  17418  17430     1  0.0000000  1.0460000  1
  17419  17417  17418  17430     1  0.0000000  0.0000000  3
  17419  17417  17418  17420     1  0.0000000  0.6508444  3
  17419  17417  17431  17437     1  0.0000000  1.0460000  1
  17419  17417  17431  17437     1  0.0000000  0.0000000  3
  17419  17417  17431  17435     1  0.0000000  0.6508444  3
  17419  17417  17431  17436     1  0.0000000  0.6508444  3
  17419  17417  17439  17423     1  0.0000000  1.6038667  3
  17420  17418  17421  17422     1  0.0000000  0.6508444  3
  17420  17418  17421  17429     1  0.0000000  1.0460000  1
  17420  17418  17421  17429     1  0.0000000  0.0000000  3
  17420  17418  17421  17425     1  0.0000000  0.6508444  3
  17420  17418  17430  17433     1  0.0000000  0.6973333  3
  17420  17418  17417  17431     1  0.0000000  0.6508444  3
  17420  17418  17417  17439     1  0.0000000  1.0460000  1
  17420  17418  17417  17439     1  0.0000000  0.0000000  3
  17421  17422  17423  17426     1  0.0000000  0.6508444  3
  17421  17422  17428  17434     1  0.0000000  1.0460000  1
  17421  17422  17428  17434     1  0.0000000  0.6694400  3
  17421  17418  17430  17433     1  0.0000000  1.0460000  1
  17421  17418  17430  17433     1  0.0000000  0.6694400  3
  17422  17421  17429  17432     1  0.0000000  1.0460000  1
  17422  17421  17429  17432     1  0.0000000  0.6694400  3
  17423  17422  17428  17434     1  0.0000000  1.0460000  1
  17423  17422  17428  17434     1  0.0000000  0.6694400  3
  17423  17422  17421  17425     1  0.0000000  0.6508444  3
  17424  17422  17423  17427     1  0.0000000  1.0460000  1
  17424  17422  17423  17427     1  0.0000000  0.0000000  3
  17424  17422  17423  17439     1  0.0000000  1.0460000  1
  17424  17422  17423  17439     1  0.0000000  0.0000000  3
  17424  17422  17423  17426     1  0.0000000  0.6508444  3
  17424  17422  17428  17434     1  0.0000000  0.6973333  3
  17424  17422  17421  17429     1  0.0000000  1.0460000  1
  17424  17422  17421  17429     1  0.0000000  0.0000000  3
  17424  17422  17421  17425     1  0.0000000  0.6508444  3
  17425  17421  17422  17428     1  0.0000000  1.0460000  1
  17425  17421  17422  17428     1  0.0000000  0.0000000  3
  17425  17421  17429  17432     1  0.0000000  0.6973333  3
  17425  17421  17418  17430     1  0.0000000  1.0460000  1
  17425  17421  17418  17430     1  0.0000000  0.0000000  3
  17426  17423  17422  17428     1  0.0000000  0.6508444  3
  17435  17431  17437  17438     1  0.0000000  0.6973333  3
  17435  17431  17417  17439     1  0.0000000  1.0460000  1
  17435  17431  17417  17439     1  0.0000000  0.0000000  3
  17436  17431  17437  17438     1  0.0000000  0.6973333  3
  17436  17431  17417  17439     1  0.0000000  1.0460000  1
  17436  17431  17417  17439     1  0.0000000  0.0000000  3
  17440  17441  17444  17448     1  0.0000000  0.6508444  3
  17440  17441  17453  17456     1  0.0000000  1.0460000  1
  17440  17441  17453  17456     1  0.0000000  0.6694400  3
  17440  17454  17460  17461     1  0.0000000  1.0460000  1
  17440  17454  17460  17461     1  0.0000000  0.6694400  3
  17440  17462  17446  17449     1  0.0000000  1.6038667  3
  17441  17440  17454  17458     1  0.0000000  0.6508444  3
  17441  17440  17454  17459     1  0.0000000  0.6508444  3
  17441  17444  17445  17447     1  0.0000000  0.6508444  3
  17441  17444  17452  17455     1  0.0000000  1.0460000  1
  17441  17444  17452  17455     1  0.0000000  0.6694400  3
  17442  17440  17441  17444     1  0.0000000  0.6508444  3
  17442  17440  17441  17453     1  0.0000000  1.0460000  1
  17442  17440  17441  17453     1  0.0000000  0.0000000  3
  17442  17440  17441  17443     1  0.0000000  0.6508444  3
  17442  17440  17454  17460     1  0.0000000  1.0460000  1
  17442  17440  17454  17460     1  0.0000000  0.0000000  3
  17442  17440  17454  17458     1  0.0000000  0.6508444  3
  17442  17440  17454  17459     1  0.0000000  0.6508444  3
  17442  17440  17462  17446     1  0.0000000  1.6038667  3
  17443  17441  17440  17454     1  0.0000000  0.6508444  3
  17443  17441  17440  17462     1  0.0000000  1.0460000  1
  17443  17441  17440  17462     1  0.0000000  0.0000000  3
  17443  17441  17444  17445     1  0.0000000  0.6508444  3
  17443  17441  17444  17452     1  0.0000000  1.0460000  1
  17443  17441  17444  17452     1  0.0000000  0.0000000  3
  17443  17441  17444  17448     1  0.0000000  0.6508444  3
  17443  17441  17453  17456     1  0.0000000  0.6973333  3
  17444  17441  17453  17456     1  0.0000000  1.0460000  1
  17444  17441  17453  17456     1  0.0000000  0.6694400  3
  17444  17445  17446  17449     1  0.0000000  0.6508444  3
  17444  17445  17451  17457     1  0.0000000  1.0460000  1
  17444  17445  17451  17457     1  0.0000000  0.6694400  3
  17445  17444  17452  17455     1  0.0000000  1.0460000  1
  17445  17444  17452  17455     1  0.0000000  0.6694400  3
  17446  17445  17444  17448     1  0.0000000  0.6508444  3
  17446  17445  17451  17457     1  0.0000000  1.0460000  1
  17446  17445  17451  17457     1  0.0000000  0.6694400  3
  17447  17445  17444  17452     1  0.0000000  1.0460000  1
  17447  17445  17444  17452     1  0.0000000  0.0000000  3
  17447  17445  17444  17448     1  0.0000000  0.6508444  3
  17447  17445  17446  17450     1  0.0000000  1.0460000  1
  17447  17445  17446  17450     1  0.0000000  0.0000000  3
  17447  17445  17446  17462     1  0.0000000  1.0460000  1
  17447  17445  17446  17462     1  0.0000000  0.0000000  3
  17447  17445  17446  17449     1  0.0000000  0.6508444  3
  17447  17445  17451  17457     1  0.0000000  0.6973333  3
  17448  17444  17441  17453     1  0.0000000  1.0460000  1
  17448  17444  17441  17453     1  0.0000000  0.0000000  3
  17448  17444  17445  17451     1  0.0000000  1.0460000  1
  17448  17444  17445  17451     1  0.0000000  0.0000000  3
  17448  17444  17452  17455     1  0.0000000  0.6973333  3
  17449  17446  17445  17451     1  0.0000000  0.6508444  3
  17458  17454  17440  17462     1  0.0000000  1.0460000  1
  17458  17454  17440  17462     1  0.0000000  0.0000000  3
  17458  17454  17460  17461     1  0.0000000  0.6973333  3
  17459  17454  17440  17462     1  0.0000000  1.0460000  1
  17459  17454  17440  17462     1  0.0000000  0.0000000  3
  17459  17454  17460  17461     1  0.0000000  0.6973333  3
  17463  17464  17467  17471     1  0.0000000  0.6508444  3
  17463  17464  17476  17479     1  0.0000000  1.0460000  1
  17463  17464  17476  17479     1  0.0000000  0.6694400  3
  17463  17477  17483  17484     1  0.0000000  1.0460000  1
  17463  17477  17483  17484     1  0.0000000  0.6694400  3
  17463  17485  17469  17472     1  0.0000000  1.6038667  3
  17464  17467  17468  17470     1  0.0000000  0.6508444  3
  17464  17467  17475  17478     1  0.0000000  1.0460000  1
  17464  17467  17475  17478     1  0.0000000  0.6694400  3
  17464  17463  17477  17481     1  0.0000000  0.6508444  3
  17464  17463  17477  17482     1  0.0000000  0.6508444  3
  17465  17463  17464  17467     1  0.0000000  0.6508444  3
  17465  17463  17464  17476     1  0.0000000  1.0460000  1
  17465  17463  17464  17476     1  0.0000000  0.0000000  3
  17465  17463  17464  17466     1  0.0000000  0.6508444  3
  17465  17463  17477  17483     1  0.0000000  1.0460000  1
  17465  17463  17477  17483     1  0.0000000  0.0000000  3
  17465  17463  17477  17481     1  0.0000000  0.6508444  3
  17465  17463  17477  17482     1  0.0000000  0.6508444  3
  17465  17463  17485  17469     1  0.0000000  1.6038667  3
  17466  17464  17467  17468     1  0.0000000  0.6508444  3
  17466  17464  17467  17475     1  0.0000000  1.0460000  1
  17466  17464  17467  17475     1  0.0000000  0.0000000  3
  17466  17464  17467  17471     1  0.0000000  0.6508444  3
  17466  17464  17476  17479     1  0.0000000  0.6973333  3
  17466  17464  17463  17477     1  0.0000000  0.6508444  3
  17466  17464  17463  17485     1  0.0000000  1.0460000  1
  17466  17464  17463  17485     1  0.0000000  0.0000000  3
  17467  17468  17469  17472     1  0.0000000  0.6508444  3
  17467  17468  17474  17480     1  0.0000000  1.0460000  1
  17467  17468  17474  17480     1  0.0000000  0.6694400  3
  17467  17464  17476  17479     1  0.0000000  1.0460000  1
  17467  17464  17476  17479     1  0.0000000  0.6694400  3
  17468  17467  17475  17478     1  0.0000000  1.0460000  1
  17468  17467  17475  17478     1  0.0000000  0.6694400  3
  17469  17468  17474  17480     1  0.0000000  1.0460000  1
  17469  17468  17474  17480     1  0.0000000  0.6694400  3
  17469  17468  17467  17471     1  0.0000000  0.6508444  3
  17470  17468  17469  17473     1  0.0000000  1.0460000  1
  17470  17468  17469  17473     1  0.0000000  0.0000000  3
  17470  17468  17469  17485     1  0.0000000  1.0460000  1
  17470  17468  17469  17485     1  0.0000000  0.0000000  3
  17470  17468  17469  17472     1  0.0000000  0.6508444  3
  17470  17468  17474  17480     1  0.0000000  0.6973333  3
  17470  17468  17467  17475     1  0.0000000  1.0460000  1
  17470  17468  17467  17475     1  0.0000000  0.0000000  3
  17470  17468  17467  17471     1  0.0000000  0.6508444  3
  17471  17467  17468  17474     1  0.0000000  1.0460000  1
  17471  17467  17468  17474     1  0.0000000  0.0000000  3
  17471  17467  17475  17478     1  0.0000000  0.6973333  3
  17471  17467  17464  17476     1  0.0000000  1.0460000  1
  17471  17467  17464  17476     1  0.0000000  0.0000000  3
  17472  17469  17468  17474     1  0.0000000  0.6508444  3
  17481  17477  17483  17484     1  0.0000000  0.6973333  3
  17481  17477  17463  17485     1  0.0000000  1.0460000  1
  17481  17477  17463  17485     1  0.0000000  0.0000000  3
  17482  17477  17483  17484     1  0.0000000  0.6973333  3
  17482  17477  17463  17485     1  0.0000000  1.0460000  1
  17482  17477  17463  17485     1  0.0000000  0.0000000  3
  17486  17487  17490  17494     1  0.0000000  0.6508444  3
  17486  17487  17499  17502     1  0.0000000  1.0460000  1
  17486  17487  17499  17502     1  0.0000000  0.6694400  3
  17486  17500  17506  17507     1  0.0000000  1.0460000  1
  17486  17500  17506  17507     1  0.0000000  0.6694400  3
  17486  17508  17492  17495     1  0.0000000  1.6038667  3
  17487  17486  17500  17504     1  0.0000000  0.6508444  3
  17487  17486  17500  17505     1  0.0000000  0.6508444  3
  17487  17490  17491  17493     1  0.0000000  0.6508444  3
  17487  17490  17498  17501     1  0.0000000  1.0460000  1
  17487  17490  17498  17501     1  0.0000000  0.6694400  3
  17488  17486  17487  17490     1  0.0000000  0.6508444  3
  17488  17486  17487  17499     1  0.0000000  1.0460000  1
  17488  17486  17487  17499     1  0.0000000  0.0000000  3
  17488  17486  17487  17489     1  0.0000000  0.6508444  3
  17488  17486  17500  17506     1  0.0000000  1.0460000  1
  17488  17486  17500  17506     1  0.0000000  0.0000000  3
  17488  17486  17500  17504     1  0.0000000  0.6508444  3
  17488  17486  17500  17505     1  0.0000000  0.6508444  3
  17488  17486  17508  17492     1  0.0000000  1.6038667  3
  17489  17487  17486  17500     1  0.0000000  0.6508444  3
  17489  17487  17486  17508     1  0.0000000  1.0460000  1
  17489  17487  17486  17508     1  0.0000000  0.0000000  3
  17489  17487  17490  17491     1  0.0000000  0.6508444  3
  17489  17487  17490  17498     1  0.0000000  1.0460000  1
  17489  17487  17490  17498     1  0.0000000  0.0000000  3
  17489  17487  17490  17494     1  0.0000000  0.6508444  3
  17489  17487  17499  17502     1  0.0000000  0.6973333  3
  17490  17487  17499  17502     1  0.0000000  1.0460000  1
  17490  17487  17499  17502     1  0.0000000  0.6694400  3
  17490  17491  17492  17495     1  0.0000000  0.6508444  3
  17490  17491  17497  17503     1  0.0000000  1.0460000  1
  17490  17491  17497  17503     1  0.0000000  0.6694400  3
  17491  17490  17498  17501     1  0.0000000  1.0460000  1
  17491  17490  17498  17501     1  0.0000000  0.6694400  3
  17492  17491  17490  17494     1  0.0000000  0.6508444  3
  17492  17491  17497  17503     1  0.0000000  1.0460000  1
  17492  17491  17497  17503     1  0.0000000  0.6694400  3
  17493  17491  17490  17498     1  0.0000000  1.0460000  1
  17493  17491  17490  17498     1  0.0000000  0.0000000  3
  17493  17491  17490  17494     1  0.0000000  0.6508444  3
  17493  17491  17492  17496     1  0.0000000  1.0460000  1
  17493  17491  17492  17496     1  0.0000000  0.0000000  3
  17493  17491  17492  17508     1  0.0000000  1.0460000  1
  17493  17491  17492  17508     1  0.0000000  0.0000000  3
  17493  17491  17492  17495     1  0.0000000  0.6508444  3
  17493  17491  17497  17503     1  0.0000000  0.6973333  3
  17494  17490  17487  17499     1  0.0000000  1.0460000  1
  17494  17490  17487  17499     1  0.0000000  0.0000000  3
  17494  17490  17491  17497     1  0.0000000  1.0460000  1
  17494  17490  17491  17497     1  0.0000000  0.0000000  3
  17494  17490  17498  17501     1  0.0000000  0.6973333  3
  17495  17492  17491  17497     1  0.0000000  0.6508444  3
  17504  17500  17486  17508     1  0.0000000  1.0460000  1
  17504  17500  17486  17508     1  0.0000000  0.0000000  3
  17504  17500  17506  17507     1  0.0000000  0.6973333  3
  17505  17500  17486  17508     1  0.0000000  1.0460000  1
  17505  17500  17486  17508     1  0.0000000  0.0000000  3
  17505  17500  17506  17507     1  0.0000000  0.6973333  3
  17509  17510  17513  17517     1  0.0000000  0.6508444  3
  17509  17510  17522  17525     1  0.0000000  1.0460000  1
  17509  17510  17522  17525     1  0.0000000  0.6694400  3
  17509  17523  17529  17530     1  0.0000000  1.0460000  1
  17509  17523  17529  17530     1  0.0000000  0.6694400  3
  17509  17531  17515  17518     1  0.0000000  1.6038667  3
  17510  17513  17514  17516     1  0.0000000  0.6508444  3
  17510  17513  17521  17524     1  0.0000000  1.0460000  1
  17510  17513  17521  17524     1  0.0000000  0.6694400  3
  17510  17509  17523  17527     1  0.0000000  0.6508444  3
  17510  17509  17523  17528     1  0.0000000  0.6508444  3
  17511  17509  17510  17513     1  0.0000000  0.6508444  3
  17511  17509  17510  17522     1  0.0000000  1.0460000  1
  17511  17509  17510  17522     1  0.0000000  0.0000000  3
  17511  17509  17510  17512     1  0.0000000  0.6508444  3
  17511  17509  17523  17529     1  0.0000000  1.0460000  1
  17511  17509  17523  17529     1  0.0000000  0.0000000  3
  17511  17509  17523  17527     1  0.0000000  0.6508444  3
  17511  17509  17523  17528     1  0.0000000  0.6508444  3
  17511  17509  17531  17515     1  0.0000000  1.6038667  3
  17512  17510  17513  17514     1  0.0000000  0.6508444  3
  17512  17510  17513  17521     1  0.0000000  1.0460000  1
  17512  17510  17513  17521     1  0.0000000  0.0000000  3
  17512  17510  17513  17517     1  0.0000000  0.6508444  3
  17512  17510  17522  17525     1  0.0000000  0.6973333  3
  17512  17510  17509  17523     1  0.0000000  0.6508444  3
  17512  17510  17509  17531     1  0.0000000  1.0460000  1
  17512  17510  17509  17531     1  0.0000000  0.0000000  3
  17513  17514  17515  17518     1  0.0000000  0.6508444  3
  17513  17514  17520  17526     1  0.0000000  1.0460000  1
  17513  17514  17520  17526     1  0.0000000  0.6694400  3
  17513  17510  17522  17525     1  0.0000000  1.0460000  1
  17513  17510  17522  17525     1  0.0000000  0.6694400  3
  17514  17513  17521  17524     1  0.0000000  1.0460000  1
  17514  17513  17521  17524     1  0.0000000  0.6694400  3
  17515  17514  17520  17526     1  0.0000000  1.0460000  1
  17515  17514  17520  17526     1  0.0000000  0.6694400  3
  17515  17514  17513  17517     1  0.0000000  0.6508444  3
  17516  17514  17515  17519     1  0.0000000  1.0460000  1
  17516  17514  17515  17519     1  0.0000000  0.0000000  3
  17516  17514  17515  17531     1  0.0000000  1.0460000  1
  17516  17514  17515  17531     1  0.0000000  0.0000000  3
  17516  17514  17515  17518     1  0.0000000  0.6508444  3
  17516  17514  17520  17526     1  0.0000000  0.6973333  3
  17516  17514  17513  17521     1  0.0000000  1.0460000  1
  17516  17514  17513  17521     1  0.0000000  0.0000000  3
  17516  17514  17513  17517     1  0.0000000  0.6508444  3
  17517  17513  17514  17520     1  0.0000000  1.0460000  1
  17517  17513  17514  17520     1  0.0000000  0.0000000  3
  17517  17513  17521  17524     1  0.0000000  0.6973333  3
  17517  17513  17510  17522     1  0.0000000  1.0460000  1
  17517  17513  17510  17522     1  0.0000000  0.0000000  3
  17518  17515  17514  17520     1  0.0000000  0.6508444  3
  17527  17523  17529  17530     1  0.0000000  0.6973333  3
  17527  17523  17509  17531     1  0.0000000  1.0460000  1
  17527  17523  17509  17531     1  0.0000000  0.0000000  3
  17528  17523  17529  17530     1  0.0000000  0.6973333  3
  17528  17523  17509  17531     1  0.0000000  1.0460000  1
  17528  17523  17509  17531     1  0.0000000  0.0000000  3
  17532  17533  17536  17540     1  0.0000000  0.6508444  3
  17532  17533  17545  17548     1  0.0000000  1.0460000  1
  17532  17533  17545  17548     1  0.0000000  0.6694400  3
  17532  17546  17552  17553     1  0.0000000  1.0460000  1
  17532  17546  17552  17553     1  0.0000000  0.6694400  3
  17532  17554  17538  17541     1  0.0000000  1.6038667  3
  17533  17532  17546  17550     1  0.0000000  0.6508444  3
  17533  17532  17546  17551     1  0.0000000  0.6508444  3
  17533  17536  17537  17539     1  0.0000000  0.6508444  3
  17533  17536  17544  17547     1  0.0000000  1.0460000  1
  17533  17536  17544  17547     1  0.0000000  0.6694400  3
  17534  17532  17533  17536     1  0.0000000  0.6508444  3
  17534  17532  17533  17545     1  0.0000000  1.0460000  1
  17534  17532  17533  17545     1  0.0000000  0.0000000  3
  17534  17532  17533  17535     1  0.0000000  0.6508444  3
  17534  17532  17546  17552     1  0.0000000  1.0460000  1
  17534  17532  17546  17552     1  0.0000000  0.0000000  3
  17534  17532  17546  17550     1  0.0000000  0.6508444  3
  17534  17532  17546  17551     1  0.0000000  0.6508444  3
  17534  17532  17554  17538     1  0.0000000  1.6038667  3
  17535  17533  17532  17546     1  0.0000000  0.6508444  3
  17535  17533  17532  17554     1  0.0000000  1.0460000  1
  17535  17533  17532  17554     1  0.0000000  0.0000000  3
  17535  17533  17536  17537     1  0.0000000  0.6508444  3
  17535  17533  17536  17544     1  0.0000000  1.0460000  1
  17535  17533  17536  17544     1  0.0000000  0.0000000  3
  17535  17533  17536  17540     1  0.0000000  0.6508444  3
  17535  17533  17545  17548     1  0.0000000  0.6973333  3
  17536  17533  17545  17548     1  0.0000000  1.0460000  1
  17536  17533  17545  17548     1  0.0000000  0.6694400  3
  17536  17537  17538  17541     1  0.0000000  0.6508444  3
  17536  17537  17543  17549     1  0.0000000  1.0460000  1
  17536  17537  17543  17549     1  0.0000000  0.6694400  3
  17537  17536  17544  17547     1  0.0000000  1.0460000  1
  17537  17536  17544  17547     1  0.0000000  0.6694400  3
  17538  17537  17536  17540     1  0.0000000  0.6508444  3
  17538  17537  17543  17549     1  0.0000000  1.0460000  1
  17538  17537  17543  17549     1  0.0000000  0.6694400  3
  17539  17537  17536  17544     1  0.0000000  1.0460000  1
  17539  17537  17536  17544     1  0.0000000  0.0000000  3
  17539  17537  17536  17540     1  0.0000000  0.6508444  3
  17539  17537  17538  17542     1  0.0000000  1.0460000  1
  17539  17537  17538  17542     1  0.0000000  0.0000000  3
  17539  17537  17538  17554     1  0.0000000  1.0460000  1
  17539  17537  17538  17554     1  0.0000000  0.0000000  3
  17539  17537  17538  17541     1  0.0000000  0.6508444  3
  17539  17537  17543  17549     1  0.0000000  0.6973333  3
  17540  17536  17533  17545     1  0.0000000  1.0460000  1
  17540  17536  17533  17545     1  0.0000000  0.0000000  3
  17540  17536  17537  17543     1  0.0000000  1.0460000  1
  17540  17536  17537  17543     1  0.0000000  0.0000000  3
  17540  17536  17544  17547     1  0.0000000  0.6973333  3
  17541  17538  17537  17543     1  0.0000000  0.6508444  3
  17550  17546  17532  17554     1  0.0000000  1.0460000  1
  17550  17546  17532  17554     1  0.0000000  0.0000000  3
  17550  17546  17552  17553     1  0.0000000  0.6973333  3
  17551  17546  17532  17554     1  0.0000000  1.0460000  1
  17551  17546  17532  17554     1  0.0000000  0.0000000  3
  17551  17546  17552  17553     1  0.0000000  0.6973333  3
  17555  17556  17559  17563     1  0.0000000  0.6508444  3
  17555  17556  17568  17571     1  0.0000000  1.0460000  1
  17555  17556  17568  17571     1  0.0000000  0.6694400  3
  17555  17569  17575  17576     1  0.0000000  1.0460000  1
  17555  17569  17575  17576     1  0.0000000  0.6694400  3
  17555  17577  17561  17564     1  0.0000000  1.6038667  3
  17556  17559  17560  17562     1  0.0000000  0.6508444  3
  17556  17559  17567  17570     1  0.0000000  1.0460000  1
  17556  17559  17567  17570     1  0.0000000  0.6694400  3
  17556  17555  17569  17573     1  0.0000000  0.6508444  3
  17556  17555  17569  17574     1  0.0000000  0.6508444  3
  17557  17555  17556  17559     1  0.0000000  0.6508444  3
  17557  17555  17556  17568     1  0.0000000  1.0460000  1
  17557  17555  17556  17568     1  0.0000000  0.0000000  3
  17557  17555  17556  17558     1  0.0000000  0.6508444  3
  17557  17555  17569  17575     1  0.0000000  1.0460000  1
  17557  17555  17569  17575     1  0.0000000  0.0000000  3
  17557  17555  17569  17573     1  0.0000000  0.6508444  3
  17557  17555  17569  17574     1  0.0000000  0.6508444  3
  17557  17555  17577  17561     1  0.0000000  1.6038667  3
  17558  17556  17559  17560     1  0.0000000  0.6508444  3
  17558  17556  17559  17567     1  0.0000000  1.0460000  1
  17558  17556  17559  17567     1  0.0000000  0.0000000  3
  17558  17556  17559  17563     1  0.0000000  0.6508444  3
  17558  17556  17568  17571     1  0.0000000  0.6973333  3
  17558  17556  17555  17569     1  0.0000000  0.6508444  3
  17558  17556  17555  17577     1  0.0000000  1.0460000  1
  17558  17556  17555  17577     1  0.0000000  0.0000000  3
  17559  17560  17561  17564     1  0.0000000  0.6508444  3
  17559  17560  17566  17572     1  0.0000000  1.0460000  1
  17559  17560  17566  17572     1  0.0000000  0.6694400  3
  17559  17556  17568  17571     1  0.0000000  1.0460000  1
  17559  17556  17568  17571     1  0.0000000  0.6694400  3
  17560  17559  17567  17570     1  0.0000000  1.0460000  1
  17560  17559  17567  17570     1  0.0000000  0.6694400  3
  17561  17560  17566  17572     1  0.0000000  1.0460000  1
  17561  17560  17566  17572     1  0.0000000  0.6694400  3
  17561  17560  17559  17563     1  0.0000000  0.6508444  3
  17562  17560  17561  17565     1  0.0000000  1.0460000  1
  17562  17560  17561  17565     1  0.0000000  0.0000000  3
  17562  17560  17561  17577     1  0.0000000  1.0460000  1
  17562  17560  17561  17577     1  0.0000000  0.0000000  3
  17562  17560  17561  17564     1  0.0000000  0.6508444  3
  17562  17560  17566  17572     1  0.0000000  0.6973333  3
  17562  17560  17559  17567     1  0.0000000  1.0460000  1
  17562  17560  17559  17567     1  0.0000000  0.0000000  3
  17562  17560  17559  17563     1  0.0000000  0.6508444  3
  17563  17559  17560  17566     1  0.0000000  1.0460000  1
  17563  17559  17560  17566     1  0.0000000  0.0000000  3
  17563  17559  17567  17570     1  0.0000000  0.6973333  3
  17563  17559  17556  17568     1  0.0000000  1.0460000  1
  17563  17559  17556  17568     1  0.0000000  0.0000000  3
  17564  17561  17560  17566     1  0.0000000  0.6508444  3
  17573  17569  17575  17576     1  0.0000000  0.6973333  3
  17573  17569  17555  17577     1  0.0000000  1.0460000  1
  17573  17569  17555  17577     1  0.0000000  0.0000000  3
  17574  17569  17575  17576     1  0.0000000  0.6973333  3
  17574  17569  17555  17577     1  0.0000000  1.0460000  1
  17574  17569  17555  17577     1  0.0000000  0.0000000  3
  17578  17579  17582  17586     1  0.0000000  0.6508444  3
  17578  17579  17591  17594     1  0.0000000  1.0460000  1
  17578  17579  17591  17594     1  0.0000000  0.6694400  3
  17578  17592  17598  17599     1  0.0000000  1.0460000  1
  17578  17592  17598  17599     1  0.0000000  0.6694400  3
  17578  17600  17584  17587     1  0.0000000  1.6038667  3
  17579  17578  17592  17596     1  0.0000000  0.6508444  3
  17579  17578  17592  17597     1  0.0000000  0.6508444  3
  17579  17582  17583  17585     1  0.0000000  0.6508444  3
  17579  17582  17590  17593     1  0.0000000  1.0460000  1
  17579  17582  17590  17593     1  0.0000000  0.6694400  3
  17580  17578  17579  17582     1  0.0000000  0.6508444  3
  17580  17578  17579  17591     1  0.0000000  1.0460000  1
  17580  17578  17579  17591     1  0.0000000  0.0000000  3
  17580  17578  17579  17581     1  0.0000000  0.6508444  3
  17580  17578  17592  17598     1  0.0000000  1.0460000  1
  17580  17578  17592  17598     1  0.0000000  0.0000000  3
  17580  17578  17592  17596     1  0.0000000  0.6508444  3
  17580  17578  17592  17597     1  0.0000000  0.6508444  3
  17580  17578  17600  17584     1  0.0000000  1.6038667  3
  17581  17579  17578  17592     1  0.0000000  0.6508444  3
  17581  17579  17578  17600     1  0.0000000  1.0460000  1
  17581  17579  17578  17600     1  0.0000000  0.0000000  3
  17581  17579  17582  17583     1  0.0000000  0.6508444  3
  17581  17579  17582  17590     1  0.0000000  1.0460000  1
  17581  17579  17582  17590     1  0.0000000  0.0000000  3
  17581  17579  17582  17586     1  0.0000000  0.6508444  3
  17581  17579  17591  17594     1  0.0000000  0.6973333  3
  17582  17579  17591  17594     1  0.0000000  1.0460000  1
  17582  17579  17591  17594     1  0.0000000  0.6694400  3
  17582  17583  17584  17587     1  0.0000000  0.6508444  3
  17582  17583  17589  17595     1  0.0000000  1.0460000  1
  17582  17583  17589  17595     1  0.0000000  0.6694400  3
  17583  17582  17590  17593     1  0.0000000  1.0460000  1
  17583  17582  17590  17593     1  0.0000000  0.6694400  3
  17584  17583  17582  17586     1  0.0000000  0.6508444  3
  17584  17583  17589  17595     1  0.0000000  1.0460000  1
  17584  17583  17589  17595     1  0.0000000  0.6694400  3
  17585  17583  17582  17590     1  0.0000000  1.0460000  1
  17585  17583  17582  17590     1  0.0000000  0.0000000  3
  17585  17583  17582  17586     1  0.0000000  0.6508444  3
  17585  17583  17584  17588     1  0.0000000  1.0460000  1
  17585  17583  17584  17588     1  0.0000000  0.0000000  3
  17585  17583  17584  17600     1  0.0000000  1.0460000  1
  17585  17583  17584  17600     1  0.0000000  0.0000000  3
  17585  17583  17584  17587     1  0.0000000  0.6508444  3
  17585  17583  17589  17595     1  0.0000000  0.6973333  3
  17586  17582  17579  17591     1  0.0000000  1.0460000  1
  17586  17582  17579  17591     1  0.0000000  0.0000000  3
  17586  17582  17583  17589     1  0.0000000  1.0460000  1
  17586  17582  17583  17589     1  0.0000000  0.0000000  3
  17586  17582  17590  17593     1  0.0000000  0.6973333  3
  17587  17584  17583  17589     1  0.0000000  0.6508444  3
  17596  17592  17578  17600     1  0.0000000  1.0460000  1
  17596  17592  17578  17600     1  0.0000000  0.0000000  3
  17596  17592  17598  17599     1  0.0000000  0.6973333  3
  17597  17592  17578  17600     1  0.0000000  1.0460000  1
  17597  17592  17578  17600     1  0.0000000  0.0000000  3
  17597  17592  17598  17599     1  0.0000000  0.6973333  3
  17601  17602  17605  17609     1  0.0000000  0.6508444  3
  17601  17602  17614  17617     1  0.0000000  1.0460000  1
  17601  17602  17614  17617     1  0.0000000  0.6694400  3
  17601  17615  17621  17622     1  0.0000000  1.0460000  1
  17601  17615  17621  17622     1  0.0000000  0.6694400  3
  17601  17623  17607  17610     1  0.0000000  1.6038667  3
  17602  17605  17606  17608     1  0.0000000  0.6508444  3
  17602  17605  17613  17616     1  0.0000000  1.0460000  1
  17602  17605  17613  17616     1  0.0000000  0.6694400  3
  17602  17601  17615  17619     1  0.0000000  0.6508444  3
  17602  17601  17615  17620     1  0.0000000  0.6508444  3
  17603  17601  17602  17605     1  0.0000000  0.6508444  3
  17603  17601  17602  17614     1  0.0000000  1.0460000  1
  17603  17601  17602  17614     1  0.0000000  0.0000000  3
  17603  17601  17602  17604     1  0.0000000  0.6508444  3
  17603  17601  17615  17621     1  0.0000000  1.0460000  1
  17603  17601  17615  17621     1  0.0000000  0.0000000  3
  17603  17601  17615  17619     1  0.0000000  0.6508444  3
  17603  17601  17615  17620     1  0.0000000  0.6508444  3
  17603  17601  17623  17607     1  0.0000000  1.6038667  3
  17604  17602  17605  17606     1  0.0000000  0.6508444  3
  17604  17602  17605  17613     1  0.0000000  1.0460000  1
  17604  17602  17605  17613     1  0.0000000  0.0000000  3
  17604  17602  17605  17609     1  0.0000000  0.6508444  3
  17604  17602  17614  17617     1  0.0000000  0.6973333  3
  17604  17602  17601  17615     1  0.0000000  0.6508444  3
  17604  17602  17601  17623     1  0.0000000  1.0460000  1
  17604  17602  17601  17623     1  0.0000000  0.0000000  3
  17605  17606  17607  17610     1  0.0000000  0.6508444  3
  17605  17606  17612  17618     1  0.0000000  1.0460000  1
  17605  17606  17612  17618     1  0.0000000  0.6694400  3
  17605  17602  17614  17617     1  0.0000000  1.0460000  1
  17605  17602  17614  17617     1  0.0000000  0.6694400  3
  17606  17605  17613  17616     1  0.0000000  1.0460000  1
  17606  17605  17613  17616     1  0.0000000  0.6694400  3
  17607  17606  17612  17618     1  0.0000000  1.0460000  1
  17607  17606  17612  17618     1  0.0000000  0.6694400  3
  17607  17606  17605  17609     1  0.0000000  0.6508444  3
  17608  17606  17607  17611     1  0.0000000  1.0460000  1
  17608  17606  17607  17611     1  0.0000000  0.0000000  3
  17608  17606  17607  17623     1  0.0000000  1.0460000  1
  17608  17606  17607  17623     1  0.0000000  0.0000000  3
  17608  17606  17607  17610     1  0.0000000  0.6508444  3
  17608  17606  17612  17618     1  0.0000000  0.6973333  3
  17608  17606  17605  17613     1  0.0000000  1.0460000  1
  17608  17606  17605  17613     1  0.0000000  0.0000000  3
  17608  17606  17605  17609     1  0.0000000  0.6508444  3
  17609  17605  17606  17612     1  0.0000000  1.0460000  1
  17609  17605  17606  17612     1  0.0000000  0.0000000  3
  17609  17605  17613  17616     1  0.0000000  0.6973333  3
  17609  17605  17602  17614     1  0.0000000  1.0460000  1
  17609  17605  17602  17614     1  0.0000000  0.0000000  3
  17610  17607  17606  17612     1  0.0000000  0.6508444  3
  17619  17615  17621  17622     1  0.0000000  0.6973333  3
  17619  17615  17601  17623     1  0.0000000  1.0460000  1
  17619  17615  17601  17623     1  0.0000000  0.0000000  3
  17620  17615  17621  17622     1  0.0000000  0.6973333  3
  17620  17615  17601  17623     1  0.0000000  1.0460000  1
  17620  17615  17601  17623     1  0.0000000  0.0000000  3
  17624  17625  17628  17632     1  0.0000000  0.6508444  3
  17624  17625  17637  17640     1  0.0000000  1.0460000  1
  17624  17625  17637  17640     1  0.0000000  0.6694400  3
  17624  17638  17644  17645     1  0.0000000  1.0460000  1
  17624  17638  17644  17645     1  0.0000000  0.6694400  3
  17624  17646  17630  17633     1  0.0000000  1.6038667  3
  17625  17624  17638  17642     1  0.0000000  0.6508444  3
  17625  17624  17638  17643     1  0.0000000  0.6508444  3
  17625  17628  17629  17631     1  0.0000000  0.6508444  3
  17625  17628  17636  17639     1  0.0000000  1.0460000  1
  17625  17628  17636  17639     1  0.0000000  0.6694400  3
  17626  17624  17625  17628     1  0.0000000  0.6508444  3
  17626  17624  17625  17637     1  0.0000000  1.0460000  1
  17626  17624  17625  17637     1  0.0000000  0.0000000  3
  17626  17624  17625  17627     1  0.0000000  0.6508444  3
  17626  17624  17638  17644     1  0.0000000  1.0460000  1
  17626  17624  17638  17644     1  0.0000000  0.0000000  3
  17626  17624  17638  17642     1  0.0000000  0.6508444  3
  17626  17624  17638  17643     1  0.0000000  0.6508444  3
  17626  17624  17646  17630     1  0.0000000  1.6038667  3
  17627  17625  17624  17638     1  0.0000000  0.6508444  3
  17627  17625  17624  17646     1  0.0000000  1.0460000  1
  17627  17625  17624  17646     1  0.0000000  0.0000000  3
  17627  17625  17628  17629     1  0.0000000  0.6508444  3
  17627  17625  17628  17636     1  0.0000000  1.0460000  1
  17627  17625  17628  17636     1  0.0000000  0.0000000  3
  17627  17625  17628  17632     1  0.0000000  0.6508444  3
  17627  17625  17637  17640     1  0.0000000  0.6973333  3
  17628  17625  17637  17640     1  0.0000000  1.0460000  1
  17628  17625  17637  17640     1  0.0000000  0.6694400  3
  17628  17629  17630  17633     1  0.0000000  0.6508444  3
  17628  17629  17635  17641     1  0.0000000  1.0460000  1
  17628  17629  17635  17641     1  0.0000000  0.6694400  3
  17629  17628  17636  17639     1  0.0000000  1.0460000  1
  17629  17628  17636  17639     1  0.0000000  0.6694400  3
  17630  17629  17628  17632     1  0.0000000  0.6508444  3
  17630  17629  17635  17641     1  0.0000000  1.0460000  1
  17630  17629  17635  17641     1  0.0000000  0.6694400  3
  17631  17629  17628  17636     1  0.0000000  1.0460000  1
  17631  17629  17628  17636     1  0.0000000  0.0000000  3
  17631  17629  17628  17632     1  0.0000000  0.6508444  3
  17631  17629  17630  17634     1  0.0000000  1.0460000  1
  17631  17629  17630  17634     1  0.0000000  0.0000000  3
  17631  17629  17630  17646     1  0.0000000  1.0460000  1
  17631  17629  17630  17646     1  0.0000000  0.0000000  3
  17631  17629  17630  17633     1  0.0000000  0.6508444  3
  17631  17629  17635  17641     1  0.0000000  0.6973333  3
  17632  17628  17625  17637     1  0.0000000  1.0460000  1
  17632  17628  17625  17637     1  0.0000000  0.0000000  3
  17632  17628  17629  17635     1  0.0000000  1.0460000  1
  17632  17628  17629  17635     1  0.0000000  0.0000000  3
  17632  17628  17636  17639     1  0.0000000  0.6973333  3
  17633  17630  17629  17635     1  0.0000000  0.6508444  3
  17642  17638  17624  17646     1  0.0000000  1.0460000  1
  17642  17638  17624  17646     1  0.0000000  0.0000000  3
  17642  17638  17644  17645     1  0.0000000  0.6973333  3
  17643  17638  17624  17646     1  0.0000000  1.0460000  1
  17643  17638  17624  17646     1  0.0000000  0.0000000  3
  17643  17638  17644  17645     1  0.0000000  0.6973333  3
  17647  17648  17651  17655     1  0.0000000  0.6508444  3
  17647  17648  17660  17663     1  0.0000000  1.0460000  1
  17647  17648  17660  17663     1  0.0000000  0.6694400  3
  17647  17661  17667  17668     1  0.0000000  1.0460000  1
  17647  17661  17667  17668     1  0.0000000  0.6694400  3
  17647  17669  17653  17656     1  0.0000000  1.6038667  3
  17648  17651  17652  17654     1  0.0000000  0.6508444  3
  17648  17651  17659  17662     1  0.0000000  1.0460000  1
  17648  17651  17659  17662     1  0.0000000  0.6694400  3
  17648  17647  17661  17665     1  0.0000000  0.6508444  3
  17648  17647  17661  17666     1  0.0000000  0.6508444  3
  17649  17647  17648  17651     1  0.0000000  0.6508444  3
  17649  17647  17648  17660     1  0.0000000  1.0460000  1
  17649  17647  17648  17660     1  0.0000000  0.0000000  3
  17649  17647  17648  17650     1  0.0000000  0.6508444  3
  17649  17647  17661  17667     1  0.0000000  1.0460000  1
  17649  17647  17661  17667     1  0.0000000  0.0000000  3
  17649  17647  17661  17665     1  0.0000000  0.6508444  3
  17649  17647  17661  17666     1  0.0000000  0.6508444  3
  17649  17647  17669  17653     1  0.0000000  1.6038667  3
  17650  17648  17651  17652     1  0.0000000  0.6508444  3
  17650  17648  17651  17659     1  0.0000000  1.0460000  1
  17650  17648  17651  17659     1  0.0000000  0.0000000  3
  17650  17648  17651  17655     1  0.0000000  0.6508444  3
  17650  17648  17660  17663     1  0.0000000  0.6973333  3
  17650  17648  17647  17661     1  0.0000000  0.6508444  3
  17650  17648  17647  17669     1  0.0000000  1.0460000  1
  17650  17648  17647  17669     1  0.0000000  0.0000000  3
  17651  17652  17653  17656     1  0.0000000  0.6508444  3
  17651  17652  17658  17664     1  0.0000000  1.0460000  1
  17651  17652  17658  17664     1  0.0000000  0.6694400  3
  17651  17648  17660  17663     1  0.0000000  1.0460000  1
  17651  17648  17660  17663     1  0.0000000  0.6694400  3
  17652  17651  17659  17662     1  0.0000000  1.0460000  1
  17652  17651  17659  17662     1  0.0000000  0.6694400  3
  17653  17652  17658  17664     1  0.0000000  1.0460000  1
  17653  17652  17658  17664     1  0.0000000  0.6694400  3
  17653  17652  17651  17655     1  0.0000000  0.6508444  3
  17654  17652  17653  17657     1  0.0000000  1.0460000  1
  17654  17652  17653  17657     1  0.0000000  0.0000000  3
  17654  17652  17653  17669     1  0.0000000  1.0460000  1
  17654  17652  17653  17669     1  0.0000000  0.0000000  3
  17654  17652  17653  17656     1  0.0000000  0.6508444  3
  17654  17652  17658  17664     1  0.0000000  0.6973333  3
  17654  17652  17651  17659     1  0.0000000  1.0460000  1
  17654  17652  17651  17659     1  0.0000000  0.0000000  3
  17654  17652  17651  17655     1  0.0000000  0.6508444  3
  17655  17651  17652  17658     1  0.0000000  1.0460000  1
  17655  17651  17652  17658     1  0.0000000  0.0000000  3
  17655  17651  17659  17662     1  0.0000000  0.6973333  3
  17655  17651  17648  17660     1  0.0000000  1.0460000  1
  17655  17651  17648  17660     1  0.0000000  0.0000000  3
  17656  17653  17652  17658     1  0.0000000  0.6508444  3
  17665  17661  17667  17668     1  0.0000000  0.6973333  3
  17665  17661  17647  17669     1  0.0000000  1.0460000  1
  17665  17661  17647  17669     1  0.0000000  0.0000000  3
  17666  17661  17667  17668     1  0.0000000  0.6973333  3
  17666  17661  17647  17669     1  0.0000000  1.0460000  1
  17666  17661  17647  17669     1  0.0000000  0.0000000  3
  17670  17671  17674  17678     1  0.0000000  0.6508444  3
  17670  17671  17683  17686     1  0.0000000  1.0460000  1
  17670  17671  17683  17686     1  0.0000000  0.6694400  3
  17670  17684  17690  17691     1  0.0000000  1.0460000  1
  17670  17684  17690  17691     1  0.0000000  0.6694400  3
  17670  17692  17676  17679     1  0.0000000  1.6038667  3
  17671  17670  17684  17688     1  0.0000000  0.6508444  3
  17671  17670  17684  17689     1  0.0000000  0.6508444  3
  17671  17674  17675  17677     1  0.0000000  0.6508444  3
  17671  17674  17682  17685     1  0.0000000  1.0460000  1
  17671  17674  17682  17685     1  0.0000000  0.6694400  3
  17672  17670  17671  17674     1  0.0000000  0.6508444  3
  17672  17670  17671  17683     1  0.0000000  1.0460000  1
  17672  17670  17671  17683     1  0.0000000  0.0000000  3
  17672  17670  17671  17673     1  0.0000000  0.6508444  3
  17672  17670  17684  17690     1  0.0000000  1.0460000  1
  17672  17670  17684  17690     1  0.0000000  0.0000000  3
  17672  17670  17684  17688     1  0.0000000  0.6508444  3
  17672  17670  17684  17689     1  0.0000000  0.6508444  3
  17672  17670  17692  17676     1  0.0000000  1.6038667  3
  17673  17671  17670  17684     1  0.0000000  0.6508444  3
  17673  17671  17670  17692     1  0.0000000  1.0460000  1
  17673  17671  17670  17692     1  0.0000000  0.0000000  3
  17673  17671  17674  17675     1  0.0000000  0.6508444  3
  17673  17671  17674  17682     1  0.0000000  1.0460000  1
  17673  17671  17674  17682     1  0.0000000  0.0000000  3
  17673  17671  17674  17678     1  0.0000000  0.6508444  3
  17673  17671  17683  17686     1  0.0000000  0.6973333  3
  17674  17671  17683  17686     1  0.0000000  1.0460000  1
  17674  17671  17683  17686     1  0.0000000  0.6694400  3
  17674  17675  17676  17679     1  0.0000000  0.6508444  3
  17674  17675  17681  17687     1  0.0000000  1.0460000  1
  17674  17675  17681  17687     1  0.0000000  0.6694400  3
  17675  17674  17682  17685     1  0.0000000  1.0460000  1
  17675  17674  17682  17685     1  0.0000000  0.6694400  3
  17676  17675  17674  17678     1  0.0000000  0.6508444  3
  17676  17675  17681  17687     1  0.0000000  1.0460000  1
  17676  17675  17681  17687     1  0.0000000  0.6694400  3
  17677  17675  17674  17682     1  0.0000000  1.0460000  1
  17677  17675  17674  17682     1  0.0000000  0.0000000  3
  17677  17675  17674  17678     1  0.0000000  0.6508444  3
  17677  17675  17676  17680     1  0.0000000  1.0460000  1
  17677  17675  17676  17680     1  0.0000000  0.0000000  3
  17677  17675  17676  17692     1  0.0000000  1.0460000  1
  17677  17675  17676  17692     1  0.0000000  0.0000000  3
  17677  17675  17676  17679     1  0.0000000  0.6508444  3
  17677  17675  17681  17687     1  0.0000000  0.6973333  3
  17678  17674  17671  17683     1  0.0000000  1.0460000  1
  17678  17674  17671  17683     1  0.0000000  0.0000000  3
  17678  17674  17675  17681     1  0.0000000  1.0460000  1
  17678  17674  17675  17681     1  0.0000000  0.0000000  3
  17678  17674  17682  17685     1  0.0000000  0.6973333  3
  17679  17676  17675  17681     1  0.0000000  0.6508444  3
  17688  17684  17670  17692     1  0.0000000  1.0460000  1
  17688  17684  17670  17692     1  0.0000000  0.0000000  3
  17688  17684  17690  17691     1  0.0000000  0.6973333  3
  17689  17684  17670  17692     1  0.0000000  1.0460000  1
  17689  17684  17670  17692     1  0.0000000  0.0000000  3
  17689  17684  17690  17691     1  0.0000000  0.6973333  3
  17693  17694  17697  17701     1  0.0000000  0.6508444  3
  17693  17694  17706  17709     1  0.0000000  1.0460000  1
  17693  17694  17706  17709     1  0.0000000  0.6694400  3
  17693  17707  17713  17714     1  0.0000000  1.0460000  1
  17693  17707  17713  17714     1  0.0000000  0.6694400  3
  17693  17715  17699  17702     1  0.0000000  1.6038667  3
  17694  17697  17698  17700     1  0.0000000  0.6508444  3
  17694  17697  17705  17708     1  0.0000000  1.0460000  1
  17694  17697  17705  17708     1  0.0000000  0.6694400  3
  17694  17693  17707  17711     1  0.0000000  0.6508444  3
  17694  17693  17707  17712     1  0.0000000  0.6508444  3
  17695  17693  17694  17697     1  0.0000000  0.6508444  3
  17695  17693  17694  17706     1  0.0000000  1.0460000  1
  17695  17693  17694  17706     1  0.0000000  0.0000000  3
  17695  17693  17694  17696     1  0.0000000  0.6508444  3
  17695  17693  17707  17713     1  0.0000000  1.0460000  1
  17695  17693  17707  17713     1  0.0000000  0.0000000  3
  17695  17693  17707  17711     1  0.0000000  0.6508444  3
  17695  17693  17707  17712     1  0.0000000  0.6508444  3
  17695  17693  17715  17699     1  0.0000000  1.6038667  3
  17696  17694  17697  17698     1  0.0000000  0.6508444  3
  17696  17694  17697  17705     1  0.0000000  1.0460000  1
  17696  17694  17697  17705     1  0.0000000  0.0000000  3
  17696  17694  17697  17701     1  0.0000000  0.6508444  3
  17696  17694  17706  17709     1  0.0000000  0.6973333  3
  17696  17694  17693  17707     1  0.0000000  0.6508444  3
  17696  17694  17693  17715     1  0.0000000  1.0460000  1
  17696  17694  17693  17715     1  0.0000000  0.0000000  3
  17697  17698  17699  17702     1  0.0000000  0.6508444  3
  17697  17698  17704  17710     1  0.0000000  1.0460000  1
  17697  17698  17704  17710     1  0.0000000  0.6694400  3
  17697  17694  17706  17709     1  0.0000000  1.0460000  1
  17697  17694  17706  17709     1  0.0000000  0.6694400  3
  17698  17697  17705  17708     1  0.0000000  1.0460000  1
  17698  17697  17705  17708     1  0.0000000  0.6694400  3
  17699  17698  17704  17710     1  0.0000000  1.0460000  1
  17699  17698  17704  17710     1  0.0000000  0.6694400  3
  17699  17698  17697  17701     1  0.0000000  0.6508444  3
  17700  17698  17699  17703     1  0.0000000  1.0460000  1
  17700  17698  17699  17703     1  0.0000000  0.0000000  3
  17700  17698  17699  17715     1  0.0000000  1.0460000  1
  17700  17698  17699  17715     1  0.0000000  0.0000000  3
  17700  17698  17699  17702     1  0.0000000  0.6508444  3
  17700  17698  17704  17710     1  0.0000000  0.6973333  3
  17700  17698  17697  17705     1  0.0000000  1.0460000  1
  17700  17698  17697  17705     1  0.0000000  0.0000000  3
  17700  17698  17697  17701     1  0.0000000  0.6508444  3
  17701  17697  17698  17704     1  0.0000000  1.0460000  1
  17701  17697  17698  17704     1  0.0000000  0.0000000  3
  17701  17697  17705  17708     1  0.0000000  0.6973333  3
  17701  17697  17694  17706     1  0.0000000  1.0460000  1
  17701  17697  17694  17706     1  0.0000000  0.0000000  3
  17702  17699  17698  17704     1  0.0000000  0.6508444  3
  17711  17707  17713  17714     1  0.0000000  0.6973333  3
  17711  17707  17693  17715     1  0.0000000  1.0460000  1
  17711  17707  17693  17715     1  0.0000000  0.0000000  3
  17712  17707  17713  17714     1  0.0000000  0.6973333  3
  17712  17707  17693  17715     1  0.0000000  1.0460000  1
  17712  17707  17693  17715     1  0.0000000  0.0000000  3
  17716  17717  17720  17724     1  0.0000000  0.6508444  3
  17716  17717  17729  17732     1  0.0000000  1.0460000  1
  17716  17717  17729  17732     1  0.0000000  0.6694400  3
  17716  17730  17736  17737     1  0.0000000  1.0460000  1
  17716  17730  17736  17737     1  0.0000000  0.6694400  3
  17716  17738  17722  17725     1  0.0000000  1.6038667  3
  17717  17716  17730  17734     1  0.0000000  0.6508444  3
  17717  17716  17730  17735     1  0.0000000  0.6508444  3
  17717  17720  17721  17723     1  0.0000000  0.6508444  3
  17717  17720  17728  17731     1  0.0000000  1.0460000  1
  17717  17720  17728  17731     1  0.0000000  0.6694400  3
  17718  17716  17717  17720     1  0.0000000  0.6508444  3
  17718  17716  17717  17729     1  0.0000000  1.0460000  1
  17718  17716  17717  17729     1  0.0000000  0.0000000  3
  17718  17716  17717  17719     1  0.0000000  0.6508444  3
  17718  17716  17730  17736     1  0.0000000  1.0460000  1
  17718  17716  17730  17736     1  0.0000000  0.0000000  3
  17718  17716  17730  17734     1  0.0000000  0.6508444  3
  17718  17716  17730  17735     1  0.0000000  0.6508444  3
  17718  17716  17738  17722     1  0.0000000  1.6038667  3
  17719  17717  17716  17730     1  0.0000000  0.6508444  3
  17719  17717  17716  17738     1  0.0000000  1.0460000  1
  17719  17717  17716  17738     1  0.0000000  0.0000000  3
  17719  17717  17720  17721     1  0.0000000  0.6508444  3
  17719  17717  17720  17728     1  0.0000000  1.0460000  1
  17719  17717  17720  17728     1  0.0000000  0.0000000  3
  17719  17717  17720  17724     1  0.0000000  0.6508444  3
  17719  17717  17729  17732     1  0.0000000  0.6973333  3
  17720  17717  17729  17732     1  0.0000000  1.0460000  1
  17720  17717  17729  17732     1  0.0000000  0.6694400  3
  17720  17721  17722  17725     1  0.0000000  0.6508444  3
  17720  17721  17727  17733     1  0.0000000  1.0460000  1
  17720  17721  17727  17733     1  0.0000000  0.6694400  3
  17721  17720  17728  17731     1  0.0000000  1.0460000  1
  17721  17720  17728  17731     1  0.0000000  0.6694400  3
  17722  17721  17720  17724     1  0.0000000  0.6508444  3
  17722  17721  17727  17733     1  0.0000000  1.0460000  1
  17722  17721  17727  17733     1  0.0000000  0.6694400  3
  17723  17721  17720  17728     1  0.0000000  1.0460000  1
  17723  17721  17720  17728     1  0.0000000  0.0000000  3
  17723  17721  17720  17724     1  0.0000000  0.6508444  3
  17723  17721  17722  17726     1  0.0000000  1.0460000  1
  17723  17721  17722  17726     1  0.0000000  0.0000000  3
  17723  17721  17722  17738     1  0.0000000  1.0460000  1
  17723  17721  17722  17738     1  0.0000000  0.0000000  3
  17723  17721  17722  17725     1  0.0000000  0.6508444  3
  17723  17721  17727  17733     1  0.0000000  0.6973333  3
  17724  17720  17717  17729     1  0.0000000  1.0460000  1
  17724  17720  17717  17729     1  0.0000000  0.0000000  3
  17724  17720  17721  17727     1  0.0000000  1.0460000  1
  17724  17720  17721  17727     1  0.0000000  0.0000000  3
  17724  17720  17728  17731     1  0.0000000  0.6973333  3
  17725  17722  17721  17727     1  0.0000000  0.6508444  3
  17734  17730  17716  17738     1  0.0000000  1.0460000  1
  17734  17730  17716  17738     1  0.0000000  0.0000000  3
  17734  17730  17736  17737     1  0.0000000  0.6973333  3
  17735  17730  17716  17738     1  0.0000000  1.0460000  1
  17735  17730  17716  17738     1  0.0000000  0.0000000  3
  17735  17730  17736  17737     1  0.0000000  0.6973333  3
  17739  17740  17743  17747     1  0.0000000  0.6508444  3
  17739  17740  17752  17755     1  0.0000000  1.0460000  1
  17739  17740  17752  17755     1  0.0000000  0.6694400  3
  17739  17753  17759  17760     1  0.0000000  1.0460000  1
  17739  17753  17759  17760     1  0.0000000  0.6694400  3
  17739  17761  17745  17748     1  0.0000000  1.6038667  3
  17740  17743  17744  17746     1  0.0000000  0.6508444  3
  17740  17743  17751  17754     1  0.0000000  1.0460000  1
  17740  17743  17751  17754     1  0.0000000  0.6694400  3
  17740  17739  17753  17757     1  0.0000000  0.6508444  3
  17740  17739  17753  17758     1  0.0000000  0.6508444  3
  17741  17739  17740  17743     1  0.0000000  0.6508444  3
  17741  17739  17740  17752     1  0.0000000  1.0460000  1
  17741  17739  17740  17752     1  0.0000000  0.0000000  3
  17741  17739  17740  17742     1  0.0000000  0.6508444  3
  17741  17739  17753  17759     1  0.0000000  1.0460000  1
  17741  17739  17753  17759     1  0.0000000  0.0000000  3
  17741  17739  17753  17757     1  0.0000000  0.6508444  3
  17741  17739  17753  17758     1  0.0000000  0.6508444  3
  17741  17739  17761  17745     1  0.0000000  1.6038667  3
  17742  17740  17743  17744     1  0.0000000  0.6508444  3
  17742  17740  17743  17751     1  0.0000000  1.0460000  1
  17742  17740  17743  17751     1  0.0000000  0.0000000  3
  17742  17740  17743  17747     1  0.0000000  0.6508444  3
  17742  17740  17752  17755     1  0.0000000  0.6973333  3
  17742  17740  17739  17753     1  0.0000000  0.6508444  3
  17742  17740  17739  17761     1  0.0000000  1.0460000  1
  17742  17740  17739  17761     1  0.0000000  0.0000000  3
  17743  17744  17745  17748     1  0.0000000  0.6508444  3
  17743  17744  17750  17756     1  0.0000000  1.0460000  1
  17743  17744  17750  17756     1  0.0000000  0.6694400  3
  17743  17740  17752  17755     1  0.0000000  1.0460000  1
  17743  17740  17752  17755     1  0.0000000  0.6694400  3
  17744  17743  17751  17754     1  0.0000000  1.0460000  1
  17744  17743  17751  17754     1  0.0000000  0.6694400  3
  17745  17744  17750  17756     1  0.0000000  1.0460000  1
  17745  17744  17750  17756     1  0.0000000  0.6694400  3
  17745  17744  17743  17747     1  0.0000000  0.6508444  3
  17746  17744  17745  17749     1  0.0000000  1.0460000  1
  17746  17744  17745  17749     1  0.0000000  0.0000000  3
  17746  17744  17745  17761     1  0.0000000  1.0460000  1
  17746  17744  17745  17761     1  0.0000000  0.0000000  3
  17746  17744  17745  17748     1  0.0000000  0.6508444  3
  17746  17744  17750  17756     1  0.0000000  0.6973333  3
  17746  17744  17743  17751     1  0.0000000  1.0460000  1
  17746  17744  17743  17751     1  0.0000000  0.0000000  3
  17746  17744  17743  17747     1  0.0000000  0.6508444  3
  17747  17743  17744  17750     1  0.0000000  1.0460000  1
  17747  17743  17744  17750     1  0.0000000  0.0000000  3
  17747  17743  17751  17754     1  0.0000000  0.6973333  3
  17747  17743  17740  17752     1  0.0000000  1.0460000  1
  17747  17743  17740  17752     1  0.0000000  0.0000000  3
  17748  17745  17744  17750     1  0.0000000  0.6508444  3
  17757  17753  17759  17760     1  0.0000000  0.6973333  3
  17757  17753  17739  17761     1  0.0000000  1.0460000  1
  17757  17753  17739  17761     1  0.0000000  0.0000000  3
  17758  17753  17759  17760     1  0.0000000  0.6973333  3
  17758  17753  17739  17761     1  0.0000000  1.0460000  1
  17758  17753  17739  17761     1  0.0000000  0.0000000  3
  17762  17763  17766  17770     1  0.0000000  0.6508444  3
  17762  17763  17775  17778     1  0.0000000  1.0460000  1
  17762  17763  17775  17778     1  0.0000000  0.6694400  3
  17762  17776  17782  17783     1  0.0000000  1.0460000  1
  17762  17776  17782  17783     1  0.0000000  0.6694400  3
  17762  17784  17768  17771     1  0.0000000  1.6038667  3
  17763  17762  17776  17780     1  0.0000000  0.6508444  3
  17763  17762  17776  17781     1  0.0000000  0.6508444  3
  17763  17766  17767  17769     1  0.0000000  0.6508444  3
  17763  17766  17774  17777     1  0.0000000  1.0460000  1
  17763  17766  17774  17777     1  0.0000000  0.6694400  3
  17764  17762  17763  17766     1  0.0000000  0.6508444  3
  17764  17762  17763  17775     1  0.0000000  1.0460000  1
  17764  17762  17763  17775     1  0.0000000  0.0000000  3
  17764  17762  17763  17765     1  0.0000000  0.6508444  3
  17764  17762  17776  17782     1  0.0000000  1.0460000  1
  17764  17762  17776  17782     1  0.0000000  0.0000000  3
  17764  17762  17776  17780     1  0.0000000  0.6508444  3
  17764  17762  17776  17781     1  0.0000000  0.6508444  3
  17764  17762  17784  17768     1  0.0000000  1.6038667  3
  17765  17763  17762  17776     1  0.0000000  0.6508444  3
  17765  17763  17762  17784     1  0.0000000  1.0460000  1
  17765  17763  17762  17784     1  0.0000000  0.0000000  3
  17765  17763  17766  17767     1  0.0000000  0.6508444  3
  17765  17763  17766  17774     1  0.0000000  1.0460000  1
  17765  17763  17766  17774     1  0.0000000  0.0000000  3
  17765  17763  17766  17770     1  0.0000000  0.6508444  3
  17765  17763  17775  17778     1  0.0000000  0.6973333  3
  17766  17763  17775  17778     1  0.0000000  1.0460000  1
  17766  17763  17775  17778     1  0.0000000  0.6694400  3
  17766  17767  17768  17771     1  0.0000000  0.6508444  3
  17766  17767  17773  17779     1  0.0000000  1.0460000  1
  17766  17767  17773  17779     1  0.0000000  0.6694400  3
  17767  17766  17774  17777     1  0.0000000  1.0460000  1
  17767  17766  17774  17777     1  0.0000000  0.6694400  3
  17768  17767  17766  17770     1  0.0000000  0.6508444  3
  17768  17767  17773  17779     1  0.0000000  1.0460000  1
  17768  17767  17773  17779     1  0.0000000  0.6694400  3
  17769  17767  17766  17774     1  0.0000000  1.0460000  1
  17769  17767  17766  17774     1  0.0000000  0.0000000  3
  17769  17767  17766  17770     1  0.0000000  0.6508444  3
  17769  17767  17768  17772     1  0.0000000  1.0460000  1
  17769  17767  17768  17772     1  0.0000000  0.0000000  3
  17769  17767  17768  17784     1  0.0000000  1.0460000  1
  17769  17767  17768  17784     1  0.0000000  0.0000000  3
  17769  17767  17768  17771     1  0.0000000  0.6508444  3
  17769  17767  17773  17779     1  0.0000000  0.6973333  3
  17770  17766  17763  17775     1  0.0000000  1.0460000  1
  17770  17766  17763  17775     1  0.0000000  0.0000000  3
  17770  17766  17767  17773     1  0.0000000  1.0460000  1
  17770  17766  17767  17773     1  0.0000000  0.0000000  3
  17770  17766  17774  17777     1  0.0000000  0.6973333  3
  17771  17768  17767  17773     1  0.0000000  0.6508444  3
  17780  17776  17762  17784     1  0.0000000  1.0460000  1
  17780  17776  17762  17784     1  0.0000000  0.0000000  3
  17780  17776  17782  17783     1  0.0000000  0.6973333  3
  17781  17776  17762  17784     1  0.0000000  1.0460000  1
  17781  17776  17762  17784     1  0.0000000  0.0000000  3
  17781  17776  17782  17783     1  0.0000000  0.6973333  3
  17785  17786  17789  17793     1  0.0000000  0.6508444  3
  17785  17786  17798  17801     1  0.0000000  1.0460000  1
  17785  17786  17798  17801     1  0.0000000  0.6694400  3
  17785  17799  17805  17806     1  0.0000000  1.0460000  1
  17785  17799  17805  17806     1  0.0000000  0.6694400  3
  17785  17807  17791  17794     1  0.0000000  1.6038667  3
  17786  17789  17790  17792     1  0.0000000  0.6508444  3
  17786  17789  17797  17800     1  0.0000000  1.0460000  1
  17786  17789  17797  17800     1  0.0000000  0.6694400  3
  17786  17785  17799  17803     1  0.0000000  0.6508444  3
  17786  17785  17799  17804     1  0.0000000  0.6508444  3
  17787  17785  17786  17789     1  0.0000000  0.6508444  3
  17787  17785  17786  17798     1  0.0000000  1.0460000  1
  17787  17785  17786  17798     1  0.0000000  0.0000000  3
  17787  17785  17786  17788     1  0.0000000  0.6508444  3
  17787  17785  17799  17805     1  0.0000000  1.0460000  1
  17787  17785  17799  17805     1  0.0000000  0.0000000  3
  17787  17785  17799  17803     1  0.0000000  0.6508444  3
  17787  17785  17799  17804     1  0.0000000  0.6508444  3
  17787  17785  17807  17791     1  0.0000000  1.6038667  3
  17788  17786  17789  17790     1  0.0000000  0.6508444  3
  17788  17786  17789  17797     1  0.0000000  1.0460000  1
  17788  17786  17789  17797     1  0.0000000  0.0000000  3
  17788  17786  17789  17793     1  0.0000000  0.6508444  3
  17788  17786  17798  17801     1  0.0000000  0.6973333  3
  17788  17786  17785  17799     1  0.0000000  0.6508444  3
  17788  17786  17785  17807     1  0.0000000  1.0460000  1
  17788  17786  17785  17807     1  0.0000000  0.0000000  3
  17789  17790  17791  17794     1  0.0000000  0.6508444  3
  17789  17790  17796  17802     1  0.0000000  1.0460000  1
  17789  17790  17796  17802     1  0.0000000  0.6694400  3
  17789  17786  17798  17801     1  0.0000000  1.0460000  1
  17789  17786  17798  17801     1  0.0000000  0.6694400  3
  17790  17789  17797  17800     1  0.0000000  1.0460000  1
  17790  17789  17797  17800     1  0.0000000  0.6694400  3
  17791  17790  17796  17802     1  0.0000000  1.0460000  1
  17791  17790  17796  17802     1  0.0000000  0.6694400  3
  17791  17790  17789  17793     1  0.0000000  0.6508444  3
  17792  17790  17791  17795     1  0.0000000  1.0460000  1
  17792  17790  17791  17795     1  0.0000000  0.0000000  3
  17792  17790  17791  17807     1  0.0000000  1.0460000  1
  17792  17790  17791  17807     1  0.0000000  0.0000000  3
  17792  17790  17791  17794     1  0.0000000  0.6508444  3
  17792  17790  17796  17802     1  0.0000000  0.6973333  3
  17792  17790  17789  17797     1  0.0000000  1.0460000  1
  17792  17790  17789  17797     1  0.0000000  0.0000000  3
  17792  17790  17789  17793     1  0.0000000  0.6508444  3
  17793  17789  17790  17796     1  0.0000000  1.0460000  1
  17793  17789  17790  17796     1  0.0000000  0.0000000  3
  17793  17789  17797  17800     1  0.0000000  0.6973333  3
  17793  17789  17786  17798     1  0.0000000  1.0460000  1
  17793  17789  17786  17798     1  0.0000000  0.0000000  3
  17794  17791  17790  17796     1  0.0000000  0.6508444  3
  17803  17799  17805  17806     1  0.0000000  0.6973333  3
  17803  17799  17785  17807     1  0.0000000  1.0460000  1
  17803  17799  17785  17807     1  0.0000000  0.0000000  3
  17804  17799  17805  17806     1  0.0000000  0.6973333  3
  17804  17799  17785  17807     1  0.0000000  1.0460000  1
  17804  17799  17785  17807     1  0.0000000  0.0000000  3
  17808  17809  17812  17816     1  0.0000000  0.6508444  3
  17808  17809  17821  17824     1  0.0000000  1.0460000  1
  17808  17809  17821  17824     1  0.0000000  0.6694400  3
  17808  17822  17828  17829     1  0.0000000  1.0460000  1
  17808  17822  17828  17829     1  0.0000000  0.6694400  3
  17808  17830  17814  17817     1  0.0000000  1.6038667  3
  17809  17808  17822  17826     1  0.0000000  0.6508444  3
  17809  17808  17822  17827     1  0.0000000  0.6508444  3
  17809  17812  17813  17815     1  0.0000000  0.6508444  3
  17809  17812  17820  17823     1  0.0000000  1.0460000  1
  17809  17812  17820  17823     1  0.0000000  0.6694400  3
  17810  17808  17809  17812     1  0.0000000  0.6508444  3
  17810  17808  17809  17821     1  0.0000000  1.0460000  1
  17810  17808  17809  17821     1  0.0000000  0.0000000  3
  17810  17808  17809  17811     1  0.0000000  0.6508444  3
  17810  17808  17822  17828     1  0.0000000  1.0460000  1
  17810  17808  17822  17828     1  0.0000000  0.0000000  3
  17810  17808  17822  17826     1  0.0000000  0.6508444  3
  17810  17808  17822  17827     1  0.0000000  0.6508444  3
  17810  17808  17830  17814     1  0.0000000  1.6038667  3
  17811  17809  17808  17822     1  0.0000000  0.6508444  3
  17811  17809  17808  17830     1  0.0000000  1.0460000  1
  17811  17809  17808  17830     1  0.0000000  0.0000000  3
  17811  17809  17812  17813     1  0.0000000  0.6508444  3
  17811  17809  17812  17820     1  0.0000000  1.0460000  1
  17811  17809  17812  17820     1  0.0000000  0.0000000  3
  17811  17809  17812  17816     1  0.0000000  0.6508444  3
  17811  17809  17821  17824     1  0.0000000  0.6973333  3
  17812  17809  17821  17824     1  0.0000000  1.0460000  1
  17812  17809  17821  17824     1  0.0000000  0.6694400  3
  17812  17813  17814  17817     1  0.0000000  0.6508444  3
  17812  17813  17819  17825     1  0.0000000  1.0460000  1
  17812  17813  17819  17825     1  0.0000000  0.6694400  3
  17813  17812  17820  17823     1  0.0000000  1.0460000  1
  17813  17812  17820  17823     1  0.0000000  0.6694400  3
  17814  17813  17812  17816     1  0.0000000  0.6508444  3
  17814  17813  17819  17825     1  0.0000000  1.0460000  1
  17814  17813  17819  17825     1  0.0000000  0.6694400  3
  17815  17813  17812  17820     1  0.0000000  1.0460000  1
  17815  17813  17812  17820     1  0.0000000  0.0000000  3
  17815  17813  17812  17816     1  0.0000000  0.6508444  3
  17815  17813  17814  17818     1  0.0000000  1.0460000  1
  17815  17813  17814  17818     1  0.0000000  0.0000000  3
  17815  17813  17814  17830     1  0.0000000  1.0460000  1
  17815  17813  17814  17830     1  0.0000000  0.0000000  3
  17815  17813  17814  17817     1  0.0000000  0.6508444  3
  17815  17813  17819  17825     1  0.0000000  0.6973333  3
  17816  17812  17809  17821     1  0.0000000  1.0460000  1
  17816  17812  17809  17821     1  0.0000000  0.0000000  3
  17816  17812  17813  17819     1  0.0000000  1.0460000  1
  17816  17812  17813  17819     1  0.0000000  0.0000000  3
  17816  17812  17820  17823     1  0.0000000  0.6973333  3
  17817  17814  17813  17819     1  0.0000000  0.6508444  3
  17826  17822  17808  17830     1  0.0000000  1.0460000  1
  17826  17822  17808  17830     1  0.0000000  0.0000000  3
  17826  17822  17828  17829     1  0.0000000  0.6973333  3
  17827  17822  17808  17830     1  0.0000000  1.0460000  1
  17827  17822  17808  17830     1  0.0000000  0.0000000  3
  17827  17822  17828  17829     1  0.0000000  0.6973333  3
  17831  17832  17835  17839     1  0.0000000  0.6508444  3
  17831  17832  17844  17847     1  0.0000000  1.0460000  1
  17831  17832  17844  17847     1  0.0000000  0.6694400  3
  17831  17845  17851  17852     1  0.0000000  1.0460000  1
  17831  17845  17851  17852     1  0.0000000  0.6694400  3
  17831  17853  17837  17840     1  0.0000000  1.6038667  3
  17832  17835  17836  17838     1  0.0000000  0.6508444  3
  17832  17835  17843  17846     1  0.0000000  1.0460000  1
  17832  17835  17843  17846     1  0.0000000  0.6694400  3
  17832  17831  17845  17849     1  0.0000000  0.6508444  3
  17832  17831  17845  17850     1  0.0000000  0.6508444  3
  17833  17831  17832  17835     1  0.0000000  0.6508444  3
  17833  17831  17832  17844     1  0.0000000  1.0460000  1
  17833  17831  17832  17844     1  0.0000000  0.0000000  3
  17833  17831  17832  17834     1  0.0000000  0.6508444  3
  17833  17831  17845  17851     1  0.0000000  1.0460000  1
  17833  17831  17845  17851     1  0.0000000  0.0000000  3
  17833  17831  17845  17849     1  0.0000000  0.6508444  3
  17833  17831  17845  17850     1  0.0000000  0.6508444  3
  17833  17831  17853  17837     1  0.0000000  1.6038667  3
  17834  17832  17835  17836     1  0.0000000  0.6508444  3
  17834  17832  17835  17843     1  0.0000000  1.0460000  1
  17834  17832  17835  17843     1  0.0000000  0.0000000  3
  17834  17832  17835  17839     1  0.0000000  0.6508444  3
  17834  17832  17844  17847     1  0.0000000  0.6973333  3
  17834  17832  17831  17845     1  0.0000000  0.6508444  3
  17834  17832  17831  17853     1  0.0000000  1.0460000  1
  17834  17832  17831  17853     1  0.0000000  0.0000000  3
  17835  17836  17837  17840     1  0.0000000  0.6508444  3
  17835  17836  17842  17848     1  0.0000000  1.0460000  1
  17835  17836  17842  17848     1  0.0000000  0.6694400  3
  17835  17832  17844  17847     1  0.0000000  1.0460000  1
  17835  17832  17844  17847     1  0.0000000  0.6694400  3
  17836  17835  17843  17846     1  0.0000000  1.0460000  1
  17836  17835  17843  17846     1  0.0000000  0.6694400  3
  17837  17836  17842  17848     1  0.0000000  1.0460000  1
  17837  17836  17842  17848     1  0.0000000  0.6694400  3
  17837  17836  17835  17839     1  0.0000000  0.6508444  3
  17838  17836  17837  17841     1  0.0000000  1.0460000  1
  17838  17836  17837  17841     1  0.0000000  0.0000000  3
  17838  17836  17837  17853     1  0.0000000  1.0460000  1
  17838  17836  17837  17853     1  0.0000000  0.0000000  3
  17838  17836  17837  17840     1  0.0000000  0.6508444  3
  17838  17836  17842  17848     1  0.0000000  0.6973333  3
  17838  17836  17835  17843     1  0.0000000  1.0460000  1
  17838  17836  17835  17843     1  0.0000000  0.0000000  3
  17838  17836  17835  17839     1  0.0000000  0.6508444  3
  17839  17835  17836  17842     1  0.0000000  1.0460000  1
  17839  17835  17836  17842     1  0.0000000  0.0000000  3
  17839  17835  17843  17846     1  0.0000000  0.6973333  3
  17839  17835  17832  17844     1  0.0000000  1.0460000  1
  17839  17835  17832  17844     1  0.0000000  0.0000000  3
  17840  17837  17836  17842     1  0.0000000  0.6508444  3
  17849  17845  17851  17852     1  0.0000000  0.6973333  3
  17849  17845  17831  17853     1  0.0000000  1.0460000  1
  17849  17845  17831  17853     1  0.0000000  0.0000000  3
  17850  17845  17851  17852     1  0.0000000  0.6973333  3
  17850  17845  17831  17853     1  0.0000000  1.0460000  1
  17850  17845  17831  17853     1  0.0000000  0.0000000  3
  17854  17855  17858  17862     1  0.0000000  0.6508444  3
  17854  17855  17867  17870     1  0.0000000  1.0460000  1
  17854  17855  17867  17870     1  0.0000000  0.6694400  3
  17854  17868  17874  17875     1  0.0000000  1.0460000  1
  17854  17868  17874  17875     1  0.0000000  0.6694400  3
  17854  17876  17860  17863     1  0.0000000  1.6038667  3
  17855  17854  17868  17872     1  0.0000000  0.6508444  3
  17855  17854  17868  17873     1  0.0000000  0.6508444  3
  17855  17858  17859  17861     1  0.0000000  0.6508444  3
  17855  17858  17866  17869     1  0.0000000  1.0460000  1
  17855  17858  17866  17869     1  0.0000000  0.6694400  3
  17856  17854  17855  17858     1  0.0000000  0.6508444  3
  17856  17854  17855  17867     1  0.0000000  1.0460000  1
  17856  17854  17855  17867     1  0.0000000  0.0000000  3
  17856  17854  17855  17857     1  0.0000000  0.6508444  3
  17856  17854  17868  17874     1  0.0000000  1.0460000  1
  17856  17854  17868  17874     1  0.0000000  0.0000000  3
  17856  17854  17868  17872     1  0.0000000  0.6508444  3
  17856  17854  17868  17873     1  0.0000000  0.6508444  3
  17856  17854  17876  17860     1  0.0000000  1.6038667  3
  17857  17855  17854  17868     1  0.0000000  0.6508444  3
  17857  17855  17854  17876     1  0.0000000  1.0460000  1
  17857  17855  17854  17876     1  0.0000000  0.0000000  3
  17857  17855  17858  17859     1  0.0000000  0.6508444  3
  17857  17855  17858  17866     1  0.0000000  1.0460000  1
  17857  17855  17858  17866     1  0.0000000  0.0000000  3
  17857  17855  17858  17862     1  0.0000000  0.6508444  3
  17857  17855  17867  17870     1  0.0000000  0.6973333  3
  17858  17855  17867  17870     1  0.0000000  1.0460000  1
  17858  17855  17867  17870     1  0.0000000  0.6694400  3
  17858  17859  17860  17863     1  0.0000000  0.6508444  3
  17858  17859  17865  17871     1  0.0000000  1.0460000  1
  17858  17859  17865  17871     1  0.0000000  0.6694400  3
  17859  17858  17866  17869     1  0.0000000  1.0460000  1
  17859  17858  17866  17869     1  0.0000000  0.6694400  3
  17860  17859  17858  17862     1  0.0000000  0.6508444  3
  17860  17859  17865  17871     1  0.0000000  1.0460000  1
  17860  17859  17865  17871     1  0.0000000  0.6694400  3
  17861  17859  17858  17866     1  0.0000000  1.0460000  1
  17861  17859  17858  17866     1  0.0000000  0.0000000  3
  17861  17859  17858  17862     1  0.0000000  0.6508444  3
  17861  17859  17860  17864     1  0.0000000  1.0460000  1
  17861  17859  17860  17864     1  0.0000000  0.0000000  3
  17861  17859  17860  17876     1  0.0000000  1.0460000  1
  17861  17859  17860  17876     1  0.0000000  0.0000000  3
  17861  17859  17860  17863     1  0.0000000  0.6508444  3
  17861  17859  17865  17871     1  0.0000000  0.6973333  3
  17862  17858  17855  17867     1  0.0000000  1.0460000  1
  17862  17858  17855  17867     1  0.0000000  0.0000000  3
  17862  17858  17859  17865     1  0.0000000  1.0460000  1
  17862  17858  17859  17865     1  0.0000000  0.0000000  3
  17862  17858  17866  17869     1  0.0000000  0.6973333  3
  17863  17860  17859  17865     1  0.0000000  0.6508444  3
  17872  17868  17854  17876     1  0.0000000  1.0460000  1
  17872  17868  17854  17876     1  0.0000000  0.0000000  3
  17872  17868  17874  17875     1  0.0000000  0.6973333  3
  17873  17868  17854  17876     1  0.0000000  1.0460000  1
  17873  17868  17854  17876     1  0.0000000  0.0000000  3
  17873  17868  17874  17875     1  0.0000000  0.6973333  3
  17877  17878  17881  17885     1  0.0000000  0.6508444  3
  17877  17878  17890  17893     1  0.0000000  1.0460000  1
  17877  17878  17890  17893     1  0.0000000  0.6694400  3
  17877  17891  17897  17898     1  0.0000000  1.0460000  1
  17877  17891  17897  17898     1  0.0000000  0.6694400  3
  17877  17899  17883  17886     1  0.0000000  1.6038667  3
  17878  17881  17882  17884     1  0.0000000  0.6508444  3
  17878  17881  17889  17892     1  0.0000000  1.0460000  1
  17878  17881  17889  17892     1  0.0000000  0.6694400  3
  17878  17877  17891  17895     1  0.0000000  0.6508444  3
  17878  17877  17891  17896     1  0.0000000  0.6508444  3
  17879  17877  17878  17881     1  0.0000000  0.6508444  3
  17879  17877  17878  17890     1  0.0000000  1.0460000  1
  17879  17877  17878  17890     1  0.0000000  0.0000000  3
  17879  17877  17878  17880     1  0.0000000  0.6508444  3
  17879  17877  17891  17897     1  0.0000000  1.0460000  1
  17879  17877  17891  17897     1  0.0000000  0.0000000  3
  17879  17877  17891  17895     1  0.0000000  0.6508444  3
  17879  17877  17891  17896     1  0.0000000  0.6508444  3
  17879  17877  17899  17883     1  0.0000000  1.6038667  3
  17880  17878  17881  17882     1  0.0000000  0.6508444  3
  17880  17878  17881  17889     1  0.0000000  1.0460000  1
  17880  17878  17881  17889     1  0.0000000  0.0000000  3
  17880  17878  17881  17885     1  0.0000000  0.6508444  3
  17880  17878  17890  17893     1  0.0000000  0.6973333  3
  17880  17878  17877  17891     1  0.0000000  0.6508444  3
  17880  17878  17877  17899     1  0.0000000  1.0460000  1
  17880  17878  17877  17899     1  0.0000000  0.0000000  3
  17881  17882  17883  17886     1  0.0000000  0.6508444  3
  17881  17882  17888  17894     1  0.0000000  1.0460000  1
  17881  17882  17888  17894     1  0.0000000  0.6694400  3
  17881  17878  17890  17893     1  0.0000000  1.0460000  1
  17881  17878  17890  17893     1  0.0000000  0.6694400  3
  17882  17881  17889  17892     1  0.0000000  1.0460000  1
  17882  17881  17889  17892     1  0.0000000  0.6694400  3
  17883  17882  17888  17894     1  0.0000000  1.0460000  1
  17883  17882  17888  17894     1  0.0000000  0.6694400  3
  17883  17882  17881  17885     1  0.0000000  0.6508444  3
  17884  17882  17883  17887     1  0.0000000  1.0460000  1
  17884  17882  17883  17887     1  0.0000000  0.0000000  3
  17884  17882  17883  17899     1  0.0000000  1.0460000  1
  17884  17882  17883  17899     1  0.0000000  0.0000000  3
  17884  17882  17883  17886     1  0.0000000  0.6508444  3
  17884  17882  17888  17894     1  0.0000000  0.6973333  3
  17884  17882  17881  17889     1  0.0000000  1.0460000  1
  17884  17882  17881  17889     1  0.0000000  0.0000000  3
  17884  17882  17881  17885     1  0.0000000  0.6508444  3
  17885  17881  17882  17888     1  0.0000000  1.0460000  1
  17885  17881  17882  17888     1  0.0000000  0.0000000  3
  17885  17881  17889  17892     1  0.0000000  0.6973333  3
  17885  17881  17878  17890     1  0.0000000  1.0460000  1
  17885  17881  17878  17890     1  0.0000000  0.0000000  3
  17886  17883  17882  17888     1  0.0000000  0.6508444  3
  17895  17891  17897  17898     1  0.0000000  0.6973333  3
  17895  17891  17877  17899     1  0.0000000  1.0460000  1
  17895  17891  17877  17899     1  0.0000000  0.0000000  3
  17896  17891  17897  17898     1  0.0000000  0.6973333  3
  17896  17891  17877  17899     1  0.0000000  1.0460000  1
  17896  17891  17877  17899     1  0.0000000  0.0000000  3
  17900  17901  17904  17908     1  0.0000000  0.6508444  3
  17900  17901  17913  17916     1  0.0000000  1.0460000  1
  17900  17901  17913  17916     1  0.0000000  0.6694400  3
  17900  17914  17920  17921     1  0.0000000  1.0460000  1
  17900  17914  17920  17921     1  0.0000000  0.6694400  3
  17900  17922  17906  17909     1  0.0000000  1.6038667  3
  17901  17900  17914  17918     1  0.0000000  0.6508444  3
  17901  17900  17914  17919     1  0.0000000  0.6508444  3
  17901  17904  17905  17907     1  0.0000000  0.6508444  3
  17901  17904  17912  17915     1  0.0000000  1.0460000  1
  17901  17904  17912  17915     1  0.0000000  0.6694400  3
  17902  17900  17901  17904     1  0.0000000  0.6508444  3
  17902  17900  17901  17913     1  0.0000000  1.0460000  1
  17902  17900  17901  17913     1  0.0000000  0.0000000  3
  17902  17900  17901  17903     1  0.0000000  0.6508444  3
  17902  17900  17914  17920     1  0.0000000  1.0460000  1
  17902  17900  17914  17920     1  0.0000000  0.0000000  3
  17902  17900  17914  17918     1  0.0000000  0.6508444  3
  17902  17900  17914  17919     1  0.0000000  0.6508444  3
  17902  17900  17922  17906     1  0.0000000  1.6038667  3
  17903  17901  17900  17914     1  0.0000000  0.6508444  3
  17903  17901  17900  17922     1  0.0000000  1.0460000  1
  17903  17901  17900  17922     1  0.0000000  0.0000000  3
  17903  17901  17904  17905     1  0.0000000  0.6508444  3
  17903  17901  17904  17912     1  0.0000000  1.0460000  1
  17903  17901  17904  17912     1  0.0000000  0.0000000  3
  17903  17901  17904  17908     1  0.0000000  0.6508444  3
  17903  17901  17913  17916     1  0.0000000  0.6973333  3
  17904  17901  17913  17916     1  0.0000000  1.0460000  1
  17904  17901  17913  17916     1  0.0000000  0.6694400  3
  17904  17905  17906  17909     1  0.0000000  0.6508444  3
  17904  17905  17911  17917     1  0.0000000  1.0460000  1
  17904  17905  17911  17917     1  0.0000000  0.6694400  3
  17905  17904  17912  17915     1  0.0000000  1.0460000  1
  17905  17904  17912  17915     1  0.0000000  0.6694400  3
  17906  17905  17904  17908     1  0.0000000  0.6508444  3
  17906  17905  17911  17917     1  0.0000000  1.0460000  1
  17906  17905  17911  17917     1  0.0000000  0.6694400  3
  17907  17905  17904  17912     1  0.0000000  1.0460000  1
  17907  17905  17904  17912     1  0.0000000  0.0000000  3
  17907  17905  17904  17908     1  0.0000000  0.6508444  3
  17907  17905  17906  17910     1  0.0000000  1.0460000  1
  17907  17905  17906  17910     1  0.0000000  0.0000000  3
  17907  17905  17906  17922     1  0.0000000  1.0460000  1
  17907  17905  17906  17922     1  0.0000000  0.0000000  3
  17907  17905  17906  17909     1  0.0000000  0.6508444  3
  17907  17905  17911  17917     1  0.0000000  0.6973333  3
  17908  17904  17901  17913     1  0.0000000  1.0460000  1
  17908  17904  17901  17913     1  0.0000000  0.0000000  3
  17908  17904  17905  17911     1  0.0000000  1.0460000  1
  17908  17904  17905  17911     1  0.0000000  0.0000000  3
  17908  17904  17912  17915     1  0.0000000  0.6973333  3
  17909  17906  17905  17911     1  0.0000000  0.6508444  3
  17918  17914  17900  17922     1  0.0000000  1.0460000  1
  17918  17914  17900  17922     1  0.0000000  0.0000000  3
  17918  17914  17920  17921     1  0.0000000  0.6973333  3
  17919  17914  17900  17922     1  0.0000000  1.0460000  1
  17919  17914  17900  17922     1  0.0000000  0.0000000  3
  17919  17914  17920  17921     1  0.0000000  0.6973333  3
  17923  17924  17927  17931     1  0.0000000  0.6508444  3
  17923  17924  17936  17939     1  0.0000000  1.0460000  1
  17923  17924  17936  17939     1  0.0000000  0.6694400  3
  17923  17937  17943  17944     1  0.0000000  1.0460000  1
  17923  17937  17943  17944     1  0.0000000  0.6694400  3
  17923  17945  17929  17932     1  0.0000000  1.6038667  3
  17924  17927  17928  17930     1  0.0000000  0.6508444  3
  17924  17927  17935  17938     1  0.0000000  1.0460000  1
  17924  17927  17935  17938     1  0.0000000  0.6694400  3
  17924  17923  17937  17941     1  0.0000000  0.6508444  3
  17924  17923  17937  17942     1  0.0000000  0.6508444  3
  17925  17923  17924  17927     1  0.0000000  0.6508444  3
  17925  17923  17924  17936     1  0.0000000  1.0460000  1
  17925  17923  17924  17936     1  0.0000000  0.0000000  3
  17925  17923  17924  17926     1  0.0000000  0.6508444  3
  17925  17923  17937  17943     1  0.0000000  1.0460000  1
  17925  17923  17937  17943     1  0.0000000  0.0000000  3
  17925  17923  17937  17941     1  0.0000000  0.6508444  3
  17925  17923  17937  17942     1  0.0000000  0.6508444  3
  17925  17923  17945  17929     1  0.0000000  1.6038667  3
  17926  17924  17927  17928     1  0.0000000  0.6508444  3
  17926  17924  17927  17935     1  0.0000000  1.0460000  1
  17926  17924  17927  17935     1  0.0000000  0.0000000  3
  17926  17924  17927  17931     1  0.0000000  0.6508444  3
  17926  17924  17936  17939     1  0.0000000  0.6973333  3
  17926  17924  17923  17937     1  0.0000000  0.6508444  3
  17926  17924  17923  17945     1  0.0000000  1.0460000  1
  17926  17924  17923  17945     1  0.0000000  0.0000000  3
  17927  17928  17929  17932     1  0.0000000  0.6508444  3
  17927  17928  17934  17940     1  0.0000000  1.0460000  1
  17927  17928  17934  17940     1  0.0000000  0.6694400  3
  17927  17924  17936  17939     1  0.0000000  1.0460000  1
  17927  17924  17936  17939     1  0.0000000  0.6694400  3
  17928  17927  17935  17938     1  0.0000000  1.0460000  1
  17928  17927  17935  17938     1  0.0000000  0.6694400  3
  17929  17928  17934  17940     1  0.0000000  1.0460000  1
  17929  17928  17934  17940     1  0.0000000  0.6694400  3
  17929  17928  17927  17931     1  0.0000000  0.6508444  3
  17930  17928  17929  17933     1  0.0000000  1.0460000  1
  17930  17928  17929  17933     1  0.0000000  0.0000000  3
  17930  17928  17929  17945     1  0.0000000  1.0460000  1
  17930  17928  17929  17945     1  0.0000000  0.0000000  3
  17930  17928  17929  17932     1  0.0000000  0.6508444  3
  17930  17928  17934  17940     1  0.0000000  0.6973333  3
  17930  17928  17927  17935     1  0.0000000  1.0460000  1
  17930  17928  17927  17935     1  0.0000000  0.0000000  3
  17930  17928  17927  17931     1  0.0000000  0.6508444  3
  17931  17927  17928  17934     1  0.0000000  1.0460000  1
  17931  17927  17928  17934     1  0.0000000  0.0000000  3
  17931  17927  17935  17938     1  0.0000000  0.6973333  3
  17931  17927  17924  17936     1  0.0000000  1.0460000  1
  17931  17927  17924  17936     1  0.0000000  0.0000000  3
  17932  17929  17928  17934     1  0.0000000  0.6508444  3
  17941  17937  17943  17944     1  0.0000000  0.6973333  3
  17941  17937  17923  17945     1  0.0000000  1.0460000  1
  17941  17937  17923  17945     1  0.0000000  0.0000000  3
  17942  17937  17943  17944     1  0.0000000  0.6973333  3
  17942  17937  17923  17945     1  0.0000000  1.0460000  1
  17942  17937  17923  17945     1  0.0000000  0.0000000  3
  17946  17947  17950  17954     1  0.0000000  0.6508444  3
  17946  17947  17959  17962     1  0.0000000  1.0460000  1
  17946  17947  17959  17962     1  0.0000000  0.6694400  3
  17946  17960  17966  17967     1  0.0000000  1.0460000  1
  17946  17960  17966  17967     1  0.0000000  0.6694400  3
  17946  17968  17952  17955     1  0.0000000  1.6038667  3
  17947  17946  17960  17964     1  0.0000000  0.6508444  3
  17947  17946  17960  17965     1  0.0000000  0.6508444  3
  17947  17950  17951  17953     1  0.0000000  0.6508444  3
  17947  17950  17958  17961     1  0.0000000  1.0460000  1
  17947  17950  17958  17961     1  0.0000000  0.6694400  3
  17948  17946  17947  17950     1  0.0000000  0.6508444  3
  17948  17946  17947  17959     1  0.0000000  1.0460000  1
  17948  17946  17947  17959     1  0.0000000  0.0000000  3
  17948  17946  17947  17949     1  0.0000000  0.6508444  3
  17948  17946  17960  17966     1  0.0000000  1.0460000  1
  17948  17946  17960  17966     1  0.0000000  0.0000000  3
  17948  17946  17960  17964     1  0.0000000  0.6508444  3
  17948  17946  17960  17965     1  0.0000000  0.6508444  3
  17948  17946  17968  17952     1  0.0000000  1.6038667  3
  17949  17947  17946  17960     1  0.0000000  0.6508444  3
  17949  17947  17946  17968     1  0.0000000  1.0460000  1
  17949  17947  17946  17968     1  0.0000000  0.0000000  3
  17949  17947  17950  17951     1  0.0000000  0.6508444  3
  17949  17947  17950  17958     1  0.0000000  1.0460000  1
  17949  17947  17950  17958     1  0.0000000  0.0000000  3
  17949  17947  17950  17954     1  0.0000000  0.6508444  3
  17949  17947  17959  17962     1  0.0000000  0.6973333  3
  17950  17947  17959  17962     1  0.0000000  1.0460000  1
  17950  17947  17959  17962     1  0.0000000  0.6694400  3
  17950  17951  17952  17955     1  0.0000000  0.6508444  3
  17950  17951  17957  17963     1  0.0000000  1.0460000  1
  17950  17951  17957  17963     1  0.0000000  0.6694400  3
  17951  17950  17958  17961     1  0.0000000  1.0460000  1
  17951  17950  17958  17961     1  0.0000000  0.6694400  3
  17952  17951  17950  17954     1  0.0000000  0.6508444  3
  17952  17951  17957  17963     1  0.0000000  1.0460000  1
  17952  17951  17957  17963     1  0.0000000  0.6694400  3
  17953  17951  17950  17958     1  0.0000000  1.0460000  1
  17953  17951  17950  17958     1  0.0000000  0.0000000  3
  17953  17951  17950  17954     1  0.0000000  0.6508444  3
  17953  17951  17952  17956     1  0.0000000  1.0460000  1
  17953  17951  17952  17956     1  0.0000000  0.0000000  3
  17953  17951  17952  17968     1  0.0000000  1.0460000  1
  17953  17951  17952  17968     1  0.0000000  0.0000000  3
  17953  17951  17952  17955     1  0.0000000  0.6508444  3
  17953  17951  17957  17963     1  0.0000000  0.6973333  3
  17954  17950  17947  17959     1  0.0000000  1.0460000  1
  17954  17950  17947  17959     1  0.0000000  0.0000000  3
  17954  17950  17951  17957     1  0.0000000  1.0460000  1
  17954  17950  17951  17957     1  0.0000000  0.0000000  3
  17954  17950  17958  17961     1  0.0000000  0.6973333  3
  17955  17952  17951  17957     1  0.0000000  0.6508444  3
  17964  17960  17946  17968     1  0.0000000  1.0460000  1
  17964  17960  17946  17968     1  0.0000000  0.0000000  3
  17964  17960  17966  17967     1  0.0000000  0.6973333  3
  17965  17960  17946  17968     1  0.0000000  1.0460000  1
  17965  17960  17946  17968     1  0.0000000  0.0000000  3
  17965  17960  17966  17967     1  0.0000000  0.6973333  3
  17969  17970  17973  17977     1  0.0000000  0.6508444  3
  17969  17970  17982  17985     1  0.0000000  1.0460000  1
  17969  17970  17982  17985     1  0.0000000  0.6694400  3
  17969  17983  17989  17990     1  0.0000000  1.0460000  1
  17969  17983  17989  17990     1  0.0000000  0.6694400  3
  17969  17991  17975  17978     1  0.0000000  1.6038667  3
  17970  17973  17974  17976     1  0.0000000  0.6508444  3
  17970  17973  17981  17984     1  0.0000000  1.0460000  1
  17970  17973  17981  17984     1  0.0000000  0.6694400  3
  17970  17969  17983  17987     1  0.0000000  0.6508444  3
  17970  17969  17983  17988     1  0.0000000  0.6508444  3
  17971  17969  17970  17973     1  0.0000000  0.6508444  3
  17971  17969  17970  17982     1  0.0000000  1.0460000  1
  17971  17969  17970  17982     1  0.0000000  0.0000000  3
  17971  17969  17970  17972     1  0.0000000  0.6508444  3
  17971  17969  17983  17989     1  0.0000000  1.0460000  1
  17971  17969  17983  17989     1  0.0000000  0.0000000  3
  17971  17969  17983  17987     1  0.0000000  0.6508444  3
  17971  17969  17983  17988     1  0.0000000  0.6508444  3
  17971  17969  17991  17975     1  0.0000000  1.6038667  3
  17972  17970  17973  17974     1  0.0000000  0.6508444  3
  17972  17970  17973  17981     1  0.0000000  1.0460000  1
  17972  17970  17973  17981     1  0.0000000  0.0000000  3
  17972  17970  17973  17977     1  0.0000000  0.6508444  3
  17972  17970  17982  17985     1  0.0000000  0.6973333  3
  17972  17970  17969  17983     1  0.0000000  0.6508444  3
  17972  17970  17969  17991     1  0.0000000  1.0460000  1
  17972  17970  17969  17991     1  0.0000000  0.0000000  3
  17973  17974  17975  17978     1  0.0000000  0.6508444  3
  17973  17974  17980  17986     1  0.0000000  1.0460000  1
  17973  17974  17980  17986     1  0.0000000  0.6694400  3
  17973  17970  17982  17985     1  0.0000000  1.0460000  1
  17973  17970  17982  17985     1  0.0000000  0.6694400  3
  17974  17973  17981  17984     1  0.0000000  1.0460000  1
  17974  17973  17981  17984     1  0.0000000  0.6694400  3
  17975  17974  17980  17986     1  0.0000000  1.0460000  1
  17975  17974  17980  17986     1  0.0000000  0.6694400  3
  17975  17974  17973  17977     1  0.0000000  0.6508444  3
  17976  17974  17975  17979     1  0.0000000  1.0460000  1
  17976  17974  17975  17979     1  0.0000000  0.0000000  3
  17976  17974  17975  17991     1  0.0000000  1.0460000  1
  17976  17974  17975  17991     1  0.0000000  0.0000000  3
  17976  17974  17975  17978     1  0.0000000  0.6508444  3
  17976  17974  17980  17986     1  0.0000000  0.6973333  3
  17976  17974  17973  17981     1  0.0000000  1.0460000  1
  17976  17974  17973  17981     1  0.0000000  0.0000000  3
  17976  17974  17973  17977     1  0.0000000  0.6508444  3
  17977  17973  17974  17980     1  0.0000000  1.0460000  1
  17977  17973  17974  17980     1  0.0000000  0.0000000  3
  17977  17973  17981  17984     1  0.0000000  0.6973333  3
  17977  17973  17970  17982     1  0.0000000  1.0460000  1
  17977  17973  17970  17982     1  0.0000000  0.0000000  3
  17978  17975  17974  17980     1  0.0000000  0.6508444  3
  17987  17983  17989  17990     1  0.0000000  0.6973333  3
  17987  17983  17969  17991     1  0.0000000  1.0460000  1
  17987  17983  17969  17991     1  0.0000000  0.0000000  3
  17988  17983  17989  17990     1  0.0000000  0.6973333  3
  17988  17983  17969  17991     1  0.0000000  1.0460000  1
  17988  17983  17969  17991     1  0.0000000  0.0000000  3
  17992  17993  17996  18000     1  0.0000000  0.6508444  3
  17992  17993  18005  18008     1  0.0000000  1.0460000  1
  17992  17993  18005  18008     1  0.0000000  0.6694400  3
  17992  18006  18012  18013     1  0.0000000  1.0460000  1
  17992  18006  18012  18013     1  0.0000000  0.6694400  3
  17992  18014  17998  18001     1  0.0000000  1.6038667  3
  17993  17992  18006  18010     1  0.0000000  0.6508444  3
  17993  17992  18006  18011     1  0.0000000  0.6508444  3
  17993  17996  17997  17999     1  0.0000000  0.6508444  3
  17993  17996  18004  18007     1  0.0000000  1.0460000  1
  17993  17996  18004  18007     1  0.0000000  0.6694400  3
  17994  17992  17993  17996     1  0.0000000  0.6508444  3
  17994  17992  17993  18005     1  0.0000000  1.0460000  1
  17994  17992  17993  18005     1  0.0000000  0.0000000  3
  17994  17992  17993  17995     1  0.0000000  0.6508444  3
  17994  17992  18006  18012     1  0.0000000  1.0460000  1
  17994  17992  18006  18012     1  0.0000000  0.0000000  3
  17994  17992  18006  18010     1  0.0000000  0.6508444  3
  17994  17992  18006  18011     1  0.0000000  0.6508444  3
  17994  17992  18014  17998     1  0.0000000  1.6038667  3
  17995  17993  17992  18006     1  0.0000000  0.6508444  3
  17995  17993  17992  18014     1  0.0000000  1.0460000  1
  17995  17993  17992  18014     1  0.0000000  0.0000000  3
  17995  17993  17996  17997     1  0.0000000  0.6508444  3
  17995  17993  17996  18004     1  0.0000000  1.0460000  1
  17995  17993  17996  18004     1  0.0000000  0.0000000  3
  17995  17993  17996  18000     1  0.0000000  0.6508444  3
  17995  17993  18005  18008     1  0.0000000  0.6973333  3
  17996  17993  18005  18008     1  0.0000000  1.0460000  1
  17996  17993  18005  18008     1  0.0000000  0.6694400  3
  17996  17997  17998  18001     1  0.0000000  0.6508444  3
  17996  17997  18003  18009     1  0.0000000  1.0460000  1
  17996  17997  18003  18009     1  0.0000000  0.6694400  3
  17997  17996  18004  18007     1  0.0000000  1.0460000  1
  17997  17996  18004  18007     1  0.0000000  0.6694400  3
  17998  17997  17996  18000     1  0.0000000  0.6508444  3
  17998  17997  18003  18009     1  0.0000000  1.0460000  1
  17998  17997  18003  18009     1  0.0000000  0.6694400  3
  17999  17997  17996  18004     1  0.0000000  1.0460000  1
  17999  17997  17996  18004     1  0.0000000  0.0000000  3
  17999  17997  17996  18000     1  0.0000000  0.6508444  3
  17999  17997  17998  18002     1  0.0000000  1.0460000  1
  17999  17997  17998  18002     1  0.0000000  0.0000000  3
  17999  17997  17998  18014     1  0.0000000  1.0460000  1
  17999  17997  17998  18014     1  0.0000000  0.0000000  3
  17999  17997  17998  18001     1  0.0000000  0.6508444  3
  17999  17997  18003  18009     1  0.0000000  0.6973333  3
  18000  17996  17993  18005     1  0.0000000  1.0460000  1
  18000  17996  17993  18005     1  0.0000000  0.0000000  3
  18000  17996  17997  18003     1  0.0000000  1.0460000  1
  18000  17996  17997  18003     1  0.0000000  0.0000000  3
  18000  17996  18004  18007     1  0.0000000  0.6973333  3
  18001  17998  17997  18003     1  0.0000000  0.6508444  3
  18010  18006  17992  18014     1  0.0000000  1.0460000  1
  18010  18006  17992  18014     1  0.0000000  0.0000000  3
  18010  18006  18012  18013     1  0.0000000  0.6973333  3
  18011  18006  17992  18014     1  0.0000000  1.0460000  1
  18011  18006  17992  18014     1  0.0000000  0.0000000  3
  18011  18006  18012  18013     1  0.0000000  0.6973333  3
  18015  18016  18019  18023     1  0.0000000  0.6508444  3
  18015  18016  18028  18031     1  0.0000000  1.0460000  1
  18015  18016  18028  18031     1  0.0000000  0.6694400  3
  18015  18029  18035  18036     1  0.0000000  1.0460000  1
  18015  18029  18035  18036     1  0.0000000  0.6694400  3
  18015  18037  18021  18024     1  0.0000000  1.6038667  3
  18016  18019  18020  18022     1  0.0000000  0.6508444  3
  18016  18019  18027  18030     1  0.0000000  1.0460000  1
  18016  18019  18027  18030     1  0.0000000  0.6694400  3
  18016  18015  18029  18033     1  0.0000000  0.6508444  3
  18016  18015  18029  18034     1  0.0000000  0.6508444  3
  18017  18015  18016  18019     1  0.0000000  0.6508444  3
  18017  18015  18016  18028     1  0.0000000  1.0460000  1
  18017  18015  18016  18028     1  0.0000000  0.0000000  3
  18017  18015  18016  18018     1  0.0000000  0.6508444  3
  18017  18015  18029  18035     1  0.0000000  1.0460000  1
  18017  18015  18029  18035     1  0.0000000  0.0000000  3
  18017  18015  18029  18033     1  0.0000000  0.6508444  3
  18017  18015  18029  18034     1  0.0000000  0.6508444  3
  18017  18015  18037  18021     1  0.0000000  1.6038667  3
  18018  18016  18019  18020     1  0.0000000  0.6508444  3
  18018  18016  18019  18027     1  0.0000000  1.0460000  1
  18018  18016  18019  18027     1  0.0000000  0.0000000  3
  18018  18016  18019  18023     1  0.0000000  0.6508444  3
  18018  18016  18028  18031     1  0.0000000  0.6973333  3
  18018  18016  18015  18029     1  0.0000000  0.6508444  3
  18018  18016  18015  18037     1  0.0000000  1.0460000  1
  18018  18016  18015  18037     1  0.0000000  0.0000000  3
  18019  18020  18021  18024     1  0.0000000  0.6508444  3
  18019  18020  18026  18032     1  0.0000000  1.0460000  1
  18019  18020  18026  18032     1  0.0000000  0.6694400  3
  18019  18016  18028  18031     1  0.0000000  1.0460000  1
  18019  18016  18028  18031     1  0.0000000  0.6694400  3
  18020  18019  18027  18030     1  0.0000000  1.0460000  1
  18020  18019  18027  18030     1  0.0000000  0.6694400  3
  18021  18020  18026  18032     1  0.0000000  1.0460000  1
  18021  18020  18026  18032     1  0.0000000  0.6694400  3
  18021  18020  18019  18023     1  0.0000000  0.6508444  3
  18022  18020  18021  18025     1  0.0000000  1.0460000  1
  18022  18020  18021  18025     1  0.0000000  0.0000000  3
  18022  18020  18021  18037     1  0.0000000  1.0460000  1
  18022  18020  18021  18037     1  0.0000000  0.0000000  3
  18022  18020  18021  18024     1  0.0000000  0.6508444  3
  18022  18020  18026  18032     1  0.0000000  0.6973333  3
  18022  18020  18019  18027     1  0.0000000  1.0460000  1
  18022  18020  18019  18027     1  0.0000000  0.0000000  3
  18022  18020  18019  18023     1  0.0000000  0.6508444  3
  18023  18019  18020  18026     1  0.0000000  1.0460000  1
  18023  18019  18020  18026     1  0.0000000  0.0000000  3
  18023  18019  18027  18030     1  0.0000000  0.6973333  3
  18023  18019  18016  18028     1  0.0000000  1.0460000  1
  18023  18019  18016  18028     1  0.0000000  0.0000000  3
  18024  18021  18020  18026     1  0.0000000  0.6508444  3
  18033  18029  18035  18036     1  0.0000000  0.6973333  3
  18033  18029  18015  18037     1  0.0000000  1.0460000  1
  18033  18029  18015  18037     1  0.0000000  0.0000000  3
  18034  18029  18035  18036     1  0.0000000  0.6973333  3
  18034  18029  18015  18037     1  0.0000000  1.0460000  1
  18034  18029  18015  18037     1  0.0000000  0.0000000  3
  18038  18039  18042  18046     1  0.0000000  0.6508444  3
  18038  18039  18051  18054     1  0.0000000  1.0460000  1
  18038  18039  18051  18054     1  0.0000000  0.6694400  3
  18038  18052  18058  18059     1  0.0000000  1.0460000  1
  18038  18052  18058  18059     1  0.0000000  0.6694400  3
  18038  18060  18044  18047     1  0.0000000  1.6038667  3
  18039  18038  18052  18056     1  0.0000000  0.6508444  3
  18039  18038  18052  18057     1  0.0000000  0.6508444  3
  18039  18042  18043  18045     1  0.0000000  0.6508444  3
  18039  18042  18050  18053     1  0.0000000  1.0460000  1
  18039  18042  18050  18053     1  0.0000000  0.6694400  3
  18040  18038  18039  18042     1  0.0000000  0.6508444  3
  18040  18038  18039  18051     1  0.0000000  1.0460000  1
  18040  18038  18039  18051     1  0.0000000  0.0000000  3
  18040  18038  18039  18041     1  0.0000000  0.6508444  3
  18040  18038  18052  18058     1  0.0000000  1.0460000  1
  18040  18038  18052  18058     1  0.0000000  0.0000000  3
  18040  18038  18052  18056     1  0.0000000  0.6508444  3
  18040  18038  18052  18057     1  0.0000000  0.6508444  3
  18040  18038  18060  18044     1  0.0000000  1.6038667  3
  18041  18039  18038  18052     1  0.0000000  0.6508444  3
  18041  18039  18038  18060     1  0.0000000  1.0460000  1
  18041  18039  18038  18060     1  0.0000000  0.0000000  3
  18041  18039  18042  18043     1  0.0000000  0.6508444  3
  18041  18039  18042  18050     1  0.0000000  1.0460000  1
  18041  18039  18042  18050     1  0.0000000  0.0000000  3
  18041  18039  18042  18046     1  0.0000000  0.6508444  3
  18041  18039  18051  18054     1  0.0000000  0.6973333  3
  18042  18039  18051  18054     1  0.0000000  1.0460000  1
  18042  18039  18051  18054     1  0.0000000  0.6694400  3
  18042  18043  18044  18047     1  0.0000000  0.6508444  3
  18042  18043  18049  18055     1  0.0000000  1.0460000  1
  18042  18043  18049  18055     1  0.0000000  0.6694400  3
  18043  18042  18050  18053     1  0.0000000  1.0460000  1
  18043  18042  18050  18053     1  0.0000000  0.6694400  3
  18044  18043  18042  18046     1  0.0000000  0.6508444  3
  18044  18043  18049  18055     1  0.0000000  1.0460000  1
  18044  18043  18049  18055     1  0.0000000  0.6694400  3
  18045  18043  18042  18050     1  0.0000000  1.0460000  1
  18045  18043  18042  18050     1  0.0000000  0.0000000  3
  18045  18043  18042  18046     1  0.0000000  0.6508444  3
  18045  18043  18044  18048     1  0.0000000  1.0460000  1
  18045  18043  18044  18048     1  0.0000000  0.0000000  3
  18045  18043  18044  18060     1  0.0000000  1.0460000  1
  18045  18043  18044  18060     1  0.0000000  0.0000000  3
  18045  18043  18044  18047     1  0.0000000  0.6508444  3
  18045  18043  18049  18055     1  0.0000000  0.6973333  3
  18046  18042  18039  18051     1  0.0000000  1.0460000  1
  18046  18042  18039  18051     1  0.0000000  0.0000000  3
  18046  18042  18043  18049     1  0.0000000  1.0460000  1
  18046  18042  18043  18049     1  0.0000000  0.0000000  3
  18046  18042  18050  18053     1  0.0000000  0.6973333  3
  18047  18044  18043  18049     1  0.0000000  0.6508444  3
  18056  18052  18038  18060     1  0.0000000  1.0460000  1
  18056  18052  18038  18060     1  0.0000000  0.0000000  3
  18056  18052  18058  18059     1  0.0000000  0.6973333  3
  18057  18052  18038  18060     1  0.0000000  1.0460000  1
  18057  18052  18038  18060     1  0.0000000  0.0000000  3
  18057  18052  18058  18059     1  0.0000000  0.6973333  3
  18061  18062  18065  18069     1  0.0000000  0.6508444  3
  18061  18062  18074  18077     1  0.0000000  1.0460000  1
  18061  18062  18074  18077     1  0.0000000  0.6694400  3
  18061  18075  18081  18082     1  0.0000000  1.0460000  1
  18061  18075  18081  18082     1  0.0000000  0.6694400  3
  18061  18083  18067  18070     1  0.0000000  1.6038667  3
  18062  18065  18066  18068     1  0.0000000  0.6508444  3
  18062  18065  18073  18076     1  0.0000000  1.0460000  1
  18062  18065  18073  18076     1  0.0000000  0.6694400  3
  18062  18061  18075  18079     1  0.0000000  0.6508444  3
  18062  18061  18075  18080     1  0.0000000  0.6508444  3
  18063  18061  18062  18065     1  0.0000000  0.6508444  3
  18063  18061  18062  18074     1  0.0000000  1.0460000  1
  18063  18061  18062  18074     1  0.0000000  0.0000000  3
  18063  18061  18062  18064     1  0.0000000  0.6508444  3
  18063  18061  18075  18081     1  0.0000000  1.0460000  1
  18063  18061  18075  18081     1  0.0000000  0.0000000  3
  18063  18061  18075  18079     1  0.0000000  0.6508444  3
  18063  18061  18075  18080     1  0.0000000  0.6508444  3
  18063  18061  18083  18067     1  0.0000000  1.6038667  3
  18064  18062  18065  18066     1  0.0000000  0.6508444  3
  18064  18062  18065  18073     1  0.0000000  1.0460000  1
  18064  18062  18065  18073     1  0.0000000  0.0000000  3
  18064  18062  18065  18069     1  0.0000000  0.6508444  3
  18064  18062  18074  18077     1  0.0000000  0.6973333  3
  18064  18062  18061  18075     1  0.0000000  0.6508444  3
  18064  18062  18061  18083     1  0.0000000  1.0460000  1
  18064  18062  18061  18083     1  0.0000000  0.0000000  3
  18065  18066  18067  18070     1  0.0000000  0.6508444  3
  18065  18066  18072  18078     1  0.0000000  1.0460000  1
  18065  18066  18072  18078     1  0.0000000  0.6694400  3
  18065  18062  18074  18077     1  0.0000000  1.0460000  1
  18065  18062  18074  18077     1  0.0000000  0.6694400  3
  18066  18065  18073  18076     1  0.0000000  1.0460000  1
  18066  18065  18073  18076     1  0.0000000  0.6694400  3
  18067  18066  18072  18078     1  0.0000000  1.0460000  1
  18067  18066  18072  18078     1  0.0000000  0.6694400  3
  18067  18066  18065  18069     1  0.0000000  0.6508444  3
  18068  18066  18067  18071     1  0.0000000  1.0460000  1
  18068  18066  18067  18071     1  0.0000000  0.0000000  3
  18068  18066  18067  18083     1  0.0000000  1.0460000  1
  18068  18066  18067  18083     1  0.0000000  0.0000000  3
  18068  18066  18067  18070     1  0.0000000  0.6508444  3
  18068  18066  18072  18078     1  0.0000000  0.6973333  3
  18068  18066  18065  18073     1  0.0000000  1.0460000  1
  18068  18066  18065  18073     1  0.0000000  0.0000000  3
  18068  18066  18065  18069     1  0.0000000  0.6508444  3
  18069  18065  18066  18072     1  0.0000000  1.0460000  1
  18069  18065  18066  18072     1  0.0000000  0.0000000  3
  18069  18065  18073  18076     1  0.0000000  0.6973333  3
  18069  18065  18062  18074     1  0.0000000  1.0460000  1
  18069  18065  18062  18074     1  0.0000000  0.0000000  3
  18070  18067  18066  18072     1  0.0000000  0.6508444  3
  18079  18075  18081  18082     1  0.0000000  0.6973333  3
  18079  18075  18061  18083     1  0.0000000  1.0460000  1
  18079  18075  18061  18083     1  0.0000000  0.0000000  3
  18080  18075  18081  18082     1  0.0000000  0.6973333  3
  18080  18075  18061  18083     1  0.0000000  1.0460000  1
  18080  18075  18061  18083     1  0.0000000  0.0000000  3
  18084  18085  18088  18092     1  0.0000000  0.6508444  3
  18084  18085  18097  18100     1  0.0000000  1.0460000  1
  18084  18085  18097  18100     1  0.0000000  0.6694400  3
  18084  18098  18104  18105     1  0.0000000  1.0460000  1
  18084  18098  18104  18105     1  0.0000000  0.6694400  3
  18084  18106  18090  18093     1  0.0000000  1.6038667  3
  18085  18084  18098  18102     1  0.0000000  0.6508444  3
  18085  18084  18098  18103     1  0.0000000  0.6508444  3
  18085  18088  18089  18091     1  0.0000000  0.6508444  3
  18085  18088  18096  18099     1  0.0000000  1.0460000  1
  18085  18088  18096  18099     1  0.0000000  0.6694400  3
  18086  18084  18085  18088     1  0.0000000  0.6508444  3
  18086  18084  18085  18097     1  0.0000000  1.0460000  1
  18086  18084  18085  18097     1  0.0000000  0.0000000  3
  18086  18084  18085  18087     1  0.0000000  0.6508444  3
  18086  18084  18098  18104     1  0.0000000  1.0460000  1
  18086  18084  18098  18104     1  0.0000000  0.0000000  3
  18086  18084  18098  18102     1  0.0000000  0.6508444  3
  18086  18084  18098  18103     1  0.0000000  0.6508444  3
  18086  18084  18106  18090     1  0.0000000  1.6038667  3
  18087  18085  18084  18098     1  0.0000000  0.6508444  3
  18087  18085  18084  18106     1  0.0000000  1.0460000  1
  18087  18085  18084  18106     1  0.0000000  0.0000000  3
  18087  18085  18088  18089     1  0.0000000  0.6508444  3
  18087  18085  18088  18096     1  0.0000000  1.0460000  1
  18087  18085  18088  18096     1  0.0000000  0.0000000  3
  18087  18085  18088  18092     1  0.0000000  0.6508444  3
  18087  18085  18097  18100     1  0.0000000  0.6973333  3
  18088  18085  18097  18100     1  0.0000000  1.0460000  1
  18088  18085  18097  18100     1  0.0000000  0.6694400  3
  18088  18089  18090  18093     1  0.0000000  0.6508444  3
  18088  18089  18095  18101     1  0.0000000  1.0460000  1
  18088  18089  18095  18101     1  0.0000000  0.6694400  3
  18089  18088  18096  18099     1  0.0000000  1.0460000  1
  18089  18088  18096  18099     1  0.0000000  0.6694400  3
  18090  18089  18088  18092     1  0.0000000  0.6508444  3
  18090  18089  18095  18101     1  0.0000000  1.0460000  1
  18090  18089  18095  18101     1  0.0000000  0.6694400  3
  18091  18089  18088  18096     1  0.0000000  1.0460000  1
  18091  18089  18088  18096     1  0.0000000  0.0000000  3
  18091  18089  18088  18092     1  0.0000000  0.6508444  3
  18091  18089  18090  18094     1  0.0000000  1.0460000  1
  18091  18089  18090  18094     1  0.0000000  0.0000000  3
  18091  18089  18090  18106     1  0.0000000  1.0460000  1
  18091  18089  18090  18106     1  0.0000000  0.0000000  3
  18091  18089  18090  18093     1  0.0000000  0.6508444  3
  18091  18089  18095  18101     1  0.0000000  0.6973333  3
  18092  18088  18085  18097     1  0.0000000  1.0460000  1
  18092  18088  18085  18097     1  0.0000000  0.0000000  3
  18092  18088  18089  18095     1  0.0000000  1.0460000  1
  18092  18088  18089  18095     1  0.0000000  0.0000000  3
  18092  18088  18096  18099     1  0.0000000  0.6973333  3
  18093  18090  18089  18095     1  0.0000000  0.6508444  3
  18102  18098  18084  18106     1  0.0000000  1.0460000  1
  18102  18098  18084  18106     1  0.0000000  0.0000000  3
  18102  18098  18104  18105     1  0.0000000  0.6973333  3
  18103  18098  18084  18106     1  0.0000000  1.0460000  1
  18103  18098  18084  18106     1  0.0000000  0.0000000  3
  18103  18098  18104  18105     1  0.0000000  0.6973333  3
  18107  18108  18111  18115     1  0.0000000  0.6508444  3
  18107  18108  18120  18123     1  0.0000000  1.0460000  1
  18107  18108  18120  18123     1  0.0000000  0.6694400  3
  18107  18121  18127  18128     1  0.0000000  1.0460000  1
  18107  18121  18127  18128     1  0.0000000  0.6694400  3
  18107  18129  18113  18116     1  0.0000000  1.6038667  3
  18108  18111  18112  18114     1  0.0000000  0.6508444  3
  18108  18111  18119  18122     1  0.0000000  1.0460000  1
  18108  18111  18119  18122     1  0.0000000  0.6694400  3
  18108  18107  18121  18125     1  0.0000000  0.6508444  3
  18108  18107  18121  18126     1  0.0000000  0.6508444  3
  18109  18107  18108  18111     1  0.0000000  0.6508444  3
  18109  18107  18108  18120     1  0.0000000  1.0460000  1
  18109  18107  18108  18120     1  0.0000000  0.0000000  3
  18109  18107  18108  18110     1  0.0000000  0.6508444  3
  18109  18107  18121  18127     1  0.0000000  1.0460000  1
  18109  18107  18121  18127     1  0.0000000  0.0000000  3
  18109  18107  18121  18125     1  0.0000000  0.6508444  3
  18109  18107  18121  18126     1  0.0000000  0.6508444  3
  18109  18107  18129  18113     1  0.0000000  1.6038667  3
  18110  18108  18111  18112     1  0.0000000  0.6508444  3
  18110  18108  18111  18119     1  0.0000000  1.0460000  1
  18110  18108  18111  18119     1  0.0000000  0.0000000  3
  18110  18108  18111  18115     1  0.0000000  0.6508444  3
  18110  18108  18120  18123     1  0.0000000  0.6973333  3
  18110  18108  18107  18121     1  0.0000000  0.6508444  3
  18110  18108  18107  18129     1  0.0000000  1.0460000  1
  18110  18108  18107  18129     1  0.0000000  0.0000000  3
  18111  18112  18113  18116     1  0.0000000  0.6508444  3
  18111  18112  18118  18124     1  0.0000000  1.0460000  1
  18111  18112  18118  18124     1  0.0000000  0.6694400  3
  18111  18108  18120  18123     1  0.0000000  1.0460000  1
  18111  18108  18120  18123     1  0.0000000  0.6694400  3
  18112  18111  18119  18122     1  0.0000000  1.0460000  1
  18112  18111  18119  18122     1  0.0000000  0.6694400  3
  18113  18112  18118  18124     1  0.0000000  1.0460000  1
  18113  18112  18118  18124     1  0.0000000  0.6694400  3
  18113  18112  18111  18115     1  0.0000000  0.6508444  3
  18114  18112  18113  18117     1  0.0000000  1.0460000  1
  18114  18112  18113  18117     1  0.0000000  0.0000000  3
  18114  18112  18113  18129     1  0.0000000  1.0460000  1
  18114  18112  18113  18129     1  0.0000000  0.0000000  3
  18114  18112  18113  18116     1  0.0000000  0.6508444  3
  18114  18112  18118  18124     1  0.0000000  0.6973333  3
  18114  18112  18111  18119     1  0.0000000  1.0460000  1
  18114  18112  18111  18119     1  0.0000000  0.0000000  3
  18114  18112  18111  18115     1  0.0000000  0.6508444  3
  18115  18111  18112  18118     1  0.0000000  1.0460000  1
  18115  18111  18112  18118     1  0.0000000  0.0000000  3
  18115  18111  18119  18122     1  0.0000000  0.6973333  3
  18115  18111  18108  18120     1  0.0000000  1.0460000  1
  18115  18111  18108  18120     1  0.0000000  0.0000000  3
  18116  18113  18112  18118     1  0.0000000  0.6508444  3
  18125  18121  18127  18128     1  0.0000000  0.6973333  3
  18125  18121  18107  18129     1  0.0000000  1.0460000  1
  18125  18121  18107  18129     1  0.0000000  0.0000000  3
  18126  18121  18127  18128     1  0.0000000  0.6973333  3
  18126  18121  18107  18129     1  0.0000000  1.0460000  1
  18126  18121  18107  18129     1  0.0000000  0.0000000  3
  18130  18131  18134  18138     1  0.0000000  0.6508444  3
  18130  18131  18143  18146     1  0.0000000  1.0460000  1
  18130  18131  18143  18146     1  0.0000000  0.6694400  3
  18130  18144  18150  18151     1  0.0000000  1.0460000  1
  18130  18144  18150  18151     1  0.0000000  0.6694400  3
  18130  18152  18136  18139     1  0.0000000  1.6038667  3
  18131  18130  18144  18148     1  0.0000000  0.6508444  3
  18131  18130  18144  18149     1  0.0000000  0.6508444  3
  18131  18134  18135  18137     1  0.0000000  0.6508444  3
  18131  18134  18142  18145     1  0.0000000  1.0460000  1
  18131  18134  18142  18145     1  0.0000000  0.6694400  3
  18132  18130  18131  18134     1  0.0000000  0.6508444  3
  18132  18130  18131  18143     1  0.0000000  1.0460000  1
  18132  18130  18131  18143     1  0.0000000  0.0000000  3
  18132  18130  18131  18133     1  0.0000000  0.6508444  3
  18132  18130  18144  18150     1  0.0000000  1.0460000  1
  18132  18130  18144  18150     1  0.0000000  0.0000000  3
  18132  18130  18144  18148     1  0.0000000  0.6508444  3
  18132  18130  18144  18149     1  0.0000000  0.6508444  3
  18132  18130  18152  18136     1  0.0000000  1.6038667  3
  18133  18131  18130  18144     1  0.0000000  0.6508444  3
  18133  18131  18130  18152     1  0.0000000  1.0460000  1
  18133  18131  18130  18152     1  0.0000000  0.0000000  3
  18133  18131  18134  18135     1  0.0000000  0.6508444  3
  18133  18131  18134  18142     1  0.0000000  1.0460000  1
  18133  18131  18134  18142     1  0.0000000  0.0000000  3
  18133  18131  18134  18138     1  0.0000000  0.6508444  3
  18133  18131  18143  18146     1  0.0000000  0.6973333  3
  18134  18131  18143  18146     1  0.0000000  1.0460000  1
  18134  18131  18143  18146     1  0.0000000  0.6694400  3
  18134  18135  18136  18139     1  0.0000000  0.6508444  3
  18134  18135  18141  18147     1  0.0000000  1.0460000  1
  18134  18135  18141  18147     1  0.0000000  0.6694400  3
  18135  18134  18142  18145     1  0.0000000  1.0460000  1
  18135  18134  18142  18145     1  0.0000000  0.6694400  3
  18136  18135  18134  18138     1  0.0000000  0.6508444  3
  18136  18135  18141  18147     1  0.0000000  1.0460000  1
  18136  18135  18141  18147     1  0.0000000  0.6694400  3
  18137  18135  18134  18142     1  0.0000000  1.0460000  1
  18137  18135  18134  18142     1  0.0000000  0.0000000  3
  18137  18135  18134  18138     1  0.0000000  0.6508444  3
  18137  18135  18136  18140     1  0.0000000  1.0460000  1
  18137  18135  18136  18140     1  0.0000000  0.0000000  3
  18137  18135  18136  18152     1  0.0000000  1.0460000  1
  18137  18135  18136  18152     1  0.0000000  0.0000000  3
  18137  18135  18136  18139     1  0.0000000  0.6508444  3
  18137  18135  18141  18147     1  0.0000000  0.6973333  3
  18138  18134  18131  18143     1  0.0000000  1.0460000  1
  18138  18134  18131  18143     1  0.0000000  0.0000000  3
  18138  18134  18135  18141     1  0.0000000  1.0460000  1
  18138  18134  18135  18141     1  0.0000000  0.0000000  3
  18138  18134  18142  18145     1  0.0000000  0.6973333  3
  18139  18136  18135  18141     1  0.0000000  0.6508444  3
  18148  18144  18130  18152     1  0.0000000  1.0460000  1
  18148  18144  18130  18152     1  0.0000000  0.0000000  3
  18148  18144  18150  18151     1  0.0000000  0.6973333  3
  18149  18144  18130  18152     1  0.0000000  1.0460000  1
  18149  18144  18130  18152     1  0.0000000  0.0000000  3
  18149  18144  18150  18151     1  0.0000000  0.6973333  3
  18153  18154  18157  18161     1  0.0000000  0.6508444  3
  18153  18154  18166  18169     1  0.0000000  1.0460000  1
  18153  18154  18166  18169     1  0.0000000  0.6694400  3
  18153  18167  18173  18174     1  0.0000000  1.0460000  1
  18153  18167  18173  18174     1  0.0000000  0.6694400  3
  18153  18175  18159  18162     1  0.0000000  1.6038667  3
  18154  18157  18158  18160     1  0.0000000  0.6508444  3
  18154  18157  18165  18168     1  0.0000000  1.0460000  1
  18154  18157  18165  18168     1  0.0000000  0.6694400  3
  18154  18153  18167  18171     1  0.0000000  0.6508444  3
  18154  18153  18167  18172     1  0.0000000  0.6508444  3
  18155  18153  18154  18157     1  0.0000000  0.6508444  3
  18155  18153  18154  18166     1  0.0000000  1.0460000  1
  18155  18153  18154  18166     1  0.0000000  0.0000000  3
  18155  18153  18154  18156     1  0.0000000  0.6508444  3
  18155  18153  18167  18173     1  0.0000000  1.0460000  1
  18155  18153  18167  18173     1  0.0000000  0.0000000  3
  18155  18153  18167  18171     1  0.0000000  0.6508444  3
  18155  18153  18167  18172     1  0.0000000  0.6508444  3
  18155  18153  18175  18159     1  0.0000000  1.6038667  3
  18156  18154  18157  18158     1  0.0000000  0.6508444  3
  18156  18154  18157  18165     1  0.0000000  1.0460000  1
  18156  18154  18157  18165     1  0.0000000  0.0000000  3
  18156  18154  18157  18161     1  0.0000000  0.6508444  3
  18156  18154  18166  18169     1  0.0000000  0.6973333  3
  18156  18154  18153  18167     1  0.0000000  0.6508444  3
  18156  18154  18153  18175     1  0.0000000  1.0460000  1
  18156  18154  18153  18175     1  0.0000000  0.0000000  3
  18157  18158  18159  18162     1  0.0000000  0.6508444  3
  18157  18158  18164  18170     1  0.0000000  1.0460000  1
  18157  18158  18164  18170     1  0.0000000  0.6694400  3
  18157  18154  18166  18169     1  0.0000000  1.0460000  1
  18157  18154  18166  18169     1  0.0000000  0.6694400  3
  18158  18157  18165  18168     1  0.0000000  1.0460000  1
  18158  18157  18165  18168     1  0.0000000  0.6694400  3
  18159  18158  18164  18170     1  0.0000000  1.0460000  1
  18159  18158  18164  18170     1  0.0000000  0.6694400  3
  18159  18158  18157  18161     1  0.0000000  0.6508444  3
  18160  18158  18159  18163     1  0.0000000  1.0460000  1
  18160  18158  18159  18163     1  0.0000000  0.0000000  3
  18160  18158  18159  18175     1  0.0000000  1.0460000  1
  18160  18158  18159  18175     1  0.0000000  0.0000000  3
  18160  18158  18159  18162     1  0.0000000  0.6508444  3
  18160  18158  18164  18170     1  0.0000000  0.6973333  3
  18160  18158  18157  18165     1  0.0000000  1.0460000  1
  18160  18158  18157  18165     1  0.0000000  0.0000000  3
  18160  18158  18157  18161     1  0.0000000  0.6508444  3
  18161  18157  18158  18164     1  0.0000000  1.0460000  1
  18161  18157  18158  18164     1  0.0000000  0.0000000  3
  18161  18157  18165  18168     1  0.0000000  0.6973333  3
  18161  18157  18154  18166     1  0.0000000  1.0460000  1
  18161  18157  18154  18166     1  0.0000000  0.0000000  3
  18162  18159  18158  18164     1  0.0000000  0.6508444  3
  18171  18167  18173  18174     1  0.0000000  0.6973333  3
  18171  18167  18153  18175     1  0.0000000  1.0460000  1
  18171  18167  18153  18175     1  0.0000000  0.0000000  3
  18172  18167  18173  18174     1  0.0000000  0.6973333  3
  18172  18167  18153  18175     1  0.0000000  1.0460000  1
  18172  18167  18153  18175     1  0.0000000  0.0000000  3
  18176  18177  18180  18184     1  0.0000000  0.6508444  3
  18176  18177  18189  18192     1  0.0000000  1.0460000  1
  18176  18177  18189  18192     1  0.0000000  0.6694400  3
  18176  18190  18196  18197     1  0.0000000  1.0460000  1
  18176  18190  18196  18197     1  0.0000000  0.6694400  3
  18176  18198  18182  18185     1  0.0000000  1.6038667  3
  18177  18176  18190  18194     1  0.0000000  0.6508444  3
  18177  18176  18190  18195     1  0.0000000  0.6508444  3
  18177  18180  18181  18183     1  0.0000000  0.6508444  3
  18177  18180  18188  18191     1  0.0000000  1.0460000  1
  18177  18180  18188  18191     1  0.0000000  0.6694400  3
  18178  18176  18177  18180     1  0.0000000  0.6508444  3
  18178  18176  18177  18189     1  0.0000000  1.0460000  1
  18178  18176  18177  18189     1  0.0000000  0.0000000  3
  18178  18176  18177  18179     1  0.0000000  0.6508444  3
  18178  18176  18190  18196     1  0.0000000  1.0460000  1
  18178  18176  18190  18196     1  0.0000000  0.0000000  3
  18178  18176  18190  18194     1  0.0000000  0.6508444  3
  18178  18176  18190  18195     1  0.0000000  0.6508444  3
  18178  18176  18198  18182     1  0.0000000  1.6038667  3
  18179  18177  18176  18190     1  0.0000000  0.6508444  3
  18179  18177  18176  18198     1  0.0000000  1.0460000  1
  18179  18177  18176  18198     1  0.0000000  0.0000000  3
  18179  18177  18180  18181     1  0.0000000  0.6508444  3
  18179  18177  18180  18188     1  0.0000000  1.0460000  1
  18179  18177  18180  18188     1  0.0000000  0.0000000  3
  18179  18177  18180  18184     1  0.0000000  0.6508444  3
  18179  18177  18189  18192     1  0.0000000  0.6973333  3
  18180  18177  18189  18192     1  0.0000000  1.0460000  1
  18180  18177  18189  18192     1  0.0000000  0.6694400  3
  18180  18181  18182  18185     1  0.0000000  0.6508444  3
  18180  18181  18187  18193     1  0.0000000  1.0460000  1
  18180  18181  18187  18193     1  0.0000000  0.6694400  3
  18181  18180  18188  18191     1  0.0000000  1.0460000  1
  18181  18180  18188  18191     1  0.0000000  0.6694400  3
  18182  18181  18180  18184     1  0.0000000  0.6508444  3
  18182  18181  18187  18193     1  0.0000000  1.0460000  1
  18182  18181  18187  18193     1  0.0000000  0.6694400  3
  18183  18181  18180  18188     1  0.0000000  1.0460000  1
  18183  18181  18180  18188     1  0.0000000  0.0000000  3
  18183  18181  18180  18184     1  0.0000000  0.6508444  3
  18183  18181  18182  18186     1  0.0000000  1.0460000  1
  18183  18181  18182  18186     1  0.0000000  0.0000000  3
  18183  18181  18182  18198     1  0.0000000  1.0460000  1
  18183  18181  18182  18198     1  0.0000000  0.0000000  3
  18183  18181  18182  18185     1  0.0000000  0.6508444  3
  18183  18181  18187  18193     1  0.0000000  0.6973333  3
  18184  18180  18177  18189     1  0.0000000  1.0460000  1
  18184  18180  18177  18189     1  0.0000000  0.0000000  3
  18184  18180  18181  18187     1  0.0000000  1.0460000  1
  18184  18180  18181  18187     1  0.0000000  0.0000000  3
  18184  18180  18188  18191     1  0.0000000  0.6973333  3
  18185  18182  18181  18187     1  0.0000000  0.6508444  3
  18194  18190  18176  18198     1  0.0000000  1.0460000  1
  18194  18190  18176  18198     1  0.0000000  0.0000000  3
  18194  18190  18196  18197     1  0.0000000  0.6973333  3
  18195  18190  18176  18198     1  0.0000000  1.0460000  1
  18195  18190  18176  18198     1  0.0000000  0.0000000  3
  18195  18190  18196  18197     1  0.0000000  0.6973333  3
  18199  18200  18203  18207     1  0.0000000  0.6508444  3
  18199  18200  18212  18215     1  0.0000000  1.0460000  1
  18199  18200  18212  18215     1  0.0000000  0.6694400  3
  18199  18213  18219  18220     1  0.0000000  1.0460000  1
  18199  18213  18219  18220     1  0.0000000  0.6694400  3
  18199  18221  18205  18208     1  0.0000000  1.6038667  3
  18200  18203  18204  18206     1  0.0000000  0.6508444  3
  18200  18203  18211  18214     1  0.0000000  1.0460000  1
  18200  18203  18211  18214     1  0.0000000  0.6694400  3
  18200  18199  18213  18217     1  0.0000000  0.6508444  3
  18200  18199  18213  18218     1  0.0000000  0.6508444  3
  18201  18199  18200  18203     1  0.0000000  0.6508444  3
  18201  18199  18200  18212     1  0.0000000  1.0460000  1
  18201  18199  18200  18212     1  0.0000000  0.0000000  3
  18201  18199  18200  18202     1  0.0000000  0.6508444  3
  18201  18199  18213  18219     1  0.0000000  1.0460000  1
  18201  18199  18213  18219     1  0.0000000  0.0000000  3
  18201  18199  18213  18217     1  0.0000000  0.6508444  3
  18201  18199  18213  18218     1  0.0000000  0.6508444  3
  18201  18199  18221  18205     1  0.0000000  1.6038667  3
  18202  18200  18203  18204     1  0.0000000  0.6508444  3
  18202  18200  18203  18211     1  0.0000000  1.0460000  1
  18202  18200  18203  18211     1  0.0000000  0.0000000  3
  18202  18200  18203  18207     1  0.0000000  0.6508444  3
  18202  18200  18212  18215     1  0.0000000  0.6973333  3
  18202  18200  18199  18213     1  0.0000000  0.6508444  3
  18202  18200  18199  18221     1  0.0000000  1.0460000  1
  18202  18200  18199  18221     1  0.0000000  0.0000000  3
  18203  18204  18205  18208     1  0.0000000  0.6508444  3
  18203  18204  18210  18216     1  0.0000000  1.0460000  1
  18203  18204  18210  18216     1  0.0000000  0.6694400  3
  18203  18200  18212  18215     1  0.0000000  1.0460000  1
  18203  18200  18212  18215     1  0.0000000  0.6694400  3
  18204  18203  18211  18214     1  0.0000000  1.0460000  1
  18204  18203  18211  18214     1  0.0000000  0.6694400  3
  18205  18204  18210  18216     1  0.0000000  1.0460000  1
  18205  18204  18210  18216     1  0.0000000  0.6694400  3
  18205  18204  18203  18207     1  0.0000000  0.6508444  3
  18206  18204  18205  18209     1  0.0000000  1.0460000  1
  18206  18204  18205  18209     1  0.0000000  0.0000000  3
  18206  18204  18205  18221     1  0.0000000  1.0460000  1
  18206  18204  18205  18221     1  0.0000000  0.0000000  3
  18206  18204  18205  18208     1  0.0000000  0.6508444  3
  18206  18204  18210  18216     1  0.0000000  0.6973333  3
  18206  18204  18203  18211     1  0.0000000  1.0460000  1
  18206  18204  18203  18211     1  0.0000000  0.0000000  3
  18206  18204  18203  18207     1  0.0000000  0.6508444  3
  18207  18203  18204  18210     1  0.0000000  1.0460000  1
  18207  18203  18204  18210     1  0.0000000  0.0000000  3
  18207  18203  18211  18214     1  0.0000000  0.6973333  3
  18207  18203  18200  18212     1  0.0000000  1.0460000  1
  18207  18203  18200  18212     1  0.0000000  0.0000000  3
  18208  18205  18204  18210     1  0.0000000  0.6508444  3
  18217  18213  18219  18220     1  0.0000000  0.6973333  3
  18217  18213  18199  18221     1  0.0000000  1.0460000  1
  18217  18213  18199  18221     1  0.0000000  0.0000000  3
  18218  18213  18219  18220     1  0.0000000  0.6973333  3
  18218  18213  18199  18221     1  0.0000000  1.0460000  1
  18218  18213  18199  18221     1  0.0000000  0.0000000  3
  18222  18223  18226  18230     1  0.0000000  0.6508444  3
  18222  18223  18235  18238     1  0.0000000  1.0460000  1
  18222  18223  18235  18238     1  0.0000000  0.6694400  3
  18222  18236  18242  18243     1  0.0000000  1.0460000  1
  18222  18236  18242  18243     1  0.0000000  0.6694400  3
  18222  18244  18228  18231     1  0.0000000  1.6038667  3
  18223  18222  18236  18240     1  0.0000000  0.6508444  3
  18223  18222  18236  18241     1  0.0000000  0.6508444  3
  18223  18226  18227  18229     1  0.0000000  0.6508444  3
  18223  18226  18234  18237     1  0.0000000  1.0460000  1
  18223  18226  18234  18237     1  0.0000000  0.6694400  3
  18224  18222  18223  18226     1  0.0000000  0.6508444  3
  18224  18222  18223  18235     1  0.0000000  1.0460000  1
  18224  18222  18223  18235     1  0.0000000  0.0000000  3
  18224  18222  18223  18225     1  0.0000000  0.6508444  3
  18224  18222  18236  18242     1  0.0000000  1.0460000  1
  18224  18222  18236  18242     1  0.0000000  0.0000000  3
  18224  18222  18236  18240     1  0.0000000  0.6508444  3
  18224  18222  18236  18241     1  0.0000000  0.6508444  3
  18224  18222  18244  18228     1  0.0000000  1.6038667  3
  18225  18223  18222  18236     1  0.0000000  0.6508444  3
  18225  18223  18222  18244     1  0.0000000  1.0460000  1
  18225  18223  18222  18244     1  0.0000000  0.0000000  3
  18225  18223  18226  18227     1  0.0000000  0.6508444  3
  18225  18223  18226  18234     1  0.0000000  1.0460000  1
  18225  18223  18226  18234     1  0.0000000  0.0000000  3
  18225  18223  18226  18230     1  0.0000000  0.6508444  3
  18225  18223  18235  18238     1  0.0000000  0.6973333  3
  18226  18223  18235  18238     1  0.0000000  1.0460000  1
  18226  18223  18235  18238     1  0.0000000  0.6694400  3
  18226  18227  18228  18231     1  0.0000000  0.6508444  3
  18226  18227  18233  18239     1  0.0000000  1.0460000  1
  18226  18227  18233  18239     1  0.0000000  0.6694400  3
  18227  18226  18234  18237     1  0.0000000  1.0460000  1
  18227  18226  18234  18237     1  0.0000000  0.6694400  3
  18228  18227  18226  18230     1  0.0000000  0.6508444  3
  18228  18227  18233  18239     1  0.0000000  1.0460000  1
  18228  18227  18233  18239     1  0.0000000  0.6694400  3
  18229  18227  18226  18234     1  0.0000000  1.0460000  1
  18229  18227  18226  18234     1  0.0000000  0.0000000  3
  18229  18227  18226  18230     1  0.0000000  0.6508444  3
  18229  18227  18228  18232     1  0.0000000  1.0460000  1
  18229  18227  18228  18232     1  0.0000000  0.0000000  3
  18229  18227  18228  18244     1  0.0000000  1.0460000  1
  18229  18227  18228  18244     1  0.0000000  0.0000000  3
  18229  18227  18228  18231     1  0.0000000  0.6508444  3
  18229  18227  18233  18239     1  0.0000000  0.6973333  3
  18230  18226  18223  18235     1  0.0000000  1.0460000  1
  18230  18226  18223  18235     1  0.0000000  0.0000000  3
  18230  18226  18227  18233     1  0.0000000  1.0460000  1
  18230  18226  18227  18233     1  0.0000000  0.0000000  3
  18230  18226  18234  18237     1  0.0000000  0.6973333  3
  18231  18228  18227  18233     1  0.0000000  0.6508444  3
  18240  18236  18222  18244     1  0.0000000  1.0460000  1
  18240  18236  18222  18244     1  0.0000000  0.0000000  3
  18240  18236  18242  18243     1  0.0000000  0.6973333  3
  18241  18236  18222  18244     1  0.0000000  1.0460000  1
  18241  18236  18222  18244     1  0.0000000  0.0000000  3
  18241  18236  18242  18243     1  0.0000000  0.6973333  3
  18245  18246  18249  18253     1  0.0000000  0.6508444  3
  18245  18246  18258  18261     1  0.0000000  1.0460000  1
  18245  18246  18258  18261     1  0.0000000  0.6694400  3
  18245  18259  18265  18266     1  0.0000000  1.0460000  1
  18245  18259  18265  18266     1  0.0000000  0.6694400  3
  18245  18267  18251  18254     1  0.0000000  1.6038667  3
  18246  18249  18250  18252     1  0.0000000  0.6508444  3
  18246  18249  18257  18260     1  0.0000000  1.0460000  1
  18246  18249  18257  18260     1  0.0000000  0.6694400  3
  18246  18245  18259  18263     1  0.0000000  0.6508444  3
  18246  18245  18259  18264     1  0.0000000  0.6508444  3
  18247  18245  18246  18249     1  0.0000000  0.6508444  3
  18247  18245  18246  18258     1  0.0000000  1.0460000  1
  18247  18245  18246  18258     1  0.0000000  0.0000000  3
  18247  18245  18246  18248     1  0.0000000  0.6508444  3
  18247  18245  18259  18265     1  0.0000000  1.0460000  1
  18247  18245  18259  18265     1  0.0000000  0.0000000  3
  18247  18245  18259  18263     1  0.0000000  0.6508444  3
  18247  18245  18259  18264     1  0.0000000  0.6508444  3
  18247  18245  18267  18251     1  0.0000000  1.6038667  3
  18248  18246  18249  18250     1  0.0000000  0.6508444  3
  18248  18246  18249  18257     1  0.0000000  1.0460000  1
  18248  18246  18249  18257     1  0.0000000  0.0000000  3
  18248  18246  18249  18253     1  0.0000000  0.6508444  3
  18248  18246  18258  18261     1  0.0000000  0.6973333  3
  18248  18246  18245  18259     1  0.0000000  0.6508444  3
  18248  18246  18245  18267     1  0.0000000  1.0460000  1
  18248  18246  18245  18267     1  0.0000000  0.0000000  3
  18249  18250  18251  18254     1  0.0000000  0.6508444  3
  18249  18250  18256  18262     1  0.0000000  1.0460000  1
  18249  18250  18256  18262     1  0.0000000  0.6694400  3
  18249  18246  18258  18261     1  0.0000000  1.0460000  1
  18249  18246  18258  18261     1  0.0000000  0.6694400  3
  18250  18249  18257  18260     1  0.0000000  1.0460000  1
  18250  18249  18257  18260     1  0.0000000  0.6694400  3
  18251  18250  18256  18262     1  0.0000000  1.0460000  1
  18251  18250  18256  18262     1  0.0000000  0.6694400  3
  18251  18250  18249  18253     1  0.0000000  0.6508444  3
  18252  18250  18251  18255     1  0.0000000  1.0460000  1
  18252  18250  18251  18255     1  0.0000000  0.0000000  3
  18252  18250  18251  18267     1  0.0000000  1.0460000  1
  18252  18250  18251  18267     1  0.0000000  0.0000000  3
  18252  18250  18251  18254     1  0.0000000  0.6508444  3
  18252  18250  18256  18262     1  0.0000000  0.6973333  3
  18252  18250  18249  18257     1  0.0000000  1.0460000  1
  18252  18250  18249  18257     1  0.0000000  0.0000000  3
  18252  18250  18249  18253     1  0.0000000  0.6508444  3
  18253  18249  18250  18256     1  0.0000000  1.0460000  1
  18253  18249  18250  18256     1  0.0000000  0.0000000  3
  18253  18249  18257  18260     1  0.0000000  0.6973333  3
  18253  18249  18246  18258     1  0.0000000  1.0460000  1
  18253  18249  18246  18258     1  0.0000000  0.0000000  3
  18254  18251  18250  18256     1  0.0000000  0.6508444  3
  18263  18259  18265  18266     1  0.0000000  0.6973333  3
  18263  18259  18245  18267     1  0.0000000  1.0460000  1
  18263  18259  18245  18267     1  0.0000000  0.0000000  3
  18264  18259  18265  18266     1  0.0000000  0.6973333  3
  18264  18259  18245  18267     1  0.0000000  1.0460000  1
  18264  18259  18245  18267     1  0.0000000  0.0000000  3
  18268  18269  18272  18276     1  0.0000000  0.6508444  3
  18268  18269  18281  18284     1  0.0000000  1.0460000  1
  18268  18269  18281  18284     1  0.0000000  0.6694400  3
  18268  18282  18288  18289     1  0.0000000  1.0460000  1
  18268  18282  18288  18289     1  0.0000000  0.6694400  3
  18268  18290  18274  18277     1  0.0000000  1.6038667  3
  18269  18268  18282  18286     1  0.0000000  0.6508444  3
  18269  18268  18282  18287     1  0.0000000  0.6508444  3
  18269  18272  18273  18275     1  0.0000000  0.6508444  3
  18269  18272  18280  18283     1  0.0000000  1.0460000  1
  18269  18272  18280  18283     1  0.0000000  0.6694400  3
  18270  18268  18269  18272     1  0.0000000  0.6508444  3
  18270  18268  18269  18281     1  0.0000000  1.0460000  1
  18270  18268  18269  18281     1  0.0000000  0.0000000  3
  18270  18268  18269  18271     1  0.0000000  0.6508444  3
  18270  18268  18282  18288     1  0.0000000  1.0460000  1
  18270  18268  18282  18288     1  0.0000000  0.0000000  3
  18270  18268  18282  18286     1  0.0000000  0.6508444  3
  18270  18268  18282  18287     1  0.0000000  0.6508444  3
  18270  18268  18290  18274     1  0.0000000  1.6038667  3
  18271  18269  18268  18282     1  0.0000000  0.6508444  3
  18271  18269  18268  18290     1  0.0000000  1.0460000  1
  18271  18269  18268  18290     1  0.0000000  0.0000000  3
  18271  18269  18272  18273     1  0.0000000  0.6508444  3
  18271  18269  18272  18280     1  0.0000000  1.0460000  1
  18271  18269  18272  18280     1  0.0000000  0.0000000  3
  18271  18269  18272  18276     1  0.0000000  0.6508444  3
  18271  18269  18281  18284     1  0.0000000  0.6973333  3
  18272  18269  18281  18284     1  0.0000000  1.0460000  1
  18272  18269  18281  18284     1  0.0000000  0.6694400  3
  18272  18273  18274  18277     1  0.0000000  0.6508444  3
  18272  18273  18279  18285     1  0.0000000  1.0460000  1
  18272  18273  18279  18285     1  0.0000000  0.6694400  3
  18273  18272  18280  18283     1  0.0000000  1.0460000  1
  18273  18272  18280  18283     1  0.0000000  0.6694400  3
  18274  18273  18272  18276     1  0.0000000  0.6508444  3
  18274  18273  18279  18285     1  0.0000000  1.0460000  1
  18274  18273  18279  18285     1  0.0000000  0.6694400  3
  18275  18273  18272  18280     1  0.0000000  1.0460000  1
  18275  18273  18272  18280     1  0.0000000  0.0000000  3
  18275  18273  18272  18276     1  0.0000000  0.6508444  3
  18275  18273  18274  18278     1  0.0000000  1.0460000  1
  18275  18273  18274  18278     1  0.0000000  0.0000000  3
  18275  18273  18274  18290     1  0.0000000  1.0460000  1
  18275  18273  18274  18290     1  0.0000000  0.0000000  3
  18275  18273  18274  18277     1  0.0000000  0.6508444  3
  18275  18273  18279  18285     1  0.0000000  0.6973333  3
  18276  18272  18269  18281     1  0.0000000  1.0460000  1
  18276  18272  18269  18281     1  0.0000000  0.0000000  3
  18276  18272  18273  18279     1  0.0000000  1.0460000  1
  18276  18272  18273  18279     1  0.0000000  0.0000000  3
  18276  18272  18280  18283     1  0.0000000  0.6973333  3
  18277  18274  18273  18279     1  0.0000000  0.6508444  3
  18286  18282  18268  18290     1  0.0000000  1.0460000  1
  18286  18282  18268  18290     1  0.0000000  0.0000000  3
  18286  18282  18288  18289     1  0.0000000  0.6973333  3
  18287  18282  18268  18290     1  0.0000000  1.0460000  1
  18287  18282  18268  18290     1  0.0000000  0.0000000  3
  18287  18282  18288  18289     1  0.0000000  0.6973333  3
  18291  18292  18295  18299     1  0.0000000  0.6508444  3
  18291  18292  18304  18307     1  0.0000000  1.0460000  1
  18291  18292  18304  18307     1  0.0000000  0.6694400  3
  18291  18305  18311  18312     1  0.0000000  1.0460000  1
  18291  18305  18311  18312     1  0.0000000  0.6694400  3
  18291  18313  18297  18300     1  0.0000000  1.6038667  3
  18292  18295  18296  18298     1  0.0000000  0.6508444  3
  18292  18295  18303  18306     1  0.0000000  1.0460000  1
  18292  18295  18303  18306     1  0.0000000  0.6694400  3
  18292  18291  18305  18309     1  0.0000000  0.6508444  3
  18292  18291  18305  18310     1  0.0000000  0.6508444  3
  18293  18291  18292  18295     1  0.0000000  0.6508444  3
  18293  18291  18292  18304     1  0.0000000  1.0460000  1
  18293  18291  18292  18304     1  0.0000000  0.0000000  3
  18293  18291  18292  18294     1  0.0000000  0.6508444  3
  18293  18291  18305  18311     1  0.0000000  1.0460000  1
  18293  18291  18305  18311     1  0.0000000  0.0000000  3
  18293  18291  18305  18309     1  0.0000000  0.6508444  3
  18293  18291  18305  18310     1  0.0000000  0.6508444  3
  18293  18291  18313  18297     1  0.0000000  1.6038667  3
  18294  18292  18295  18296     1  0.0000000  0.6508444  3
  18294  18292  18295  18303     1  0.0000000  1.0460000  1
  18294  18292  18295  18303     1  0.0000000  0.0000000  3
  18294  18292  18295  18299     1  0.0000000  0.6508444  3
  18294  18292  18304  18307     1  0.0000000  0.6973333  3
  18294  18292  18291  18305     1  0.0000000  0.6508444  3
  18294  18292  18291  18313     1  0.0000000  1.0460000  1
  18294  18292  18291  18313     1  0.0000000  0.0000000  3
  18295  18296  18297  18300     1  0.0000000  0.6508444  3
  18295  18296  18302  18308     1  0.0000000  1.0460000  1
  18295  18296  18302  18308     1  0.0000000  0.6694400  3
  18295  18292  18304  18307     1  0.0000000  1.0460000  1
  18295  18292  18304  18307     1  0.0000000  0.6694400  3
  18296  18295  18303  18306     1  0.0000000  1.0460000  1
  18296  18295  18303  18306     1  0.0000000  0.6694400  3
  18297  18296  18302  18308     1  0.0000000  1.0460000  1
  18297  18296  18302  18308     1  0.0000000  0.6694400  3
  18297  18296  18295  18299     1  0.0000000  0.6508444  3
  18298  18296  18297  18301     1  0.0000000  1.0460000  1
  18298  18296  18297  18301     1  0.0000000  0.0000000  3
  18298  18296  18297  18313     1  0.0000000  1.0460000  1
  18298  18296  18297  18313     1  0.0000000  0.0000000  3
  18298  18296  18297  18300     1  0.0000000  0.6508444  3
  18298  18296  18302  18308     1  0.0000000  0.6973333  3
  18298  18296  18295  18303     1  0.0000000  1.0460000  1
  18298  18296  18295  18303     1  0.0000000  0.0000000  3
  18298  18296  18295  18299     1  0.0000000  0.6508444  3
  18299  18295  18296  18302     1  0.0000000  1.0460000  1
  18299  18295  18296  18302     1  0.0000000  0.0000000  3
  18299  18295  18303  18306     1  0.0000000  0.6973333  3
  18299  18295  18292  18304     1  0.0000000  1.0460000  1
  18299  18295  18292  18304     1  0.0000000  0.0000000  3
  18300  18297  18296  18302     1  0.0000000  0.6508444  3
  18309  18305  18311  18312     1  0.0000000  0.6973333  3
  18309  18305  18291  18313     1  0.0000000  1.0460000  1
  18309  18305  18291  18313     1  0.0000000  0.0000000  3
  18310  18305  18311  18312     1  0.0000000  0.6973333  3
  18310  18305  18291  18313     1  0.0000000  1.0460000  1
  18310  18305  18291  18313     1  0.0000000  0.0000000  3
  18314  18315  18318  18322     1  0.0000000  0.6508444  3
  18314  18315  18327  18330     1  0.0000000  1.0460000  1
  18314  18315  18327  18330     1  0.0000000  0.6694400  3
  18314  18328  18334  18335     1  0.0000000  1.0460000  1
  18314  18328  18334  18335     1  0.0000000  0.6694400  3
  18314  18336  18320  18323     1  0.0000000  1.6038667  3
  18315  18314  18328  18332     1  0.0000000  0.6508444  3
  18315  18314  18328  18333     1  0.0000000  0.6508444  3
  18315  18318  18319  18321     1  0.0000000  0.6508444  3
  18315  18318  18326  18329     1  0.0000000  1.0460000  1
  18315  18318  18326  18329     1  0.0000000  0.6694400  3
  18316  18314  18315  18318     1  0.0000000  0.6508444  3
  18316  18314  18315  18327     1  0.0000000  1.0460000  1
  18316  18314  18315  18327     1  0.0000000  0.0000000  3
  18316  18314  18315  18317     1  0.0000000  0.6508444  3
  18316  18314  18328  18334     1  0.0000000  1.0460000  1
  18316  18314  18328  18334     1  0.0000000  0.0000000  3
  18316  18314  18328  18332     1  0.0000000  0.6508444  3
  18316  18314  18328  18333     1  0.0000000  0.6508444  3
  18316  18314  18336  18320     1  0.0000000  1.6038667  3
  18317  18315  18314  18328     1  0.0000000  0.6508444  3
  18317  18315  18314  18336     1  0.0000000  1.0460000  1
  18317  18315  18314  18336     1  0.0000000  0.0000000  3
  18317  18315  18318  18319     1  0.0000000  0.6508444  3
  18317  18315  18318  18326     1  0.0000000  1.0460000  1
  18317  18315  18318  18326     1  0.0000000  0.0000000  3
  18317  18315  18318  18322     1  0.0000000  0.6508444  3
  18317  18315  18327  18330     1  0.0000000  0.6973333  3
  18318  18315  18327  18330     1  0.0000000  1.0460000  1
  18318  18315  18327  18330     1  0.0000000  0.6694400  3
  18318  18319  18320  18323     1  0.0000000  0.6508444  3
  18318  18319  18325  18331     1  0.0000000  1.0460000  1
  18318  18319  18325  18331     1  0.0000000  0.6694400  3
  18319  18318  18326  18329     1  0.0000000  1.0460000  1
  18319  18318  18326  18329     1  0.0000000  0.6694400  3
  18320  18319  18318  18322     1  0.0000000  0.6508444  3
  18320  18319  18325  18331     1  0.0000000  1.0460000  1
  18320  18319  18325  18331     1  0.0000000  0.6694400  3
  18321  18319  18318  18326     1  0.0000000  1.0460000  1
  18321  18319  18318  18326     1  0.0000000  0.0000000  3
  18321  18319  18318  18322     1  0.0000000  0.6508444  3
  18321  18319  18320  18324     1  0.0000000  1.0460000  1
  18321  18319  18320  18324     1  0.0000000  0.0000000  3
  18321  18319  18320  18336     1  0.0000000  1.0460000  1
  18321  18319  18320  18336     1  0.0000000  0.0000000  3
  18321  18319  18320  18323     1  0.0000000  0.6508444  3
  18321  18319  18325  18331     1  0.0000000  0.6973333  3
  18322  18318  18315  18327     1  0.0000000  1.0460000  1
  18322  18318  18315  18327     1  0.0000000  0.0000000  3
  18322  18318  18319  18325     1  0.0000000  1.0460000  1
  18322  18318  18319  18325     1  0.0000000  0.0000000  3
  18322  18318  18326  18329     1  0.0000000  0.6973333  3
  18323  18320  18319  18325     1  0.0000000  0.6508444  3
  18332  18328  18314  18336     1  0.0000000  1.0460000  1
  18332  18328  18314  18336     1  0.0000000  0.0000000  3
  18332  18328  18334  18335     1  0.0000000  0.6973333  3
  18333  18328  18314  18336     1  0.0000000  1.0460000  1
  18333  18328  18314  18336     1  0.0000000  0.0000000  3
  18333  18328  18334  18335     1  0.0000000  0.6973333  3
  18337  18338  18341  18345     1  0.0000000  0.6508444  3
  18337  18338  18350  18353     1  0.0000000  1.0460000  1
  18337  18338  18350  18353     1  0.0000000  0.6694400  3
  18337  18351  18357  18358     1  0.0000000  1.0460000  1
  18337  18351  18357  18358     1  0.0000000  0.6694400  3
  18337  18359  18343  18346     1  0.0000000  1.6038667  3
  18338  18341  18342  18344     1  0.0000000  0.6508444  3
  18338  18341  18349  18352     1  0.0000000  1.0460000  1
  18338  18341  18349  18352     1  0.0000000  0.6694400  3
  18338  18337  18351  18355     1  0.0000000  0.6508444  3
  18338  18337  18351  18356     1  0.0000000  0.6508444  3
  18339  18337  18338  18341     1  0.0000000  0.6508444  3
  18339  18337  18338  18350     1  0.0000000  1.0460000  1
  18339  18337  18338  18350     1  0.0000000  0.0000000  3
  18339  18337  18338  18340     1  0.0000000  0.6508444  3
  18339  18337  18351  18357     1  0.0000000  1.0460000  1
  18339  18337  18351  18357     1  0.0000000  0.0000000  3
  18339  18337  18351  18355     1  0.0000000  0.6508444  3
  18339  18337  18351  18356     1  0.0000000  0.6508444  3
  18339  18337  18359  18343     1  0.0000000  1.6038667  3
  18340  18338  18341  18342     1  0.0000000  0.6508444  3
  18340  18338  18341  18349     1  0.0000000  1.0460000  1
  18340  18338  18341  18349     1  0.0000000  0.0000000  3
  18340  18338  18341  18345     1  0.0000000  0.6508444  3
  18340  18338  18350  18353     1  0.0000000  0.6973333  3
  18340  18338  18337  18351     1  0.0000000  0.6508444  3
  18340  18338  18337  18359     1  0.0000000  1.0460000  1
  18340  18338  18337  18359     1  0.0000000  0.0000000  3
  18341  18342  18343  18346     1  0.0000000  0.6508444  3
  18341  18342  18348  18354     1  0.0000000  1.0460000  1
  18341  18342  18348  18354     1  0.0000000  0.6694400  3
  18341  18338  18350  18353     1  0.0000000  1.0460000  1
  18341  18338  18350  18353     1  0.0000000  0.6694400  3
  18342  18341  18349  18352     1  0.0000000  1.0460000  1
  18342  18341  18349  18352     1  0.0000000  0.6694400  3
  18343  18342  18348  18354     1  0.0000000  1.0460000  1
  18343  18342  18348  18354     1  0.0000000  0.6694400  3
  18343  18342  18341  18345     1  0.0000000  0.6508444  3
  18344  18342  18343  18347     1  0.0000000  1.0460000  1
  18344  18342  18343  18347     1  0.0000000  0.0000000  3
  18344  18342  18343  18359     1  0.0000000  1.0460000  1
  18344  18342  18343  18359     1  0.0000000  0.0000000  3
  18344  18342  18343  18346     1  0.0000000  0.6508444  3
  18344  18342  18348  18354     1  0.0000000  0.6973333  3
  18344  18342  18341  18349     1  0.0000000  1.0460000  1
  18344  18342  18341  18349     1  0.0000000  0.0000000  3
  18344  18342  18341  18345     1  0.0000000  0.6508444  3
  18345  18341  18342  18348     1  0.0000000  1.0460000  1
  18345  18341  18342  18348     1  0.0000000  0.0000000  3
  18345  18341  18349  18352     1  0.0000000  0.6973333  3
  18345  18341  18338  18350     1  0.0000000  1.0460000  1
  18345  18341  18338  18350     1  0.0000000  0.0000000  3
  18346  18343  18342  18348     1  0.0000000  0.6508444  3
  18355  18351  18357  18358     1  0.0000000  0.6973333  3
  18355  18351  18337  18359     1  0.0000000  1.0460000  1
  18355  18351  18337  18359     1  0.0000000  0.0000000  3
  18356  18351  18357  18358     1  0.0000000  0.6973333  3
  18356  18351  18337  18359     1  0.0000000  1.0460000  1
  18356  18351  18337  18359     1  0.0000000  0.0000000  3
  18360  18361  18364  18368     1  0.0000000  0.6508444  3
  18360  18361  18373  18376     1  0.0000000  1.0460000  1
  18360  18361  18373  18376     1  0.0000000  0.6694400  3
  18360  18374  18380  18381     1  0.0000000  1.0460000  1
  18360  18374  18380  18381     1  0.0000000  0.6694400  3
  18360  18382  18366  18369     1  0.0000000  1.6038667  3
  18361  18360  18374  18378     1  0.0000000  0.6508444  3
  18361  18360  18374  18379     1  0.0000000  0.6508444  3
  18361  18364  18365  18367     1  0.0000000  0.6508444  3
  18361  18364  18372  18375     1  0.0000000  1.0460000  1
  18361  18364  18372  18375     1  0.0000000  0.6694400  3
  18362  18360  18361  18364     1  0.0000000  0.6508444  3
  18362  18360  18361  18373     1  0.0000000  1.0460000  1
  18362  18360  18361  18373     1  0.0000000  0.0000000  3
  18362  18360  18361  18363     1  0.0000000  0.6508444  3
  18362  18360  18374  18380     1  0.0000000  1.0460000  1
  18362  18360  18374  18380     1  0.0000000  0.0000000  3
  18362  18360  18374  18378     1  0.0000000  0.6508444  3
  18362  18360  18374  18379     1  0.0000000  0.6508444  3
  18362  18360  18382  18366     1  0.0000000  1.6038667  3
  18363  18361  18360  18374     1  0.0000000  0.6508444  3
  18363  18361  18360  18382     1  0.0000000  1.0460000  1
  18363  18361  18360  18382     1  0.0000000  0.0000000  3
  18363  18361  18364  18365     1  0.0000000  0.6508444  3
  18363  18361  18364  18372     1  0.0000000  1.0460000  1
  18363  18361  18364  18372     1  0.0000000  0.0000000  3
  18363  18361  18364  18368     1  0.0000000  0.6508444  3
  18363  18361  18373  18376     1  0.0000000  0.6973333  3
  18364  18361  18373  18376     1  0.0000000  1.0460000  1
  18364  18361  18373  18376     1  0.0000000  0.6694400  3
  18364  18365  18366  18369     1  0.0000000  0.6508444  3
  18364  18365  18371  18377     1  0.0000000  1.0460000  1
  18364  18365  18371  18377     1  0.0000000  0.6694400  3
  18365  18364  18372  18375     1  0.0000000  1.0460000  1
  18365  18364  18372  18375     1  0.0000000  0.6694400  3
  18366  18365  18364  18368     1  0.0000000  0.6508444  3
  18366  18365  18371  18377     1  0.0000000  1.0460000  1
  18366  18365  18371  18377     1  0.0000000  0.6694400  3
  18367  18365  18364  18372     1  0.0000000  1.0460000  1
  18367  18365  18364  18372     1  0.0000000  0.0000000  3
  18367  18365  18364  18368     1  0.0000000  0.6508444  3
  18367  18365  18366  18370     1  0.0000000  1.0460000  1
  18367  18365  18366  18370     1  0.0000000  0.0000000  3
  18367  18365  18366  18382     1  0.0000000  1.0460000  1
  18367  18365  18366  18382     1  0.0000000  0.0000000  3
  18367  18365  18366  18369     1  0.0000000  0.6508444  3
  18367  18365  18371  18377     1  0.0000000  0.6973333  3
  18368  18364  18361  18373     1  0.0000000  1.0460000  1
  18368  18364  18361  18373     1  0.0000000  0.0000000  3
  18368  18364  18365  18371     1  0.0000000  1.0460000  1
  18368  18364  18365  18371     1  0.0000000  0.0000000  3
  18368  18364  18372  18375     1  0.0000000  0.6973333  3
  18369  18366  18365  18371     1  0.0000000  0.6508444  3
  18378  18374  18360  18382     1  0.0000000  1.0460000  1
  18378  18374  18360  18382     1  0.0000000  0.0000000  3
  18378  18374  18380  18381     1  0.0000000  0.6973333  3
  18379  18374  18360  18382     1  0.0000000  1.0460000  1
  18379  18374  18360  18382     1  0.0000000  0.0000000  3
  18379  18374  18380  18381     1  0.0000000  0.6973333  3
  18383  18384  18387  18391     1  0.0000000  0.6508444  3
  18383  18384  18396  18399     1  0.0000000  1.0460000  1
  18383  18384  18396  18399     1  0.0000000  0.6694400  3
  18383  18397  18403  18404     1  0.0000000  1.0460000  1
  18383  18397  18403  18404     1  0.0000000  0.6694400  3
  18383  18405  18389  18392     1  0.0000000  1.6038667  3
  18384  18387  18388  18390     1  0.0000000  0.6508444  3
  18384  18387  18395  18398     1  0.0000000  1.0460000  1
  18384  18387  18395  18398     1  0.0000000  0.6694400  3
  18384  18383  18397  18401     1  0.0000000  0.6508444  3
  18384  18383  18397  18402     1  0.0000000  0.6508444  3
  18385  18383  18384  18387     1  0.0000000  0.6508444  3
  18385  18383  18384  18396     1  0.0000000  1.0460000  1
  18385  18383  18384  18396     1  0.0000000  0.0000000  3
  18385  18383  18384  18386     1  0.0000000  0.6508444  3
  18385  18383  18397  18403     1  0.0000000  1.0460000  1
  18385  18383  18397  18403     1  0.0000000  0.0000000  3
  18385  18383  18397  18401     1  0.0000000  0.6508444  3
  18385  18383  18397  18402     1  0.0000000  0.6508444  3
  18385  18383  18405  18389     1  0.0000000  1.6038667  3
  18386  18384  18387  18388     1  0.0000000  0.6508444  3
  18386  18384  18387  18395     1  0.0000000  1.0460000  1
  18386  18384  18387  18395     1  0.0000000  0.0000000  3
  18386  18384  18387  18391     1  0.0000000  0.6508444  3
  18386  18384  18396  18399     1  0.0000000  0.6973333  3
  18386  18384  18383  18397     1  0.0000000  0.6508444  3
  18386  18384  18383  18405     1  0.0000000  1.0460000  1
  18386  18384  18383  18405     1  0.0000000  0.0000000  3
  18387  18388  18389  18392     1  0.0000000  0.6508444  3
  18387  18388  18394  18400     1  0.0000000  1.0460000  1
  18387  18388  18394  18400     1  0.0000000  0.6694400  3
  18387  18384  18396  18399     1  0.0000000  1.0460000  1
  18387  18384  18396  18399     1  0.0000000  0.6694400  3
  18388  18387  18395  18398     1  0.0000000  1.0460000  1
  18388  18387  18395  18398     1  0.0000000  0.6694400  3
  18389  18388  18394  18400     1  0.0000000  1.0460000  1
  18389  18388  18394  18400     1  0.0000000  0.6694400  3
  18389  18388  18387  18391     1  0.0000000  0.6508444  3
  18390  18388  18389  18393     1  0.0000000  1.0460000  1
  18390  18388  18389  18393     1  0.0000000  0.0000000  3
  18390  18388  18389  18405     1  0.0000000  1.0460000  1
  18390  18388  18389  18405     1  0.0000000  0.0000000  3
  18390  18388  18389  18392     1  0.0000000  0.6508444  3
  18390  18388  18394  18400     1  0.0000000  0.6973333  3
  18390  18388  18387  18395     1  0.0000000  1.0460000  1
  18390  18388  18387  18395     1  0.0000000  0.0000000  3
  18390  18388  18387  18391     1  0.0000000  0.6508444  3
  18391  18387  18388  18394     1  0.0000000  1.0460000  1
  18391  18387  18388  18394     1  0.0000000  0.0000000  3
  18391  18387  18395  18398     1  0.0000000  0.6973333  3
  18391  18387  18384  18396     1  0.0000000  1.0460000  1
  18391  18387  18384  18396     1  0.0000000  0.0000000  3
  18392  18389  18388  18394     1  0.0000000  0.6508444  3
  18401  18397  18403  18404     1  0.0000000  0.6973333  3
  18401  18397  18383  18405     1  0.0000000  1.0460000  1
  18401  18397  18383  18405     1  0.0000000  0.0000000  3
  18402  18397  18403  18404     1  0.0000000  0.6973333  3
  18402  18397  18383  18405     1  0.0000000  1.0460000  1
  18402  18397  18383  18405     1  0.0000000  0.0000000  3
  18406  18407  18410  18414     1  0.0000000  0.6508444  3
  18406  18407  18419  18422     1  0.0000000  1.0460000  1
  18406  18407  18419  18422     1  0.0000000  0.6694400  3
  18406  18420  18426  18427     1  0.0000000  1.0460000  1
  18406  18420  18426  18427     1  0.0000000  0.6694400  3
  18406  18428  18412  18415     1  0.0000000  1.6038667  3
  18407  18406  18420  18424     1  0.0000000  0.6508444  3
  18407  18406  18420  18425     1  0.0000000  0.6508444  3
  18407  18410  18411  18413     1  0.0000000  0.6508444  3
  18407  18410  18418  18421     1  0.0000000  1.0460000  1
  18407  18410  18418  18421     1  0.0000000  0.6694400  3
  18408  18406  18407  18410     1  0.0000000  0.6508444  3
  18408  18406  18407  18419     1  0.0000000  1.0460000  1
  18408  18406  18407  18419     1  0.0000000  0.0000000  3
  18408  18406  18407  18409     1  0.0000000  0.6508444  3
  18408  18406  18420  18426     1  0.0000000  1.0460000  1
  18408  18406  18420  18426     1  0.0000000  0.0000000  3
  18408  18406  18420  18424     1  0.0000000  0.6508444  3
  18408  18406  18420  18425     1  0.0000000  0.6508444  3
  18408  18406  18428  18412     1  0.0000000  1.6038667  3
  18409  18407  18406  18420     1  0.0000000  0.6508444  3
  18409  18407  18406  18428     1  0.0000000  1.0460000  1
  18409  18407  18406  18428     1  0.0000000  0.0000000  3
  18409  18407  18410  18411     1  0.0000000  0.6508444  3
  18409  18407  18410  18418     1  0.0000000  1.0460000  1
  18409  18407  18410  18418     1  0.0000000  0.0000000  3
  18409  18407  18410  18414     1  0.0000000  0.6508444  3
  18409  18407  18419  18422     1  0.0000000  0.6973333  3
  18410  18407  18419  18422     1  0.0000000  1.0460000  1
  18410  18407  18419  18422     1  0.0000000  0.6694400  3
  18410  18411  18412  18415     1  0.0000000  0.6508444  3
  18410  18411  18417  18423     1  0.0000000  1.0460000  1
  18410  18411  18417  18423     1  0.0000000  0.6694400  3
  18411  18410  18418  18421     1  0.0000000  1.0460000  1
  18411  18410  18418  18421     1  0.0000000  0.6694400  3
  18412  18411  18410  18414     1  0.0000000  0.6508444  3
  18412  18411  18417  18423     1  0.0000000  1.0460000  1
  18412  18411  18417  18423     1  0.0000000  0.6694400  3
  18413  18411  18410  18418     1  0.0000000  1.0460000  1
  18413  18411  18410  18418     1  0.0000000  0.0000000  3
  18413  18411  18410  18414     1  0.0000000  0.6508444  3
  18413  18411  18412  18416     1  0.0000000  1.0460000  1
  18413  18411  18412  18416     1  0.0000000  0.0000000  3
  18413  18411  18412  18428     1  0.0000000  1.0460000  1
  18413  18411  18412  18428     1  0.0000000  0.0000000  3
  18413  18411  18412  18415     1  0.0000000  0.6508444  3
  18413  18411  18417  18423     1  0.0000000  0.6973333  3
  18414  18410  18407  18419     1  0.0000000  1.0460000  1
  18414  18410  18407  18419     1  0.0000000  0.0000000  3
  18414  18410  18411  18417     1  0.0000000  1.0460000  1
  18414  18410  18411  18417     1  0.0000000  0.0000000  3
  18414  18410  18418  18421     1  0.0000000  0.6973333  3
  18415  18412  18411  18417     1  0.0000000  0.6508444  3
  18424  18420  18406  18428     1  0.0000000  1.0460000  1
  18424  18420  18406  18428     1  0.0000000  0.0000000  3
  18424  18420  18426  18427     1  0.0000000  0.6973333  3
  18425  18420  18406  18428     1  0.0000000  1.0460000  1
  18425  18420  18406  18428     1  0.0000000  0.0000000  3
  18425  18420  18426  18427     1  0.0000000  0.6973333  3
  18429  18430  18433  18437     1  0.0000000  0.6508444  3
  18429  18430  18442  18445     1  0.0000000  1.0460000  1
  18429  18430  18442  18445     1  0.0000000  0.6694400  3
  18429  18443  18449  18450     1  0.0000000  1.0460000  1
  18429  18443  18449  18450     1  0.0000000  0.6694400  3
  18429  18451  18435  18438     1  0.0000000  1.6038667  3
  18430  18433  18434  18436     1  0.0000000  0.6508444  3
  18430  18433  18441  18444     1  0.0000000  1.0460000  1
  18430  18433  18441  18444     1  0.0000000  0.6694400  3
  18430  18429  18443  18447     1  0.0000000  0.6508444  3
  18430  18429  18443  18448     1  0.0000000  0.6508444  3
  18431  18429  18430  18433     1  0.0000000  0.6508444  3
  18431  18429  18430  18442     1  0.0000000  1.0460000  1
  18431  18429  18430  18442     1  0.0000000  0.0000000  3
  18431  18429  18430  18432     1  0.0000000  0.6508444  3
  18431  18429  18443  18449     1  0.0000000  1.0460000  1
  18431  18429  18443  18449     1  0.0000000  0.0000000  3
  18431  18429  18443  18447     1  0.0000000  0.6508444  3
  18431  18429  18443  18448     1  0.0000000  0.6508444  3
  18431  18429  18451  18435     1  0.0000000  1.6038667  3
  18432  18430  18433  18434     1  0.0000000  0.6508444  3
  18432  18430  18433  18441     1  0.0000000  1.0460000  1
  18432  18430  18433  18441     1  0.0000000  0.0000000  3
  18432  18430  18433  18437     1  0.0000000  0.6508444  3
  18432  18430  18442  18445     1  0.0000000  0.6973333  3
  18432  18430  18429  18443     1  0.0000000  0.6508444  3
  18432  18430  18429  18451     1  0.0000000  1.0460000  1
  18432  18430  18429  18451     1  0.0000000  0.0000000  3
  18433  18434  18435  18438     1  0.0000000  0.6508444  3
  18433  18434  18440  18446     1  0.0000000  1.0460000  1
  18433  18434  18440  18446     1  0.0000000  0.6694400  3
  18433  18430  18442  18445     1  0.0000000  1.0460000  1
  18433  18430  18442  18445     1  0.0000000  0.6694400  3
  18434  18433  18441  18444     1  0.0000000  1.0460000  1
  18434  18433  18441  18444     1  0.0000000  0.6694400  3
  18435  18434  18440  18446     1  0.0000000  1.0460000  1
  18435  18434  18440  18446     1  0.0000000  0.6694400  3
  18435  18434  18433  18437     1  0.0000000  0.6508444  3
  18436  18434  18435  18439     1  0.0000000  1.0460000  1
  18436  18434  18435  18439     1  0.0000000  0.0000000  3
  18436  18434  18435  18451     1  0.0000000  1.0460000  1
  18436  18434  18435  18451     1  0.0000000  0.0000000  3
  18436  18434  18435  18438     1  0.0000000  0.6508444  3
  18436  18434  18440  18446     1  0.0000000  0.6973333  3
  18436  18434  18433  18441     1  0.0000000  1.0460000  1
  18436  18434  18433  18441     1  0.0000000  0.0000000  3
  18436  18434  18433  18437     1  0.0000000  0.6508444  3
  18437  18433  18434  18440     1  0.0000000  1.0460000  1
  18437  18433  18434  18440     1  0.0000000  0.0000000  3
  18437  18433  18441  18444     1  0.0000000  0.6973333  3
  18437  18433  18430  18442     1  0.0000000  1.0460000  1
  18437  18433  18430  18442     1  0.0000000  0.0000000  3
  18438  18435  18434  18440     1  0.0000000  0.6508444  3
  18447  18443  18449  18450     1  0.0000000  0.6973333  3
  18447  18443  18429  18451     1  0.0000000  1.0460000  1
  18447  18443  18429  18451     1  0.0000000  0.0000000  3
  18448  18443  18449  18450     1  0.0000000  0.6973333  3
  18448  18443  18429  18451     1  0.0000000  1.0460000  1
  18448  18443  18429  18451     1  0.0000000  0.0000000  3
  18452  18453  18456  18460     1  0.0000000  0.6508444  3
  18452  18453  18465  18468     1  0.0000000  1.0460000  1
  18452  18453  18465  18468     1  0.0000000  0.6694400  3
  18452  18466  18472  18473     1  0.0000000  1.0460000  1
  18452  18466  18472  18473     1  0.0000000  0.6694400  3
  18452  18474  18458  18461     1  0.0000000  1.6038667  3
  18453  18452  18466  18470     1  0.0000000  0.6508444  3
  18453  18452  18466  18471     1  0.0000000  0.6508444  3
  18453  18456  18457  18459     1  0.0000000  0.6508444  3
  18453  18456  18464  18467     1  0.0000000  1.0460000  1
  18453  18456  18464  18467     1  0.0000000  0.6694400  3
  18454  18452  18453  18456     1  0.0000000  0.6508444  3
  18454  18452  18453  18465     1  0.0000000  1.0460000  1
  18454  18452  18453  18465     1  0.0000000  0.0000000  3
  18454  18452  18453  18455     1  0.0000000  0.6508444  3
  18454  18452  18466  18472     1  0.0000000  1.0460000  1
  18454  18452  18466  18472     1  0.0000000  0.0000000  3
  18454  18452  18466  18470     1  0.0000000  0.6508444  3
  18454  18452  18466  18471     1  0.0000000  0.6508444  3
  18454  18452  18474  18458     1  0.0000000  1.6038667  3
  18455  18453  18452  18466     1  0.0000000  0.6508444  3
  18455  18453  18452  18474     1  0.0000000  1.0460000  1
  18455  18453  18452  18474     1  0.0000000  0.0000000  3
  18455  18453  18456  18457     1  0.0000000  0.6508444  3
  18455  18453  18456  18464     1  0.0000000  1.0460000  1
  18455  18453  18456  18464     1  0.0000000  0.0000000  3
  18455  18453  18456  18460     1  0.0000000  0.6508444  3
  18455  18453  18465  18468     1  0.0000000  0.6973333  3
  18456  18453  18465  18468     1  0.0000000  1.0460000  1
  18456  18453  18465  18468     1  0.0000000  0.6694400  3
  18456  18457  18458  18461     1  0.0000000  0.6508444  3
  18456  18457  18463  18469     1  0.0000000  1.0460000  1
  18456  18457  18463  18469     1  0.0000000  0.6694400  3
  18457  18456  18464  18467     1  0.0000000  1.0460000  1
  18457  18456  18464  18467     1  0.0000000  0.6694400  3
  18458  18457  18456  18460     1  0.0000000  0.6508444  3
  18458  18457  18463  18469     1  0.0000000  1.0460000  1
  18458  18457  18463  18469     1  0.0000000  0.6694400  3
  18459  18457  18456  18464     1  0.0000000  1.0460000  1
  18459  18457  18456  18464     1  0.0000000  0.0000000  3
  18459  18457  18456  18460     1  0.0000000  0.6508444  3
  18459  18457  18458  18462     1  0.0000000  1.0460000  1
  18459  18457  18458  18462     1  0.0000000  0.0000000  3
  18459  18457  18458  18474     1  0.0000000  1.0460000  1
  18459  18457  18458  18474     1  0.0000000  0.0000000  3
  18459  18457  18458  18461     1  0.0000000  0.6508444  3
  18459  18457  18463  18469     1  0.0000000  0.6973333  3
  18460  18456  18453  18465     1  0.0000000  1.0460000  1
  18460  18456  18453  18465     1  0.0000000  0.0000000  3
  18460  18456  18457  18463     1  0.0000000  1.0460000  1
  18460  18456  18457  18463     1  0.0000000  0.0000000  3
  18460  18456  18464  18467     1  0.0000000  0.6973333  3
  18461  18458  18457  18463     1  0.0000000  0.6508444  3
  18470  18466  18452  18474     1  0.0000000  1.0460000  1
  18470  18466  18452  18474     1  0.0000000  0.0000000  3
  18470  18466  18472  18473     1  0.0000000  0.6973333  3
  18471  18466  18452  18474     1  0.0000000  1.0460000  1
  18471  18466  18452  18474     1  0.0000000  0.0000000  3
  18471  18466  18472  18473     1  0.0000000  0.6973333  3
  18475  18476  18479  18483     1  0.0000000  0.6508444  3
  18475  18476  18488  18491     1  0.0000000  1.0460000  1
  18475  18476  18488  18491     1  0.0000000  0.6694400  3
  18475  18489  18495  18496     1  0.0000000  1.0460000  1
  18475  18489  18495  18496     1  0.0000000  0.6694400  3
  18475  18497  18481  18484     1  0.0000000  1.6038667  3
  18476  18479  18480  18482     1  0.0000000  0.6508444  3
  18476  18479  18487  18490     1  0.0000000  1.0460000  1
  18476  18479  18487  18490     1  0.0000000  0.6694400  3
  18476  18475  18489  18493     1  0.0000000  0.6508444  3
  18476  18475  18489  18494     1  0.0000000  0.6508444  3
  18477  18475  18476  18479     1  0.0000000  0.6508444  3
  18477  18475  18476  18488     1  0.0000000  1.0460000  1
  18477  18475  18476  18488     1  0.0000000  0.0000000  3
  18477  18475  18476  18478     1  0.0000000  0.6508444  3
  18477  18475  18489  18495     1  0.0000000  1.0460000  1
  18477  18475  18489  18495     1  0.0000000  0.0000000  3
  18477  18475  18489  18493     1  0.0000000  0.6508444  3
  18477  18475  18489  18494     1  0.0000000  0.6508444  3
  18477  18475  18497  18481     1  0.0000000  1.6038667  3
  18478  18476  18479  18480     1  0.0000000  0.6508444  3
  18478  18476  18479  18487     1  0.0000000  1.0460000  1
  18478  18476  18479  18487     1  0.0000000  0.0000000  3
  18478  18476  18479  18483     1  0.0000000  0.6508444  3
  18478  18476  18488  18491     1  0.0000000  0.6973333  3
  18478  18476  18475  18489     1  0.0000000  0.6508444  3
  18478  18476  18475  18497     1  0.0000000  1.0460000  1
  18478  18476  18475  18497     1  0.0000000  0.0000000  3
  18479  18480  18481  18484     1  0.0000000  0.6508444  3
  18479  18480  18486  18492     1  0.0000000  1.0460000  1
  18479  18480  18486  18492     1  0.0000000  0.6694400  3
  18479  18476  18488  18491     1  0.0000000  1.0460000  1
  18479  18476  18488  18491     1  0.0000000  0.6694400  3
  18480  18479  18487  18490     1  0.0000000  1.0460000  1
  18480  18479  18487  18490     1  0.0000000  0.6694400  3
  18481  18480  18486  18492     1  0.0000000  1.0460000  1
  18481  18480  18486  18492     1  0.0000000  0.6694400  3
  18481  18480  18479  18483     1  0.0000000  0.6508444  3
  18482  18480  18481  18485     1  0.0000000  1.0460000  1
  18482  18480  18481  18485     1  0.0000000  0.0000000  3
  18482  18480  18481  18497     1  0.0000000  1.0460000  1
  18482  18480  18481  18497     1  0.0000000  0.0000000  3
  18482  18480  18481  18484     1  0.0000000  0.6508444  3
  18482  18480  18486  18492     1  0.0000000  0.6973333  3
  18482  18480  18479  18487     1  0.0000000  1.0460000  1
  18482  18480  18479  18487     1  0.0000000  0.0000000  3
  18482  18480  18479  18483     1  0.0000000  0.6508444  3
  18483  18479  18480  18486     1  0.0000000  1.0460000  1
  18483  18479  18480  18486     1  0.0000000  0.0000000  3
  18483  18479  18487  18490     1  0.0000000  0.6973333  3
  18483  18479  18476  18488     1  0.0000000  1.0460000  1
  18483  18479  18476  18488     1  0.0000000  0.0000000  3
  18484  18481  18480  18486     1  0.0000000  0.6508444  3
  18493  18489  18495  18496     1  0.0000000  0.6973333  3
  18493  18489  18475  18497     1  0.0000000  1.0460000  1
  18493  18489  18475  18497     1  0.0000000  0.0000000  3
  18494  18489  18495  18496     1  0.0000000  0.6973333  3
  18494  18489  18475  18497     1  0.0000000  1.0460000  1
  18494  18489  18475  18497     1  0.0000000  0.0000000  3
  18498  18499  18502  18506     1  0.0000000  0.6508444  3
  18498  18499  18511  18514     1  0.0000000  1.0460000  1
  18498  18499  18511  18514     1  0.0000000  0.6694400  3
  18498  18512  18518  18519     1  0.0000000  1.0460000  1
  18498  18512  18518  18519     1  0.0000000  0.6694400  3
  18498  18520  18504  18507     1  0.0000000  1.6038667  3
  18499  18498  18512  18516     1  0.0000000  0.6508444  3
  18499  18498  18512  18517     1  0.0000000  0.6508444  3
  18499  18502  18503  18505     1  0.0000000  0.6508444  3
  18499  18502  18510  18513     1  0.0000000  1.0460000  1
  18499  18502  18510  18513     1  0.0000000  0.6694400  3
  18500  18498  18499  18502     1  0.0000000  0.6508444  3
  18500  18498  18499  18511     1  0.0000000  1.0460000  1
  18500  18498  18499  18511     1  0.0000000  0.0000000  3
  18500  18498  18499  18501     1  0.0000000  0.6508444  3
  18500  18498  18512  18518     1  0.0000000  1.0460000  1
  18500  18498  18512  18518     1  0.0000000  0.0000000  3
  18500  18498  18512  18516     1  0.0000000  0.6508444  3
  18500  18498  18512  18517     1  0.0000000  0.6508444  3
  18500  18498  18520  18504     1  0.0000000  1.6038667  3
  18501  18499  18498  18512     1  0.0000000  0.6508444  3
  18501  18499  18498  18520     1  0.0000000  1.0460000  1
  18501  18499  18498  18520     1  0.0000000  0.0000000  3
  18501  18499  18502  18503     1  0.0000000  0.6508444  3
  18501  18499  18502  18510     1  0.0000000  1.0460000  1
  18501  18499  18502  18510     1  0.0000000  0.0000000  3
  18501  18499  18502  18506     1  0.0000000  0.6508444  3
  18501  18499  18511  18514     1  0.0000000  0.6973333  3
  18502  18499  18511  18514     1  0.0000000  1.0460000  1
  18502  18499  18511  18514     1  0.0000000  0.6694400  3
  18502  18503  18504  18507     1  0.0000000  0.6508444  3
  18502  18503  18509  18515     1  0.0000000  1.0460000  1
  18502  18503  18509  18515     1  0.0000000  0.6694400  3
  18503  18502  18510  18513     1  0.0000000  1.0460000  1
  18503  18502  18510  18513     1  0.0000000  0.6694400  3
  18504  18503  18502  18506     1  0.0000000  0.6508444  3
  18504  18503  18509  18515     1  0.0000000  1.0460000  1
  18504  18503  18509  18515     1  0.0000000  0.6694400  3
  18505  18503  18502  18510     1  0.0000000  1.0460000  1
  18505  18503  18502  18510     1  0.0000000  0.0000000  3
  18505  18503  18502  18506     1  0.0000000  0.6508444  3
  18505  18503  18504  18508     1  0.0000000  1.0460000  1
  18505  18503  18504  18508     1  0.0000000  0.0000000  3
  18505  18503  18504  18520     1  0.0000000  1.0460000  1
  18505  18503  18504  18520     1  0.0000000  0.0000000  3
  18505  18503  18504  18507     1  0.0000000  0.6508444  3
  18505  18503  18509  18515     1  0.0000000  0.6973333  3
  18506  18502  18499  18511     1  0.0000000  1.0460000  1
  18506  18502  18499  18511     1  0.0000000  0.0000000  3
  18506  18502  18503  18509     1  0.0000000  1.0460000  1
  18506  18502  18503  18509     1  0.0000000  0.0000000  3
  18506  18502  18510  18513     1  0.0000000  0.6973333  3
  18507  18504  18503  18509     1  0.0000000  0.6508444  3
  18516  18512  18498  18520     1  0.0000000  1.0460000  1
  18516  18512  18498  18520     1  0.0000000  0.0000000  3
  18516  18512  18518  18519     1  0.0000000  0.6973333  3
  18517  18512  18498  18520     1  0.0000000  1.0460000  1
  18517  18512  18498  18520     1  0.0000000  0.0000000  3
  18517  18512  18518  18519     1  0.0000000  0.6973333  3
  18521  18522  18525  18529     1  0.0000000  0.6508444  3
  18521  18522  18534  18537     1  0.0000000  1.0460000  1
  18521  18522  18534  18537     1  0.0000000  0.6694400  3
  18521  18535  18541  18542     1  0.0000000  1.0460000  1
  18521  18535  18541  18542     1  0.0000000  0.6694400  3
  18521  18543  18527  18530     1  0.0000000  1.6038667  3
  18522  18525  18526  18528     1  0.0000000  0.6508444  3
  18522  18525  18533  18536     1  0.0000000  1.0460000  1
  18522  18525  18533  18536     1  0.0000000  0.6694400  3
  18522  18521  18535  18539     1  0.0000000  0.6508444  3
  18522  18521  18535  18540     1  0.0000000  0.6508444  3
  18523  18521  18522  18525     1  0.0000000  0.6508444  3
  18523  18521  18522  18534     1  0.0000000  1.0460000  1
  18523  18521  18522  18534     1  0.0000000  0.0000000  3
  18523  18521  18522  18524     1  0.0000000  0.6508444  3
  18523  18521  18535  18541     1  0.0000000  1.0460000  1
  18523  18521  18535  18541     1  0.0000000  0.0000000  3
  18523  18521  18535  18539     1  0.0000000  0.6508444  3
  18523  18521  18535  18540     1  0.0000000  0.6508444  3
  18523  18521  18543  18527     1  0.0000000  1.6038667  3
  18524  18522  18525  18526     1  0.0000000  0.6508444  3
  18524  18522  18525  18533     1  0.0000000  1.0460000  1
  18524  18522  18525  18533     1  0.0000000  0.0000000  3
  18524  18522  18525  18529     1  0.0000000  0.6508444  3
  18524  18522  18534  18537     1  0.0000000  0.6973333  3
  18524  18522  18521  18535     1  0.0000000  0.6508444  3
  18524  18522  18521  18543     1  0.0000000  1.0460000  1
  18524  18522  18521  18543     1  0.0000000  0.0000000  3
  18525  18526  18527  18530     1  0.0000000  0.6508444  3
  18525  18526  18532  18538     1  0.0000000  1.0460000  1
  18525  18526  18532  18538     1  0.0000000  0.6694400  3
  18525  18522  18534  18537     1  0.0000000  1.0460000  1
  18525  18522  18534  18537     1  0.0000000  0.6694400  3
  18526  18525  18533  18536     1  0.0000000  1.0460000  1
  18526  18525  18533  18536     1  0.0000000  0.6694400  3
  18527  18526  18532  18538     1  0.0000000  1.0460000  1
  18527  18526  18532  18538     1  0.0000000  0.6694400  3
  18527  18526  18525  18529     1  0.0000000  0.6508444  3
  18528  18526  18527  18531     1  0.0000000  1.0460000  1
  18528  18526  18527  18531     1  0.0000000  0.0000000  3
  18528  18526  18527  18543     1  0.0000000  1.0460000  1
  18528  18526  18527  18543     1  0.0000000  0.0000000  3
  18528  18526  18527  18530     1  0.0000000  0.6508444  3
  18528  18526  18532  18538     1  0.0000000  0.6973333  3
  18528  18526  18525  18533     1  0.0000000  1.0460000  1
  18528  18526  18525  18533     1  0.0000000  0.0000000  3
  18528  18526  18525  18529     1  0.0000000  0.6508444  3
  18529  18525  18526  18532     1  0.0000000  1.0460000  1
  18529  18525  18526  18532     1  0.0000000  0.0000000  3
  18529  18525  18533  18536     1  0.0000000  0.6973333  3
  18529  18525  18522  18534     1  0.0000000  1.0460000  1
  18529  18525  18522  18534     1  0.0000000  0.0000000  3
  18530  18527  18526  18532     1  0.0000000  0.6508444  3
  18539  18535  18541  18542     1  0.0000000  0.6973333  3
  18539  18535  18521  18543     1  0.0000000  1.0460000  1
  18539  18535  18521  18543     1  0.0000000  0.0000000  3
  18540  18535  18541  18542     1  0.0000000  0.6973333  3
  18540  18535  18521  18543     1  0.0000000  1.0460000  1
  18540  18535  18521  18543     1  0.0000000  0.0000000  3
  18544  18545  18548  18552     1  0.0000000  0.6508444  3
  18544  18545  18557  18560     1  0.0000000  1.0460000  1
  18544  18545  18557  18560     1  0.0000000  0.6694400  3
  18544  18558  18564  18565     1  0.0000000  1.0460000  1
  18544  18558  18564  18565     1  0.0000000  0.6694400  3
  18544  18566  18550  18553     1  0.0000000  1.6038667  3
  18545  18544  18558  18562     1  0.0000000  0.6508444  3
  18545  18544  18558  18563     1  0.0000000  0.6508444  3
  18545  18548  18549  18551     1  0.0000000  0.6508444  3
  18545  18548  18556  18559     1  0.0000000  1.0460000  1
  18545  18548  18556  18559     1  0.0000000  0.6694400  3
  18546  18544  18545  18548     1  0.0000000  0.6508444  3
  18546  18544  18545  18557     1  0.0000000  1.0460000  1
  18546  18544  18545  18557     1  0.0000000  0.0000000  3
  18546  18544  18545  18547     1  0.0000000  0.6508444  3
  18546  18544  18558  18564     1  0.0000000  1.0460000  1
  18546  18544  18558  18564     1  0.0000000  0.0000000  3
  18546  18544  18558  18562     1  0.0000000  0.6508444  3
  18546  18544  18558  18563     1  0.0000000  0.6508444  3
  18546  18544  18566  18550     1  0.0000000  1.6038667  3
  18547  18545  18544  18558     1  0.0000000  0.6508444  3
  18547  18545  18544  18566     1  0.0000000  1.0460000  1
  18547  18545  18544  18566     1  0.0000000  0.0000000  3
  18547  18545  18548  18549     1  0.0000000  0.6508444  3
  18547  18545  18548  18556     1  0.0000000  1.0460000  1
  18547  18545  18548  18556     1  0.0000000  0.0000000  3
  18547  18545  18548  18552     1  0.0000000  0.6508444  3
  18547  18545  18557  18560     1  0.0000000  0.6973333  3
  18548  18545  18557  18560     1  0.0000000  1.0460000  1
  18548  18545  18557  18560     1  0.0000000  0.6694400  3
  18548  18549  18550  18553     1  0.0000000  0.6508444  3
  18548  18549  18555  18561     1  0.0000000  1.0460000  1
  18548  18549  18555  18561     1  0.0000000  0.6694400  3
  18549  18548  18556  18559     1  0.0000000  1.0460000  1
  18549  18548  18556  18559     1  0.0000000  0.6694400  3
  18550  18549  18548  18552     1  0.0000000  0.6508444  3
  18550  18549  18555  18561     1  0.0000000  1.0460000  1
  18550  18549  18555  18561     1  0.0000000  0.6694400  3
  18551  18549  18548  18556     1  0.0000000  1.0460000  1
  18551  18549  18548  18556     1  0.0000000  0.0000000  3
  18551  18549  18548  18552     1  0.0000000  0.6508444  3
  18551  18549  18550  18554     1  0.0000000  1.0460000  1
  18551  18549  18550  18554     1  0.0000000  0.0000000  3
  18551  18549  18550  18566     1  0.0000000  1.0460000  1
  18551  18549  18550  18566     1  0.0000000  0.0000000  3
  18551  18549  18550  18553     1  0.0000000  0.6508444  3
  18551  18549  18555  18561     1  0.0000000  0.6973333  3
  18552  18548  18545  18557     1  0.0000000  1.0460000  1
  18552  18548  18545  18557     1  0.0000000  0.0000000  3
  18552  18548  18549  18555     1  0.0000000  1.0460000  1
  18552  18548  18549  18555     1  0.0000000  0.0000000  3
  18552  18548  18556  18559     1  0.0000000  0.6973333  3
  18553  18550  18549  18555     1  0.0000000  0.6508444  3
  18562  18558  18544  18566     1  0.0000000  1.0460000  1
  18562  18558  18544  18566     1  0.0000000  0.0000000  3
  18562  18558  18564  18565     1  0.0000000  0.6973333  3
  18563  18558  18544  18566     1  0.0000000  1.0460000  1
  18563  18558  18544  18566     1  0.0000000  0.0000000  3
  18563  18558  18564  18565     1  0.0000000  0.6973333  3
  18567  18568  18571  18575     1  0.0000000  0.6508444  3
  18567  18568  18580  18583     1  0.0000000  1.0460000  1
  18567  18568  18580  18583     1  0.0000000  0.6694400  3
  18567  18581  18587  18588     1  0.0000000  1.0460000  1
  18567  18581  18587  18588     1  0.0000000  0.6694400  3
  18567  18589  18573  18576     1  0.0000000  1.6038667  3
  18568  18571  18572  18574     1  0.0000000  0.6508444  3
  18568  18571  18579  18582     1  0.0000000  1.0460000  1
  18568  18571  18579  18582     1  0.0000000  0.6694400  3
  18568  18567  18581  18585     1  0.0000000  0.6508444  3
  18568  18567  18581  18586     1  0.0000000  0.6508444  3
  18569  18567  18568  18571     1  0.0000000  0.6508444  3
  18569  18567  18568  18580     1  0.0000000  1.0460000  1
  18569  18567  18568  18580     1  0.0000000  0.0000000  3
  18569  18567  18568  18570     1  0.0000000  0.6508444  3
  18569  18567  18581  18587     1  0.0000000  1.0460000  1
  18569  18567  18581  18587     1  0.0000000  0.0000000  3
  18569  18567  18581  18585     1  0.0000000  0.6508444  3
  18569  18567  18581  18586     1  0.0000000  0.6508444  3
  18569  18567  18589  18573     1  0.0000000  1.6038667  3
  18570  18568  18571  18572     1  0.0000000  0.6508444  3
  18570  18568  18571  18579     1  0.0000000  1.0460000  1
  18570  18568  18571  18579     1  0.0000000  0.0000000  3
  18570  18568  18571  18575     1  0.0000000  0.6508444  3
  18570  18568  18580  18583     1  0.0000000  0.6973333  3
  18570  18568  18567  18581     1  0.0000000  0.6508444  3
  18570  18568  18567  18589     1  0.0000000  1.0460000  1
  18570  18568  18567  18589     1  0.0000000  0.0000000  3
  18571  18572  18573  18576     1  0.0000000  0.6508444  3
  18571  18572  18578  18584     1  0.0000000  1.0460000  1
  18571  18572  18578  18584     1  0.0000000  0.6694400  3
  18571  18568  18580  18583     1  0.0000000  1.0460000  1
  18571  18568  18580  18583     1  0.0000000  0.6694400  3
  18572  18571  18579  18582     1  0.0000000  1.0460000  1
  18572  18571  18579  18582     1  0.0000000  0.6694400  3
  18573  18572  18578  18584     1  0.0000000  1.0460000  1
  18573  18572  18578  18584     1  0.0000000  0.6694400  3
  18573  18572  18571  18575     1  0.0000000  0.6508444  3
  18574  18572  18573  18577     1  0.0000000  1.0460000  1
  18574  18572  18573  18577     1  0.0000000  0.0000000  3
  18574  18572  18573  18589     1  0.0000000  1.0460000  1
  18574  18572  18573  18589     1  0.0000000  0.0000000  3
  18574  18572  18573  18576     1  0.0000000  0.6508444  3
  18574  18572  18578  18584     1  0.0000000  0.6973333  3
  18574  18572  18571  18579     1  0.0000000  1.0460000  1
  18574  18572  18571  18579     1  0.0000000  0.0000000  3
  18574  18572  18571  18575     1  0.0000000  0.6508444  3
  18575  18571  18572  18578     1  0.0000000  1.0460000  1
  18575  18571  18572  18578     1  0.0000000  0.0000000  3
  18575  18571  18579  18582     1  0.0000000  0.6973333  3
  18575  18571  18568  18580     1  0.0000000  1.0460000  1
  18575  18571  18568  18580     1  0.0000000  0.0000000  3
  18576  18573  18572  18578     1  0.0000000  0.6508444  3
  18585  18581  18587  18588     1  0.0000000  0.6973333  3
  18585  18581  18567  18589     1  0.0000000  1.0460000  1
  18585  18581  18567  18589     1  0.0000000  0.0000000  3
  18586  18581  18587  18588     1  0.0000000  0.6973333  3
  18586  18581  18567  18589     1  0.0000000  1.0460000  1
  18586  18581  18567  18589     1  0.0000000  0.0000000  3
  18590  18591  18594  18598     1  0.0000000  0.6508444  3
  18590  18591  18603  18606     1  0.0000000  1.0460000  1
  18590  18591  18603  18606     1  0.0000000  0.6694400  3
  18590  18604  18610  18611     1  0.0000000  1.0460000  1
  18590  18604  18610  18611     1  0.0000000  0.6694400  3
  18590  18612  18596  18599     1  0.0000000  1.6038667  3
  18591  18590  18604  18608     1  0.0000000  0.6508444  3
  18591  18590  18604  18609     1  0.0000000  0.6508444  3
  18591  18594  18595  18597     1  0.0000000  0.6508444  3
  18591  18594  18602  18605     1  0.0000000  1.0460000  1
  18591  18594  18602  18605     1  0.0000000  0.6694400  3
  18592  18590  18591  18594     1  0.0000000  0.6508444  3
  18592  18590  18591  18603     1  0.0000000  1.0460000  1
  18592  18590  18591  18603     1  0.0000000  0.0000000  3
  18592  18590  18591  18593     1  0.0000000  0.6508444  3
  18592  18590  18604  18610     1  0.0000000  1.0460000  1
  18592  18590  18604  18610     1  0.0000000  0.0000000  3
  18592  18590  18604  18608     1  0.0000000  0.6508444  3
  18592  18590  18604  18609     1  0.0000000  0.6508444  3
  18592  18590  18612  18596     1  0.0000000  1.6038667  3
  18593  18591  18590  18604     1  0.0000000  0.6508444  3
  18593  18591  18590  18612     1  0.0000000  1.0460000  1
  18593  18591  18590  18612     1  0.0000000  0.0000000  3
  18593  18591  18594  18595     1  0.0000000  0.6508444  3
  18593  18591  18594  18602     1  0.0000000  1.0460000  1
  18593  18591  18594  18602     1  0.0000000  0.0000000  3
  18593  18591  18594  18598     1  0.0000000  0.6508444  3
  18593  18591  18603  18606     1  0.0000000  0.6973333  3
  18594  18591  18603  18606     1  0.0000000  1.0460000  1
  18594  18591  18603  18606     1  0.0000000  0.6694400  3
  18594  18595  18596  18599     1  0.0000000  0.6508444  3
  18594  18595  18601  18607     1  0.0000000  1.0460000  1
  18594  18595  18601  18607     1  0.0000000  0.6694400  3
  18595  18594  18602  18605     1  0.0000000  1.0460000  1
  18595  18594  18602  18605     1  0.0000000  0.6694400  3
  18596  18595  18594  18598     1  0.0000000  0.6508444  3
  18596  18595  18601  18607     1  0.0000000  1.0460000  1
  18596  18595  18601  18607     1  0.0000000  0.6694400  3
  18597  18595  18594  18602     1  0.0000000  1.0460000  1
  18597  18595  18594  18602     1  0.0000000  0.0000000  3
  18597  18595  18594  18598     1  0.0000000  0.6508444  3
  18597  18595  18596  18600     1  0.0000000  1.0460000  1
  18597  18595  18596  18600     1  0.0000000  0.0000000  3
  18597  18595  18596  18612     1  0.0000000  1.0460000  1
  18597  18595  18596  18612     1  0.0000000  0.0000000  3
  18597  18595  18596  18599     1  0.0000000  0.6508444  3
  18597  18595  18601  18607     1  0.0000000  0.6973333  3
  18598  18594  18591  18603     1  0.0000000  1.0460000  1
  18598  18594  18591  18603     1  0.0000000  0.0000000  3
  18598  18594  18595  18601     1  0.0000000  1.0460000  1
  18598  18594  18595  18601     1  0.0000000  0.0000000  3
  18598  18594  18602  18605     1  0.0000000  0.6973333  3
  18599  18596  18595  18601     1  0.0000000  0.6508444  3
  18608  18604  18590  18612     1  0.0000000  1.0460000  1
  18608  18604  18590  18612     1  0.0000000  0.0000000  3
  18608  18604  18610  18611     1  0.0000000  0.6973333  3
  18609  18604  18590  18612     1  0.0000000  1.0460000  1
  18609  18604  18590  18612     1  0.0000000  0.0000000  3
  18609  18604  18610  18611     1  0.0000000  0.6973333  3
  18613  18614  18617  18621     1  0.0000000  0.6508444  3
  18613  18614  18626  18629     1  0.0000000  1.0460000  1
  18613  18614  18626  18629     1  0.0000000  0.6694400  3
  18613  18627  18633  18634     1  0.0000000  1.0460000  1
  18613  18627  18633  18634     1  0.0000000  0.6694400  3
  18613  18635  18619  18622     1  0.0000000  1.6038667  3
  18614  18617  18618  18620     1  0.0000000  0.6508444  3
  18614  18617  18625  18628     1  0.0000000  1.0460000  1
  18614  18617  18625  18628     1  0.0000000  0.6694400  3
  18614  18613  18627  18631     1  0.0000000  0.6508444  3
  18614  18613  18627  18632     1  0.0000000  0.6508444  3
  18615  18613  18614  18617     1  0.0000000  0.6508444  3
  18615  18613  18614  18626     1  0.0000000  1.0460000  1
  18615  18613  18614  18626     1  0.0000000  0.0000000  3
  18615  18613  18614  18616     1  0.0000000  0.6508444  3
  18615  18613  18627  18633     1  0.0000000  1.0460000  1
  18615  18613  18627  18633     1  0.0000000  0.0000000  3
  18615  18613  18627  18631     1  0.0000000  0.6508444  3
  18615  18613  18627  18632     1  0.0000000  0.6508444  3
  18615  18613  18635  18619     1  0.0000000  1.6038667  3
  18616  18614  18617  18618     1  0.0000000  0.6508444  3
  18616  18614  18617  18625     1  0.0000000  1.0460000  1
  18616  18614  18617  18625     1  0.0000000  0.0000000  3
  18616  18614  18617  18621     1  0.0000000  0.6508444  3
  18616  18614  18626  18629     1  0.0000000  0.6973333  3
  18616  18614  18613  18627     1  0.0000000  0.6508444  3
  18616  18614  18613  18635     1  0.0000000  1.0460000  1
  18616  18614  18613  18635     1  0.0000000  0.0000000  3
  18617  18618  18619  18622     1  0.0000000  0.6508444  3
  18617  18618  18624  18630     1  0.0000000  1.0460000  1
  18617  18618  18624  18630     1  0.0000000  0.6694400  3
  18617  18614  18626  18629     1  0.0000000  1.0460000  1
  18617  18614  18626  18629     1  0.0000000  0.6694400  3
  18618  18617  18625  18628     1  0.0000000  1.0460000  1
  18618  18617  18625  18628     1  0.0000000  0.6694400  3
  18619  18618  18624  18630     1  0.0000000  1.0460000  1
  18619  18618  18624  18630     1  0.0000000  0.6694400  3
  18619  18618  18617  18621     1  0.0000000  0.6508444  3
  18620  18618  18619  18623     1  0.0000000  1.0460000  1
  18620  18618  18619  18623     1  0.0000000  0.0000000  3
  18620  18618  18619  18635     1  0.0000000  1.0460000  1
  18620  18618  18619  18635     1  0.0000000  0.0000000  3
  18620  18618  18619  18622     1  0.0000000  0.6508444  3
  18620  18618  18624  18630     1  0.0000000  0.6973333  3
  18620  18618  18617  18625     1  0.0000000  1.0460000  1
  18620  18618  18617  18625     1  0.0000000  0.0000000  3
  18620  18618  18617  18621     1  0.0000000  0.6508444  3
  18621  18617  18618  18624     1  0.0000000  1.0460000  1
  18621  18617  18618  18624     1  0.0000000  0.0000000  3
  18621  18617  18625  18628     1  0.0000000  0.6973333  3
  18621  18617  18614  18626     1  0.0000000  1.0460000  1
  18621  18617  18614  18626     1  0.0000000  0.0000000  3
  18622  18619  18618  18624     1  0.0000000  0.6508444  3
  18631  18627  18633  18634     1  0.0000000  0.6973333  3
  18631  18627  18613  18635     1  0.0000000  1.0460000  1
  18631  18627  18613  18635     1  0.0000000  0.0000000  3
  18632  18627  18633  18634     1  0.0000000  0.6973333  3
  18632  18627  18613  18635     1  0.0000000  1.0460000  1
  18632  18627  18613  18635     1  0.0000000  0.0000000  3
  18636  18637  18640  18644     1  0.0000000  0.6508444  3
  18636  18637  18649  18652     1  0.0000000  1.0460000  1
  18636  18637  18649  18652     1  0.0000000  0.6694400  3
  18636  18650  18656  18657     1  0.0000000  1.0460000  1
  18636  18650  18656  18657     1  0.0000000  0.6694400  3
  18636  18658  18642  18645     1  0.0000000  1.6038667  3
  18637  18636  18650  18654     1  0.0000000  0.6508444  3
  18637  18636  18650  18655     1  0.0000000  0.6508444  3
  18637  18640  18641  18643     1  0.0000000  0.6508444  3
  18637  18640  18648  18651     1  0.0000000  1.0460000  1
  18637  18640  18648  18651     1  0.0000000  0.6694400  3
  18638  18636  18637  18640     1  0.0000000  0.6508444  3
  18638  18636  18637  18649     1  0.0000000  1.0460000  1
  18638  18636  18637  18649     1  0.0000000  0.0000000  3
  18638  18636  18637  18639     1  0.0000000  0.6508444  3
  18638  18636  18650  18656     1  0.0000000  1.0460000  1
  18638  18636  18650  18656     1  0.0000000  0.0000000  3
  18638  18636  18650  18654     1  0.0000000  0.6508444  3
  18638  18636  18650  18655     1  0.0000000  0.6508444  3
  18638  18636  18658  18642     1  0.0000000  1.6038667  3
  18639  18637  18636  18650     1  0.0000000  0.6508444  3
  18639  18637  18636  18658     1  0.0000000  1.0460000  1
  18639  18637  18636  18658     1  0.0000000  0.0000000  3
  18639  18637  18640  18641     1  0.0000000  0.6508444  3
  18639  18637  18640  18648     1  0.0000000  1.0460000  1
  18639  18637  18640  18648     1  0.0000000  0.0000000  3
  18639  18637  18640  18644     1  0.0000000  0.6508444  3
  18639  18637  18649  18652     1  0.0000000  0.6973333  3
  18640  18637  18649  18652     1  0.0000000  1.0460000  1
  18640  18637  18649  18652     1  0.0000000  0.6694400  3
  18640  18641  18642  18645     1  0.0000000  0.6508444  3
  18640  18641  18647  18653     1  0.0000000  1.0460000  1
  18640  18641  18647  18653     1  0.0000000  0.6694400  3
  18641  18640  18648  18651     1  0.0000000  1.0460000  1
  18641  18640  18648  18651     1  0.0000000  0.6694400  3
  18642  18641  18640  18644     1  0.0000000  0.6508444  3
  18642  18641  18647  18653     1  0.0000000  1.0460000  1
  18642  18641  18647  18653     1  0.0000000  0.6694400  3
  18643  18641  18640  18648     1  0.0000000  1.0460000  1
  18643  18641  18640  18648     1  0.0000000  0.0000000  3
  18643  18641  18640  18644     1  0.0000000  0.6508444  3
  18643  18641  18642  18646     1  0.0000000  1.0460000  1
  18643  18641  18642  18646     1  0.0000000  0.0000000  3
  18643  18641  18642  18658     1  0.0000000  1.0460000  1
  18643  18641  18642  18658     1  0.0000000  0.0000000  3
  18643  18641  18642  18645     1  0.0000000  0.6508444  3
  18643  18641  18647  18653     1  0.0000000  0.6973333  3
  18644  18640  18637  18649     1  0.0000000  1.0460000  1
  18644  18640  18637  18649     1  0.0000000  0.0000000  3
  18644  18640  18641  18647     1  0.0000000  1.0460000  1
  18644  18640  18641  18647     1  0.0000000  0.0000000  3
  18644  18640  18648  18651     1  0.0000000  0.6973333  3
  18645  18642  18641  18647     1  0.0000000  0.6508444  3
  18654  18650  18636  18658     1  0.0000000  1.0460000  1
  18654  18650  18636  18658     1  0.0000000  0.0000000  3
  18654  18650  18656  18657     1  0.0000000  0.6973333  3
  18655  18650  18636  18658     1  0.0000000  1.0460000  1
  18655  18650  18636  18658     1  0.0000000  0.0000000  3
  18655  18650  18656  18657     1  0.0000000  0.6973333  3
  18659  18660  18663  18667     1  0.0000000  0.6508444  3
  18659  18660  18672  18675     1  0.0000000  1.0460000  1
  18659  18660  18672  18675     1  0.0000000  0.6694400  3
  18659  18673  18679  18680     1  0.0000000  1.0460000  1
  18659  18673  18679  18680     1  0.0000000  0.6694400  3
  18659  18681  18665  18668     1  0.0000000  1.6038667  3
  18660  18663  18664  18666     1  0.0000000  0.6508444  3
  18660  18663  18671  18674     1  0.0000000  1.0460000  1
  18660  18663  18671  18674     1  0.0000000  0.6694400  3
  18660  18659  18673  18677     1  0.0000000  0.6508444  3
  18660  18659  18673  18678     1  0.0000000  0.6508444  3
  18661  18659  18660  18663     1  0.0000000  0.6508444  3
  18661  18659  18660  18672     1  0.0000000  1.0460000  1
  18661  18659  18660  18672     1  0.0000000  0.0000000  3
  18661  18659  18660  18662     1  0.0000000  0.6508444  3
  18661  18659  18673  18679     1  0.0000000  1.0460000  1
  18661  18659  18673  18679     1  0.0000000  0.0000000  3
  18661  18659  18673  18677     1  0.0000000  0.6508444  3
  18661  18659  18673  18678     1  0.0000000  0.6508444  3
  18661  18659  18681  18665     1  0.0000000  1.6038667  3
  18662  18660  18663  18664     1  0.0000000  0.6508444  3
  18662  18660  18663  18671     1  0.0000000  1.0460000  1
  18662  18660  18663  18671     1  0.0000000  0.0000000  3
  18662  18660  18663  18667     1  0.0000000  0.6508444  3
  18662  18660  18672  18675     1  0.0000000  0.6973333  3
  18662  18660  18659  18673     1  0.0000000  0.6508444  3
  18662  18660  18659  18681     1  0.0000000  1.0460000  1
  18662  18660  18659  18681     1  0.0000000  0.0000000  3
  18663  18664  18665  18668     1  0.0000000  0.6508444  3
  18663  18664  18670  18676     1  0.0000000  1.0460000  1
  18663  18664  18670  18676     1  0.0000000  0.6694400  3
  18663  18660  18672  18675     1  0.0000000  1.0460000  1
  18663  18660  18672  18675     1  0.0000000  0.6694400  3
  18664  18663  18671  18674     1  0.0000000  1.0460000  1
  18664  18663  18671  18674     1  0.0000000  0.6694400  3
  18665  18664  18670  18676     1  0.0000000  1.0460000  1
  18665  18664  18670  18676     1  0.0000000  0.6694400  3
  18665  18664  18663  18667     1  0.0000000  0.6508444  3
  18666  18664  18665  18669     1  0.0000000  1.0460000  1
  18666  18664  18665  18669     1  0.0000000  0.0000000  3
  18666  18664  18665  18681     1  0.0000000  1.0460000  1
  18666  18664  18665  18681     1  0.0000000  0.0000000  3
  18666  18664  18665  18668     1  0.0000000  0.6508444  3
  18666  18664  18670  18676     1  0.0000000  0.6973333  3
  18666  18664  18663  18671     1  0.0000000  1.0460000  1
  18666  18664  18663  18671     1  0.0000000  0.0000000  3
  18666  18664  18663  18667     1  0.0000000  0.6508444  3
  18667  18663  18664  18670     1  0.0000000  1.0460000  1
  18667  18663  18664  18670     1  0.0000000  0.0000000  3
  18667  18663  18671  18674     1  0.0000000  0.6973333  3
  18667  18663  18660  18672     1  0.0000000  1.0460000  1
  18667  18663  18660  18672     1  0.0000000  0.0000000  3
  18668  18665  18664  18670     1  0.0000000  0.6508444  3
  18677  18673  18679  18680     1  0.0000000  0.6973333  3
  18677  18673  18659  18681     1  0.0000000  1.0460000  1
  18677  18673  18659  18681     1  0.0000000  0.0000000  3
  18678  18673  18679  18680     1  0.0000000  0.6973333  3
  18678  18673  18659  18681     1  0.0000000  1.0460000  1
  18678  18673  18659  18681     1  0.0000000  0.0000000  3
  18682  18683  18686  18690     1  0.0000000  0.6508444  3
  18682  18683  18695  18698     1  0.0000000  1.0460000  1
  18682  18683  18695  18698     1  0.0000000  0.6694400  3
  18682  18696  18702  18703     1  0.0000000  1.0460000  1
  18682  18696  18702  18703     1  0.0000000  0.6694400  3
  18682  18704  18688  18691     1  0.0000000  1.6038667  3
  18683  18682  18696  18700     1  0.0000000  0.6508444  3
  18683  18682  18696  18701     1  0.0000000  0.6508444  3
  18683  18686  18687  18689     1  0.0000000  0.6508444  3
  18683  18686  18694  18697     1  0.0000000  1.0460000  1
  18683  18686  18694  18697     1  0.0000000  0.6694400  3
  18684  18682  18683  18686     1  0.0000000  0.6508444  3
  18684  18682  18683  18695     1  0.0000000  1.0460000  1
  18684  18682  18683  18695     1  0.0000000  0.0000000  3
  18684  18682  18683  18685     1  0.0000000  0.6508444  3
  18684  18682  18696  18702     1  0.0000000  1.0460000  1
  18684  18682  18696  18702     1  0.0000000  0.0000000  3
  18684  18682  18696  18700     1  0.0000000  0.6508444  3
  18684  18682  18696  18701     1  0.0000000  0.6508444  3
  18684  18682  18704  18688     1  0.0000000  1.6038667  3
  18685  18683  18682  18696     1  0.0000000  0.6508444  3
  18685  18683  18682  18704     1  0.0000000  1.0460000  1
  18685  18683  18682  18704     1  0.0000000  0.0000000  3
  18685  18683  18686  18687     1  0.0000000  0.6508444  3
  18685  18683  18686  18694     1  0.0000000  1.0460000  1
  18685  18683  18686  18694     1  0.0000000  0.0000000  3
  18685  18683  18686  18690     1  0.0000000  0.6508444  3
  18685  18683  18695  18698     1  0.0000000  0.6973333  3
  18686  18683  18695  18698     1  0.0000000  1.0460000  1
  18686  18683  18695  18698     1  0.0000000  0.6694400  3
  18686  18687  18688  18691     1  0.0000000  0.6508444  3
  18686  18687  18693  18699     1  0.0000000  1.0460000  1
  18686  18687  18693  18699     1  0.0000000  0.6694400  3
  18687  18686  18694  18697     1  0.0000000  1.0460000  1
  18687  18686  18694  18697     1  0.0000000  0.6694400  3
  18688  18687  18686  18690     1  0.0000000  0.6508444  3
  18688  18687  18693  18699     1  0.0000000  1.0460000  1
  18688  18687  18693  18699     1  0.0000000  0.6694400  3
  18689  18687  18686  18694     1  0.0000000  1.0460000  1
  18689  18687  18686  18694     1  0.0000000  0.0000000  3
  18689  18687  18686  18690     1  0.0000000  0.6508444  3
  18689  18687  18688  18692     1  0.0000000  1.0460000  1
  18689  18687  18688  18692     1  0.0000000  0.0000000  3
  18689  18687  18688  18704     1  0.0000000  1.0460000  1
  18689  18687  18688  18704     1  0.0000000  0.0000000  3
  18689  18687  18688  18691     1  0.0000000  0.6508444  3
  18689  18687  18693  18699     1  0.0000000  0.6973333  3
  18690  18686  18683  18695     1  0.0000000  1.0460000  1
  18690  18686  18683  18695     1  0.0000000  0.0000000  3
  18690  18686  18687  18693     1  0.0000000  1.0460000  1
  18690  18686  18687  18693     1  0.0000000  0.0000000  3
  18690  18686  18694  18697     1  0.0000000  0.6973333  3
  18691  18688  18687  18693     1  0.0000000  0.6508444  3
  18700  18696  18682  18704     1  0.0000000  1.0460000  1
  18700  18696  18682  18704     1  0.0000000  0.0000000  3
  18700  18696  18702  18703     1  0.0000000  0.6973333  3
  18701  18696  18682  18704     1  0.0000000  1.0460000  1
  18701  18696  18682  18704     1  0.0000000  0.0000000  3
  18701  18696  18702  18703     1  0.0000000  0.6973333  3
  18705  18706  18709  18713     1  0.0000000  0.6508444  3
  18705  18706  18718  18721     1  0.0000000  1.0460000  1
  18705  18706  18718  18721     1  0.0000000  0.6694400  3
  18705  18719  18725  18726     1  0.0000000  1.0460000  1
  18705  18719  18725  18726     1  0.0000000  0.6694400  3
  18705  18727  18711  18714     1  0.0000000  1.6038667  3
  18706  18709  18710  18712     1  0.0000000  0.6508444  3
  18706  18709  18717  18720     1  0.0000000  1.0460000  1
  18706  18709  18717  18720     1  0.0000000  0.6694400  3
  18706  18705  18719  18723     1  0.0000000  0.6508444  3
  18706  18705  18719  18724     1  0.0000000  0.6508444  3
  18707  18705  18706  18709     1  0.0000000  0.6508444  3
  18707  18705  18706  18718     1  0.0000000  1.0460000  1
  18707  18705  18706  18718     1  0.0000000  0.0000000  3
  18707  18705  18706  18708     1  0.0000000  0.6508444  3
  18707  18705  18719  18725     1  0.0000000  1.0460000  1
  18707  18705  18719  18725     1  0.0000000  0.0000000  3
  18707  18705  18719  18723     1  0.0000000  0.6508444  3
  18707  18705  18719  18724     1  0.0000000  0.6508444  3
  18707  18705  18727  18711     1  0.0000000  1.6038667  3
  18708  18706  18709  18710     1  0.0000000  0.6508444  3
  18708  18706  18709  18717     1  0.0000000  1.0460000  1
  18708  18706  18709  18717     1  0.0000000  0.0000000  3
  18708  18706  18709  18713     1  0.0000000  0.6508444  3
  18708  18706  18718  18721     1  0.0000000  0.6973333  3
  18708  18706  18705  18719     1  0.0000000  0.6508444  3
  18708  18706  18705  18727     1  0.0000000  1.0460000  1
  18708  18706  18705  18727     1  0.0000000  0.0000000  3
  18709  18710  18711  18714     1  0.0000000  0.6508444  3
  18709  18710  18716  18722     1  0.0000000  1.0460000  1
  18709  18710  18716  18722     1  0.0000000  0.6694400  3
  18709  18706  18718  18721     1  0.0000000  1.0460000  1
  18709  18706  18718  18721     1  0.0000000  0.6694400  3
  18710  18709  18717  18720     1  0.0000000  1.0460000  1
  18710  18709  18717  18720     1  0.0000000  0.6694400  3
  18711  18710  18716  18722     1  0.0000000  1.0460000  1
  18711  18710  18716  18722     1  0.0000000  0.6694400  3
  18711  18710  18709  18713     1  0.0000000  0.6508444  3
  18712  18710  18711  18715     1  0.0000000  1.0460000  1
  18712  18710  18711  18715     1  0.0000000  0.0000000  3
  18712  18710  18711  18727     1  0.0000000  1.0460000  1
  18712  18710  18711  18727     1  0.0000000  0.0000000  3
  18712  18710  18711  18714     1  0.0000000  0.6508444  3
  18712  18710  18716  18722     1  0.0000000  0.6973333  3
  18712  18710  18709  18717     1  0.0000000  1.0460000  1
  18712  18710  18709  18717     1  0.0000000  0.0000000  3
  18712  18710  18709  18713     1  0.0000000  0.6508444  3
  18713  18709  18710  18716     1  0.0000000  1.0460000  1
  18713  18709  18710  18716     1  0.0000000  0.0000000  3
  18713  18709  18717  18720     1  0.0000000  0.6973333  3
  18713  18709  18706  18718     1  0.0000000  1.0460000  1
  18713  18709  18706  18718     1  0.0000000  0.0000000  3
  18714  18711  18710  18716     1  0.0000000  0.6508444  3
  18723  18719  18725  18726     1  0.0000000  0.6973333  3
  18723  18719  18705  18727     1  0.0000000  1.0460000  1
  18723  18719  18705  18727     1  0.0000000  0.0000000  3
  18724  18719  18725  18726     1  0.0000000  0.6973333  3
  18724  18719  18705  18727     1  0.0000000  1.0460000  1
  18724  18719  18705  18727     1  0.0000000  0.0000000  3
  18728  18729  18732  18736     1  0.0000000  0.6508444  3
  18728  18729  18741  18744     1  0.0000000  1.0460000  1
  18728  18729  18741  18744     1  0.0000000  0.6694400  3
  18728  18742  18748  18749     1  0.0000000  1.0460000  1
  18728  18742  18748  18749     1  0.0000000  0.6694400  3
  18728  18750  18734  18737     1  0.0000000  1.6038667  3
  18729  18728  18742  18746     1  0.0000000  0.6508444  3
  18729  18728  18742  18747     1  0.0000000  0.6508444  3
  18729  18732  18733  18735     1  0.0000000  0.6508444  3
  18729  18732  18740  18743     1  0.0000000  1.0460000  1
  18729  18732  18740  18743     1  0.0000000  0.6694400  3
  18730  18728  18729  18732     1  0.0000000  0.6508444  3
  18730  18728  18729  18741     1  0.0000000  1.0460000  1
  18730  18728  18729  18741     1  0.0000000  0.0000000  3
  18730  18728  18729  18731     1  0.0000000  0.6508444  3
  18730  18728  18742  18748     1  0.0000000  1.0460000  1
  18730  18728  18742  18748     1  0.0000000  0.0000000  3
  18730  18728  18742  18746     1  0.0000000  0.6508444  3
  18730  18728  18742  18747     1  0.0000000  0.6508444  3
  18730  18728  18750  18734     1  0.0000000  1.6038667  3
  18731  18729  18728  18742     1  0.0000000  0.6508444  3
  18731  18729  18728  18750     1  0.0000000  1.0460000  1
  18731  18729  18728  18750     1  0.0000000  0.0000000  3
  18731  18729  18732  18733     1  0.0000000  0.6508444  3
  18731  18729  18732  18740     1  0.0000000  1.0460000  1
  18731  18729  18732  18740     1  0.0000000  0.0000000  3
  18731  18729  18732  18736     1  0.0000000  0.6508444  3
  18731  18729  18741  18744     1  0.0000000  0.6973333  3
  18732  18729  18741  18744     1  0.0000000  1.0460000  1
  18732  18729  18741  18744     1  0.0000000  0.6694400  3
  18732  18733  18734  18737     1  0.0000000  0.6508444  3
  18732  18733  18739  18745     1  0.0000000  1.0460000  1
  18732  18733  18739  18745     1  0.0000000  0.6694400  3
  18733  18732  18740  18743     1  0.0000000  1.0460000  1
  18733  18732  18740  18743     1  0.0000000  0.6694400  3
  18734  18733  18732  18736     1  0.0000000  0.6508444  3
  18734  18733  18739  18745     1  0.0000000  1.0460000  1
  18734  18733  18739  18745     1  0.0000000  0.6694400  3
  18735  18733  18732  18740     1  0.0000000  1.0460000  1
  18735  18733  18732  18740     1  0.0000000  0.0000000  3
  18735  18733  18732  18736     1  0.0000000  0.6508444  3
  18735  18733  18734  18738     1  0.0000000  1.0460000  1
  18735  18733  18734  18738     1  0.0000000  0.0000000  3
  18735  18733  18734  18750     1  0.0000000  1.0460000  1
  18735  18733  18734  18750     1  0.0000000  0.0000000  3
  18735  18733  18734  18737     1  0.0000000  0.6508444  3
  18735  18733  18739  18745     1  0.0000000  0.6973333  3
  18736  18732  18729  18741     1  0.0000000  1.0460000  1
  18736  18732  18729  18741     1  0.0000000  0.0000000  3
  18736  18732  18733  18739     1  0.0000000  1.0460000  1
  18736  18732  18733  18739     1  0.0000000  0.0000000  3
  18736  18732  18740  18743     1  0.0000000  0.6973333  3
  18737  18734  18733  18739     1  0.0000000  0.6508444  3
  18746  18742  18728  18750     1  0.0000000  1.0460000  1
  18746  18742  18728  18750     1  0.0000000  0.0000000  3
  18746  18742  18748  18749     1  0.0000000  0.6973333  3
  18747  18742  18728  18750     1  0.0000000  1.0460000  1
  18747  18742  18728  18750     1  0.0000000  0.0000000  3
  18747  18742  18748  18749     1  0.0000000  0.6973333  3
  18751  18752  18755  18759     1  0.0000000  0.6508444  3
  18751  18752  18764  18767     1  0.0000000  1.0460000  1
  18751  18752  18764  18767     1  0.0000000  0.6694400  3
  18751  18765  18771  18772     1  0.0000000  1.0460000  1
  18751  18765  18771  18772     1  0.0000000  0.6694400  3
  18751  18773  18757  18760     1  0.0000000  1.6038667  3
  18752  18755  18756  18758     1  0.0000000  0.6508444  3
  18752  18755  18763  18766     1  0.0000000  1.0460000  1
  18752  18755  18763  18766     1  0.0000000  0.6694400  3
  18752  18751  18765  18769     1  0.0000000  0.6508444  3
  18752  18751  18765  18770     1  0.0000000  0.6508444  3
  18753  18751  18752  18755     1  0.0000000  0.6508444  3
  18753  18751  18752  18764     1  0.0000000  1.0460000  1
  18753  18751  18752  18764     1  0.0000000  0.0000000  3
  18753  18751  18752  18754     1  0.0000000  0.6508444  3
  18753  18751  18765  18771     1  0.0000000  1.0460000  1
  18753  18751  18765  18771     1  0.0000000  0.0000000  3
  18753  18751  18765  18769     1  0.0000000  0.6508444  3
  18753  18751  18765  18770     1  0.0000000  0.6508444  3
  18753  18751  18773  18757     1  0.0000000  1.6038667  3
  18754  18752  18755  18756     1  0.0000000  0.6508444  3
  18754  18752  18755  18763     1  0.0000000  1.0460000  1
  18754  18752  18755  18763     1  0.0000000  0.0000000  3
  18754  18752  18755  18759     1  0.0000000  0.6508444  3
  18754  18752  18764  18767     1  0.0000000  0.6973333  3
  18754  18752  18751  18765     1  0.0000000  0.6508444  3
  18754  18752  18751  18773     1  0.0000000  1.0460000  1
  18754  18752  18751  18773     1  0.0000000  0.0000000  3
  18755  18756  18757  18760     1  0.0000000  0.6508444  3
  18755  18756  18762  18768     1  0.0000000  1.0460000  1
  18755  18756  18762  18768     1  0.0000000  0.6694400  3
  18755  18752  18764  18767     1  0.0000000  1.0460000  1
  18755  18752  18764  18767     1  0.0000000  0.6694400  3
  18756  18755  18763  18766     1  0.0000000  1.0460000  1
  18756  18755  18763  18766     1  0.0000000  0.6694400  3
  18757  18756  18762  18768     1  0.0000000  1.0460000  1
  18757  18756  18762  18768     1  0.0000000  0.6694400  3
  18757  18756  18755  18759     1  0.0000000  0.6508444  3
  18758  18756  18757  18761     1  0.0000000  1.0460000  1
  18758  18756  18757  18761     1  0.0000000  0.0000000  3
  18758  18756  18757  18773     1  0.0000000  1.0460000  1
  18758  18756  18757  18773     1  0.0000000  0.0000000  3
  18758  18756  18757  18760     1  0.0000000  0.6508444  3
  18758  18756  18762  18768     1  0.0000000  0.6973333  3
  18758  18756  18755  18763     1  0.0000000  1.0460000  1
  18758  18756  18755  18763     1  0.0000000  0.0000000  3
  18758  18756  18755  18759     1  0.0000000  0.6508444  3
  18759  18755  18756  18762     1  0.0000000  1.0460000  1
  18759  18755  18756  18762     1  0.0000000  0.0000000  3
  18759  18755  18763  18766     1  0.0000000  0.6973333  3
  18759  18755  18752  18764     1  0.0000000  1.0460000  1
  18759  18755  18752  18764     1  0.0000000  0.0000000  3
  18760  18757  18756  18762     1  0.0000000  0.6508444  3
  18769  18765  18771  18772     1  0.0000000  0.6973333  3
  18769  18765  18751  18773     1  0.0000000  1.0460000  1
  18769  18765  18751  18773     1  0.0000000  0.0000000  3
  18770  18765  18771  18772     1  0.0000000  0.6973333  3
  18770  18765  18751  18773     1  0.0000000  1.0460000  1
  18770  18765  18751  18773     1  0.0000000  0.0000000  3
  18774  18775  18778  18782     1  0.0000000  0.6508444  3
  18774  18775  18787  18790     1  0.0000000  1.0460000  1
  18774  18775  18787  18790     1  0.0000000  0.6694400  3
  18774  18788  18794  18795     1  0.0000000  1.0460000  1
  18774  18788  18794  18795     1  0.0000000  0.6694400  3
  18774  18796  18780  18783     1  0.0000000  1.6038667  3
  18775  18774  18788  18792     1  0.0000000  0.6508444  3
  18775  18774  18788  18793     1  0.0000000  0.6508444  3
  18775  18778  18779  18781     1  0.0000000  0.6508444  3
  18775  18778  18786  18789     1  0.0000000  1.0460000  1
  18775  18778  18786  18789     1  0.0000000  0.6694400  3
  18776  18774  18775  18778     1  0.0000000  0.6508444  3
  18776  18774  18775  18787     1  0.0000000  1.0460000  1
  18776  18774  18775  18787     1  0.0000000  0.0000000  3
  18776  18774  18775  18777     1  0.0000000  0.6508444  3
  18776  18774  18788  18794     1  0.0000000  1.0460000  1
  18776  18774  18788  18794     1  0.0000000  0.0000000  3
  18776  18774  18788  18792     1  0.0000000  0.6508444  3
  18776  18774  18788  18793     1  0.0000000  0.6508444  3
  18776  18774  18796  18780     1  0.0000000  1.6038667  3
  18777  18775  18774  18788     1  0.0000000  0.6508444  3
  18777  18775  18774  18796     1  0.0000000  1.0460000  1
  18777  18775  18774  18796     1  0.0000000  0.0000000  3
  18777  18775  18778  18779     1  0.0000000  0.6508444  3
  18777  18775  18778  18786     1  0.0000000  1.0460000  1
  18777  18775  18778  18786     1  0.0000000  0.0000000  3
  18777  18775  18778  18782     1  0.0000000  0.6508444  3
  18777  18775  18787  18790     1  0.0000000  0.6973333  3
  18778  18775  18787  18790     1  0.0000000  1.0460000  1
  18778  18775  18787  18790     1  0.0000000  0.6694400  3
  18778  18779  18780  18783     1  0.0000000  0.6508444  3
  18778  18779  18785  18791     1  0.0000000  1.0460000  1
  18778  18779  18785  18791     1  0.0000000  0.6694400  3
  18779  18778  18786  18789     1  0.0000000  1.0460000  1
  18779  18778  18786  18789     1  0.0000000  0.6694400  3
  18780  18779  18778  18782     1  0.0000000  0.6508444  3
  18780  18779  18785  18791     1  0.0000000  1.0460000  1
  18780  18779  18785  18791     1  0.0000000  0.6694400  3
  18781  18779  18778  18786     1  0.0000000  1.0460000  1
  18781  18779  18778  18786     1  0.0000000  0.0000000  3
  18781  18779  18778  18782     1  0.0000000  0.6508444  3
  18781  18779  18780  18784     1  0.0000000  1.0460000  1
  18781  18779  18780  18784     1  0.0000000  0.0000000  3
  18781  18779  18780  18796     1  0.0000000  1.0460000  1
  18781  18779  18780  18796     1  0.0000000  0.0000000  3
  18781  18779  18780  18783     1  0.0000000  0.6508444  3
  18781  18779  18785  18791     1  0.0000000  0.6973333  3
  18782  18778  18775  18787     1  0.0000000  1.0460000  1
  18782  18778  18775  18787     1  0.0000000  0.0000000  3
  18782  18778  18779  18785     1  0.0000000  1.0460000  1
  18782  18778  18779  18785     1  0.0000000  0.0000000  3
  18782  18778  18786  18789     1  0.0000000  0.6973333  3
  18783  18780  18779  18785     1  0.0000000  0.6508444  3
  18792  18788  18774  18796     1  0.0000000  1.0460000  1
  18792  18788  18774  18796     1  0.0000000  0.0000000  3
  18792  18788  18794  18795     1  0.0000000  0.6973333  3
  18793  18788  18774  18796     1  0.0000000  1.0460000  1
  18793  18788  18774  18796     1  0.0000000  0.0000000  3
  18793  18788  18794  18795     1  0.0000000  0.6973333  3
  18797  18798  18801  18805     1  0.0000000  0.6508444  3
  18797  18798  18810  18813     1  0.0000000  1.0460000  1
  18797  18798  18810  18813     1  0.0000000  0.6694400  3
  18797  18811  18817  18818     1  0.0000000  1.0460000  1
  18797  18811  18817  18818     1  0.0000000  0.6694400  3
  18797  18819  18803  18806     1  0.0000000  1.6038667  3
  18798  18801  18802  18804     1  0.0000000  0.6508444  3
  18798  18801  18809  18812     1  0.0000000  1.0460000  1
  18798  18801  18809  18812     1  0.0000000  0.6694400  3
  18798  18797  18811  18815     1  0.0000000  0.6508444  3
  18798  18797  18811  18816     1  0.0000000  0.6508444  3
  18799  18797  18798  18801     1  0.0000000  0.6508444  3
  18799  18797  18798  18810     1  0.0000000  1.0460000  1
  18799  18797  18798  18810     1  0.0000000  0.0000000  3
  18799  18797  18798  18800     1  0.0000000  0.6508444  3
  18799  18797  18811  18817     1  0.0000000  1.0460000  1
  18799  18797  18811  18817     1  0.0000000  0.0000000  3
  18799  18797  18811  18815     1  0.0000000  0.6508444  3
  18799  18797  18811  18816     1  0.0000000  0.6508444  3
  18799  18797  18819  18803     1  0.0000000  1.6038667  3
  18800  18798  18801  18802     1  0.0000000  0.6508444  3
  18800  18798  18801  18809     1  0.0000000  1.0460000  1
  18800  18798  18801  18809     1  0.0000000  0.0000000  3
  18800  18798  18801  18805     1  0.0000000  0.6508444  3
  18800  18798  18810  18813     1  0.0000000  0.6973333  3
  18800  18798  18797  18811     1  0.0000000  0.6508444  3
  18800  18798  18797  18819     1  0.0000000  1.0460000  1
  18800  18798  18797  18819     1  0.0000000  0.0000000  3
  18801  18802  18803  18806     1  0.0000000  0.6508444  3
  18801  18802  18808  18814     1  0.0000000  1.0460000  1
  18801  18802  18808  18814     1  0.0000000  0.6694400  3
  18801  18798  18810  18813     1  0.0000000  1.0460000  1
  18801  18798  18810  18813     1  0.0000000  0.6694400  3
  18802  18801  18809  18812     1  0.0000000  1.0460000  1
  18802  18801  18809  18812     1  0.0000000  0.6694400  3
  18803  18802  18808  18814     1  0.0000000  1.0460000  1
  18803  18802  18808  18814     1  0.0000000  0.6694400  3
  18803  18802  18801  18805     1  0.0000000  0.6508444  3
  18804  18802  18803  18807     1  0.0000000  1.0460000  1
  18804  18802  18803  18807     1  0.0000000  0.0000000  3
  18804  18802  18803  18819     1  0.0000000  1.0460000  1
  18804  18802  18803  18819     1  0.0000000  0.0000000  3
  18804  18802  18803  18806     1  0.0000000  0.6508444  3
  18804  18802  18808  18814     1  0.0000000  0.6973333  3
  18804  18802  18801  18809     1  0.0000000  1.0460000  1
  18804  18802  18801  18809     1  0.0000000  0.0000000  3
  18804  18802  18801  18805     1  0.0000000  0.6508444  3
  18805  18801  18802  18808     1  0.0000000  1.0460000  1
  18805  18801  18802  18808     1  0.0000000  0.0000000  3
  18805  18801  18809  18812     1  0.0000000  0.6973333  3
  18805  18801  18798  18810     1  0.0000000  1.0460000  1
  18805  18801  18798  18810     1  0.0000000  0.0000000  3
  18806  18803  18802  18808     1  0.0000000  0.6508444  3
  18815  18811  18817  18818     1  0.0000000  0.6973333  3
  18815  18811  18797  18819     1  0.0000000  1.0460000  1
  18815  18811  18797  18819     1  0.0000000  0.0000000  3
  18816  18811  18817  18818     1  0.0000000  0.6973333  3
  18816  18811  18797  18819     1  0.0000000  1.0460000  1
  18816  18811  18797  18819     1  0.0000000  0.0000000  3
  18820  18821  18824  18828     1  0.0000000  0.6508444  3
  18820  18821  18833  18836     1  0.0000000  1.0460000  1
  18820  18821  18833  18836     1  0.0000000  0.6694400  3
  18820  18834  18840  18841     1  0.0000000  1.0460000  1
  18820  18834  18840  18841     1  0.0000000  0.6694400  3
  18820  18842  18826  18829     1  0.0000000  1.6038667  3
  18821  18820  18834  18838     1  0.0000000  0.6508444  3
  18821  18820  18834  18839     1  0.0000000  0.6508444  3
  18821  18824  18825  18827     1  0.0000000  0.6508444  3
  18821  18824  18832  18835     1  0.0000000  1.0460000  1
  18821  18824  18832  18835     1  0.0000000  0.6694400  3
  18822  18820  18821  18824     1  0.0000000  0.6508444  3
  18822  18820  18821  18833     1  0.0000000  1.0460000  1
  18822  18820  18821  18833     1  0.0000000  0.0000000  3
  18822  18820  18821  18823     1  0.0000000  0.6508444  3
  18822  18820  18834  18840     1  0.0000000  1.0460000  1
  18822  18820  18834  18840     1  0.0000000  0.0000000  3
  18822  18820  18834  18838     1  0.0000000  0.6508444  3
  18822  18820  18834  18839     1  0.0000000  0.6508444  3
  18822  18820  18842  18826     1  0.0000000  1.6038667  3
  18823  18821  18820  18834     1  0.0000000  0.6508444  3
  18823  18821  18820  18842     1  0.0000000  1.0460000  1
  18823  18821  18820  18842     1  0.0000000  0.0000000  3
  18823  18821  18824  18825     1  0.0000000  0.6508444  3
  18823  18821  18824  18832     1  0.0000000  1.0460000  1
  18823  18821  18824  18832     1  0.0000000  0.0000000  3
  18823  18821  18824  18828     1  0.0000000  0.6508444  3
  18823  18821  18833  18836     1  0.0000000  0.6973333  3
  18824  18821  18833  18836     1  0.0000000  1.0460000  1
  18824  18821  18833  18836     1  0.0000000  0.6694400  3
  18824  18825  18826  18829     1  0.0000000  0.6508444  3
  18824  18825  18831  18837     1  0.0000000  1.0460000  1
  18824  18825  18831  18837     1  0.0000000  0.6694400  3
  18825  18824  18832  18835     1  0.0000000  1.0460000  1
  18825  18824  18832  18835     1  0.0000000  0.6694400  3
  18826  18825  18824  18828     1  0.0000000  0.6508444  3
  18826  18825  18831  18837     1  0.0000000  1.0460000  1
  18826  18825  18831  18837     1  0.0000000  0.6694400  3
  18827  18825  18824  18832     1  0.0000000  1.0460000  1
  18827  18825  18824  18832     1  0.0000000  0.0000000  3
  18827  18825  18824  18828     1  0.0000000  0.6508444  3
  18827  18825  18826  18830     1  0.0000000  1.0460000  1
  18827  18825  18826  18830     1  0.0000000  0.0000000  3
  18827  18825  18826  18842     1  0.0000000  1.0460000  1
  18827  18825  18826  18842     1  0.0000000  0.0000000  3
  18827  18825  18826  18829     1  0.0000000  0.6508444  3
  18827  18825  18831  18837     1  0.0000000  0.6973333  3
  18828  18824  18821  18833     1  0.0000000  1.0460000  1
  18828  18824  18821  18833     1  0.0000000  0.0000000  3
  18828  18824  18825  18831     1  0.0000000  1.0460000  1
  18828  18824  18825  18831     1  0.0000000  0.0000000  3
  18828  18824  18832  18835     1  0.0000000  0.6973333  3
  18829  18826  18825  18831     1  0.0000000  0.6508444  3
  18838  18834  18820  18842     1  0.0000000  1.0460000  1
  18838  18834  18820  18842     1  0.0000000  0.0000000  3
  18838  18834  18840  18841     1  0.0000000  0.6973333  3
  18839  18834  18820  18842     1  0.0000000  1.0460000  1
  18839  18834  18820  18842     1  0.0000000  0.0000000  3
  18839  18834  18840  18841     1  0.0000000  0.6973333  3
  18843  18844  18847  18851     1  0.0000000  0.6508444  3
  18843  18844  18856  18859     1  0.0000000  1.0460000  1
  18843  18844  18856  18859     1  0.0000000  0.6694400  3
  18843  18857  18863  18864     1  0.0000000  1.0460000  1
  18843  18857  18863  18864     1  0.0000000  0.6694400  3
  18843  18865  18849  18852     1  0.0000000  1.6038667  3
  18844  18847  18848  18850     1  0.0000000  0.6508444  3
  18844  18847  18855  18858     1  0.0000000  1.0460000  1
  18844  18847  18855  18858     1  0.0000000  0.6694400  3
  18844  18843  18857  18861     1  0.0000000  0.6508444  3
  18844  18843  18857  18862     1  0.0000000  0.6508444  3
  18845  18843  18844  18847     1  0.0000000  0.6508444  3
  18845  18843  18844  18856     1  0.0000000  1.0460000  1
  18845  18843  18844  18856     1  0.0000000  0.0000000  3
  18845  18843  18844  18846     1  0.0000000  0.6508444  3
  18845  18843  18857  18863     1  0.0000000  1.0460000  1
  18845  18843  18857  18863     1  0.0000000  0.0000000  3
  18845  18843  18857  18861     1  0.0000000  0.6508444  3
  18845  18843  18857  18862     1  0.0000000  0.6508444  3
  18845  18843  18865  18849     1  0.0000000  1.6038667  3
  18846  18844  18847  18848     1  0.0000000  0.6508444  3
  18846  18844  18847  18855     1  0.0000000  1.0460000  1
  18846  18844  18847  18855     1  0.0000000  0.0000000  3
  18846  18844  18847  18851     1  0.0000000  0.6508444  3
  18846  18844  18856  18859     1  0.0000000  0.6973333  3
  18846  18844  18843  18857     1  0.0000000  0.6508444  3
  18846  18844  18843  18865     1  0.0000000  1.0460000  1
  18846  18844  18843  18865     1  0.0000000  0.0000000  3
  18847  18848  18849  18852     1  0.0000000  0.6508444  3
  18847  18848  18854  18860     1  0.0000000  1.0460000  1
  18847  18848  18854  18860     1  0.0000000  0.6694400  3
  18847  18844  18856  18859     1  0.0000000  1.0460000  1
  18847  18844  18856  18859     1  0.0000000  0.6694400  3
  18848  18847  18855  18858     1  0.0000000  1.0460000  1
  18848  18847  18855  18858     1  0.0000000  0.6694400  3
  18849  18848  18854  18860     1  0.0000000  1.0460000  1
  18849  18848  18854  18860     1  0.0000000  0.6694400  3
  18849  18848  18847  18851     1  0.0000000  0.6508444  3
  18850  18848  18849  18853     1  0.0000000  1.0460000  1
  18850  18848  18849  18853     1  0.0000000  0.0000000  3
  18850  18848  18849  18865     1  0.0000000  1.0460000  1
  18850  18848  18849  18865     1  0.0000000  0.0000000  3
  18850  18848  18849  18852     1  0.0000000  0.6508444  3
  18850  18848  18854  18860     1  0.0000000  0.6973333  3
  18850  18848  18847  18855     1  0.0000000  1.0460000  1
  18850  18848  18847  18855     1  0.0000000  0.0000000  3
  18850  18848  18847  18851     1  0.0000000  0.6508444  3
  18851  18847  18848  18854     1  0.0000000  1.0460000  1
  18851  18847  18848  18854     1  0.0000000  0.0000000  3
  18851  18847  18855  18858     1  0.0000000  0.6973333  3
  18851  18847  18844  18856     1  0.0000000  1.0460000  1
  18851  18847  18844  18856     1  0.0000000  0.0000000  3
  18852  18849  18848  18854     1  0.0000000  0.6508444  3
  18861  18857  18863  18864     1  0.0000000  0.6973333  3
  18861  18857  18843  18865     1  0.0000000  1.0460000  1
  18861  18857  18843  18865     1  0.0000000  0.0000000  3
  18862  18857  18863  18864     1  0.0000000  0.6973333  3
  18862  18857  18843  18865     1  0.0000000  1.0460000  1
  18862  18857  18843  18865     1  0.0000000  0.0000000  3
  18866  18867  18870  18874     1  0.0000000  0.6508444  3
  18866  18867  18879  18882     1  0.0000000  1.0460000  1
  18866  18867  18879  18882     1  0.0000000  0.6694400  3
  18866  18880  18886  18887     1  0.0000000  1.0460000  1
  18866  18880  18886  18887     1  0.0000000  0.6694400  3
  18866  18888  18872  18875     1  0.0000000  1.6038667  3
  18867  18866  18880  18884     1  0.0000000  0.6508444  3
  18867  18866  18880  18885     1  0.0000000  0.6508444  3
  18867  18870  18871  18873     1  0.0000000  0.6508444  3
  18867  18870  18878  18881     1  0.0000000  1.0460000  1
  18867  18870  18878  18881     1  0.0000000  0.6694400  3
  18868  18866  18867  18870     1  0.0000000  0.6508444  3
  18868  18866  18867  18879     1  0.0000000  1.0460000  1
  18868  18866  18867  18879     1  0.0000000  0.0000000  3
  18868  18866  18867  18869     1  0.0000000  0.6508444  3
  18868  18866  18880  18886     1  0.0000000  1.0460000  1
  18868  18866  18880  18886     1  0.0000000  0.0000000  3
  18868  18866  18880  18884     1  0.0000000  0.6508444  3
  18868  18866  18880  18885     1  0.0000000  0.6508444  3
  18868  18866  18888  18872     1  0.0000000  1.6038667  3
  18869  18867  18866  18880     1  0.0000000  0.6508444  3
  18869  18867  18866  18888     1  0.0000000  1.0460000  1
  18869  18867  18866  18888     1  0.0000000  0.0000000  3
  18869  18867  18870  18871     1  0.0000000  0.6508444  3
  18869  18867  18870  18878     1  0.0000000  1.0460000  1
  18869  18867  18870  18878     1  0.0000000  0.0000000  3
  18869  18867  18870  18874     1  0.0000000  0.6508444  3
  18869  18867  18879  18882     1  0.0000000  0.6973333  3
  18870  18867  18879  18882     1  0.0000000  1.0460000  1
  18870  18867  18879  18882     1  0.0000000  0.6694400  3
  18870  18871  18872  18875     1  0.0000000  0.6508444  3
  18870  18871  18877  18883     1  0.0000000  1.0460000  1
  18870  18871  18877  18883     1  0.0000000  0.6694400  3
  18871  18870  18878  18881     1  0.0000000  1.0460000  1
  18871  18870  18878  18881     1  0.0000000  0.6694400  3
  18872  18871  18870  18874     1  0.0000000  0.6508444  3
  18872  18871  18877  18883     1  0.0000000  1.0460000  1
  18872  18871  18877  18883     1  0.0000000  0.6694400  3
  18873  18871  18870  18878     1  0.0000000  1.0460000  1
  18873  18871  18870  18878     1  0.0000000  0.0000000  3
  18873  18871  18870  18874     1  0.0000000  0.6508444  3
  18873  18871  18872  18876     1  0.0000000  1.0460000  1
  18873  18871  18872  18876     1  0.0000000  0.0000000  3
  18873  18871  18872  18888     1  0.0000000  1.0460000  1
  18873  18871  18872  18888     1  0.0000000  0.0000000  3
  18873  18871  18872  18875     1  0.0000000  0.6508444  3
  18873  18871  18877  18883     1  0.0000000  0.6973333  3
  18874  18870  18867  18879     1  0.0000000  1.0460000  1
  18874  18870  18867  18879     1  0.0000000  0.0000000  3
  18874  18870  18871  18877     1  0.0000000  1.0460000  1
  18874  18870  18871  18877     1  0.0000000  0.0000000  3
  18874  18870  18878  18881     1  0.0000000  0.6973333  3
  18875  18872  18871  18877     1  0.0000000  0.6508444  3
  18884  18880  18866  18888     1  0.0000000  1.0460000  1
  18884  18880  18866  18888     1  0.0000000  0.0000000  3
  18884  18880  18886  18887     1  0.0000000  0.6973333  3
  18885  18880  18866  18888     1  0.0000000  1.0460000  1
  18885  18880  18866  18888     1  0.0000000  0.0000000  3
  18885  18880  18886  18887     1  0.0000000  0.6973333  3
  18889  18890  18893  18897     1  0.0000000  0.6508444  3
  18889  18890  18902  18905     1  0.0000000  1.0460000  1
  18889  18890  18902  18905     1  0.0000000  0.6694400  3
  18889  18903  18909  18910     1  0.0000000  1.0460000  1
  18889  18903  18909  18910     1  0.0000000  0.6694400  3
  18889  18911  18895  18898     1  0.0000000  1.6038667  3
  18890  18893  18894  18896     1  0.0000000  0.6508444  3
  18890  18893  18901  18904     1  0.0000000  1.0460000  1
  18890  18893  18901  18904     1  0.0000000  0.6694400  3
  18890  18889  18903  18907     1  0.0000000  0.6508444  3
  18890  18889  18903  18908     1  0.0000000  0.6508444  3
  18891  18889  18890  18893     1  0.0000000  0.6508444  3
  18891  18889  18890  18902     1  0.0000000  1.0460000  1
  18891  18889  18890  18902     1  0.0000000  0.0000000  3
  18891  18889  18890  18892     1  0.0000000  0.6508444  3
  18891  18889  18903  18909     1  0.0000000  1.0460000  1
  18891  18889  18903  18909     1  0.0000000  0.0000000  3
  18891  18889  18903  18907     1  0.0000000  0.6508444  3
  18891  18889  18903  18908     1  0.0000000  0.6508444  3
  18891  18889  18911  18895     1  0.0000000  1.6038667  3
  18892  18890  18893  18894     1  0.0000000  0.6508444  3
  18892  18890  18893  18901     1  0.0000000  1.0460000  1
  18892  18890  18893  18901     1  0.0000000  0.0000000  3
  18892  18890  18893  18897     1  0.0000000  0.6508444  3
  18892  18890  18902  18905     1  0.0000000  0.6973333  3
  18892  18890  18889  18903     1  0.0000000  0.6508444  3
  18892  18890  18889  18911     1  0.0000000  1.0460000  1
  18892  18890  18889  18911     1  0.0000000  0.0000000  3
  18893  18894  18895  18898     1  0.0000000  0.6508444  3
  18893  18894  18900  18906     1  0.0000000  1.0460000  1
  18893  18894  18900  18906     1  0.0000000  0.6694400  3
  18893  18890  18902  18905     1  0.0000000  1.0460000  1
  18893  18890  18902  18905     1  0.0000000  0.6694400  3
  18894  18893  18901  18904     1  0.0000000  1.0460000  1
  18894  18893  18901  18904     1  0.0000000  0.6694400  3
  18895  18894  18900  18906     1  0.0000000  1.0460000  1
  18895  18894  18900  18906     1  0.0000000  0.6694400  3
  18895  18894  18893  18897     1  0.0000000  0.6508444  3
  18896  18894  18895  18899     1  0.0000000  1.0460000  1
  18896  18894  18895  18899     1  0.0000000  0.0000000  3
  18896  18894  18895  18911     1  0.0000000  1.0460000  1
  18896  18894  18895  18911     1  0.0000000  0.0000000  3
  18896  18894  18895  18898     1  0.0000000  0.6508444  3
  18896  18894  18900  18906     1  0.0000000  0.6973333  3
  18896  18894  18893  18901     1  0.0000000  1.0460000  1
  18896  18894  18893  18901     1  0.0000000  0.0000000  3
  18896  18894  18893  18897     1  0.0000000  0.6508444  3
  18897  18893  18894  18900     1  0.0000000  1.0460000  1
  18897  18893  18894  18900     1  0.0000000  0.0000000  3
  18897  18893  18901  18904     1  0.0000000  0.6973333  3
  18897  18893  18890  18902     1  0.0000000  1.0460000  1
  18897  18893  18890  18902     1  0.0000000  0.0000000  3
  18898  18895  18894  18900     1  0.0000000  0.6508444  3
  18907  18903  18909  18910     1  0.0000000  0.6973333  3
  18907  18903  18889  18911     1  0.0000000  1.0460000  1
  18907  18903  18889  18911     1  0.0000000  0.0000000  3
  18908  18903  18909  18910     1  0.0000000  0.6973333  3
  18908  18903  18889  18911     1  0.0000000  1.0460000  1
  18908  18903  18889  18911     1  0.0000000  0.0000000  3
  18912  18913  18916  18920     1  0.0000000  0.6508444  3
  18912  18913  18925  18928     1  0.0000000  1.0460000  1
  18912  18913  18925  18928     1  0.0000000  0.6694400  3
  18912  18926  18932  18933     1  0.0000000  1.0460000  1
  18912  18926  18932  18933     1  0.0000000  0.6694400  3
  18912  18934  18918  18921     1  0.0000000  1.6038667  3
  18913  18912  18926  18930     1  0.0000000  0.6508444  3
  18913  18912  18926  18931     1  0.0000000  0.6508444  3
  18913  18916  18917  18919     1  0.0000000  0.6508444  3
  18913  18916  18924  18927     1  0.0000000  1.0460000  1
  18913  18916  18924  18927     1  0.0000000  0.6694400  3
  18914  18912  18913  18916     1  0.0000000  0.6508444  3
  18914  18912  18913  18925     1  0.0000000  1.0460000  1
  18914  18912  18913  18925     1  0.0000000  0.0000000  3
  18914  18912  18913  18915     1  0.0000000  0.6508444  3
  18914  18912  18926  18932     1  0.0000000  1.0460000  1
  18914  18912  18926  18932     1  0.0000000  0.0000000  3
  18914  18912  18926  18930     1  0.0000000  0.6508444  3
  18914  18912  18926  18931     1  0.0000000  0.6508444  3
  18914  18912  18934  18918     1  0.0000000  1.6038667  3
  18915  18913  18912  18926     1  0.0000000  0.6508444  3
  18915  18913  18912  18934     1  0.0000000  1.0460000  1
  18915  18913  18912  18934     1  0.0000000  0.0000000  3
  18915  18913  18916  18917     1  0.0000000  0.6508444  3
  18915  18913  18916  18924     1  0.0000000  1.0460000  1
  18915  18913  18916  18924     1  0.0000000  0.0000000  3
  18915  18913  18916  18920     1  0.0000000  0.6508444  3
  18915  18913  18925  18928     1  0.0000000  0.6973333  3
  18916  18913  18925  18928     1  0.0000000  1.0460000  1
  18916  18913  18925  18928     1  0.0000000  0.6694400  3
  18916  18917  18918  18921     1  0.0000000  0.6508444  3
  18916  18917  18923  18929     1  0.0000000  1.0460000  1
  18916  18917  18923  18929     1  0.0000000  0.6694400  3
  18917  18916  18924  18927     1  0.0000000  1.0460000  1
  18917  18916  18924  18927     1  0.0000000  0.6694400  3
  18918  18917  18916  18920     1  0.0000000  0.6508444  3
  18918  18917  18923  18929     1  0.0000000  1.0460000  1
  18918  18917  18923  18929     1  0.0000000  0.6694400  3
  18919  18917  18916  18924     1  0.0000000  1.0460000  1
  18919  18917  18916  18924     1  0.0000000  0.0000000  3
  18919  18917  18916  18920     1  0.0000000  0.6508444  3
  18919  18917  18918  18922     1  0.0000000  1.0460000  1
  18919  18917  18918  18922     1  0.0000000  0.0000000  3
  18919  18917  18918  18934     1  0.0000000  1.0460000  1
  18919  18917  18918  18934     1  0.0000000  0.0000000  3
  18919  18917  18918  18921     1  0.0000000  0.6508444  3
  18919  18917  18923  18929     1  0.0000000  0.6973333  3
  18920  18916  18913  18925     1  0.0000000  1.0460000  1
  18920  18916  18913  18925     1  0.0000000  0.0000000  3
  18920  18916  18917  18923     1  0.0000000  1.0460000  1
  18920  18916  18917  18923     1  0.0000000  0.0000000  3
  18920  18916  18924  18927     1  0.0000000  0.6973333  3
  18921  18918  18917  18923     1  0.0000000  0.6508444  3
  18930  18926  18912  18934     1  0.0000000  1.0460000  1
  18930  18926  18912  18934     1  0.0000000  0.0000000  3
  18930  18926  18932  18933     1  0.0000000  0.6973333  3
  18931  18926  18912  18934     1  0.0000000  1.0460000  1
  18931  18926  18912  18934     1  0.0000000  0.0000000  3
  18931  18926  18932  18933     1  0.0000000  0.6973333  3
  18935  18936  18939  18943     1  0.0000000  0.6508444  3
  18935  18936  18948  18951     1  0.0000000  1.0460000  1
  18935  18936  18948  18951     1  0.0000000  0.6694400  3
  18935  18949  18955  18956     1  0.0000000  1.0460000  1
  18935  18949  18955  18956     1  0.0000000  0.6694400  3
  18935  18957  18941  18944     1  0.0000000  1.6038667  3
  18936  18939  18940  18942     1  0.0000000  0.6508444  3
  18936  18939  18947  18950     1  0.0000000  1.0460000  1
  18936  18939  18947  18950     1  0.0000000  0.6694400  3
  18936  18935  18949  18953     1  0.0000000  0.6508444  3
  18936  18935  18949  18954     1  0.0000000  0.6508444  3
  18937  18935  18936  18939     1  0.0000000  0.6508444  3
  18937  18935  18936  18948     1  0.0000000  1.0460000  1
  18937  18935  18936  18948     1  0.0000000  0.0000000  3
  18937  18935  18936  18938     1  0.0000000  0.6508444  3
  18937  18935  18949  18955     1  0.0000000  1.0460000  1
  18937  18935  18949  18955     1  0.0000000  0.0000000  3
  18937  18935  18949  18953     1  0.0000000  0.6508444  3
  18937  18935  18949  18954     1  0.0000000  0.6508444  3
  18937  18935  18957  18941     1  0.0000000  1.6038667  3
  18938  18936  18939  18940     1  0.0000000  0.6508444  3
  18938  18936  18939  18947     1  0.0000000  1.0460000  1
  18938  18936  18939  18947     1  0.0000000  0.0000000  3
  18938  18936  18939  18943     1  0.0000000  0.6508444  3
  18938  18936  18948  18951     1  0.0000000  0.6973333  3
  18938  18936  18935  18949     1  0.0000000  0.6508444  3
  18938  18936  18935  18957     1  0.0000000  1.0460000  1
  18938  18936  18935  18957     1  0.0000000  0.0000000  3
  18939  18940  18941  18944     1  0.0000000  0.6508444  3
  18939  18940  18946  18952     1  0.0000000  1.0460000  1
  18939  18940  18946  18952     1  0.0000000  0.6694400  3
  18939  18936  18948  18951     1  0.0000000  1.0460000  1
  18939  18936  18948  18951     1  0.0000000  0.6694400  3
  18940  18939  18947  18950     1  0.0000000  1.0460000  1
  18940  18939  18947  18950     1  0.0000000  0.6694400  3
  18941  18940  18946  18952     1  0.0000000  1.0460000  1
  18941  18940  18946  18952     1  0.0000000  0.6694400  3
  18941  18940  18939  18943     1  0.0000000  0.6508444  3
  18942  18940  18941  18945     1  0.0000000  1.0460000  1
  18942  18940  18941  18945     1  0.0000000  0.0000000  3
  18942  18940  18941  18957     1  0.0000000  1.0460000  1
  18942  18940  18941  18957     1  0.0000000  0.0000000  3
  18942  18940  18941  18944     1  0.0000000  0.6508444  3
  18942  18940  18946  18952     1  0.0000000  0.6973333  3
  18942  18940  18939  18947     1  0.0000000  1.0460000  1
  18942  18940  18939  18947     1  0.0000000  0.0000000  3
  18942  18940  18939  18943     1  0.0000000  0.6508444  3
  18943  18939  18940  18946     1  0.0000000  1.0460000  1
  18943  18939  18940  18946     1  0.0000000  0.0000000  3
  18943  18939  18947  18950     1  0.0000000  0.6973333  3
  18943  18939  18936  18948     1  0.0000000  1.0460000  1
  18943  18939  18936  18948     1  0.0000000  0.0000000  3
  18944  18941  18940  18946     1  0.0000000  0.6508444  3
  18953  18949  18955  18956     1  0.0000000  0.6973333  3
  18953  18949  18935  18957     1  0.0000000  1.0460000  1
  18953  18949  18935  18957     1  0.0000000  0.0000000  3
  18954  18949  18955  18956     1  0.0000000  0.6973333  3
  18954  18949  18935  18957     1  0.0000000  1.0460000  1
  18954  18949  18935  18957     1  0.0000000  0.0000000  3
  18958  18959  18962  18966     1  0.0000000  0.6508444  3
  18958  18959  18971  18974     1  0.0000000  1.0460000  1
  18958  18959  18971  18974     1  0.0000000  0.6694400  3
  18958  18972  18978  18979     1  0.0000000  1.0460000  1
  18958  18972  18978  18979     1  0.0000000  0.6694400  3
  18958  18980  18964  18967     1  0.0000000  1.6038667  3
  18959  18958  18972  18976     1  0.0000000  0.6508444  3
  18959  18958  18972  18977     1  0.0000000  0.6508444  3
  18959  18962  18963  18965     1  0.0000000  0.6508444  3
  18959  18962  18970  18973     1  0.0000000  1.0460000  1
  18959  18962  18970  18973     1  0.0000000  0.6694400  3
  18960  18958  18959  18962     1  0.0000000  0.6508444  3
  18960  18958  18959  18971     1  0.0000000  1.0460000  1
  18960  18958  18959  18971     1  0.0000000  0.0000000  3
  18960  18958  18959  18961     1  0.0000000  0.6508444  3
  18960  18958  18972  18978     1  0.0000000  1.0460000  1
  18960  18958  18972  18978     1  0.0000000  0.0000000  3
  18960  18958  18972  18976     1  0.0000000  0.6508444  3
  18960  18958  18972  18977     1  0.0000000  0.6508444  3
  18960  18958  18980  18964     1  0.0000000  1.6038667  3
  18961  18959  18958  18972     1  0.0000000  0.6508444  3
  18961  18959  18958  18980     1  0.0000000  1.0460000  1
  18961  18959  18958  18980     1  0.0000000  0.0000000  3
  18961  18959  18962  18963     1  0.0000000  0.6508444  3
  18961  18959  18962  18970     1  0.0000000  1.0460000  1
  18961  18959  18962  18970     1  0.0000000  0.0000000  3
  18961  18959  18962  18966     1  0.0000000  0.6508444  3
  18961  18959  18971  18974     1  0.0000000  0.6973333  3
  18962  18959  18971  18974     1  0.0000000  1.0460000  1
  18962  18959  18971  18974     1  0.0000000  0.6694400  3
  18962  18963  18964  18967     1  0.0000000  0.6508444  3
  18962  18963  18969  18975     1  0.0000000  1.0460000  1
  18962  18963  18969  18975     1  0.0000000  0.6694400  3
  18963  18962  18970  18973     1  0.0000000  1.0460000  1
  18963  18962  18970  18973     1  0.0000000  0.6694400  3
  18964  18963  18962  18966     1  0.0000000  0.6508444  3
  18964  18963  18969  18975     1  0.0000000  1.0460000  1
  18964  18963  18969  18975     1  0.0000000  0.6694400  3
  18965  18963  18962  18970     1  0.0000000  1.0460000  1
  18965  18963  18962  18970     1  0.0000000  0.0000000  3
  18965  18963  18962  18966     1  0.0000000  0.6508444  3
  18965  18963  18964  18968     1  0.0000000  1.0460000  1
  18965  18963  18964  18968     1  0.0000000  0.0000000  3
  18965  18963  18964  18980     1  0.0000000  1.0460000  1
  18965  18963  18964  18980     1  0.0000000  0.0000000  3
  18965  18963  18964  18967     1  0.0000000  0.6508444  3
  18965  18963  18969  18975     1  0.0000000  0.6973333  3
  18966  18962  18959  18971     1  0.0000000  1.0460000  1
  18966  18962  18959  18971     1  0.0000000  0.0000000  3
  18966  18962  18963  18969     1  0.0000000  1.0460000  1
  18966  18962  18963  18969     1  0.0000000  0.0000000  3
  18966  18962  18970  18973     1  0.0000000  0.6973333  3
  18967  18964  18963  18969     1  0.0000000  0.6508444  3
  18976  18972  18958  18980     1  0.0000000  1.0460000  1
  18976  18972  18958  18980     1  0.0000000  0.0000000  3
  18976  18972  18978  18979     1  0.0000000  0.6973333  3
  18977  18972  18958  18980     1  0.0000000  1.0460000  1
  18977  18972  18958  18980     1  0.0000000  0.0000000  3
  18977  18972  18978  18979     1  0.0000000  0.6973333  3
  18981  18982  18985  18989     1  0.0000000  0.6508444  3
  18981  18982  18994  18997     1  0.0000000  1.0460000  1
  18981  18982  18994  18997     1  0.0000000  0.6694400  3
  18981  18995  19001  19002     1  0.0000000  1.0460000  1
  18981  18995  19001  19002     1  0.0000000  0.6694400  3
  18981  19003  18987  18990     1  0.0000000  1.6038667  3
  18982  18985  18986  18988     1  0.0000000  0.6508444  3
  18982  18985  18993  18996     1  0.0000000  1.0460000  1
  18982  18985  18993  18996     1  0.0000000  0.6694400  3
  18982  18981  18995  18999     1  0.0000000  0.6508444  3
  18982  18981  18995  19000     1  0.0000000  0.6508444  3
  18983  18981  18982  18985     1  0.0000000  0.6508444  3
  18983  18981  18982  18994     1  0.0000000  1.0460000  1
  18983  18981  18982  18994     1  0.0000000  0.0000000  3
  18983  18981  18982  18984     1  0.0000000  0.6508444  3
  18983  18981  18995  19001     1  0.0000000  1.0460000  1
  18983  18981  18995  19001     1  0.0000000  0.0000000  3
  18983  18981  18995  18999     1  0.0000000  0.6508444  3
  18983  18981  18995  19000     1  0.0000000  0.6508444  3
  18983  18981  19003  18987     1  0.0000000  1.6038667  3
  18984  18982  18985  18986     1  0.0000000  0.6508444  3
  18984  18982  18985  18993     1  0.0000000  1.0460000  1
  18984  18982  18985  18993     1  0.0000000  0.0000000  3
  18984  18982  18985  18989     1  0.0000000  0.6508444  3
  18984  18982  18994  18997     1  0.0000000  0.6973333  3
  18984  18982  18981  18995     1  0.0000000  0.6508444  3
  18984  18982  18981  19003     1  0.0000000  1.0460000  1
  18984  18982  18981  19003     1  0.0000000  0.0000000  3
  18985  18986  18987  18990     1  0.0000000  0.6508444  3
  18985  18986  18992  18998     1  0.0000000  1.0460000  1
  18985  18986  18992  18998     1  0.0000000  0.6694400  3
  18985  18982  18994  18997     1  0.0000000  1.0460000  1
  18985  18982  18994  18997     1  0.0000000  0.6694400  3
  18986  18985  18993  18996     1  0.0000000  1.0460000  1
  18986  18985  18993  18996     1  0.0000000  0.6694400  3
  18987  18986  18992  18998     1  0.0000000  1.0460000  1
  18987  18986  18992  18998     1  0.0000000  0.6694400  3
  18987  18986  18985  18989     1  0.0000000  0.6508444  3
  18988  18986  18987  18991     1  0.0000000  1.0460000  1
  18988  18986  18987  18991     1  0.0000000  0.0000000  3
  18988  18986  18987  19003     1  0.0000000  1.0460000  1
  18988  18986  18987  19003     1  0.0000000  0.0000000  3
  18988  18986  18987  18990     1  0.0000000  0.6508444  3
  18988  18986  18992  18998     1  0.0000000  0.6973333  3
  18988  18986  18985  18993     1  0.0000000  1.0460000  1
  18988  18986  18985  18993     1  0.0000000  0.0000000  3
  18988  18986  18985  18989     1  0.0000000  0.6508444  3
  18989  18985  18986  18992     1  0.0000000  1.0460000  1
  18989  18985  18986  18992     1  0.0000000  0.0000000  3
  18989  18985  18993  18996     1  0.0000000  0.6973333  3
  18989  18985  18982  18994     1  0.0000000  1.0460000  1
  18989  18985  18982  18994     1  0.0000000  0.0000000  3
  18990  18987  18986  18992     1  0.0000000  0.6508444  3
  18999  18995  19001  19002     1  0.0000000  0.6973333  3
  18999  18995  18981  19003     1  0.0000000  1.0460000  1
  18999  18995  18981  19003     1  0.0000000  0.0000000  3
  19000  18995  19001  19002     1  0.0000000  0.6973333  3
  19000  18995  18981  19003     1  0.0000000  1.0460000  1
  19000  18995  18981  19003     1  0.0000000  0.0000000  3
  19004  19005  19008  19012     1  0.0000000  0.6508444  3
  19004  19005  19017  19020     1  0.0000000  1.0460000  1
  19004  19005  19017  19020     1  0.0000000  0.6694400  3
  19004  19018  19024  19025     1  0.0000000  1.0460000  1
  19004  19018  19024  19025     1  0.0000000  0.6694400  3
  19004  19026  19010  19013     1  0.0000000  1.6038667  3
  19005  19004  19018  19022     1  0.0000000  0.6508444  3
  19005  19004  19018  19023     1  0.0000000  0.6508444  3
  19005  19008  19009  19011     1  0.0000000  0.6508444  3
  19005  19008  19016  19019     1  0.0000000  1.0460000  1
  19005  19008  19016  19019     1  0.0000000  0.6694400  3
  19006  19004  19005  19008     1  0.0000000  0.6508444  3
  19006  19004  19005  19017     1  0.0000000  1.0460000  1
  19006  19004  19005  19017     1  0.0000000  0.0000000  3
  19006  19004  19005  19007     1  0.0000000  0.6508444  3
  19006  19004  19018  19024     1  0.0000000  1.0460000  1
  19006  19004  19018  19024     1  0.0000000  0.0000000  3
  19006  19004  19018  19022     1  0.0000000  0.6508444  3
  19006  19004  19018  19023     1  0.0000000  0.6508444  3
  19006  19004  19026  19010     1  0.0000000  1.6038667  3
  19007  19005  19004  19018     1  0.0000000  0.6508444  3
  19007  19005  19004  19026     1  0.0000000  1.0460000  1
  19007  19005  19004  19026     1  0.0000000  0.0000000  3
  19007  19005  19008  19009     1  0.0000000  0.6508444  3
  19007  19005  19008  19016     1  0.0000000  1.0460000  1
  19007  19005  19008  19016     1  0.0000000  0.0000000  3
  19007  19005  19008  19012     1  0.0000000  0.6508444  3
  19007  19005  19017  19020     1  0.0000000  0.6973333  3
  19008  19005  19017  19020     1  0.0000000  1.0460000  1
  19008  19005  19017  19020     1  0.0000000  0.6694400  3
  19008  19009  19010  19013     1  0.0000000  0.6508444  3
  19008  19009  19015  19021     1  0.0000000  1.0460000  1
  19008  19009  19015  19021     1  0.0000000  0.6694400  3
  19009  19008  19016  19019     1  0.0000000  1.0460000  1
  19009  19008  19016  19019     1  0.0000000  0.6694400  3
  19010  19009  19008  19012     1  0.0000000  0.6508444  3
  19010  19009  19015  19021     1  0.0000000  1.0460000  1
  19010  19009  19015  19021     1  0.0000000  0.6694400  3
  19011  19009  19008  19016     1  0.0000000  1.0460000  1
  19011  19009  19008  19016     1  0.0000000  0.0000000  3
  19011  19009  19008  19012     1  0.0000000  0.6508444  3
  19011  19009  19010  19014     1  0.0000000  1.0460000  1
  19011  19009  19010  19014     1  0.0000000  0.0000000  3
  19011  19009  19010  19026     1  0.0000000  1.0460000  1
  19011  19009  19010  19026     1  0.0000000  0.0000000  3
  19011  19009  19010  19013     1  0.0000000  0.6508444  3
  19011  19009  19015  19021     1  0.0000000  0.6973333  3
  19012  19008  19005  19017     1  0.0000000  1.0460000  1
  19012  19008  19005  19017     1  0.0000000  0.0000000  3
  19012  19008  19009  19015     1  0.0000000  1.0460000  1
  19012  19008  19009  19015     1  0.0000000  0.0000000  3
  19012  19008  19016  19019     1  0.0000000  0.6973333  3
  19013  19010  19009  19015     1  0.0000000  0.6508444  3
  19022  19018  19004  19026     1  0.0000000  1.0460000  1
  19022  19018  19004  19026     1  0.0000000  0.0000000  3
  19022  19018  19024  19025     1  0.0000000  0.6973333  3
  19023  19018  19004  19026     1  0.0000000  1.0460000  1
  19023  19018  19004  19026     1  0.0000000  0.0000000  3
  19023  19018  19024  19025     1  0.0000000  0.6973333  3
  19027  19028  19031  19035     1  0.0000000  0.6508444  3
  19027  19028  19040  19043     1  0.0000000  1.0460000  1
  19027  19028  19040  19043     1  0.0000000  0.6694400  3
  19027  19041  19047  19048     1  0.0000000  1.0460000  1
  19027  19041  19047  19048     1  0.0000000  0.6694400  3
  19027  19049  19033  19036     1  0.0000000  1.6038667  3
  19028  19031  19032  19034     1  0.0000000  0.6508444  3
  19028  19031  19039  19042     1  0.0000000  1.0460000  1
  19028  19031  19039  19042     1  0.0000000  0.6694400  3
  19028  19027  19041  19045     1  0.0000000  0.6508444  3
  19028  19027  19041  19046     1  0.0000000  0.6508444  3
  19029  19027  19028  19031     1  0.0000000  0.6508444  3
  19029  19027  19028  19040     1  0.0000000  1.0460000  1
  19029  19027  19028  19040     1  0.0000000  0.0000000  3
  19029  19027  19028  19030     1  0.0000000  0.6508444  3
  19029  19027  19041  19047     1  0.0000000  1.0460000  1
  19029  19027  19041  19047     1  0.0000000  0.0000000  3
  19029  19027  19041  19045     1  0.0000000  0.6508444  3
  19029  19027  19041  19046     1  0.0000000  0.6508444  3
  19029  19027  19049  19033     1  0.0000000  1.6038667  3
  19030  19028  19031  19032     1  0.0000000  0.6508444  3
  19030  19028  19031  19039     1  0.0000000  1.0460000  1
  19030  19028  19031  19039     1  0.0000000  0.0000000  3
  19030  19028  19031  19035     1  0.0000000  0.6508444  3
  19030  19028  19040  19043     1  0.0000000  0.6973333  3
  19030  19028  19027  19041     1  0.0000000  0.6508444  3
  19030  19028  19027  19049     1  0.0000000  1.0460000  1
  19030  19028  19027  19049     1  0.0000000  0.0000000  3
  19031  19032  19033  19036     1  0.0000000  0.6508444  3
  19031  19032  19038  19044     1  0.0000000  1.0460000  1
  19031  19032  19038  19044     1  0.0000000  0.6694400  3
  19031  19028  19040  19043     1  0.0000000  1.0460000  1
  19031  19028  19040  19043     1  0.0000000  0.6694400  3
  19032  19031  19039  19042     1  0.0000000  1.0460000  1
  19032  19031  19039  19042     1  0.0000000  0.6694400  3
  19033  19032  19038  19044     1  0.0000000  1.0460000  1
  19033  19032  19038  19044     1  0.0000000  0.6694400  3
  19033  19032  19031  19035     1  0.0000000  0.6508444  3
  19034  19032  19033  19037     1  0.0000000  1.0460000  1
  19034  19032  19033  19037     1  0.0000000  0.0000000  3
  19034  19032  19033  19049     1  0.0000000  1.0460000  1
  19034  19032  19033  19049     1  0.0000000  0.0000000  3
  19034  19032  19033  19036     1  0.0000000  0.6508444  3
  19034  19032  19038  19044     1  0.0000000  0.6973333  3
  19034  19032  19031  19039     1  0.0000000  1.0460000  1
  19034  19032  19031  19039     1  0.0000000  0.0000000  3
  19034  19032  19031  19035     1  0.0000000  0.6508444  3
  19035  19031  19032  19038     1  0.0000000  1.0460000  1
  19035  19031  19032  19038     1  0.0000000  0.0000000  3
  19035  19031  19039  19042     1  0.0000000  0.6973333  3
  19035  19031  19028  19040     1  0.0000000  1.0460000  1
  19035  19031  19028  19040     1  0.0000000  0.0000000  3
  19036  19033  19032  19038     1  0.0000000  0.6508444  3
  19045  19041  19047  19048     1  0.0000000  0.6973333  3
  19045  19041  19027  19049     1  0.0000000  1.0460000  1
  19045  19041  19027  19049     1  0.0000000  0.0000000  3
  19046  19041  19047  19048     1  0.0000000  0.6973333  3
  19046  19041  19027  19049     1  0.0000000  1.0460000  1
  19046  19041  19027  19049     1  0.0000000  0.0000000  3
  19050  19051  19054  19058     1  0.0000000  0.6508444  3
  19050  19051  19063  19066     1  0.0000000  1.0460000  1
  19050  19051  19063  19066     1  0.0000000  0.6694400  3
  19050  19064  19070  19071     1  0.0000000  1.0460000  1
  19050  19064  19070  19071     1  0.0000000  0.6694400  3
  19050  19072  19056  19059     1  0.0000000  1.6038667  3
  19051  19050  19064  19068     1  0.0000000  0.6508444  3
  19051  19050  19064  19069     1  0.0000000  0.6508444  3
  19051  19054  19055  19057     1  0.0000000  0.6508444  3
  19051  19054  19062  19065     1  0.0000000  1.0460000  1
  19051  19054  19062  19065     1  0.0000000  0.6694400  3
  19052  19050  19051  19054     1  0.0000000  0.6508444  3
  19052  19050  19051  19063     1  0.0000000  1.0460000  1
  19052  19050  19051  19063     1  0.0000000  0.0000000  3
  19052  19050  19051  19053     1  0.0000000  0.6508444  3
  19052  19050  19064  19070     1  0.0000000  1.0460000  1
  19052  19050  19064  19070     1  0.0000000  0.0000000  3
  19052  19050  19064  19068     1  0.0000000  0.6508444  3
  19052  19050  19064  19069     1  0.0000000  0.6508444  3
  19052  19050  19072  19056     1  0.0000000  1.6038667  3
  19053  19051  19050  19064     1  0.0000000  0.6508444  3
  19053  19051  19050  19072     1  0.0000000  1.0460000  1
  19053  19051  19050  19072     1  0.0000000  0.0000000  3
  19053  19051  19054  19055     1  0.0000000  0.6508444  3
  19053  19051  19054  19062     1  0.0000000  1.0460000  1
  19053  19051  19054  19062     1  0.0000000  0.0000000  3
  19053  19051  19054  19058     1  0.0000000  0.6508444  3
  19053  19051  19063  19066     1  0.0000000  0.6973333  3
  19054  19051  19063  19066     1  0.0000000  1.0460000  1
  19054  19051  19063  19066     1  0.0000000  0.6694400  3
  19054  19055  19056  19059     1  0.0000000  0.6508444  3
  19054  19055  19061  19067     1  0.0000000  1.0460000  1
  19054  19055  19061  19067     1  0.0000000  0.6694400  3
  19055  19054  19062  19065     1  0.0000000  1.0460000  1
  19055  19054  19062  19065     1  0.0000000  0.6694400  3
  19056  19055  19054  19058     1  0.0000000  0.6508444  3
  19056  19055  19061  19067     1  0.0000000  1.0460000  1
  19056  19055  19061  19067     1  0.0000000  0.6694400  3
  19057  19055  19054  19062     1  0.0000000  1.0460000  1
  19057  19055  19054  19062     1  0.0000000  0.0000000  3
  19057  19055  19054  19058     1  0.0000000  0.6508444  3
  19057  19055  19056  19060     1  0.0000000  1.0460000  1
  19057  19055  19056  19060     1  0.0000000  0.0000000  3
  19057  19055  19056  19072     1  0.0000000  1.0460000  1
  19057  19055  19056  19072     1  0.0000000  0.0000000  3
  19057  19055  19056  19059     1  0.0000000  0.6508444  3
  19057  19055  19061  19067     1  0.0000000  0.6973333  3
  19058  19054  19051  19063     1  0.0000000  1.0460000  1
  19058  19054  19051  19063     1  0.0000000  0.0000000  3
  19058  19054  19055  19061     1  0.0000000  1.0460000  1
  19058  19054  19055  19061     1  0.0000000  0.0000000  3
  19058  19054  19062  19065     1  0.0000000  0.6973333  3
  19059  19056  19055  19061     1  0.0000000  0.6508444  3
  19068  19064  19050  19072     1  0.0000000  1.0460000  1
  19068  19064  19050  19072     1  0.0000000  0.0000000  3
  19068  19064  19070  19071     1  0.0000000  0.6973333  3
  19069  19064  19050  19072     1  0.0000000  1.0460000  1
  19069  19064  19050  19072     1  0.0000000  0.0000000  3
  19069  19064  19070  19071     1  0.0000000  0.6973333  3
  19073  19074  19077  19081     1  0.0000000  0.6508444  3
  19073  19074  19086  19089     1  0.0000000  1.0460000  1
  19073  19074  19086  19089     1  0.0000000  0.6694400  3
  19073  19087  19093  19094     1  0.0000000  1.0460000  1
  19073  19087  19093  19094     1  0.0000000  0.6694400  3
  19073  19095  19079  19082     1  0.0000000  1.6038667  3
  19074  19077  19078  19080     1  0.0000000  0.6508444  3
  19074  19077  19085  19088     1  0.0000000  1.0460000  1
  19074  19077  19085  19088     1  0.0000000  0.6694400  3
  19074  19073  19087  19091     1  0.0000000  0.6508444  3
  19074  19073  19087  19092     1  0.0000000  0.6508444  3
  19075  19073  19074  19077     1  0.0000000  0.6508444  3
  19075  19073  19074  19086     1  0.0000000  1.0460000  1
  19075  19073  19074  19086     1  0.0000000  0.0000000  3
  19075  19073  19074  19076     1  0.0000000  0.6508444  3
  19075  19073  19087  19093     1  0.0000000  1.0460000  1
  19075  19073  19087  19093     1  0.0000000  0.0000000  3
  19075  19073  19087  19091     1  0.0000000  0.6508444  3
  19075  19073  19087  19092     1  0.0000000  0.6508444  3
  19075  19073  19095  19079     1  0.0000000  1.6038667  3
  19076  19074  19077  19078     1  0.0000000  0.6508444  3
  19076  19074  19077  19085     1  0.0000000  1.0460000  1
  19076  19074  19077  19085     1  0.0000000  0.0000000  3
  19076  19074  19077  19081     1  0.0000000  0.6508444  3
  19076  19074  19086  19089     1  0.0000000  0.6973333  3
  19076  19074  19073  19087     1  0.0000000  0.6508444  3
  19076  19074  19073  19095     1  0.0000000  1.0460000  1
  19076  19074  19073  19095     1  0.0000000  0.0000000  3
  19077  19078  19079  19082     1  0.0000000  0.6508444  3
  19077  19078  19084  19090     1  0.0000000  1.0460000  1
  19077  19078  19084  19090     1  0.0000000  0.6694400  3
  19077  19074  19086  19089     1  0.0000000  1.0460000  1
  19077  19074  19086  19089     1  0.0000000  0.6694400  3
  19078  19077  19085  19088     1  0.0000000  1.0460000  1
  19078  19077  19085  19088     1  0.0000000  0.6694400  3
  19079  19078  19084  19090     1  0.0000000  1.0460000  1
  19079  19078  19084  19090     1  0.0000000  0.6694400  3
  19079  19078  19077  19081     1  0.0000000  0.6508444  3
  19080  19078  19079  19083     1  0.0000000  1.0460000  1
  19080  19078  19079  19083     1  0.0000000  0.0000000  3
  19080  19078  19079  19095     1  0.0000000  1.0460000  1
  19080  19078  19079  19095     1  0.0000000  0.0000000  3
  19080  19078  19079  19082     1  0.0000000  0.6508444  3
  19080  19078  19084  19090     1  0.0000000  0.6973333  3
  19080  19078  19077  19085     1  0.0000000  1.0460000  1
  19080  19078  19077  19085     1  0.0000000  0.0000000  3
  19080  19078  19077  19081     1  0.0000000  0.6508444  3
  19081  19077  19078  19084     1  0.0000000  1.0460000  1
  19081  19077  19078  19084     1  0.0000000  0.0000000  3
  19081  19077  19085  19088     1  0.0000000  0.6973333  3
  19081  19077  19074  19086     1  0.0000000  1.0460000  1
  19081  19077  19074  19086     1  0.0000000  0.0000000  3
  19082  19079  19078  19084     1  0.0000000  0.6508444  3
  19091  19087  19093  19094     1  0.0000000  0.6973333  3
  19091  19087  19073  19095     1  0.0000000  1.0460000  1
  19091  19087  19073  19095     1  0.0000000  0.0000000  3
  19092  19087  19093  19094     1  0.0000000  0.6973333  3
  19092  19087  19073  19095     1  0.0000000  1.0460000  1
  19092  19087  19073  19095     1  0.0000000  0.0000000  3
  19096  19097  19100  19104     1  0.0000000  0.6508444  3
  19096  19097  19109  19112     1  0.0000000  1.0460000  1
  19096  19097  19109  19112     1  0.0000000  0.6694400  3
  19096  19110  19116  19117     1  0.0000000  1.0460000  1
  19096  19110  19116  19117     1  0.0000000  0.6694400  3
  19096  19118  19102  19105     1  0.0000000  1.6038667  3
  19097  19096  19110  19114     1  0.0000000  0.6508444  3
  19097  19096  19110  19115     1  0.0000000  0.6508444  3
  19097  19100  19101  19103     1  0.0000000  0.6508444  3
  19097  19100  19108  19111     1  0.0000000  1.0460000  1
  19097  19100  19108  19111     1  0.0000000  0.6694400  3
  19098  19096  19097  19100     1  0.0000000  0.6508444  3
  19098  19096  19097  19109     1  0.0000000  1.0460000  1
  19098  19096  19097  19109     1  0.0000000  0.0000000  3
  19098  19096  19097  19099     1  0.0000000  0.6508444  3
  19098  19096  19110  19116     1  0.0000000  1.0460000  1
  19098  19096  19110  19116     1  0.0000000  0.0000000  3
  19098  19096  19110  19114     1  0.0000000  0.6508444  3
  19098  19096  19110  19115     1  0.0000000  0.6508444  3
  19098  19096  19118  19102     1  0.0000000  1.6038667  3
  19099  19097  19096  19110     1  0.0000000  0.6508444  3
  19099  19097  19096  19118     1  0.0000000  1.0460000  1
  19099  19097  19096  19118     1  0.0000000  0.0000000  3
  19099  19097  19100  19101     1  0.0000000  0.6508444  3
  19099  19097  19100  19108     1  0.0000000  1.0460000  1
  19099  19097  19100  19108     1  0.0000000  0.0000000  3
  19099  19097  19100  19104     1  0.0000000  0.6508444  3
  19099  19097  19109  19112     1  0.0000000  0.6973333  3
  19100  19097  19109  19112     1  0.0000000  1.0460000  1
  19100  19097  19109  19112     1  0.0000000  0.6694400  3
  19100  19101  19102  19105     1  0.0000000  0.6508444  3
  19100  19101  19107  19113     1  0.0000000  1.0460000  1
  19100  19101  19107  19113     1  0.0000000  0.6694400  3
  19101  19100  19108  19111     1  0.0000000  1.0460000  1
  19101  19100  19108  19111     1  0.0000000  0.6694400  3
  19102  19101  19100  19104     1  0.0000000  0.6508444  3
  19102  19101  19107  19113     1  0.0000000  1.0460000  1
  19102  19101  19107  19113     1  0.0000000  0.6694400  3
  19103  19101  19100  19108     1  0.0000000  1.0460000  1
  19103  19101  19100  19108     1  0.0000000  0.0000000  3
  19103  19101  19100  19104     1  0.0000000  0.6508444  3
  19103  19101  19102  19106     1  0.0000000  1.0460000  1
  19103  19101  19102  19106     1  0.0000000  0.0000000  3
  19103  19101  19102  19118     1  0.0000000  1.0460000  1
  19103  19101  19102  19118     1  0.0000000  0.0000000  3
  19103  19101  19102  19105     1  0.0000000  0.6508444  3
  19103  19101  19107  19113     1  0.0000000  0.6973333  3
  19104  19100  19097  19109     1  0.0000000  1.0460000  1
  19104  19100  19097  19109     1  0.0000000  0.0000000  3
  19104  19100  19101  19107     1  0.0000000  1.0460000  1
  19104  19100  19101  19107     1  0.0000000  0.0000000  3
  19104  19100  19108  19111     1  0.0000000  0.6973333  3
  19105  19102  19101  19107     1  0.0000000  0.6508444  3
  19114  19110  19096  19118     1  0.0000000  1.0460000  1
  19114  19110  19096  19118     1  0.0000000  0.0000000  3
  19114  19110  19116  19117     1  0.0000000  0.6973333  3
  19115  19110  19096  19118     1  0.0000000  1.0460000  1
  19115  19110  19096  19118     1  0.0000000  0.0000000  3
  19115  19110  19116  19117     1  0.0000000  0.6973333  3
  19119  19120  19123  19127     1  0.0000000  0.6508444  3
  19119  19120  19132  19135     1  0.0000000  1.0460000  1
  19119  19120  19132  19135     1  0.0000000  0.6694400  3
  19119  19133  19139  19140     1  0.0000000  1.0460000  1
  19119  19133  19139  19140     1  0.0000000  0.6694400  3
  19119  19141  19125  19128     1  0.0000000  1.6038667  3
  19120  19123  19124  19126     1  0.0000000  0.6508444  3
  19120  19123  19131  19134     1  0.0000000  1.0460000  1
  19120  19123  19131  19134     1  0.0000000  0.6694400  3
  19120  19119  19133  19137     1  0.0000000  0.6508444  3
  19120  19119  19133  19138     1  0.0000000  0.6508444  3
  19121  19119  19120  19123     1  0.0000000  0.6508444  3
  19121  19119  19120  19132     1  0.0000000  1.0460000  1
  19121  19119  19120  19132     1  0.0000000  0.0000000  3
  19121  19119  19120  19122     1  0.0000000  0.6508444  3
  19121  19119  19133  19139     1  0.0000000  1.0460000  1
  19121  19119  19133  19139     1  0.0000000  0.0000000  3
  19121  19119  19133  19137     1  0.0000000  0.6508444  3
  19121  19119  19133  19138     1  0.0000000  0.6508444  3
  19121  19119  19141  19125     1  0.0000000  1.6038667  3
  19122  19120  19123  19124     1  0.0000000  0.6508444  3
  19122  19120  19123  19131     1  0.0000000  1.0460000  1
  19122  19120  19123  19131     1  0.0000000  0.0000000  3
  19122  19120  19123  19127     1  0.0000000  0.6508444  3
  19122  19120  19132  19135     1  0.0000000  0.6973333  3
  19122  19120  19119  19133     1  0.0000000  0.6508444  3
  19122  19120  19119  19141     1  0.0000000  1.0460000  1
  19122  19120  19119  19141     1  0.0000000  0.0000000  3
  19123  19124  19125  19128     1  0.0000000  0.6508444  3
  19123  19124  19130  19136     1  0.0000000  1.0460000  1
  19123  19124  19130  19136     1  0.0000000  0.6694400  3
  19123  19120  19132  19135     1  0.0000000  1.0460000  1
  19123  19120  19132  19135     1  0.0000000  0.6694400  3
  19124  19123  19131  19134     1  0.0000000  1.0460000  1
  19124  19123  19131  19134     1  0.0000000  0.6694400  3
  19125  19124  19130  19136     1  0.0000000  1.0460000  1
  19125  19124  19130  19136     1  0.0000000  0.6694400  3
  19125  19124  19123  19127     1  0.0000000  0.6508444  3
  19126  19124  19125  19129     1  0.0000000  1.0460000  1
  19126  19124  19125  19129     1  0.0000000  0.0000000  3
  19126  19124  19125  19141     1  0.0000000  1.0460000  1
  19126  19124  19125  19141     1  0.0000000  0.0000000  3
  19126  19124  19125  19128     1  0.0000000  0.6508444  3
  19126  19124  19130  19136     1  0.0000000  0.6973333  3
  19126  19124  19123  19131     1  0.0000000  1.0460000  1
  19126  19124  19123  19131     1  0.0000000  0.0000000  3
  19126  19124  19123  19127     1  0.0000000  0.6508444  3
  19127  19123  19124  19130     1  0.0000000  1.0460000  1
  19127  19123  19124  19130     1  0.0000000  0.0000000  3
  19127  19123  19131  19134     1  0.0000000  0.6973333  3
  19127  19123  19120  19132     1  0.0000000  1.0460000  1
  19127  19123  19120  19132     1  0.0000000  0.0000000  3
  19128  19125  19124  19130     1  0.0000000  0.6508444  3
  19137  19133  19139  19140     1  0.0000000  0.6973333  3
  19137  19133  19119  19141     1  0.0000000  1.0460000  1
  19137  19133  19119  19141     1  0.0000000  0.0000000  3
  19138  19133  19139  19140     1  0.0000000  0.6973333  3
  19138  19133  19119  19141     1  0.0000000  1.0460000  1
  19138  19133  19119  19141     1  0.0000000  0.0000000  3
  19142  19143  19146  19150     1  0.0000000  0.6508444  3
  19142  19143  19155  19158     1  0.0000000  1.0460000  1
  19142  19143  19155  19158     1  0.0000000  0.6694400  3
  19142  19156  19162  19163     1  0.0000000  1.0460000  1
  19142  19156  19162  19163     1  0.0000000  0.6694400  3
  19142  19164  19148  19151     1  0.0000000  1.6038667  3
  19143  19142  19156  19160     1  0.0000000  0.6508444  3
  19143  19142  19156  19161     1  0.0000000  0.6508444  3
  19143  19146  19147  19149     1  0.0000000  0.6508444  3
  19143  19146  19154  19157     1  0.0000000  1.0460000  1
  19143  19146  19154  19157     1  0.0000000  0.6694400  3
  19144  19142  19143  19146     1  0.0000000  0.6508444  3
  19144  19142  19143  19155     1  0.0000000  1.0460000  1
  19144  19142  19143  19155     1  0.0000000  0.0000000  3
  19144  19142  19143  19145     1  0.0000000  0.6508444  3
  19144  19142  19156  19162     1  0.0000000  1.0460000  1
  19144  19142  19156  19162     1  0.0000000  0.0000000  3
  19144  19142  19156  19160     1  0.0000000  0.6508444  3
  19144  19142  19156  19161     1  0.0000000  0.6508444  3
  19144  19142  19164  19148     1  0.0000000  1.6038667  3
  19145  19143  19142  19156     1  0.0000000  0.6508444  3
  19145  19143  19142  19164     1  0.0000000  1.0460000  1
  19145  19143  19142  19164     1  0.0000000  0.0000000  3
  19145  19143  19146  19147     1  0.0000000  0.6508444  3
  19145  19143  19146  19154     1  0.0000000  1.0460000  1
  19145  19143  19146  19154     1  0.0000000  0.0000000  3
  19145  19143  19146  19150     1  0.0000000  0.6508444  3
  19145  19143  19155  19158     1  0.0000000  0.6973333  3
  19146  19143  19155  19158     1  0.0000000  1.0460000  1
  19146  19143  19155  19158     1  0.0000000  0.6694400  3
  19146  19147  19148  19151     1  0.0000000  0.6508444  3
  19146  19147  19153  19159     1  0.0000000  1.0460000  1
  19146  19147  19153  19159     1  0.0000000  0.6694400  3
  19147  19146  19154  19157     1  0.0000000  1.0460000  1
  19147  19146  19154  19157     1  0.0000000  0.6694400  3
  19148  19147  19146  19150     1  0.0000000  0.6508444  3
  19148  19147  19153  19159     1  0.0000000  1.0460000  1
  19148  19147  19153  19159     1  0.0000000  0.6694400  3
  19149  19147  19146  19154     1  0.0000000  1.0460000  1
  19149  19147  19146  19154     1  0.0000000  0.0000000  3
  19149  19147  19146  19150     1  0.0000000  0.6508444  3
  19149  19147  19148  19152     1  0.0000000  1.0460000  1
  19149  19147  19148  19152     1  0.0000000  0.0000000  3
  19149  19147  19148  19164     1  0.0000000  1.0460000  1
  19149  19147  19148  19164     1  0.0000000  0.0000000  3
  19149  19147  19148  19151     1  0.0000000  0.6508444  3
  19149  19147  19153  19159     1  0.0000000  0.6973333  3
  19150  19146  19143  19155     1  0.0000000  1.0460000  1
  19150  19146  19143  19155     1  0.0000000  0.0000000  3
  19150  19146  19147  19153     1  0.0000000  1.0460000  1
  19150  19146  19147  19153     1  0.0000000  0.0000000  3
  19150  19146  19154  19157     1  0.0000000  0.6973333  3
  19151  19148  19147  19153     1  0.0000000  0.6508444  3
  19160  19156  19142  19164     1  0.0000000  1.0460000  1
  19160  19156  19142  19164     1  0.0000000  0.0000000  3
  19160  19156  19162  19163     1  0.0000000  0.6973333  3
  19161  19156  19142  19164     1  0.0000000  1.0460000  1
  19161  19156  19142  19164     1  0.0000000  0.0000000  3
  19161  19156  19162  19163     1  0.0000000  0.6973333  3
  19165  19166  19169  19173     1  0.0000000  0.6508444  3
  19165  19166  19178  19181     1  0.0000000  1.0460000  1
  19165  19166  19178  19181     1  0.0000000  0.6694400  3
  19165  19179  19185  19186     1  0.0000000  1.0460000  1
  19165  19179  19185  19186     1  0.0000000  0.6694400  3
  19165  19187  19171  19174     1  0.0000000  1.6038667  3
  19166  19169  19170  19172     1  0.0000000  0.6508444  3
  19166  19169  19177  19180     1  0.0000000  1.0460000  1
  19166  19169  19177  19180     1  0.0000000  0.6694400  3
  19166  19165  19179  19183     1  0.0000000  0.6508444  3
  19166  19165  19179  19184     1  0.0000000  0.6508444  3
  19167  19165  19166  19169     1  0.0000000  0.6508444  3
  19167  19165  19166  19178     1  0.0000000  1.0460000  1
  19167  19165  19166  19178     1  0.0000000  0.0000000  3
  19167  19165  19166  19168     1  0.0000000  0.6508444  3
  19167  19165  19179  19185     1  0.0000000  1.0460000  1
  19167  19165  19179  19185     1  0.0000000  0.0000000  3
  19167  19165  19179  19183     1  0.0000000  0.6508444  3
  19167  19165  19179  19184     1  0.0000000  0.6508444  3
  19167  19165  19187  19171     1  0.0000000  1.6038667  3
  19168  19166  19169  19170     1  0.0000000  0.6508444  3
  19168  19166  19169  19177     1  0.0000000  1.0460000  1
  19168  19166  19169  19177     1  0.0000000  0.0000000  3
  19168  19166  19169  19173     1  0.0000000  0.6508444  3
  19168  19166  19178  19181     1  0.0000000  0.6973333  3
  19168  19166  19165  19179     1  0.0000000  0.6508444  3
  19168  19166  19165  19187     1  0.0000000  1.0460000  1
  19168  19166  19165  19187     1  0.0000000  0.0000000  3
  19169  19170  19171  19174     1  0.0000000  0.6508444  3
  19169  19170  19176  19182     1  0.0000000  1.0460000  1
  19169  19170  19176  19182     1  0.0000000  0.6694400  3
  19169  19166  19178  19181     1  0.0000000  1.0460000  1
  19169  19166  19178  19181     1  0.0000000  0.6694400  3
  19170  19169  19177  19180     1  0.0000000  1.0460000  1
  19170  19169  19177  19180     1  0.0000000  0.6694400  3
  19171  19170  19176  19182     1  0.0000000  1.0460000  1
  19171  19170  19176  19182     1  0.0000000  0.6694400  3
  19171  19170  19169  19173     1  0.0000000  0.6508444  3
  19172  19170  19171  19175     1  0.0000000  1.0460000  1
  19172  19170  19171  19175     1  0.0000000  0.0000000  3
  19172  19170  19171  19187     1  0.0000000  1.0460000  1
  19172  19170  19171  19187     1  0.0000000  0.0000000  3
  19172  19170  19171  19174     1  0.0000000  0.6508444  3
  19172  19170  19176  19182     1  0.0000000  0.6973333  3
  19172  19170  19169  19177     1  0.0000000  1.0460000  1
  19172  19170  19169  19177     1  0.0000000  0.0000000  3
  19172  19170  19169  19173     1  0.0000000  0.6508444  3
  19173  19169  19170  19176     1  0.0000000  1.0460000  1
  19173  19169  19170  19176     1  0.0000000  0.0000000  3
  19173  19169  19177  19180     1  0.0000000  0.6973333  3
  19173  19169  19166  19178     1  0.0000000  1.0460000  1
  19173  19169  19166  19178     1  0.0000000  0.0000000  3
  19174  19171  19170  19176     1  0.0000000  0.6508444  3
  19183  19179  19185  19186     1  0.0000000  0.6973333  3
  19183  19179  19165  19187     1  0.0000000  1.0460000  1
  19183  19179  19165  19187     1  0.0000000  0.0000000  3
  19184  19179  19185  19186     1  0.0000000  0.6973333  3
  19184  19179  19165  19187     1  0.0000000  1.0460000  1
  19184  19179  19165  19187     1  0.0000000  0.0000000  3
  19188  19189  19192  19196     1  0.0000000  0.6508444  3
  19188  19189  19201  19204     1  0.0000000  1.0460000  1
  19188  19189  19201  19204     1  0.0000000  0.6694400  3
  19188  19202  19208  19209     1  0.0000000  1.0460000  1
  19188  19202  19208  19209     1  0.0000000  0.6694400  3
  19188  19210  19194  19197     1  0.0000000  1.6038667  3
  19189  19188  19202  19206     1  0.0000000  0.6508444  3
  19189  19188  19202  19207     1  0.0000000  0.6508444  3
  19189  19192  19193  19195     1  0.0000000  0.6508444  3
  19189  19192  19200  19203     1  0.0000000  1.0460000  1
  19189  19192  19200  19203     1  0.0000000  0.6694400  3
  19190  19188  19189  19192     1  0.0000000  0.6508444  3
  19190  19188  19189  19201     1  0.0000000  1.0460000  1
  19190  19188  19189  19201     1  0.0000000  0.0000000  3
  19190  19188  19189  19191     1  0.0000000  0.6508444  3
  19190  19188  19202  19208     1  0.0000000  1.0460000  1
  19190  19188  19202  19208     1  0.0000000  0.0000000  3
  19190  19188  19202  19206     1  0.0000000  0.6508444  3
  19190  19188  19202  19207     1  0.0000000  0.6508444  3
  19190  19188  19210  19194     1  0.0000000  1.6038667  3
  19191  19189  19188  19202     1  0.0000000  0.6508444  3
  19191  19189  19188  19210     1  0.0000000  1.0460000  1
  19191  19189  19188  19210     1  0.0000000  0.0000000  3
  19191  19189  19192  19193     1  0.0000000  0.6508444  3
  19191  19189  19192  19200     1  0.0000000  1.0460000  1
  19191  19189  19192  19200     1  0.0000000  0.0000000  3
  19191  19189  19192  19196     1  0.0000000  0.6508444  3
  19191  19189  19201  19204     1  0.0000000  0.6973333  3
  19192  19189  19201  19204     1  0.0000000  1.0460000  1
  19192  19189  19201  19204     1  0.0000000  0.6694400  3
  19192  19193  19194  19197     1  0.0000000  0.6508444  3
  19192  19193  19199  19205     1  0.0000000  1.0460000  1
  19192  19193  19199  19205     1  0.0000000  0.6694400  3
  19193  19192  19200  19203     1  0.0000000  1.0460000  1
  19193  19192  19200  19203     1  0.0000000  0.6694400  3
  19194  19193  19192  19196     1  0.0000000  0.6508444  3
  19194  19193  19199  19205     1  0.0000000  1.0460000  1
  19194  19193  19199  19205     1  0.0000000  0.6694400  3
  19195  19193  19192  19200     1  0.0000000  1.0460000  1
  19195  19193  19192  19200     1  0.0000000  0.0000000  3
  19195  19193  19192  19196     1  0.0000000  0.6508444  3
  19195  19193  19194  19198     1  0.0000000  1.0460000  1
  19195  19193  19194  19198     1  0.0000000  0.0000000  3
  19195  19193  19194  19210     1  0.0000000  1.0460000  1
  19195  19193  19194  19210     1  0.0000000  0.0000000  3
  19195  19193  19194  19197     1  0.0000000  0.6508444  3
  19195  19193  19199  19205     1  0.0000000  0.6973333  3
  19196  19192  19189  19201     1  0.0000000  1.0460000  1
  19196  19192  19189  19201     1  0.0000000  0.0000000  3
  19196  19192  19193  19199     1  0.0000000  1.0460000  1
  19196  19192  19193  19199     1  0.0000000  0.0000000  3
  19196  19192  19200  19203     1  0.0000000  0.6973333  3
  19197  19194  19193  19199     1  0.0000000  0.6508444  3
  19206  19202  19188  19210     1  0.0000000  1.0460000  1
  19206  19202  19188  19210     1  0.0000000  0.0000000  3
  19206  19202  19208  19209     1  0.0000000  0.6973333  3
  19207  19202  19188  19210     1  0.0000000  1.0460000  1
  19207  19202  19188  19210     1  0.0000000  0.0000000  3
  19207  19202  19208  19209     1  0.0000000  0.6973333  3
  19211  19212  19215  19219     1  0.0000000  0.6508444  3
  19211  19212  19224  19227     1  0.0000000  1.0460000  1
  19211  19212  19224  19227     1  0.0000000  0.6694400  3
  19211  19225  19231  19232     1  0.0000000  1.0460000  1
  19211  19225  19231  19232     1  0.0000000  0.6694400  3
  19211  19233  19217  19220     1  0.0000000  1.6038667  3
  19212  19215  19216  19218     1  0.0000000  0.6508444  3
  19212  19215  19223  19226     1  0.0000000  1.0460000  1
  19212  19215  19223  19226     1  0.0000000  0.6694400  3
  19212  19211  19225  19229     1  0.0000000  0.6508444  3
  19212  19211  19225  19230     1  0.0000000  0.6508444  3
  19213  19211  19212  19215     1  0.0000000  0.6508444  3
  19213  19211  19212  19224     1  0.0000000  1.0460000  1
  19213  19211  19212  19224     1  0.0000000  0.0000000  3
  19213  19211  19212  19214     1  0.0000000  0.6508444  3
  19213  19211  19225  19231     1  0.0000000  1.0460000  1
  19213  19211  19225  19231     1  0.0000000  0.0000000  3
  19213  19211  19225  19229     1  0.0000000  0.6508444  3
  19213  19211  19225  19230     1  0.0000000  0.6508444  3
  19213  19211  19233  19217     1  0.0000000  1.6038667  3
  19214  19212  19215  19216     1  0.0000000  0.6508444  3
  19214  19212  19215  19223     1  0.0000000  1.0460000  1
  19214  19212  19215  19223     1  0.0000000  0.0000000  3
  19214  19212  19215  19219     1  0.0000000  0.6508444  3
  19214  19212  19224  19227     1  0.0000000  0.6973333  3
  19214  19212  19211  19225     1  0.0000000  0.6508444  3
  19214  19212  19211  19233     1  0.0000000  1.0460000  1
  19214  19212  19211  19233     1  0.0000000  0.0000000  3
  19215  19216  19217  19220     1  0.0000000  0.6508444  3
  19215  19216  19222  19228     1  0.0000000  1.0460000  1
  19215  19216  19222  19228     1  0.0000000  0.6694400  3
  19215  19212  19224  19227     1  0.0000000  1.0460000  1
  19215  19212  19224  19227     1  0.0000000  0.6694400  3
  19216  19215  19223  19226     1  0.0000000  1.0460000  1
  19216  19215  19223  19226     1  0.0000000  0.6694400  3
  19217  19216  19222  19228     1  0.0000000  1.0460000  1
  19217  19216  19222  19228     1  0.0000000  0.6694400  3
  19217  19216  19215  19219     1  0.0000000  0.6508444  3
  19218  19216  19217  19221     1  0.0000000  1.0460000  1
  19218  19216  19217  19221     1  0.0000000  0.0000000  3
  19218  19216  19217  19233     1  0.0000000  1.0460000  1
  19218  19216  19217  19233     1  0.0000000  0.0000000  3
  19218  19216  19217  19220     1  0.0000000  0.6508444  3
  19218  19216  19222  19228     1  0.0000000  0.6973333  3
  19218  19216  19215  19223     1  0.0000000  1.0460000  1
  19218  19216  19215  19223     1  0.0000000  0.0000000  3
  19218  19216  19215  19219     1  0.0000000  0.6508444  3
  19219  19215  19216  19222     1  0.0000000  1.0460000  1
  19219  19215  19216  19222     1  0.0000000  0.0000000  3
  19219  19215  19223  19226     1  0.0000000  0.6973333  3
  19219  19215  19212  19224     1  0.0000000  1.0460000  1
  19219  19215  19212  19224     1  0.0000000  0.0000000  3
  19220  19217  19216  19222     1  0.0000000  0.6508444  3
  19229  19225  19231  19232     1  0.0000000  0.6973333  3
  19229  19225  19211  19233     1  0.0000000  1.0460000  1
  19229  19225  19211  19233     1  0.0000000  0.0000000  3
  19230  19225  19231  19232     1  0.0000000  0.6973333  3
  19230  19225  19211  19233     1  0.0000000  1.0460000  1
  19230  19225  19211  19233     1  0.0000000  0.0000000  3
  19234  19235  19238  19242     1  0.0000000  0.6508444  3
  19234  19235  19247  19250     1  0.0000000  1.0460000  1
  19234  19235  19247  19250     1  0.0000000  0.6694400  3
  19234  19248  19254  19255     1  0.0000000  1.0460000  1
  19234  19248  19254  19255     1  0.0000000  0.6694400  3
  19234  19256  19240  19243     1  0.0000000  1.6038667  3
  19235  19234  19248  19252     1  0.0000000  0.6508444  3
  19235  19234  19248  19253     1  0.0000000  0.6508444  3
  19235  19238  19239  19241     1  0.0000000  0.6508444  3
  19235  19238  19246  19249     1  0.0000000  1.0460000  1
  19235  19238  19246  19249     1  0.0000000  0.6694400  3
  19236  19234  19235  19238     1  0.0000000  0.6508444  3
  19236  19234  19235  19247     1  0.0000000  1.0460000  1
  19236  19234  19235  19247     1  0.0000000  0.0000000  3
  19236  19234  19235  19237     1  0.0000000  0.6508444  3
  19236  19234  19248  19254     1  0.0000000  1.0460000  1
  19236  19234  19248  19254     1  0.0000000  0.0000000  3
  19236  19234  19248  19252     1  0.0000000  0.6508444  3
  19236  19234  19248  19253     1  0.0000000  0.6508444  3
  19236  19234  19256  19240     1  0.0000000  1.6038667  3
  19237  19235  19234  19248     1  0.0000000  0.6508444  3
  19237  19235  19234  19256     1  0.0000000  1.0460000  1
  19237  19235  19234  19256     1  0.0000000  0.0000000  3
  19237  19235  19238  19239     1  0.0000000  0.6508444  3
  19237  19235  19238  19246     1  0.0000000  1.0460000  1
  19237  19235  19238  19246     1  0.0000000  0.0000000  3
  19237  19235  19238  19242     1  0.0000000  0.6508444  3
  19237  19235  19247  19250     1  0.0000000  0.6973333  3
  19238  19235  19247  19250     1  0.0000000  1.0460000  1
  19238  19235  19247  19250     1  0.0000000  0.6694400  3
  19238  19239  19240  19243     1  0.0000000  0.6508444  3
  19238  19239  19245  19251     1  0.0000000  1.0460000  1
  19238  19239  19245  19251     1  0.0000000  0.6694400  3
  19239  19238  19246  19249     1  0.0000000  1.0460000  1
  19239  19238  19246  19249     1  0.0000000  0.6694400  3
  19240  19239  19238  19242     1  0.0000000  0.6508444  3
  19240  19239  19245  19251     1  0.0000000  1.0460000  1
  19240  19239  19245  19251     1  0.0000000  0.6694400  3
  19241  19239  19238  19246     1  0.0000000  1.0460000  1
  19241  19239  19238  19246     1  0.0000000  0.0000000  3
  19241  19239  19238  19242     1  0.0000000  0.6508444  3
  19241  19239  19240  19244     1  0.0000000  1.0460000  1
  19241  19239  19240  19244     1  0.0000000  0.0000000  3
  19241  19239  19240  19256     1  0.0000000  1.0460000  1
  19241  19239  19240  19256     1  0.0000000  0.0000000  3
  19241  19239  19240  19243     1  0.0000000  0.6508444  3
  19241  19239  19245  19251     1  0.0000000  0.6973333  3
  19242  19238  19235  19247     1  0.0000000  1.0460000  1
  19242  19238  19235  19247     1  0.0000000  0.0000000  3
  19242  19238  19239  19245     1  0.0000000  1.0460000  1
  19242  19238  19239  19245     1  0.0000000  0.0000000  3
  19242  19238  19246  19249     1  0.0000000  0.6973333  3
  19243  19240  19239  19245     1  0.0000000  0.6508444  3
  19252  19248  19234  19256     1  0.0000000  1.0460000  1
  19252  19248  19234  19256     1  0.0000000  0.0000000  3
  19252  19248  19254  19255     1  0.0000000  0.6973333  3
  19253  19248  19234  19256     1  0.0000000  1.0460000  1
  19253  19248  19234  19256     1  0.0000000  0.0000000  3
  19253  19248  19254  19255     1  0.0000000  0.6973333  3
  19257  19258  19261  19265     1  0.0000000  0.6508444  3
  19257  19258  19270  19273     1  0.0000000  1.0460000  1
  19257  19258  19270  19273     1  0.0000000  0.6694400  3
  19257  19271  19277  19278     1  0.0000000  1.0460000  1
  19257  19271  19277  19278     1  0.0000000  0.6694400  3
  19257  19279  19263  19266     1  0.0000000  1.6038667  3
  19258  19261  19262  19264     1  0.0000000  0.6508444  3
  19258  19261  19269  19272     1  0.0000000  1.0460000  1
  19258  19261  19269  19272     1  0.0000000  0.6694400  3
  19258  19257  19271  19275     1  0.0000000  0.6508444  3
  19258  19257  19271  19276     1  0.0000000  0.6508444  3
  19259  19257  19258  19261     1  0.0000000  0.6508444  3
  19259  19257  19258  19270     1  0.0000000  1.0460000  1
  19259  19257  19258  19270     1  0.0000000  0.0000000  3
  19259  19257  19258  19260     1  0.0000000  0.6508444  3
  19259  19257  19271  19277     1  0.0000000  1.0460000  1
  19259  19257  19271  19277     1  0.0000000  0.0000000  3
  19259  19257  19271  19275     1  0.0000000  0.6508444  3
  19259  19257  19271  19276     1  0.0000000  0.6508444  3
  19259  19257  19279  19263     1  0.0000000  1.6038667  3
  19260  19258  19261  19262     1  0.0000000  0.6508444  3
  19260  19258  19261  19269     1  0.0000000  1.0460000  1
  19260  19258  19261  19269     1  0.0000000  0.0000000  3
  19260  19258  19261  19265     1  0.0000000  0.6508444  3
  19260  19258  19270  19273     1  0.0000000  0.6973333  3
  19260  19258  19257  19271     1  0.0000000  0.6508444  3
  19260  19258  19257  19279     1  0.0000000  1.0460000  1
  19260  19258  19257  19279     1  0.0000000  0.0000000  3
  19261  19262  19263  19266     1  0.0000000  0.6508444  3
  19261  19262  19268  19274     1  0.0000000  1.0460000  1
  19261  19262  19268  19274     1  0.0000000  0.6694400  3
  19261  19258  19270  19273     1  0.0000000  1.0460000  1
  19261  19258  19270  19273     1  0.0000000  0.6694400  3
  19262  19261  19269  19272     1  0.0000000  1.0460000  1
  19262  19261  19269  19272     1  0.0000000  0.6694400  3
  19263  19262  19268  19274     1  0.0000000  1.0460000  1
  19263  19262  19268  19274     1  0.0000000  0.6694400  3
  19263  19262  19261  19265     1  0.0000000  0.6508444  3
  19264  19262  19263  19267     1  0.0000000  1.0460000  1
  19264  19262  19263  19267     1  0.0000000  0.0000000  3
  19264  19262  19263  19279     1  0.0000000  1.0460000  1
  19264  19262  19263  19279     1  0.0000000  0.0000000  3
  19264  19262  19263  19266     1  0.0000000  0.6508444  3
  19264  19262  19268  19274     1  0.0000000  0.6973333  3
  19264  19262  19261  19269     1  0.0000000  1.0460000  1
  19264  19262  19261  19269     1  0.0000000  0.0000000  3
  19264  19262  19261  19265     1  0.0000000  0.6508444  3
  19265  19261  19262  19268     1  0.0000000  1.0460000  1
  19265  19261  19262  19268     1  0.0000000  0.0000000  3
  19265  19261  19269  19272     1  0.0000000  0.6973333  3
  19265  19261  19258  19270     1  0.0000000  1.0460000  1
  19265  19261  19258  19270     1  0.0000000  0.0000000  3
  19266  19263  19262  19268     1  0.0000000  0.6508444  3
  19275  19271  19277  19278     1  0.0000000  0.6973333  3
  19275  19271  19257  19279     1  0.0000000  1.0460000  1
  19275  19271  19257  19279     1  0.0000000  0.0000000  3
  19276  19271  19277  19278     1  0.0000000  0.6973333  3
  19276  19271  19257  19279     1  0.0000000  1.0460000  1
  19276  19271  19257  19279     1  0.0000000  0.0000000  3
  19280  19281  19284  19288     1  0.0000000  0.6508444  3
  19280  19281  19293  19296     1  0.0000000  1.0460000  1
  19280  19281  19293  19296     1  0.0000000  0.6694400  3
  19280  19294  19300  19301     1  0.0000000  1.0460000  1
  19280  19294  19300  19301     1  0.0000000  0.6694400  3
  19280  19302  19286  19289     1  0.0000000  1.6038667  3
  19281  19280  19294  19298     1  0.0000000  0.6508444  3
  19281  19280  19294  19299     1  0.0000000  0.6508444  3
  19281  19284  19285  19287     1  0.0000000  0.6508444  3
  19281  19284  19292  19295     1  0.0000000  1.0460000  1
  19281  19284  19292  19295     1  0.0000000  0.6694400  3
  19282  19280  19281  19284     1  0.0000000  0.6508444  3
  19282  19280  19281  19293     1  0.0000000  1.0460000  1
  19282  19280  19281  19293     1  0.0000000  0.0000000  3
  19282  19280  19281  19283     1  0.0000000  0.6508444  3
  19282  19280  19294  19300     1  0.0000000  1.0460000  1
  19282  19280  19294  19300     1  0.0000000  0.0000000  3
  19282  19280  19294  19298     1  0.0000000  0.6508444  3
  19282  19280  19294  19299     1  0.0000000  0.6508444  3
  19282  19280  19302  19286     1  0.0000000  1.6038667  3
  19283  19281  19280  19294     1  0.0000000  0.6508444  3
  19283  19281  19280  19302     1  0.0000000  1.0460000  1
  19283  19281  19280  19302     1  0.0000000  0.0000000  3
  19283  19281  19284  19285     1  0.0000000  0.6508444  3
  19283  19281  19284  19292     1  0.0000000  1.0460000  1
  19283  19281  19284  19292     1  0.0000000  0.0000000  3
  19283  19281  19284  19288     1  0.0000000  0.6508444  3
  19283  19281  19293  19296     1  0.0000000  0.6973333  3
  19284  19281  19293  19296     1  0.0000000  1.0460000  1
  19284  19281  19293  19296     1  0.0000000  0.6694400  3
  19284  19285  19286  19289     1  0.0000000  0.6508444  3
  19284  19285  19291  19297     1  0.0000000  1.0460000  1
  19284  19285  19291  19297     1  0.0000000  0.6694400  3
  19285  19284  19292  19295     1  0.0000000  1.0460000  1
  19285  19284  19292  19295     1  0.0000000  0.6694400  3
  19286  19285  19284  19288     1  0.0000000  0.6508444  3
  19286  19285  19291  19297     1  0.0000000  1.0460000  1
  19286  19285  19291  19297     1  0.0000000  0.6694400  3
  19287  19285  19284  19292     1  0.0000000  1.0460000  1
  19287  19285  19284  19292     1  0.0000000  0.0000000  3
  19287  19285  19284  19288     1  0.0000000  0.6508444  3
  19287  19285  19286  19290     1  0.0000000  1.0460000  1
  19287  19285  19286  19290     1  0.0000000  0.0000000  3
  19287  19285  19286  19302     1  0.0000000  1.0460000  1
  19287  19285  19286  19302     1  0.0000000  0.0000000  3
  19287  19285  19286  19289     1  0.0000000  0.6508444  3
  19287  19285  19291  19297     1  0.0000000  0.6973333  3
  19288  19284  19281  19293     1  0.0000000  1.0460000  1
  19288  19284  19281  19293     1  0.0000000  0.0000000  3
  19288  19284  19285  19291     1  0.0000000  1.0460000  1
  19288  19284  19285  19291     1  0.0000000  0.0000000  3
  19288  19284  19292  19295     1  0.0000000  0.6973333  3
  19289  19286  19285  19291     1  0.0000000  0.6508444  3
  19298  19294  19280  19302     1  0.0000000  1.0460000  1
  19298  19294  19280  19302     1  0.0000000  0.0000000  3
  19298  19294  19300  19301     1  0.0000000  0.6973333  3
  19299  19294  19280  19302     1  0.0000000  1.0460000  1
  19299  19294  19280  19302     1  0.0000000  0.0000000  3
  19299  19294  19300  19301     1  0.0000000  0.6973333  3
  19303  19304  19307  19311     1  0.0000000  0.6508444  3
  19303  19304  19316  19319     1  0.0000000  1.0460000  1
  19303  19304  19316  19319     1  0.0000000  0.6694400  3
  19303  19317  19323  19324     1  0.0000000  1.0460000  1
  19303  19317  19323  19324     1  0.0000000  0.6694400  3
  19303  19325  19309  19312     1  0.0000000  1.6038667  3
  19304  19307  19308  19310     1  0.0000000  0.6508444  3
  19304  19307  19315  19318     1  0.0000000  1.0460000  1
  19304  19307  19315  19318     1  0.0000000  0.6694400  3
  19304  19303  19317  19321     1  0.0000000  0.6508444  3
  19304  19303  19317  19322     1  0.0000000  0.6508444  3
  19305  19303  19304  19307     1  0.0000000  0.6508444  3
  19305  19303  19304  19316     1  0.0000000  1.0460000  1
  19305  19303  19304  19316     1  0.0000000  0.0000000  3
  19305  19303  19304  19306     1  0.0000000  0.6508444  3
  19305  19303  19317  19323     1  0.0000000  1.0460000  1
  19305  19303  19317  19323     1  0.0000000  0.0000000  3
  19305  19303  19317  19321     1  0.0000000  0.6508444  3
  19305  19303  19317  19322     1  0.0000000  0.6508444  3
  19305  19303  19325  19309     1  0.0000000  1.6038667  3
  19306  19304  19307  19308     1  0.0000000  0.6508444  3
  19306  19304  19307  19315     1  0.0000000  1.0460000  1
  19306  19304  19307  19315     1  0.0000000  0.0000000  3
  19306  19304  19307  19311     1  0.0000000  0.6508444  3
  19306  19304  19316  19319     1  0.0000000  0.6973333  3
  19306  19304  19303  19317     1  0.0000000  0.6508444  3
  19306  19304  19303  19325     1  0.0000000  1.0460000  1
  19306  19304  19303  19325     1  0.0000000  0.0000000  3
  19307  19308  19309  19312     1  0.0000000  0.6508444  3
  19307  19308  19314  19320     1  0.0000000  1.0460000  1
  19307  19308  19314  19320     1  0.0000000  0.6694400  3
  19307  19304  19316  19319     1  0.0000000  1.0460000  1
  19307  19304  19316  19319     1  0.0000000  0.6694400  3
  19308  19307  19315  19318     1  0.0000000  1.0460000  1
  19308  19307  19315  19318     1  0.0000000  0.6694400  3
  19309  19308  19314  19320     1  0.0000000  1.0460000  1
  19309  19308  19314  19320     1  0.0000000  0.6694400  3
  19309  19308  19307  19311     1  0.0000000  0.6508444  3
  19310  19308  19309  19313     1  0.0000000  1.0460000  1
  19310  19308  19309  19313     1  0.0000000  0.0000000  3
  19310  19308  19309  19325     1  0.0000000  1.0460000  1
  19310  19308  19309  19325     1  0.0000000  0.0000000  3
  19310  19308  19309  19312     1  0.0000000  0.6508444  3
  19310  19308  19314  19320     1  0.0000000  0.6973333  3
  19310  19308  19307  19315     1  0.0000000  1.0460000  1
  19310  19308  19307  19315     1  0.0000000  0.0000000  3
  19310  19308  19307  19311     1  0.0000000  0.6508444  3
  19311  19307  19308  19314     1  0.0000000  1.0460000  1
  19311  19307  19308  19314     1  0.0000000  0.0000000  3
  19311  19307  19315  19318     1  0.0000000  0.6973333  3
  19311  19307  19304  19316     1  0.0000000  1.0460000  1
  19311  19307  19304  19316     1  0.0000000  0.0000000  3
  19312  19309  19308  19314     1  0.0000000  0.6508444  3
  19321  19317  19323  19324     1  0.0000000  0.6973333  3
  19321  19317  19303  19325     1  0.0000000  1.0460000  1
  19321  19317  19303  19325     1  0.0000000  0.0000000  3
  19322  19317  19323  19324     1  0.0000000  0.6973333  3
  19322  19317  19303  19325     1  0.0000000  1.0460000  1
  19322  19317  19303  19325     1  0.0000000  0.0000000  3
  19326  19327  19330  19334     1  0.0000000  0.6508444  3
  19326  19327  19339  19342     1  0.0000000  1.0460000  1
  19326  19327  19339  19342     1  0.0000000  0.6694400  3
  19326  19340  19346  19347     1  0.0000000  1.0460000  1
  19326  19340  19346  19347     1  0.0000000  0.6694400  3
  19326  19348  19332  19335     1  0.0000000  1.6038667  3
  19327  19326  19340  19344     1  0.0000000  0.6508444  3
  19327  19326  19340  19345     1  0.0000000  0.6508444  3
  19327  19330  19331  19333     1  0.0000000  0.6508444  3
  19327  19330  19338  19341     1  0.0000000  1.0460000  1
  19327  19330  19338  19341     1  0.0000000  0.6694400  3
  19328  19326  19327  19330     1  0.0000000  0.6508444  3
  19328  19326  19327  19339     1  0.0000000  1.0460000  1
  19328  19326  19327  19339     1  0.0000000  0.0000000  3
  19328  19326  19327  19329     1  0.0000000  0.6508444  3
  19328  19326  19340  19346     1  0.0000000  1.0460000  1
  19328  19326  19340  19346     1  0.0000000  0.0000000  3
  19328  19326  19340  19344     1  0.0000000  0.6508444  3
  19328  19326  19340  19345     1  0.0000000  0.6508444  3
  19328  19326  19348  19332     1  0.0000000  1.6038667  3
  19329  19327  19326  19340     1  0.0000000  0.6508444  3
  19329  19327  19326  19348     1  0.0000000  1.0460000  1
  19329  19327  19326  19348     1  0.0000000  0.0000000  3
  19329  19327  19330  19331     1  0.0000000  0.6508444  3
  19329  19327  19330  19338     1  0.0000000  1.0460000  1
  19329  19327  19330  19338     1  0.0000000  0.0000000  3
  19329  19327  19330  19334     1  0.0000000  0.6508444  3
  19329  19327  19339  19342     1  0.0000000  0.6973333  3
  19330  19327  19339  19342     1  0.0000000  1.0460000  1
  19330  19327  19339  19342     1  0.0000000  0.6694400  3
  19330  19331  19332  19335     1  0.0000000  0.6508444  3
  19330  19331  19337  19343     1  0.0000000  1.0460000  1
  19330  19331  19337  19343     1  0.0000000  0.6694400  3
  19331  19330  19338  19341     1  0.0000000  1.0460000  1
  19331  19330  19338  19341     1  0.0000000  0.6694400  3
  19332  19331  19330  19334     1  0.0000000  0.6508444  3
  19332  19331  19337  19343     1  0.0000000  1.0460000  1
  19332  19331  19337  19343     1  0.0000000  0.6694400  3
  19333  19331  19330  19338     1  0.0000000  1.0460000  1
  19333  19331  19330  19338     1  0.0000000  0.0000000  3
  19333  19331  19330  19334     1  0.0000000  0.6508444  3
  19333  19331  19332  19336     1  0.0000000  1.0460000  1
  19333  19331  19332  19336     1  0.0000000  0.0000000  3
  19333  19331  19332  19348     1  0.0000000  1.0460000  1
  19333  19331  19332  19348     1  0.0000000  0.0000000  3
  19333  19331  19332  19335     1  0.0000000  0.6508444  3
  19333  19331  19337  19343     1  0.0000000  0.6973333  3
  19334  19330  19327  19339     1  0.0000000  1.0460000  1
  19334  19330  19327  19339     1  0.0000000  0.0000000  3
  19334  19330  19331  19337     1  0.0000000  1.0460000  1
  19334  19330  19331  19337     1  0.0000000  0.0000000  3
  19334  19330  19338  19341     1  0.0000000  0.6973333  3
  19335  19332  19331  19337     1  0.0000000  0.6508444  3
  19344  19340  19326  19348     1  0.0000000  1.0460000  1
  19344  19340  19326  19348     1  0.0000000  0.0000000  3
  19344  19340  19346  19347     1  0.0000000  0.6973333  3
  19345  19340  19326  19348     1  0.0000000  1.0460000  1
  19345  19340  19326  19348     1  0.0000000  0.0000000  3
  19345  19340  19346  19347     1  0.0000000  0.6973333  3
  19349  19350  19353  19357     1  0.0000000  0.6508444  3
  19349  19350  19362  19365     1  0.0000000  1.0460000  1
  19349  19350  19362  19365     1  0.0000000  0.6694400  3
  19349  19363  19369  19370     1  0.0000000  1.0460000  1
  19349  19363  19369  19370     1  0.0000000  0.6694400  3
  19349  19371  19355  19358     1  0.0000000  1.6038667  3
  19350  19353  19354  19356     1  0.0000000  0.6508444  3
  19350  19353  19361  19364     1  0.0000000  1.0460000  1
  19350  19353  19361  19364     1  0.0000000  0.6694400  3
  19350  19349  19363  19367     1  0.0000000  0.6508444  3
  19350  19349  19363  19368     1  0.0000000  0.6508444  3
  19351  19349  19350  19353     1  0.0000000  0.6508444  3
  19351  19349  19350  19362     1  0.0000000  1.0460000  1
  19351  19349  19350  19362     1  0.0000000  0.0000000  3
  19351  19349  19350  19352     1  0.0000000  0.6508444  3
  19351  19349  19363  19369     1  0.0000000  1.0460000  1
  19351  19349  19363  19369     1  0.0000000  0.0000000  3
  19351  19349  19363  19367     1  0.0000000  0.6508444  3
  19351  19349  19363  19368     1  0.0000000  0.6508444  3
  19351  19349  19371  19355     1  0.0000000  1.6038667  3
  19352  19350  19353  19354     1  0.0000000  0.6508444  3
  19352  19350  19353  19361     1  0.0000000  1.0460000  1
  19352  19350  19353  19361     1  0.0000000  0.0000000  3
  19352  19350  19353  19357     1  0.0000000  0.6508444  3
  19352  19350  19362  19365     1  0.0000000  0.6973333  3
  19352  19350  19349  19363     1  0.0000000  0.6508444  3
  19352  19350  19349  19371     1  0.0000000  1.0460000  1
  19352  19350  19349  19371     1  0.0000000  0.0000000  3
  19353  19354  19355  19358     1  0.0000000  0.6508444  3
  19353  19354  19360  19366     1  0.0000000  1.0460000  1
  19353  19354  19360  19366     1  0.0000000  0.6694400  3
  19353  19350  19362  19365     1  0.0000000  1.0460000  1
  19353  19350  19362  19365     1  0.0000000  0.6694400  3
  19354  19353  19361  19364     1  0.0000000  1.0460000  1
  19354  19353  19361  19364     1  0.0000000  0.6694400  3
  19355  19354  19360  19366     1  0.0000000  1.0460000  1
  19355  19354  19360  19366     1  0.0000000  0.6694400  3
  19355  19354  19353  19357     1  0.0000000  0.6508444  3
  19356  19354  19355  19359     1  0.0000000  1.0460000  1
  19356  19354  19355  19359     1  0.0000000  0.0000000  3
  19356  19354  19355  19371     1  0.0000000  1.0460000  1
  19356  19354  19355  19371     1  0.0000000  0.0000000  3
  19356  19354  19355  19358     1  0.0000000  0.6508444  3
  19356  19354  19360  19366     1  0.0000000  0.6973333  3
  19356  19354  19353  19361     1  0.0000000  1.0460000  1
  19356  19354  19353  19361     1  0.0000000  0.0000000  3
  19356  19354  19353  19357     1  0.0000000  0.6508444  3
  19357  19353  19354  19360     1  0.0000000  1.0460000  1
  19357  19353  19354  19360     1  0.0000000  0.0000000  3
  19357  19353  19361  19364     1  0.0000000  0.6973333  3
  19357  19353  19350  19362     1  0.0000000  1.0460000  1
  19357  19353  19350  19362     1  0.0000000  0.0000000  3
  19358  19355  19354  19360     1  0.0000000  0.6508444  3
  19367  19363  19369  19370     1  0.0000000  0.6973333  3
  19367  19363  19349  19371     1  0.0000000  1.0460000  1
  19367  19363  19349  19371     1  0.0000000  0.0000000  3
  19368  19363  19369  19370     1  0.0000000  0.6973333  3
  19368  19363  19349  19371     1  0.0000000  1.0460000  1
  19368  19363  19349  19371     1  0.0000000  0.0000000  3
  19372  19373  19376  19380     1  0.0000000  0.6508444  3
  19372  19373  19385  19388     1  0.0000000  1.0460000  1
  19372  19373  19385  19388     1  0.0000000  0.6694400  3
  19372  19386  19392  19393     1  0.0000000  1.0460000  1
  19372  19386  19392  19393     1  0.0000000  0.6694400  3
  19372  19394  19378  19381     1  0.0000000  1.6038667  3
  19373  19372  19386  19390     1  0.0000000  0.6508444  3
  19373  19372  19386  19391     1  0.0000000  0.6508444  3
  19373  19376  19377  19379     1  0.0000000  0.6508444  3
  19373  19376  19384  19387     1  0.0000000  1.0460000  1
  19373  19376  19384  19387     1  0.0000000  0.6694400  3
  19374  19372  19373  19376     1  0.0000000  0.6508444  3
  19374  19372  19373  19385     1  0.0000000  1.0460000  1
  19374  19372  19373  19385     1  0.0000000  0.0000000  3
  19374  19372  19373  19375     1  0.0000000  0.6508444  3
  19374  19372  19386  19392     1  0.0000000  1.0460000  1
  19374  19372  19386  19392     1  0.0000000  0.0000000  3
  19374  19372  19386  19390     1  0.0000000  0.6508444  3
  19374  19372  19386  19391     1  0.0000000  0.6508444  3
  19374  19372  19394  19378     1  0.0000000  1.6038667  3
  19375  19373  19372  19386     1  0.0000000  0.6508444  3
  19375  19373  19372  19394     1  0.0000000  1.0460000  1
  19375  19373  19372  19394     1  0.0000000  0.0000000  3
  19375  19373  19376  19377     1  0.0000000  0.6508444  3
  19375  19373  19376  19384     1  0.0000000  1.0460000  1
  19375  19373  19376  19384     1  0.0000000  0.0000000  3
  19375  19373  19376  19380     1  0.0000000  0.6508444  3
  19375  19373  19385  19388     1  0.0000000  0.6973333  3
  19376  19373  19385  19388     1  0.0000000  1.0460000  1
  19376  19373  19385  19388     1  0.0000000  0.6694400  3
  19376  19377  19378  19381     1  0.0000000  0.6508444  3
  19376  19377  19383  19389     1  0.0000000  1.0460000  1
  19376  19377  19383  19389     1  0.0000000  0.6694400  3
  19377  19376  19384  19387     1  0.0000000  1.0460000  1
  19377  19376  19384  19387     1  0.0000000  0.6694400  3
  19378  19377  19376  19380     1  0.0000000  0.6508444  3
  19378  19377  19383  19389     1  0.0000000  1.0460000  1
  19378  19377  19383  19389     1  0.0000000  0.6694400  3
  19379  19377  19376  19384     1  0.0000000  1.0460000  1
  19379  19377  19376  19384     1  0.0000000  0.0000000  3
  19379  19377  19376  19380     1  0.0000000  0.6508444  3
  19379  19377  19378  19382     1  0.0000000  1.0460000  1
  19379  19377  19378  19382     1  0.0000000  0.0000000  3
  19379  19377  19378  19394     1  0.0000000  1.0460000  1
  19379  19377  19378  19394     1  0.0000000  0.0000000  3
  19379  19377  19378  19381     1  0.0000000  0.6508444  3
  19379  19377  19383  19389     1  0.0000000  0.6973333  3
  19380  19376  19373  19385     1  0.0000000  1.0460000  1
  19380  19376  19373  19385     1  0.0000000  0.0000000  3
  19380  19376  19377  19383     1  0.0000000  1.0460000  1
  19380  19376  19377  19383     1  0.0000000  0.0000000  3
  19380  19376  19384  19387     1  0.0000000  0.6973333  3
  19381  19378  19377  19383     1  0.0000000  0.6508444  3
  19390  19386  19372  19394     1  0.0000000  1.0460000  1
  19390  19386  19372  19394     1  0.0000000  0.0000000  3
  19390  19386  19392  19393     1  0.0000000  0.6973333  3
  19391  19386  19372  19394     1  0.0000000  1.0460000  1
  19391  19386  19372  19394     1  0.0000000  0.0000000  3
  19391  19386  19392  19393     1  0.0000000  0.6973333  3
  19395  19396  19399  19403     1  0.0000000  0.6508444  3
  19395  19396  19408  19411     1  0.0000000  1.0460000  1
  19395  19396  19408  19411     1  0.0000000  0.6694400  3
  19395  19409  19415  19416     1  0.0000000  1.0460000  1
  19395  19409  19415  19416     1  0.0000000  0.6694400  3
  19395  19417  19401  19404     1  0.0000000  1.6038667  3
  19396  19399  19400  19402     1  0.0000000  0.6508444  3
  19396  19399  19407  19410     1  0.0000000  1.0460000  1
  19396  19399  19407  19410     1  0.0000000  0.6694400  3
  19396  19395  19409  19413     1  0.0000000  0.6508444  3
  19396  19395  19409  19414     1  0.0000000  0.6508444  3
  19397  19395  19396  19399     1  0.0000000  0.6508444  3
  19397  19395  19396  19408     1  0.0000000  1.0460000  1
  19397  19395  19396  19408     1  0.0000000  0.0000000  3
  19397  19395  19396  19398     1  0.0000000  0.6508444  3
  19397  19395  19409  19415     1  0.0000000  1.0460000  1
  19397  19395  19409  19415     1  0.0000000  0.0000000  3
  19397  19395  19409  19413     1  0.0000000  0.6508444  3
  19397  19395  19409  19414     1  0.0000000  0.6508444  3
  19397  19395  19417  19401     1  0.0000000  1.6038667  3
  19398  19396  19399  19400     1  0.0000000  0.6508444  3
  19398  19396  19399  19407     1  0.0000000  1.0460000  1
  19398  19396  19399  19407     1  0.0000000  0.0000000  3
  19398  19396  19399  19403     1  0.0000000  0.6508444  3
  19398  19396  19408  19411     1  0.0000000  0.6973333  3
  19398  19396  19395  19409     1  0.0000000  0.6508444  3
  19398  19396  19395  19417     1  0.0000000  1.0460000  1
  19398  19396  19395  19417     1  0.0000000  0.0000000  3
  19399  19400  19401  19404     1  0.0000000  0.6508444  3
  19399  19400  19406  19412     1  0.0000000  1.0460000  1
  19399  19400  19406  19412     1  0.0000000  0.6694400  3
  19399  19396  19408  19411     1  0.0000000  1.0460000  1
  19399  19396  19408  19411     1  0.0000000  0.6694400  3
  19400  19399  19407  19410     1  0.0000000  1.0460000  1
  19400  19399  19407  19410     1  0.0000000  0.6694400  3
  19401  19400  19406  19412     1  0.0000000  1.0460000  1
  19401  19400  19406  19412     1  0.0000000  0.6694400  3
  19401  19400  19399  19403     1  0.0000000  0.6508444  3
  19402  19400  19401  19405     1  0.0000000  1.0460000  1
  19402  19400  19401  19405     1  0.0000000  0.0000000  3
  19402  19400  19401  19417     1  0.0000000  1.0460000  1
  19402  19400  19401  19417     1  0.0000000  0.0000000  3
  19402  19400  19401  19404     1  0.0000000  0.6508444  3
  19402  19400  19406  19412     1  0.0000000  0.6973333  3
  19402  19400  19399  19407     1  0.0000000  1.0460000  1
  19402  19400  19399  19407     1  0.0000000  0.0000000  3
  19402  19400  19399  19403     1  0.0000000  0.6508444  3
  19403  19399  19400  19406     1  0.0000000  1.0460000  1
  19403  19399  19400  19406     1  0.0000000  0.0000000  3
  19403  19399  19407  19410     1  0.0000000  0.6973333  3
  19403  19399  19396  19408     1  0.0000000  1.0460000  1
  19403  19399  19396  19408     1  0.0000000  0.0000000  3
  19404  19401  19400  19406     1  0.0000000  0.6508444  3
  19413  19409  19415  19416     1  0.0000000  0.6973333  3
  19413  19409  19395  19417     1  0.0000000  1.0460000  1
  19413  19409  19395  19417     1  0.0000000  0.0000000  3
  19414  19409  19415  19416     1  0.0000000  0.6973333  3
  19414  19409  19395  19417     1  0.0000000  1.0460000  1
  19414  19409  19395  19417     1  0.0000000  0.0000000  3
  19418  19419  19422  19426     1  0.0000000  0.6508444  3
  19418  19419  19431  19434     1  0.0000000  1.0460000  1
  19418  19419  19431  19434     1  0.0000000  0.6694400  3
  19418  19432  19438  19439     1  0.0000000  1.0460000  1
  19418  19432  19438  19439     1  0.0000000  0.6694400  3
  19418  19440  19424  19427     1  0.0000000  1.6038667  3
  19419  19418  19432  19436     1  0.0000000  0.6508444  3
  19419  19418  19432  19437     1  0.0000000  0.6508444  3
  19419  19422  19423  19425     1  0.0000000  0.6508444  3
  19419  19422  19430  19433     1  0.0000000  1.0460000  1
  19419  19422  19430  19433     1  0.0000000  0.6694400  3
  19420  19418  19419  19422     1  0.0000000  0.6508444  3
  19420  19418  19419  19431     1  0.0000000  1.0460000  1
  19420  19418  19419  19431     1  0.0000000  0.0000000  3
  19420  19418  19419  19421     1  0.0000000  0.6508444  3
  19420  19418  19432  19438     1  0.0000000  1.0460000  1
  19420  19418  19432  19438     1  0.0000000  0.0000000  3
  19420  19418  19432  19436     1  0.0000000  0.6508444  3
  19420  19418  19432  19437     1  0.0000000  0.6508444  3
  19420  19418  19440  19424     1  0.0000000  1.6038667  3
  19421  19419  19418  19432     1  0.0000000  0.6508444  3
  19421  19419  19418  19440     1  0.0000000  1.0460000  1
  19421  19419  19418  19440     1  0.0000000  0.0000000  3
  19421  19419  19422  19423     1  0.0000000  0.6508444  3
  19421  19419  19422  19430     1  0.0000000  1.0460000  1
  19421  19419  19422  19430     1  0.0000000  0.0000000  3
  19421  19419  19422  19426     1  0.0000000  0.6508444  3
  19421  19419  19431  19434     1  0.0000000  0.6973333  3
  19422  19419  19431  19434     1  0.0000000  1.0460000  1
  19422  19419  19431  19434     1  0.0000000  0.6694400  3
  19422  19423  19424  19427     1  0.0000000  0.6508444  3
  19422  19423  19429  19435     1  0.0000000  1.0460000  1
  19422  19423  19429  19435     1  0.0000000  0.6694400  3
  19423  19422  19430  19433     1  0.0000000  1.0460000  1
  19423  19422  19430  19433     1  0.0000000  0.6694400  3
  19424  19423  19422  19426     1  0.0000000  0.6508444  3
  19424  19423  19429  19435     1  0.0000000  1.0460000  1
  19424  19423  19429  19435     1  0.0000000  0.6694400  3
  19425  19423  19422  19430     1  0.0000000  1.0460000  1
  19425  19423  19422  19430     1  0.0000000  0.0000000  3
  19425  19423  19422  19426     1  0.0000000  0.6508444  3
  19425  19423  19424  19428     1  0.0000000  1.0460000  1
  19425  19423  19424  19428     1  0.0000000  0.0000000  3
  19425  19423  19424  19440     1  0.0000000  1.0460000  1
  19425  19423  19424  19440     1  0.0000000  0.0000000  3
  19425  19423  19424  19427     1  0.0000000  0.6508444  3
  19425  19423  19429  19435     1  0.0000000  0.6973333  3
  19426  19422  19419  19431     1  0.0000000  1.0460000  1
  19426  19422  19419  19431     1  0.0000000  0.0000000  3
  19426  19422  19423  19429     1  0.0000000  1.0460000  1
  19426  19422  19423  19429     1  0.0000000  0.0000000  3
  19426  19422  19430  19433     1  0.0000000  0.6973333  3
  19427  19424  19423  19429     1  0.0000000  0.6508444  3
  19436  19432  19418  19440     1  0.0000000  1.0460000  1
  19436  19432  19418  19440     1  0.0000000  0.0000000  3
  19436  19432  19438  19439     1  0.0000000  0.6973333  3
  19437  19432  19418  19440     1  0.0000000  1.0460000  1
  19437  19432  19418  19440     1  0.0000000  0.0000000  3
  19437  19432  19438  19439     1  0.0000000  0.6973333  3
  19441  19442  19445  19449     1  0.0000000  0.6508444  3
  19441  19442  19454  19457     1  0.0000000  1.0460000  1
  19441  19442  19454  19457     1  0.0000000  0.6694400  3
  19441  19455  19461  19462     1  0.0000000  1.0460000  1
  19441  19455  19461  19462     1  0.0000000  0.6694400  3
  19441  19463  19447  19450     1  0.0000000  1.6038667  3
  19442  19445  19446  19448     1  0.0000000  0.6508444  3
  19442  19445  19453  19456     1  0.0000000  1.0460000  1
  19442  19445  19453  19456     1  0.0000000  0.6694400  3
  19442  19441  19455  19459     1  0.0000000  0.6508444  3
  19442  19441  19455  19460     1  0.0000000  0.6508444  3
  19443  19441  19442  19445     1  0.0000000  0.6508444  3
  19443  19441  19442  19454     1  0.0000000  1.0460000  1
  19443  19441  19442  19454     1  0.0000000  0.0000000  3
  19443  19441  19442  19444     1  0.0000000  0.6508444  3
  19443  19441  19455  19461     1  0.0000000  1.0460000  1
  19443  19441  19455  19461     1  0.0000000  0.0000000  3
  19443  19441  19455  19459     1  0.0000000  0.6508444  3
  19443  19441  19455  19460     1  0.0000000  0.6508444  3
  19443  19441  19463  19447     1  0.0000000  1.6038667  3
  19444  19442  19445  19446     1  0.0000000  0.6508444  3
  19444  19442  19445  19453     1  0.0000000  1.0460000  1
  19444  19442  19445  19453     1  0.0000000  0.0000000  3
  19444  19442  19445  19449     1  0.0000000  0.6508444  3
  19444  19442  19454  19457     1  0.0000000  0.6973333  3
  19444  19442  19441  19455     1  0.0000000  0.6508444  3
  19444  19442  19441  19463     1  0.0000000  1.0460000  1
  19444  19442  19441  19463     1  0.0000000  0.0000000  3
  19445  19446  19447  19450     1  0.0000000  0.6508444  3
  19445  19446  19452  19458     1  0.0000000  1.0460000  1
  19445  19446  19452  19458     1  0.0000000  0.6694400  3
  19445  19442  19454  19457     1  0.0000000  1.0460000  1
  19445  19442  19454  19457     1  0.0000000  0.6694400  3
  19446  19445  19453  19456     1  0.0000000  1.0460000  1
  19446  19445  19453  19456     1  0.0000000  0.6694400  3
  19447  19446  19452  19458     1  0.0000000  1.0460000  1
  19447  19446  19452  19458     1  0.0000000  0.6694400  3
  19447  19446  19445  19449     1  0.0000000  0.6508444  3
  19448  19446  19447  19451     1  0.0000000  1.0460000  1
  19448  19446  19447  19451     1  0.0000000  0.0000000  3
  19448  19446  19447  19463     1  0.0000000  1.0460000  1
  19448  19446  19447  19463     1  0.0000000  0.0000000  3
  19448  19446  19447  19450     1  0.0000000  0.6508444  3
  19448  19446  19452  19458     1  0.0000000  0.6973333  3
  19448  19446  19445  19453     1  0.0000000  1.0460000  1
  19448  19446  19445  19453     1  0.0000000  0.0000000  3
  19448  19446  19445  19449     1  0.0000000  0.6508444  3
  19449  19445  19446  19452     1  0.0000000  1.0460000  1
  19449  19445  19446  19452     1  0.0000000  0.0000000  3
  19449  19445  19453  19456     1  0.0000000  0.6973333  3
  19449  19445  19442  19454     1  0.0000000  1.0460000  1
  19449  19445  19442  19454     1  0.0000000  0.0000000  3
  19450  19447  19446  19452     1  0.0000000  0.6508444  3
  19459  19455  19461  19462     1  0.0000000  0.6973333  3
  19459  19455  19441  19463     1  0.0000000  1.0460000  1
  19459  19455  19441  19463     1  0.0000000  0.0000000  3
  19460  19455  19461  19462     1  0.0000000  0.6973333  3
  19460  19455  19441  19463     1  0.0000000  1.0460000  1
  19460  19455  19441  19463     1  0.0000000  0.0000000  3
  19464  19465  19468  19472     1  0.0000000  0.6508444  3
  19464  19465  19477  19480     1  0.0000000  1.0460000  1
  19464  19465  19477  19480     1  0.0000000  0.6694400  3
  19464  19478  19484  19485     1  0.0000000  1.0460000  1
  19464  19478  19484  19485     1  0.0000000  0.6694400  3
  19464  19486  19470  19473     1  0.0000000  1.6038667  3
  19465  19464  19478  19482     1  0.0000000  0.6508444  3
  19465  19464  19478  19483     1  0.0000000  0.6508444  3
  19465  19468  19469  19471     1  0.0000000  0.6508444  3
  19465  19468  19476  19479     1  0.0000000  1.0460000  1
  19465  19468  19476  19479     1  0.0000000  0.6694400  3
  19466  19464  19465  19468     1  0.0000000  0.6508444  3
  19466  19464  19465  19477     1  0.0000000  1.0460000  1
  19466  19464  19465  19477     1  0.0000000  0.0000000  3
  19466  19464  19465  19467     1  0.0000000  0.6508444  3
  19466  19464  19478  19484     1  0.0000000  1.0460000  1
  19466  19464  19478  19484     1  0.0000000  0.0000000  3
  19466  19464  19478  19482     1  0.0000000  0.6508444  3
  19466  19464  19478  19483     1  0.0000000  0.6508444  3
  19466  19464  19486  19470     1  0.0000000  1.6038667  3
  19467  19465  19464  19478     1  0.0000000  0.6508444  3
  19467  19465  19464  19486     1  0.0000000  1.0460000  1
  19467  19465  19464  19486     1  0.0000000  0.0000000  3
  19467  19465  19468  19469     1  0.0000000  0.6508444  3
  19467  19465  19468  19476     1  0.0000000  1.0460000  1
  19467  19465  19468  19476     1  0.0000000  0.0000000  3
  19467  19465  19468  19472     1  0.0000000  0.6508444  3
  19467  19465  19477  19480     1  0.0000000  0.6973333  3
  19468  19465  19477  19480     1  0.0000000  1.0460000  1
  19468  19465  19477  19480     1  0.0000000  0.6694400  3
  19468  19469  19470  19473     1  0.0000000  0.6508444  3
  19468  19469  19475  19481     1  0.0000000  1.0460000  1
  19468  19469  19475  19481     1  0.0000000  0.6694400  3
  19469  19468  19476  19479     1  0.0000000  1.0460000  1
  19469  19468  19476  19479     1  0.0000000  0.6694400  3
  19470  19469  19468  19472     1  0.0000000  0.6508444  3
  19470  19469  19475  19481     1  0.0000000  1.0460000  1
  19470  19469  19475  19481     1  0.0000000  0.6694400  3
  19471  19469  19468  19476     1  0.0000000  1.0460000  1
  19471  19469  19468  19476     1  0.0000000  0.0000000  3
  19471  19469  19468  19472     1  0.0000000  0.6508444  3
  19471  19469  19470  19474     1  0.0000000  1.0460000  1
  19471  19469  19470  19474     1  0.0000000  0.0000000  3
  19471  19469  19470  19486     1  0.0000000  1.0460000  1
  19471  19469  19470  19486     1  0.0000000  0.0000000  3
  19471  19469  19470  19473     1  0.0000000  0.6508444  3
  19471  19469  19475  19481     1  0.0000000  0.6973333  3
  19472  19468  19465  19477     1  0.0000000  1.0460000  1
  19472  19468  19465  19477     1  0.0000000  0.0000000  3
  19472  19468  19469  19475     1  0.0000000  1.0460000  1
  19472  19468  19469  19475     1  0.0000000  0.0000000  3
  19472  19468  19476  19479     1  0.0000000  0.6973333  3
  19473  19470  19469  19475     1  0.0000000  0.6508444  3
  19482  19478  19464  19486     1  0.0000000  1.0460000  1
  19482  19478  19464  19486     1  0.0000000  0.0000000  3
  19482  19478  19484  19485     1  0.0000000  0.6973333  3
  19483  19478  19464  19486     1  0.0000000  1.0460000  1
  19483  19478  19464  19486     1  0.0000000  0.0000000  3
  19483  19478  19484  19485     1  0.0000000  0.6973333  3
  19487  19488  19491  19495     1  0.0000000  0.6508444  3
  19487  19488  19500  19503     1  0.0000000  1.0460000  1
  19487  19488  19500  19503     1  0.0000000  0.6694400  3
  19487  19501  19507  19508     1  0.0000000  1.0460000  1
  19487  19501  19507  19508     1  0.0000000  0.6694400  3
  19487  19509  19493  19496     1  0.0000000  1.6038667  3
  19488  19491  19492  19494     1  0.0000000  0.6508444  3
  19488  19491  19499  19502     1  0.0000000  1.0460000  1
  19488  19491  19499  19502     1  0.0000000  0.6694400  3
  19488  19487  19501  19505     1  0.0000000  0.6508444  3
  19488  19487  19501  19506     1  0.0000000  0.6508444  3
  19489  19487  19488  19491     1  0.0000000  0.6508444  3
  19489  19487  19488  19500     1  0.0000000  1.0460000  1
  19489  19487  19488  19500     1  0.0000000  0.0000000  3
  19489  19487  19488  19490     1  0.0000000  0.6508444  3
  19489  19487  19501  19507     1  0.0000000  1.0460000  1
  19489  19487  19501  19507     1  0.0000000  0.0000000  3
  19489  19487  19501  19505     1  0.0000000  0.6508444  3
  19489  19487  19501  19506     1  0.0000000  0.6508444  3
  19489  19487  19509  19493     1  0.0000000  1.6038667  3
  19490  19488  19491  19492     1  0.0000000  0.6508444  3
  19490  19488  19491  19499     1  0.0000000  1.0460000  1
  19490  19488  19491  19499     1  0.0000000  0.0000000  3
  19490  19488  19491  19495     1  0.0000000  0.6508444  3
  19490  19488  19500  19503     1  0.0000000  0.6973333  3
  19490  19488  19487  19501     1  0.0000000  0.6508444  3
  19490  19488  19487  19509     1  0.0000000  1.0460000  1
  19490  19488  19487  19509     1  0.0000000  0.0000000  3
  19491  19492  19493  19496     1  0.0000000  0.6508444  3
  19491  19492  19498  19504     1  0.0000000  1.0460000  1
  19491  19492  19498  19504     1  0.0000000  0.6694400  3
  19491  19488  19500  19503     1  0.0000000  1.0460000  1
  19491  19488  19500  19503     1  0.0000000  0.6694400  3
  19492  19491  19499  19502     1  0.0000000  1.0460000  1
  19492  19491  19499  19502     1  0.0000000  0.6694400  3
  19493  19492  19498  19504     1  0.0000000  1.0460000  1
  19493  19492  19498  19504     1  0.0000000  0.6694400  3
  19493  19492  19491  19495     1  0.0000000  0.6508444  3
  19494  19492  19493  19497     1  0.0000000  1.0460000  1
  19494  19492  19493  19497     1  0.0000000  0.0000000  3
  19494  19492  19493  19509     1  0.0000000  1.0460000  1
  19494  19492  19493  19509     1  0.0000000  0.0000000  3
  19494  19492  19493  19496     1  0.0000000  0.6508444  3
  19494  19492  19498  19504     1  0.0000000  0.6973333  3
  19494  19492  19491  19499     1  0.0000000  1.0460000  1
  19494  19492  19491  19499     1  0.0000000  0.0000000  3
  19494  19492  19491  19495     1  0.0000000  0.6508444  3
  19495  19491  19492  19498     1  0.0000000  1.0460000  1
  19495  19491  19492  19498     1  0.0000000  0.0000000  3
  19495  19491  19499  19502     1  0.0000000  0.6973333  3
  19495  19491  19488  19500     1  0.0000000  1.0460000  1
  19495  19491  19488  19500     1  0.0000000  0.0000000  3
  19496  19493  19492  19498     1  0.0000000  0.6508444  3
  19505  19501  19507  19508     1  0.0000000  0.6973333  3
  19505  19501  19487  19509     1  0.0000000  1.0460000  1
  19505  19501  19487  19509     1  0.0000000  0.0000000  3
  19506  19501  19507  19508     1  0.0000000  0.6973333  3
  19506  19501  19487  19509     1  0.0000000  1.0460000  1
  19506  19501  19487  19509     1  0.0000000  0.0000000  3
  19510  19511  19514  19518     1  0.0000000  0.6508444  3
  19510  19511  19523  19526     1  0.0000000  1.0460000  1
  19510  19511  19523  19526     1  0.0000000  0.6694400  3
  19510  19524  19530  19531     1  0.0000000  1.0460000  1
  19510  19524  19530  19531     1  0.0000000  0.6694400  3
  19510  19532  19516  19519     1  0.0000000  1.6038667  3
  19511  19510  19524  19528     1  0.0000000  0.6508444  3
  19511  19510  19524  19529     1  0.0000000  0.6508444  3
  19511  19514  19515  19517     1  0.0000000  0.6508444  3
  19511  19514  19522  19525     1  0.0000000  1.0460000  1
  19511  19514  19522  19525     1  0.0000000  0.6694400  3
  19512  19510  19511  19514     1  0.0000000  0.6508444  3
  19512  19510  19511  19523     1  0.0000000  1.0460000  1
  19512  19510  19511  19523     1  0.0000000  0.0000000  3
  19512  19510  19511  19513     1  0.0000000  0.6508444  3
  19512  19510  19524  19530     1  0.0000000  1.0460000  1
  19512  19510  19524  19530     1  0.0000000  0.0000000  3
  19512  19510  19524  19528     1  0.0000000  0.6508444  3
  19512  19510  19524  19529     1  0.0000000  0.6508444  3
  19512  19510  19532  19516     1  0.0000000  1.6038667  3
  19513  19511  19510  19524     1  0.0000000  0.6508444  3
  19513  19511  19510  19532     1  0.0000000  1.0460000  1
  19513  19511  19510  19532     1  0.0000000  0.0000000  3
  19513  19511  19514  19515     1  0.0000000  0.6508444  3
  19513  19511  19514  19522     1  0.0000000  1.0460000  1
  19513  19511  19514  19522     1  0.0000000  0.0000000  3
  19513  19511  19514  19518     1  0.0000000  0.6508444  3
  19513  19511  19523  19526     1  0.0000000  0.6973333  3
  19514  19511  19523  19526     1  0.0000000  1.0460000  1
  19514  19511  19523  19526     1  0.0000000  0.6694400  3
  19514  19515  19516  19519     1  0.0000000  0.6508444  3
  19514  19515  19521  19527     1  0.0000000  1.0460000  1
  19514  19515  19521  19527     1  0.0000000  0.6694400  3
  19515  19514  19522  19525     1  0.0000000  1.0460000  1
  19515  19514  19522  19525     1  0.0000000  0.6694400  3
  19516  19515  19514  19518     1  0.0000000  0.6508444  3
  19516  19515  19521  19527     1  0.0000000  1.0460000  1
  19516  19515  19521  19527     1  0.0000000  0.6694400  3
  19517  19515  19514  19522     1  0.0000000  1.0460000  1
  19517  19515  19514  19522     1  0.0000000  0.0000000  3
  19517  19515  19514  19518     1  0.0000000  0.6508444  3
  19517  19515  19516  19520     1  0.0000000  1.0460000  1
  19517  19515  19516  19520     1  0.0000000  0.0000000  3
  19517  19515  19516  19532     1  0.0000000  1.0460000  1
  19517  19515  19516  19532     1  0.0000000  0.0000000  3
  19517  19515  19516  19519     1  0.0000000  0.6508444  3
  19517  19515  19521  19527     1  0.0000000  0.6973333  3
  19518  19514  19511  19523     1  0.0000000  1.0460000  1
  19518  19514  19511  19523     1  0.0000000  0.0000000  3
  19518  19514  19515  19521     1  0.0000000  1.0460000  1
  19518  19514  19515  19521     1  0.0000000  0.0000000  3
  19518  19514  19522  19525     1  0.0000000  0.6973333  3
  19519  19516  19515  19521     1  0.0000000  0.6508444  3
  19528  19524  19510  19532     1  0.0000000  1.0460000  1
  19528  19524  19510  19532     1  0.0000000  0.0000000  3
  19528  19524  19530  19531     1  0.0000000  0.6973333  3
  19529  19524  19510  19532     1  0.0000000  1.0460000  1
  19529  19524  19510  19532     1  0.0000000  0.0000000  3
  19529  19524  19530  19531     1  0.0000000  0.6973333  3
  19533  19534  19537  19541     1  0.0000000  0.6508444  3
  19533  19534  19546  19549     1  0.0000000  1.0460000  1
  19533  19534  19546  19549     1  0.0000000  0.6694400  3
  19533  19547  19553  19554     1  0.0000000  1.0460000  1
  19533  19547  19553  19554     1  0.0000000  0.6694400  3
  19533  19555  19539  19542     1  0.0000000  1.6038667  3
  19534  19537  19538  19540     1  0.0000000  0.6508444  3
  19534  19537  19545  19548     1  0.0000000  1.0460000  1
  19534  19537  19545  19548     1  0.0000000  0.6694400  3
  19534  19533  19547  19551     1  0.0000000  0.6508444  3
  19534  19533  19547  19552     1  0.0000000  0.6508444  3
  19535  19533  19534  19537     1  0.0000000  0.6508444  3
  19535  19533  19534  19546     1  0.0000000  1.0460000  1
  19535  19533  19534  19546     1  0.0000000  0.0000000  3
  19535  19533  19534  19536     1  0.0000000  0.6508444  3
  19535  19533  19547  19553     1  0.0000000  1.0460000  1
  19535  19533  19547  19553     1  0.0000000  0.0000000  3
  19535  19533  19547  19551     1  0.0000000  0.6508444  3
  19535  19533  19547  19552     1  0.0000000  0.6508444  3
  19535  19533  19555  19539     1  0.0000000  1.6038667  3
  19536  19534  19537  19538     1  0.0000000  0.6508444  3
  19536  19534  19537  19545     1  0.0000000  1.0460000  1
  19536  19534  19537  19545     1  0.0000000  0.0000000  3
  19536  19534  19537  19541     1  0.0000000  0.6508444  3
  19536  19534  19546  19549     1  0.0000000  0.6973333  3
  19536  19534  19533  19547     1  0.0000000  0.6508444  3
  19536  19534  19533  19555     1  0.0000000  1.0460000  1
  19536  19534  19533  19555     1  0.0000000  0.0000000  3
  19537  19538  19539  19542     1  0.0000000  0.6508444  3
  19537  19538  19544  19550     1  0.0000000  1.0460000  1
  19537  19538  19544  19550     1  0.0000000  0.6694400  3
  19537  19534  19546  19549     1  0.0000000  1.0460000  1
  19537  19534  19546  19549     1  0.0000000  0.6694400  3
  19538  19537  19545  19548     1  0.0000000  1.0460000  1
  19538  19537  19545  19548     1  0.0000000  0.6694400  3
  19539  19538  19544  19550     1  0.0000000  1.0460000  1
  19539  19538  19544  19550     1  0.0000000  0.6694400  3
  19539  19538  19537  19541     1  0.0000000  0.6508444  3
  19540  19538  19539  19543     1  0.0000000  1.0460000  1
  19540  19538  19539  19543     1  0.0000000  0.0000000  3
  19540  19538  19539  19555     1  0.0000000  1.0460000  1
  19540  19538  19539  19555     1  0.0000000  0.0000000  3
  19540  19538  19539  19542     1  0.0000000  0.6508444  3
  19540  19538  19544  19550     1  0.0000000  0.6973333  3
  19540  19538  19537  19545     1  0.0000000  1.0460000  1
  19540  19538  19537  19545     1  0.0000000  0.0000000  3
  19540  19538  19537  19541     1  0.0000000  0.6508444  3
  19541  19537  19538  19544     1  0.0000000  1.0460000  1
  19541  19537  19538  19544     1  0.0000000  0.0000000  3
  19541  19537  19545  19548     1  0.0000000  0.6973333  3
  19541  19537  19534  19546     1  0.0000000  1.0460000  1
  19541  19537  19534  19546     1  0.0000000  0.0000000  3
  19542  19539  19538  19544     1  0.0000000  0.6508444  3
  19551  19547  19553  19554     1  0.0000000  0.6973333  3
  19551  19547  19533  19555     1  0.0000000  1.0460000  1
  19551  19547  19533  19555     1  0.0000000  0.0000000  3
  19552  19547  19553  19554     1  0.0000000  0.6973333  3
  19552  19547  19533  19555     1  0.0000000  1.0460000  1
  19552  19547  19533  19555     1  0.0000000  0.0000000  3
  19556  19557  19560  19564     1  0.0000000  0.6508444  3
  19556  19557  19569  19572     1  0.0000000  1.0460000  1
  19556  19557  19569  19572     1  0.0000000  0.6694400  3
  19556  19570  19576  19577     1  0.0000000  1.0460000  1
  19556  19570  19576  19577     1  0.0000000  0.6694400  3
  19556  19578  19562  19565     1  0.0000000  1.6038667  3
  19557  19556  19570  19574     1  0.0000000  0.6508444  3
  19557  19556  19570  19575     1  0.0000000  0.6508444  3
  19557  19560  19561  19563     1  0.0000000  0.6508444  3
  19557  19560  19568  19571     1  0.0000000  1.0460000  1
  19557  19560  19568  19571     1  0.0000000  0.6694400  3
  19558  19556  19557  19560     1  0.0000000  0.6508444  3
  19558  19556  19557  19569     1  0.0000000  1.0460000  1
  19558  19556  19557  19569     1  0.0000000  0.0000000  3
  19558  19556  19557  19559     1  0.0000000  0.6508444  3
  19558  19556  19570  19576     1  0.0000000  1.0460000  1
  19558  19556  19570  19576     1  0.0000000  0.0000000  3
  19558  19556  19570  19574     1  0.0000000  0.6508444  3
  19558  19556  19570  19575     1  0.0000000  0.6508444  3
  19558  19556  19578  19562     1  0.0000000  1.6038667  3
  19559  19557  19556  19570     1  0.0000000  0.6508444  3
  19559  19557  19556  19578     1  0.0000000  1.0460000  1
  19559  19557  19556  19578     1  0.0000000  0.0000000  3
  19559  19557  19560  19561     1  0.0000000  0.6508444  3
  19559  19557  19560  19568     1  0.0000000  1.0460000  1
  19559  19557  19560  19568     1  0.0000000  0.0000000  3
  19559  19557  19560  19564     1  0.0000000  0.6508444  3
  19559  19557  19569  19572     1  0.0000000  0.6973333  3
  19560  19557  19569  19572     1  0.0000000  1.0460000  1
  19560  19557  19569  19572     1  0.0000000  0.6694400  3
  19560  19561  19562  19565     1  0.0000000  0.6508444  3
  19560  19561  19567  19573     1  0.0000000  1.0460000  1
  19560  19561  19567  19573     1  0.0000000  0.6694400  3
  19561  19560  19568  19571     1  0.0000000  1.0460000  1
  19561  19560  19568  19571     1  0.0000000  0.6694400  3
  19562  19561  19560  19564     1  0.0000000  0.6508444  3
  19562  19561  19567  19573     1  0.0000000  1.0460000  1
  19562  19561  19567  19573     1  0.0000000  0.6694400  3
  19563  19561  19560  19568     1  0.0000000  1.0460000  1
  19563  19561  19560  19568     1  0.0000000  0.0000000  3
  19563  19561  19560  19564     1  0.0000000  0.6508444  3
  19563  19561  19562  19566     1  0.0000000  1.0460000  1
  19563  19561  19562  19566     1  0.0000000  0.0000000  3
  19563  19561  19562  19578     1  0.0000000  1.0460000  1
  19563  19561  19562  19578     1  0.0000000  0.0000000  3
  19563  19561  19562  19565     1  0.0000000  0.6508444  3
  19563  19561  19567  19573     1  0.0000000  0.6973333  3
  19564  19560  19557  19569     1  0.0000000  1.0460000  1
  19564  19560  19557  19569     1  0.0000000  0.0000000  3
  19564  19560  19561  19567     1  0.0000000  1.0460000  1
  19564  19560  19561  19567     1  0.0000000  0.0000000  3
  19564  19560  19568  19571     1  0.0000000  0.6973333  3
  19565  19562  19561  19567     1  0.0000000  0.6508444  3
  19574  19570  19556  19578     1  0.0000000  1.0460000  1
  19574  19570  19556  19578     1  0.0000000  0.0000000  3
  19574  19570  19576  19577     1  0.0000000  0.6973333  3
  19575  19570  19556  19578     1  0.0000000  1.0460000  1
  19575  19570  19556  19578     1  0.0000000  0.0000000  3
  19575  19570  19576  19577     1  0.0000000  0.6973333  3
  19579  19580  19583  19587     1  0.0000000  0.6508444  3
  19579  19580  19592  19595     1  0.0000000  1.0460000  1
  19579  19580  19592  19595     1  0.0000000  0.6694400  3
  19579  19593  19599  19600     1  0.0000000  1.0460000  1
  19579  19593  19599  19600     1  0.0000000  0.6694400  3
  19579  19601  19585  19588     1  0.0000000  1.6038667  3
  19580  19583  19584  19586     1  0.0000000  0.6508444  3
  19580  19583  19591  19594     1  0.0000000  1.0460000  1
  19580  19583  19591  19594     1  0.0000000  0.6694400  3
  19580  19579  19593  19597     1  0.0000000  0.6508444  3
  19580  19579  19593  19598     1  0.0000000  0.6508444  3
  19581  19579  19580  19583     1  0.0000000  0.6508444  3
  19581  19579  19580  19592     1  0.0000000  1.0460000  1
  19581  19579  19580  19592     1  0.0000000  0.0000000  3
  19581  19579  19580  19582     1  0.0000000  0.6508444  3
  19581  19579  19593  19599     1  0.0000000  1.0460000  1
  19581  19579  19593  19599     1  0.0000000  0.0000000  3
  19581  19579  19593  19597     1  0.0000000  0.6508444  3
  19581  19579  19593  19598     1  0.0000000  0.6508444  3
  19581  19579  19601  19585     1  0.0000000  1.6038667  3
  19582  19580  19583  19584     1  0.0000000  0.6508444  3
  19582  19580  19583  19591     1  0.0000000  1.0460000  1
  19582  19580  19583  19591     1  0.0000000  0.0000000  3
  19582  19580  19583  19587     1  0.0000000  0.6508444  3
  19582  19580  19592  19595     1  0.0000000  0.6973333  3
  19582  19580  19579  19593     1  0.0000000  0.6508444  3
  19582  19580  19579  19601     1  0.0000000  1.0460000  1
  19582  19580  19579  19601     1  0.0000000  0.0000000  3
  19583  19584  19585  19588     1  0.0000000  0.6508444  3
  19583  19584  19590  19596     1  0.0000000  1.0460000  1
  19583  19584  19590  19596     1  0.0000000  0.6694400  3
  19583  19580  19592  19595     1  0.0000000  1.0460000  1
  19583  19580  19592  19595     1  0.0000000  0.6694400  3
  19584  19583  19591  19594     1  0.0000000  1.0460000  1
  19584  19583  19591  19594     1  0.0000000  0.6694400  3
  19585  19584  19590  19596     1  0.0000000  1.0460000  1
  19585  19584  19590  19596     1  0.0000000  0.6694400  3
  19585  19584  19583  19587     1  0.0000000  0.6508444  3
  19586  19584  19585  19589     1  0.0000000  1.0460000  1
  19586  19584  19585  19589     1  0.0000000  0.0000000  3
  19586  19584  19585  19601     1  0.0000000  1.0460000  1
  19586  19584  19585  19601     1  0.0000000  0.0000000  3
  19586  19584  19585  19588     1  0.0000000  0.6508444  3
  19586  19584  19590  19596     1  0.0000000  0.6973333  3
  19586  19584  19583  19591     1  0.0000000  1.0460000  1
  19586  19584  19583  19591     1  0.0000000  0.0000000  3
  19586  19584  19583  19587     1  0.0000000  0.6508444  3
  19587  19583  19584  19590     1  0.0000000  1.0460000  1
  19587  19583  19584  19590     1  0.0000000  0.0000000  3
  19587  19583  19591  19594     1  0.0000000  0.6973333  3
  19587  19583  19580  19592     1  0.0000000  1.0460000  1
  19587  19583  19580  19592     1  0.0000000  0.0000000  3
  19588  19585  19584  19590     1  0.0000000  0.6508444  3
  19597  19593  19599  19600     1  0.0000000  0.6973333  3
  19597  19593  19579  19601     1  0.0000000  1.0460000  1
  19597  19593  19579  19601     1  0.0000000  0.0000000  3
  19598  19593  19599  19600     1  0.0000000  0.6973333  3
  19598  19593  19579  19601     1  0.0000000  1.0460000  1
  19598  19593  19579  19601     1  0.0000000  0.0000000  3
  19602  19603  19606  19610     1  0.0000000  0.6508444  3
  19602  19603  19615  19618     1  0.0000000  1.0460000  1
  19602  19603  19615  19618     1  0.0000000  0.6694400  3
  19602  19616  19622  19623     1  0.0000000  1.0460000  1
  19602  19616  19622  19623     1  0.0000000  0.6694400  3
  19602  19624  19608  19611     1  0.0000000  1.6038667  3
  19603  19602  19616  19620     1  0.0000000  0.6508444  3
  19603  19602  19616  19621     1  0.0000000  0.6508444  3
  19603  19606  19607  19609     1  0.0000000  0.6508444  3
  19603  19606  19614  19617     1  0.0000000  1.0460000  1
  19603  19606  19614  19617     1  0.0000000  0.6694400  3
  19604  19602  19603  19606     1  0.0000000  0.6508444  3
  19604  19602  19603  19615     1  0.0000000  1.0460000  1
  19604  19602  19603  19615     1  0.0000000  0.0000000  3
  19604  19602  19603  19605     1  0.0000000  0.6508444  3
  19604  19602  19616  19622     1  0.0000000  1.0460000  1
  19604  19602  19616  19622     1  0.0000000  0.0000000  3
  19604  19602  19616  19620     1  0.0000000  0.6508444  3
  19604  19602  19616  19621     1  0.0000000  0.6508444  3
  19604  19602  19624  19608     1  0.0000000  1.6038667  3
  19605  19603  19602  19616     1  0.0000000  0.6508444  3
  19605  19603  19602  19624     1  0.0000000  1.0460000  1
  19605  19603  19602  19624     1  0.0000000  0.0000000  3
  19605  19603  19606  19607     1  0.0000000  0.6508444  3
  19605  19603  19606  19614     1  0.0000000  1.0460000  1
  19605  19603  19606  19614     1  0.0000000  0.0000000  3
  19605  19603  19606  19610     1  0.0000000  0.6508444  3
  19605  19603  19615  19618     1  0.0000000  0.6973333  3
  19606  19603  19615  19618     1  0.0000000  1.0460000  1
  19606  19603  19615  19618     1  0.0000000  0.6694400  3
  19606  19607  19608  19611     1  0.0000000  0.6508444  3
  19606  19607  19613  19619     1  0.0000000  1.0460000  1
  19606  19607  19613  19619     1  0.0000000  0.6694400  3
  19607  19606  19614  19617     1  0.0000000  1.0460000  1
  19607  19606  19614  19617     1  0.0000000  0.6694400  3
  19608  19607  19606  19610     1  0.0000000  0.6508444  3
  19608  19607  19613  19619     1  0.0000000  1.0460000  1
  19608  19607  19613  19619     1  0.0000000  0.6694400  3
  19609  19607  19606  19614     1  0.0000000  1.0460000  1
  19609  19607  19606  19614     1  0.0000000  0.0000000  3
  19609  19607  19606  19610     1  0.0000000  0.6508444  3
  19609  19607  19608  19612     1  0.0000000  1.0460000  1
  19609  19607  19608  19612     1  0.0000000  0.0000000  3
  19609  19607  19608  19624     1  0.0000000  1.0460000  1
  19609  19607  19608  19624     1  0.0000000  0.0000000  3
  19609  19607  19608  19611     1  0.0000000  0.6508444  3
  19609  19607  19613  19619     1  0.0000000  0.6973333  3
  19610  19606  19603  19615     1  0.0000000  1.0460000  1
  19610  19606  19603  19615     1  0.0000000  0.0000000  3
  19610  19606  19607  19613     1  0.0000000  1.0460000  1
  19610  19606  19607  19613     1  0.0000000  0.0000000  3
  19610  19606  19614  19617     1  0.0000000  0.6973333  3
  19611  19608  19607  19613     1  0.0000000  0.6508444  3
  19620  19616  19602  19624     1  0.0000000  1.0460000  1
  19620  19616  19602  19624     1  0.0000000  0.0000000  3
  19620  19616  19622  19623     1  0.0000000  0.6973333  3
  19621  19616  19602  19624     1  0.0000000  1.0460000  1
  19621  19616  19602  19624     1  0.0000000  0.0000000  3
  19621  19616  19622  19623     1  0.0000000  0.6973333  3
  19625  19626  19629  19633     1  0.0000000  0.6508444  3
  19625  19626  19638  19641     1  0.0000000  1.0460000  1
  19625  19626  19638  19641     1  0.0000000  0.6694400  3
  19625  19639  19645  19646     1  0.0000000  1.0460000  1
  19625  19639  19645  19646     1  0.0000000  0.6694400  3
  19625  19647  19631  19634     1  0.0000000  1.6038667  3
  19626  19629  19630  19632     1  0.0000000  0.6508444  3
  19626  19629  19637  19640     1  0.0000000  1.0460000  1
  19626  19629  19637  19640     1  0.0000000  0.6694400  3
  19626  19625  19639  19643     1  0.0000000  0.6508444  3
  19626  19625  19639  19644     1  0.0000000  0.6508444  3
  19627  19625  19626  19629     1  0.0000000  0.6508444  3
  19627  19625  19626  19638     1  0.0000000  1.0460000  1
  19627  19625  19626  19638     1  0.0000000  0.0000000  3
  19627  19625  19626  19628     1  0.0000000  0.6508444  3
  19627  19625  19639  19645     1  0.0000000  1.0460000  1
  19627  19625  19639  19645     1  0.0000000  0.0000000  3
  19627  19625  19639  19643     1  0.0000000  0.6508444  3
  19627  19625  19639  19644     1  0.0000000  0.6508444  3
  19627  19625  19647  19631     1  0.0000000  1.6038667  3
  19628  19626  19629  19630     1  0.0000000  0.6508444  3
  19628  19626  19629  19637     1  0.0000000  1.0460000  1
  19628  19626  19629  19637     1  0.0000000  0.0000000  3
  19628  19626  19629  19633     1  0.0000000  0.6508444  3
  19628  19626  19638  19641     1  0.0000000  0.6973333  3
  19628  19626  19625  19639     1  0.0000000  0.6508444  3
  19628  19626  19625  19647     1  0.0000000  1.0460000  1
  19628  19626  19625  19647     1  0.0000000  0.0000000  3
  19629  19630  19631  19634     1  0.0000000  0.6508444  3
  19629  19630  19636  19642     1  0.0000000  1.0460000  1
  19629  19630  19636  19642     1  0.0000000  0.6694400  3
  19629  19626  19638  19641     1  0.0000000  1.0460000  1
  19629  19626  19638  19641     1  0.0000000  0.6694400  3
  19630  19629  19637  19640     1  0.0000000  1.0460000  1
  19630  19629  19637  19640     1  0.0000000  0.6694400  3
  19631  19630  19636  19642     1  0.0000000  1.0460000  1
  19631  19630  19636  19642     1  0.0000000  0.6694400  3
  19631  19630  19629  19633     1  0.0000000  0.6508444  3
  19632  19630  19631  19635     1  0.0000000  1.0460000  1
  19632  19630  19631  19635     1  0.0000000  0.0000000  3
  19632  19630  19631  19647     1  0.0000000  1.0460000  1
  19632  19630  19631  19647     1  0.0000000  0.0000000  3
  19632  19630  19631  19634     1  0.0000000  0.6508444  3
  19632  19630  19636  19642     1  0.0000000  0.6973333  3
  19632  19630  19629  19637     1  0.0000000  1.0460000  1
  19632  19630  19629  19637     1  0.0000000  0.0000000  3
  19632  19630  19629  19633     1  0.0000000  0.6508444  3
  19633  19629  19630  19636     1  0.0000000  1.0460000  1
  19633  19629  19630  19636     1  0.0000000  0.0000000  3
  19633  19629  19637  19640     1  0.0000000  0.6973333  3
  19633  19629  19626  19638     1  0.0000000  1.0460000  1
  19633  19629  19626  19638     1  0.0000000  0.0000000  3
  19634  19631  19630  19636     1  0.0000000  0.6508444  3
  19643  19639  19645  19646     1  0.0000000  0.6973333  3
  19643  19639  19625  19647     1  0.0000000  1.0460000  1
  19643  19639  19625  19647     1  0.0000000  0.0000000  3
  19644  19639  19645  19646     1  0.0000000  0.6973333  3
  19644  19639  19625  19647     1  0.0000000  1.0460000  1
  19644  19639  19625  19647     1  0.0000000  0.0000000  3
  19648  19649  19652  19656     1  0.0000000  0.6508444  3
  19648  19649  19661  19664     1  0.0000000  1.0460000  1
  19648  19649  19661  19664     1  0.0000000  0.6694400  3
  19648  19662  19668  19669     1  0.0000000  1.0460000  1
  19648  19662  19668  19669     1  0.0000000  0.6694400  3
  19648  19670  19654  19657     1  0.0000000  1.6038667  3
  19649  19648  19662  19666     1  0.0000000  0.6508444  3
  19649  19648  19662  19667     1  0.0000000  0.6508444  3
  19649  19652  19653  19655     1  0.0000000  0.6508444  3
  19649  19652  19660  19663     1  0.0000000  1.0460000  1
  19649  19652  19660  19663     1  0.0000000  0.6694400  3
  19650  19648  19649  19652     1  0.0000000  0.6508444  3
  19650  19648  19649  19661     1  0.0000000  1.0460000  1
  19650  19648  19649  19661     1  0.0000000  0.0000000  3
  19650  19648  19649  19651     1  0.0000000  0.6508444  3
  19650  19648  19662  19668     1  0.0000000  1.0460000  1
  19650  19648  19662  19668     1  0.0000000  0.0000000  3
  19650  19648  19662  19666     1  0.0000000  0.6508444  3
  19650  19648  19662  19667     1  0.0000000  0.6508444  3
  19650  19648  19670  19654     1  0.0000000  1.6038667  3
  19651  19649  19648  19662     1  0.0000000  0.6508444  3
  19651  19649  19648  19670     1  0.0000000  1.0460000  1
  19651  19649  19648  19670     1  0.0000000  0.0000000  3
  19651  19649  19652  19653     1  0.0000000  0.6508444  3
  19651  19649  19652  19660     1  0.0000000  1.0460000  1
  19651  19649  19652  19660     1  0.0000000  0.0000000  3
  19651  19649  19652  19656     1  0.0000000  0.6508444  3
  19651  19649  19661  19664     1  0.0000000  0.6973333  3
  19652  19649  19661  19664     1  0.0000000  1.0460000  1
  19652  19649  19661  19664     1  0.0000000  0.6694400  3
  19652  19653  19654  19657     1  0.0000000  0.6508444  3
  19652  19653  19659  19665     1  0.0000000  1.0460000  1
  19652  19653  19659  19665     1  0.0000000  0.6694400  3
  19653  19652  19660  19663     1  0.0000000  1.0460000  1
  19653  19652  19660  19663     1  0.0000000  0.6694400  3
  19654  19653  19652  19656     1  0.0000000  0.6508444  3
  19654  19653  19659  19665     1  0.0000000  1.0460000  1
  19654  19653  19659  19665     1  0.0000000  0.6694400  3
  19655  19653  19652  19660     1  0.0000000  1.0460000  1
  19655  19653  19652  19660     1  0.0000000  0.0000000  3
  19655  19653  19652  19656     1  0.0000000  0.6508444  3
  19655  19653  19654  19658     1  0.0000000  1.0460000  1
  19655  19653  19654  19658     1  0.0000000  0.0000000  3
  19655  19653  19654  19670     1  0.0000000  1.0460000  1
  19655  19653  19654  19670     1  0.0000000  0.0000000  3
  19655  19653  19654  19657     1  0.0000000  0.6508444  3
  19655  19653  19659  19665     1  0.0000000  0.6973333  3
  19656  19652  19649  19661     1  0.0000000  1.0460000  1
  19656  19652  19649  19661     1  0.0000000  0.0000000  3
  19656  19652  19653  19659     1  0.0000000  1.0460000  1
  19656  19652  19653  19659     1  0.0000000  0.0000000  3
  19656  19652  19660  19663     1  0.0000000  0.6973333  3
  19657  19654  19653  19659     1  0.0000000  0.6508444  3
  19666  19662  19648  19670     1  0.0000000  1.0460000  1
  19666  19662  19648  19670     1  0.0000000  0.0000000  3
  19666  19662  19668  19669     1  0.0000000  0.6973333  3
  19667  19662  19648  19670     1  0.0000000  1.0460000  1
  19667  19662  19648  19670     1  0.0000000  0.0000000  3
  19667  19662  19668  19669     1  0.0000000  0.6973333  3
  19671  19672  19675  19679     1  0.0000000  0.6508444  3
  19671  19672  19684  19687     1  0.0000000  1.0460000  1
  19671  19672  19684  19687     1  0.0000000  0.6694400  3
  19671  19685  19691  19692     1  0.0000000  1.0460000  1
  19671  19685  19691  19692     1  0.0000000  0.6694400  3
  19671  19693  19677  19680     1  0.0000000  1.6038667  3
  19672  19675  19676  19678     1  0.0000000  0.6508444  3
  19672  19675  19683  19686     1  0.0000000  1.0460000  1
  19672  19675  19683  19686     1  0.0000000  0.6694400  3
  19672  19671  19685  19689     1  0.0000000  0.6508444  3
  19672  19671  19685  19690     1  0.0000000  0.6508444  3
  19673  19671  19672  19675     1  0.0000000  0.6508444  3
  19673  19671  19672  19684     1  0.0000000  1.0460000  1
  19673  19671  19672  19684     1  0.0000000  0.0000000  3
  19673  19671  19672  19674     1  0.0000000  0.6508444  3
  19673  19671  19685  19691     1  0.0000000  1.0460000  1
  19673  19671  19685  19691     1  0.0000000  0.0000000  3
  19673  19671  19685  19689     1  0.0000000  0.6508444  3
  19673  19671  19685  19690     1  0.0000000  0.6508444  3
  19673  19671  19693  19677     1  0.0000000  1.6038667  3
  19674  19672  19675  19676     1  0.0000000  0.6508444  3
  19674  19672  19675  19683     1  0.0000000  1.0460000  1
  19674  19672  19675  19683     1  0.0000000  0.0000000  3
  19674  19672  19675  19679     1  0.0000000  0.6508444  3
  19674  19672  19684  19687     1  0.0000000  0.6973333  3
  19674  19672  19671  19685     1  0.0000000  0.6508444  3
  19674  19672  19671  19693     1  0.0000000  1.0460000  1
  19674  19672  19671  19693     1  0.0000000  0.0000000  3
  19675  19676  19677  19680     1  0.0000000  0.6508444  3
  19675  19676  19682  19688     1  0.0000000  1.0460000  1
  19675  19676  19682  19688     1  0.0000000  0.6694400  3
  19675  19672  19684  19687     1  0.0000000  1.0460000  1
  19675  19672  19684  19687     1  0.0000000  0.6694400  3
  19676  19675  19683  19686     1  0.0000000  1.0460000  1
  19676  19675  19683  19686     1  0.0000000  0.6694400  3
  19677  19676  19682  19688     1  0.0000000  1.0460000  1
  19677  19676  19682  19688     1  0.0000000  0.6694400  3
  19677  19676  19675  19679     1  0.0000000  0.6508444  3
  19678  19676  19677  19681     1  0.0000000  1.0460000  1
  19678  19676  19677  19681     1  0.0000000  0.0000000  3
  19678  19676  19677  19693     1  0.0000000  1.0460000  1
  19678  19676  19677  19693     1  0.0000000  0.0000000  3
  19678  19676  19677  19680     1  0.0000000  0.6508444  3
  19678  19676  19682  19688     1  0.0000000  0.6973333  3
  19678  19676  19675  19683     1  0.0000000  1.0460000  1
  19678  19676  19675  19683     1  0.0000000  0.0000000  3
  19678  19676  19675  19679     1  0.0000000  0.6508444  3
  19679  19675  19676  19682     1  0.0000000  1.0460000  1
  19679  19675  19676  19682     1  0.0000000  0.0000000  3
  19679  19675  19683  19686     1  0.0000000  0.6973333  3
  19679  19675  19672  19684     1  0.0000000  1.0460000  1
  19679  19675  19672  19684     1  0.0000000  0.0000000  3
  19680  19677  19676  19682     1  0.0000000  0.6508444  3
  19689  19685  19691  19692     1  0.0000000  0.6973333  3
  19689  19685  19671  19693     1  0.0000000  1.0460000  1
  19689  19685  19671  19693     1  0.0000000  0.0000000  3
  19690  19685  19691  19692     1  0.0000000  0.6973333  3
  19690  19685  19671  19693     1  0.0000000  1.0460000  1
  19690  19685  19671  19693     1  0.0000000  0.0000000  3
  19694  19695  19698  19702     1  0.0000000  0.6508444  3
  19694  19695  19707  19710     1  0.0000000  1.0460000  1
  19694  19695  19707  19710     1  0.0000000  0.6694400  3
  19694  19708  19714  19715     1  0.0000000  1.0460000  1
  19694  19708  19714  19715     1  0.0000000  0.6694400  3
  19694  19716  19700  19703     1  0.0000000  1.6038667  3
  19695  19694  19708  19712     1  0.0000000  0.6508444  3
  19695  19694  19708  19713     1  0.0000000  0.6508444  3
  19695  19698  19699  19701     1  0.0000000  0.6508444  3
  19695  19698  19706  19709     1  0.0000000  1.0460000  1
  19695  19698  19706  19709     1  0.0000000  0.6694400  3
  19696  19694  19695  19698     1  0.0000000  0.6508444  3
  19696  19694  19695  19707     1  0.0000000  1.0460000  1
  19696  19694  19695  19707     1  0.0000000  0.0000000  3
  19696  19694  19695  19697     1  0.0000000  0.6508444  3
  19696  19694  19708  19714     1  0.0000000  1.0460000  1
  19696  19694  19708  19714     1  0.0000000  0.0000000  3
  19696  19694  19708  19712     1  0.0000000  0.6508444  3
  19696  19694  19708  19713     1  0.0000000  0.6508444  3
  19696  19694  19716  19700     1  0.0000000  1.6038667  3
  19697  19695  19694  19708     1  0.0000000  0.6508444  3
  19697  19695  19694  19716     1  0.0000000  1.0460000  1
  19697  19695  19694  19716     1  0.0000000  0.0000000  3
  19697  19695  19698  19699     1  0.0000000  0.6508444  3
  19697  19695  19698  19706     1  0.0000000  1.0460000  1
  19697  19695  19698  19706     1  0.0000000  0.0000000  3
  19697  19695  19698  19702     1  0.0000000  0.6508444  3
  19697  19695  19707  19710     1  0.0000000  0.6973333  3
  19698  19695  19707  19710     1  0.0000000  1.0460000  1
  19698  19695  19707  19710     1  0.0000000  0.6694400  3
  19698  19699  19700  19703     1  0.0000000  0.6508444  3
  19698  19699  19705  19711     1  0.0000000  1.0460000  1
  19698  19699  19705  19711     1  0.0000000  0.6694400  3
  19699  19698  19706  19709     1  0.0000000  1.0460000  1
  19699  19698  19706  19709     1  0.0000000  0.6694400  3
  19700  19699  19698  19702     1  0.0000000  0.6508444  3
  19700  19699  19705  19711     1  0.0000000  1.0460000  1
  19700  19699  19705  19711     1  0.0000000  0.6694400  3
  19701  19699  19698  19706     1  0.0000000  1.0460000  1
  19701  19699  19698  19706     1  0.0000000  0.0000000  3
  19701  19699  19698  19702     1  0.0000000  0.6508444  3
  19701  19699  19700  19704     1  0.0000000  1.0460000  1
  19701  19699  19700  19704     1  0.0000000  0.0000000  3
  19701  19699  19700  19716     1  0.0000000  1.0460000  1
  19701  19699  19700  19716     1  0.0000000  0.0000000  3
  19701  19699  19700  19703     1  0.0000000  0.6508444  3
  19701  19699  19705  19711     1  0.0000000  0.6973333  3
  19702  19698  19695  19707     1  0.0000000  1.0460000  1
  19702  19698  19695  19707     1  0.0000000  0.0000000  3
  19702  19698  19699  19705     1  0.0000000  1.0460000  1
  19702  19698  19699  19705     1  0.0000000  0.0000000  3
  19702  19698  19706  19709     1  0.0000000  0.6973333  3
  19703  19700  19699  19705     1  0.0000000  0.6508444  3
  19712  19708  19694  19716     1  0.0000000  1.0460000  1
  19712  19708  19694  19716     1  0.0000000  0.0000000  3
  19712  19708  19714  19715     1  0.0000000  0.6973333  3
  19713  19708  19694  19716     1  0.0000000  1.0460000  1
  19713  19708  19694  19716     1  0.0000000  0.0000000  3
  19713  19708  19714  19715     1  0.0000000  0.6973333  3
  19717  19718  19721  19725     1  0.0000000  0.6508444  3
  19717  19718  19730  19733     1  0.0000000  1.0460000  1
  19717  19718  19730  19733     1  0.0000000  0.6694400  3
  19717  19731  19737  19738     1  0.0000000  1.0460000  1
  19717  19731  19737  19738     1  0.0000000  0.6694400  3
  19717  19739  19723  19726     1  0.0000000  1.6038667  3
  19718  19721  19722  19724     1  0.0000000  0.6508444  3
  19718  19721  19729  19732     1  0.0000000  1.0460000  1
  19718  19721  19729  19732     1  0.0000000  0.6694400  3
  19718  19717  19731  19735     1  0.0000000  0.6508444  3
  19718  19717  19731  19736     1  0.0000000  0.6508444  3
  19719  19717  19718  19721     1  0.0000000  0.6508444  3
  19719  19717  19718  19730     1  0.0000000  1.0460000  1
  19719  19717  19718  19730     1  0.0000000  0.0000000  3
  19719  19717  19718  19720     1  0.0000000  0.6508444  3
  19719  19717  19731  19737     1  0.0000000  1.0460000  1
  19719  19717  19731  19737     1  0.0000000  0.0000000  3
  19719  19717  19731  19735     1  0.0000000  0.6508444  3
  19719  19717  19731  19736     1  0.0000000  0.6508444  3
  19719  19717  19739  19723     1  0.0000000  1.6038667  3
  19720  19718  19721  19722     1  0.0000000  0.6508444  3
  19720  19718  19721  19729     1  0.0000000  1.0460000  1
  19720  19718  19721  19729     1  0.0000000  0.0000000  3
  19720  19718  19721  19725     1  0.0000000  0.6508444  3
  19720  19718  19730  19733     1  0.0000000  0.6973333  3
  19720  19718  19717  19731     1  0.0000000  0.6508444  3
  19720  19718  19717  19739     1  0.0000000  1.0460000  1
  19720  19718  19717  19739     1  0.0000000  0.0000000  3
  19721  19722  19723  19726     1  0.0000000  0.6508444  3
  19721  19722  19728  19734     1  0.0000000  1.0460000  1
  19721  19722  19728  19734     1  0.0000000  0.6694400  3
  19721  19718  19730  19733     1  0.0000000  1.0460000  1
  19721  19718  19730  19733     1  0.0000000  0.6694400  3
  19722  19721  19729  19732     1  0.0000000  1.0460000  1
  19722  19721  19729  19732     1  0.0000000  0.6694400  3
  19723  19722  19728  19734     1  0.0000000  1.0460000  1
  19723  19722  19728  19734     1  0.0000000  0.6694400  3
  19723  19722  19721  19725     1  0.0000000  0.6508444  3
  19724  19722  19723  19727     1  0.0000000  1.0460000  1
  19724  19722  19723  19727     1  0.0000000  0.0000000  3
  19724  19722  19723  19739     1  0.0000000  1.0460000  1
  19724  19722  19723  19739     1  0.0000000  0.0000000  3
  19724  19722  19723  19726     1  0.0000000  0.6508444  3
  19724  19722  19728  19734     1  0.0000000  0.6973333  3
  19724  19722  19721  19729     1  0.0000000  1.0460000  1
  19724  19722  19721  19729     1  0.0000000  0.0000000  3
  19724  19722  19721  19725     1  0.0000000  0.6508444  3
  19725  19721  19722  19728     1  0.0000000  1.0460000  1
  19725  19721  19722  19728     1  0.0000000  0.0000000  3
  19725  19721  19729  19732     1  0.0000000  0.6973333  3
  19725  19721  19718  19730     1  0.0000000  1.0460000  1
  19725  19721  19718  19730     1  0.0000000  0.0000000  3
  19726  19723  19722  19728     1  0.0000000  0.6508444  3
  19735  19731  19737  19738     1  0.0000000  0.6973333  3
  19735  19731  19717  19739     1  0.0000000  1.0460000  1
  19735  19731  19717  19739     1  0.0000000  0.0000000  3
  19736  19731  19737  19738     1  0.0000000  0.6973333  3
  19736  19731  19717  19739     1  0.0000000  1.0460000  1
  19736  19731  19717  19739     1  0.0000000  0.0000000  3
  19740  19741  19744  19748     1  0.0000000  0.6508444  3
  19740  19741  19753  19756     1  0.0000000  1.0460000  1
  19740  19741  19753  19756     1  0.0000000  0.6694400  3
  19740  19754  19760  19761     1  0.0000000  1.0460000  1
  19740  19754  19760  19761     1  0.0000000  0.6694400  3
  19740  19762  19746  19749     1  0.0000000  1.6038667  3
  19741  19740  19754  19758     1  0.0000000  0.6508444  3
  19741  19740  19754  19759     1  0.0000000  0.6508444  3
  19741  19744  19745  19747     1  0.0000000  0.6508444  3
  19741  19744  19752  19755     1  0.0000000  1.0460000  1
  19741  19744  19752  19755     1  0.0000000  0.6694400  3
  19742  19740  19741  19744     1  0.0000000  0.6508444  3
  19742  19740  19741  19753     1  0.0000000  1.0460000  1
  19742  19740  19741  19753     1  0.0000000  0.0000000  3
  19742  19740  19741  19743     1  0.0000000  0.6508444  3
  19742  19740  19754  19760     1  0.0000000  1.0460000  1
  19742  19740  19754  19760     1  0.0000000  0.0000000  3
  19742  19740  19754  19758     1  0.0000000  0.6508444  3
  19742  19740  19754  19759     1  0.0000000  0.6508444  3
  19742  19740  19762  19746     1  0.0000000  1.6038667  3
  19743  19741  19740  19754     1  0.0000000  0.6508444  3
  19743  19741  19740  19762     1  0.0000000  1.0460000  1
  19743  19741  19740  19762     1  0.0000000  0.0000000  3
  19743  19741  19744  19745     1  0.0000000  0.6508444  3
  19743  19741  19744  19752     1  0.0000000  1.0460000  1
  19743  19741  19744  19752     1  0.0000000  0.0000000  3
  19743  19741  19744  19748     1  0.0000000  0.6508444  3
  19743  19741  19753  19756     1  0.0000000  0.6973333  3
  19744  19741  19753  19756     1  0.0000000  1.0460000  1
  19744  19741  19753  19756     1  0.0000000  0.6694400  3
  19744  19745  19746  19749     1  0.0000000  0.6508444  3
  19744  19745  19751  19757     1  0.0000000  1.0460000  1
  19744  19745  19751  19757     1  0.0000000  0.6694400  3
  19745  19744  19752  19755     1  0.0000000  1.0460000  1
  19745  19744  19752  19755     1  0.0000000  0.6694400  3
  19746  19745  19744  19748     1  0.0000000  0.6508444  3
  19746  19745  19751  19757     1  0.0000000  1.0460000  1
  19746  19745  19751  19757     1  0.0000000  0.6694400  3
  19747  19745  19744  19752     1  0.0000000  1.0460000  1
  19747  19745  19744  19752     1  0.0000000  0.0000000  3
  19747  19745  19744  19748     1  0.0000000  0.6508444  3
  19747  19745  19746  19750     1  0.0000000  1.0460000  1
  19747  19745  19746  19750     1  0.0000000  0.0000000  3
  19747  19745  19746  19762     1  0.0000000  1.0460000  1
  19747  19745  19746  19762     1  0.0000000  0.0000000  3
  19747  19745  19746  19749     1  0.0000000  0.6508444  3
  19747  19745  19751  19757     1  0.0000000  0.6973333  3
  19748  19744  19741  19753     1  0.0000000  1.0460000  1
  19748  19744  19741  19753     1  0.0000000  0.0000000  3
  19748  19744  19745  19751     1  0.0000000  1.0460000  1
  19748  19744  19745  19751     1  0.0000000  0.0000000  3
  19748  19744  19752  19755     1  0.0000000  0.6973333  3
  19749  19746  19745  19751     1  0.0000000  0.6508444  3
  19758  19754  19740  19762     1  0.0000000  1.0460000  1
  19758  19754  19740  19762     1  0.0000000  0.0000000  3
  19758  19754  19760  19761     1  0.0000000  0.6973333  3
  19759  19754  19740  19762     1  0.0000000  1.0460000  1
  19759  19754  19740  19762     1  0.0000000  0.0000000  3
  19759  19754  19760  19761     1  0.0000000  0.6973333  3
  19763  19764  19767  19771     1  0.0000000  0.6508444  3
  19763  19764  19776  19779     1  0.0000000  1.0460000  1
  19763  19764  19776  19779     1  0.0000000  0.6694400  3
  19763  19777  19783  19784     1  0.0000000  1.0460000  1
  19763  19777  19783  19784     1  0.0000000  0.6694400  3
  19763  19785  19769  19772     1  0.0000000  1.6038667  3
  19764  19767  19768  19770     1  0.0000000  0.6508444  3
  19764  19767  19775  19778     1  0.0000000  1.0460000  1
  19764  19767  19775  19778     1  0.0000000  0.6694400  3
  19764  19763  19777  19781     1  0.0000000  0.6508444  3
  19764  19763  19777  19782     1  0.0000000  0.6508444  3
  19765  19763  19764  19767     1  0.0000000  0.6508444  3
  19765  19763  19764  19776     1  0.0000000  1.0460000  1
  19765  19763  19764  19776     1  0.0000000  0.0000000  3
  19765  19763  19764  19766     1  0.0000000  0.6508444  3
  19765  19763  19777  19783     1  0.0000000  1.0460000  1
  19765  19763  19777  19783     1  0.0000000  0.0000000  3
  19765  19763  19777  19781     1  0.0000000  0.6508444  3
  19765  19763  19777  19782     1  0.0000000  0.6508444  3
  19765  19763  19785  19769     1  0.0000000  1.6038667  3
  19766  19764  19767  19768     1  0.0000000  0.6508444  3
  19766  19764  19767  19775     1  0.0000000  1.0460000  1
  19766  19764  19767  19775     1  0.0000000  0.0000000  3
  19766  19764  19767  19771     1  0.0000000  0.6508444  3
  19766  19764  19776  19779     1  0.0000000  0.6973333  3
  19766  19764  19763  19777     1  0.0000000  0.6508444  3
  19766  19764  19763  19785     1  0.0000000  1.0460000  1
  19766  19764  19763  19785     1  0.0000000  0.0000000  3
  19767  19768  19769  19772     1  0.0000000  0.6508444  3
  19767  19768  19774  19780     1  0.0000000  1.0460000  1
  19767  19768  19774  19780     1  0.0000000  0.6694400  3
  19767  19764  19776  19779     1  0.0000000  1.0460000  1
  19767  19764  19776  19779     1  0.0000000  0.6694400  3
  19768  19767  19775  19778     1  0.0000000  1.0460000  1
  19768  19767  19775  19778     1  0.0000000  0.6694400  3
  19769  19768  19774  19780     1  0.0000000  1.0460000  1
  19769  19768  19774  19780     1  0.0000000  0.6694400  3
  19769  19768  19767  19771     1  0.0000000  0.6508444  3
  19770  19768  19769  19773     1  0.0000000  1.0460000  1
  19770  19768  19769  19773     1  0.0000000  0.0000000  3
  19770  19768  19769  19785     1  0.0000000  1.0460000  1
  19770  19768  19769  19785     1  0.0000000  0.0000000  3
  19770  19768  19769  19772     1  0.0000000  0.6508444  3
  19770  19768  19774  19780     1  0.0000000  0.6973333  3
  19770  19768  19767  19775     1  0.0000000  1.0460000  1
  19770  19768  19767  19775     1  0.0000000  0.0000000  3
  19770  19768  19767  19771     1  0.0000000  0.6508444  3
  19771  19767  19768  19774     1  0.0000000  1.0460000  1
  19771  19767  19768  19774     1  0.0000000  0.0000000  3
  19771  19767  19775  19778     1  0.0000000  0.6973333  3
  19771  19767  19764  19776     1  0.0000000  1.0460000  1
  19771  19767  19764  19776     1  0.0000000  0.0000000  3
  19772  19769  19768  19774     1  0.0000000  0.6508444  3
  19781  19777  19783  19784     1  0.0000000  0.6973333  3
  19781  19777  19763  19785     1  0.0000000  1.0460000  1
  19781  19777  19763  19785     1  0.0000000  0.0000000  3
  19782  19777  19783  19784     1  0.0000000  0.6973333  3
  19782  19777  19763  19785     1  0.0000000  1.0460000  1
  19782  19777  19763  19785     1  0.0000000  0.0000000  3
  19786  19787  19790  19794     1  0.0000000  0.6508444  3
  19786  19787  19799  19802     1  0.0000000  1.0460000  1
  19786  19787  19799  19802     1  0.0000000  0.6694400  3
  19786  19800  19806  19807     1  0.0000000  1.0460000  1
  19786  19800  19806  19807     1  0.0000000  0.6694400  3
  19786  19808  19792  19795     1  0.0000000  1.6038667  3
  19787  19786  19800  19804     1  0.0000000  0.6508444  3
  19787  19786  19800  19805     1  0.0000000  0.6508444  3
  19787  19790  19791  19793     1  0.0000000  0.6508444  3
  19787  19790  19798  19801     1  0.0000000  1.0460000  1
  19787  19790  19798  19801     1  0.0000000  0.6694400  3
  19788  19786  19787  19790     1  0.0000000  0.6508444  3
  19788  19786  19787  19799     1  0.0000000  1.0460000  1
  19788  19786  19787  19799     1  0.0000000  0.0000000  3
  19788  19786  19787  19789     1  0.0000000  0.6508444  3
  19788  19786  19800  19806     1  0.0000000  1.0460000  1
  19788  19786  19800  19806     1  0.0000000  0.0000000  3
  19788  19786  19800  19804     1  0.0000000  0.6508444  3
  19788  19786  19800  19805     1  0.0000000  0.6508444  3
  19788  19786  19808  19792     1  0.0000000  1.6038667  3
  19789  19787  19786  19800     1  0.0000000  0.6508444  3
  19789  19787  19786  19808     1  0.0000000  1.0460000  1
  19789  19787  19786  19808     1  0.0000000  0.0000000  3
  19789  19787  19790  19791     1  0.0000000  0.6508444  3
  19789  19787  19790  19798     1  0.0000000  1.0460000  1
  19789  19787  19790  19798     1  0.0000000  0.0000000  3
  19789  19787  19790  19794     1  0.0000000  0.6508444  3
  19789  19787  19799  19802     1  0.0000000  0.6973333  3
  19790  19787  19799  19802     1  0.0000000  1.0460000  1
  19790  19787  19799  19802     1  0.0000000  0.6694400  3
  19790  19791  19792  19795     1  0.0000000  0.6508444  3
  19790  19791  19797  19803     1  0.0000000  1.0460000  1
  19790  19791  19797  19803     1  0.0000000  0.6694400  3
  19791  19790  19798  19801     1  0.0000000  1.0460000  1
  19791  19790  19798  19801     1  0.0000000  0.6694400  3
  19792  19791  19790  19794     1  0.0000000  0.6508444  3
  19792  19791  19797  19803     1  0.0000000  1.0460000  1
  19792  19791  19797  19803     1  0.0000000  0.6694400  3
  19793  19791  19790  19798     1  0.0000000  1.0460000  1
  19793  19791  19790  19798     1  0.0000000  0.0000000  3
  19793  19791  19790  19794     1  0.0000000  0.6508444  3
  19793  19791  19792  19796     1  0.0000000  1.0460000  1
  19793  19791  19792  19796     1  0.0000000  0.0000000  3
  19793  19791  19792  19808     1  0.0000000  1.0460000  1
  19793  19791  19792  19808     1  0.0000000  0.0000000  3
  19793  19791  19792  19795     1  0.0000000  0.6508444  3
  19793  19791  19797  19803     1  0.0000000  0.6973333  3
  19794  19790  19787  19799     1  0.0000000  1.0460000  1
  19794  19790  19787  19799     1  0.0000000  0.0000000  3
  19794  19790  19791  19797     1  0.0000000  1.0460000  1
  19794  19790  19791  19797     1  0.0000000  0.0000000  3
  19794  19790  19798  19801     1  0.0000000  0.6973333  3
  19795  19792  19791  19797     1  0.0000000  0.6508444  3
  19804  19800  19786  19808     1  0.0000000  1.0460000  1
  19804  19800  19786  19808     1  0.0000000  0.0000000  3
  19804  19800  19806  19807     1  0.0000000  0.6973333  3
  19805  19800  19786  19808     1  0.0000000  1.0460000  1
  19805  19800  19786  19808     1  0.0000000  0.0000000  3
  19805  19800  19806  19807     1  0.0000000  0.6973333  3
  19809  19810  19813  19817     1  0.0000000  0.6508444  3
  19809  19810  19822  19825     1  0.0000000  1.0460000  1
  19809  19810  19822  19825     1  0.0000000  0.6694400  3
  19809  19823  19829  19830     1  0.0000000  1.0460000  1
  19809  19823  19829  19830     1  0.0000000  0.6694400  3
  19809  19831  19815  19818     1  0.0000000  1.6038667  3
  19810  19813  19814  19816     1  0.0000000  0.6508444  3
  19810  19813  19821  19824     1  0.0000000  1.0460000  1
  19810  19813  19821  19824     1  0.0000000  0.6694400  3
  19810  19809  19823  19827     1  0.0000000  0.6508444  3
  19810  19809  19823  19828     1  0.0000000  0.6508444  3
  19811  19809  19810  19813     1  0.0000000  0.6508444  3
  19811  19809  19810  19822     1  0.0000000  1.0460000  1
  19811  19809  19810  19822     1  0.0000000  0.0000000  3
  19811  19809  19810  19812     1  0.0000000  0.6508444  3
  19811  19809  19823  19829     1  0.0000000  1.0460000  1
  19811  19809  19823  19829     1  0.0000000  0.0000000  3
  19811  19809  19823  19827     1  0.0000000  0.6508444  3
  19811  19809  19823  19828     1  0.0000000  0.6508444  3
  19811  19809  19831  19815     1  0.0000000  1.6038667  3
  19812  19810  19813  19814     1  0.0000000  0.6508444  3
  19812  19810  19813  19821     1  0.0000000  1.0460000  1
  19812  19810  19813  19821     1  0.0000000  0.0000000  3
  19812  19810  19813  19817     1  0.0000000  0.6508444  3
  19812  19810  19822  19825     1  0.0000000  0.6973333  3
  19812  19810  19809  19823     1  0.0000000  0.6508444  3
  19812  19810  19809  19831     1  0.0000000  1.0460000  1
  19812  19810  19809  19831     1  0.0000000  0.0000000  3
  19813  19814  19815  19818     1  0.0000000  0.6508444  3
  19813  19814  19820  19826     1  0.0000000  1.0460000  1
  19813  19814  19820  19826     1  0.0000000  0.6694400  3
  19813  19810  19822  19825     1  0.0000000  1.0460000  1
  19813  19810  19822  19825     1  0.0000000  0.6694400  3
  19814  19813  19821  19824     1  0.0000000  1.0460000  1
  19814  19813  19821  19824     1  0.0000000  0.6694400  3
  19815  19814  19820  19826     1  0.0000000  1.0460000  1
  19815  19814  19820  19826     1  0.0000000  0.6694400  3
  19815  19814  19813  19817     1  0.0000000  0.6508444  3
  19816  19814  19815  19819     1  0.0000000  1.0460000  1
  19816  19814  19815  19819     1  0.0000000  0.0000000  3
  19816  19814  19815  19831     1  0.0000000  1.0460000  1
  19816  19814  19815  19831     1  0.0000000  0.0000000  3
  19816  19814  19815  19818     1  0.0000000  0.6508444  3
  19816  19814  19820  19826     1  0.0000000  0.6973333  3
  19816  19814  19813  19821     1  0.0000000  1.0460000  1
  19816  19814  19813  19821     1  0.0000000  0.0000000  3
  19816  19814  19813  19817     1  0.0000000  0.6508444  3
  19817  19813  19814  19820     1  0.0000000  1.0460000  1
  19817  19813  19814  19820     1  0.0000000  0.0000000  3
  19817  19813  19821  19824     1  0.0000000  0.6973333  3
  19817  19813  19810  19822     1  0.0000000  1.0460000  1
  19817  19813  19810  19822     1  0.0000000  0.0000000  3
  19818  19815  19814  19820     1  0.0000000  0.6508444  3
  19827  19823  19829  19830     1  0.0000000  0.6973333  3
  19827  19823  19809  19831     1  0.0000000  1.0460000  1
  19827  19823  19809  19831     1  0.0000000  0.0000000  3
  19828  19823  19829  19830     1  0.0000000  0.6973333  3
  19828  19823  19809  19831     1  0.0000000  1.0460000  1
  19828  19823  19809  19831     1  0.0000000  0.0000000  3
  19832  19833  19836  19840     1  0.0000000  0.6508444  3
  19832  19833  19845  19848     1  0.0000000  1.0460000  1
  19832  19833  19845  19848     1  0.0000000  0.6694400  3
  19832  19846  19852  19853     1  0.0000000  1.0460000  1
  19832  19846  19852  19853     1  0.0000000  0.6694400  3
  19832  19854  19838  19841     1  0.0000000  1.6038667  3
  19833  19832  19846  19850     1  0.0000000  0.6508444  3
  19833  19832  19846  19851     1  0.0000000  0.6508444  3
  19833  19836  19837  19839     1  0.0000000  0.6508444  3
  19833  19836  19844  19847     1  0.0000000  1.0460000  1
  19833  19836  19844  19847     1  0.0000000  0.6694400  3
  19834  19832  19833  19836     1  0.0000000  0.6508444  3
  19834  19832  19833  19845     1  0.0000000  1.0460000  1
  19834  19832  19833  19845     1  0.0000000  0.0000000  3
  19834  19832  19833  19835     1  0.0000000  0.6508444  3
  19834  19832  19846  19852     1  0.0000000  1.0460000  1
  19834  19832  19846  19852     1  0.0000000  0.0000000  3
  19834  19832  19846  19850     1  0.0000000  0.6508444  3
  19834  19832  19846  19851     1  0.0000000  0.6508444  3
  19834  19832  19854  19838     1  0.0000000  1.6038667  3
  19835  19833  19832  19846     1  0.0000000  0.6508444  3
  19835  19833  19832  19854     1  0.0000000  1.0460000  1
  19835  19833  19832  19854     1  0.0000000  0.0000000  3
  19835  19833  19836  19837     1  0.0000000  0.6508444  3
  19835  19833  19836  19844     1  0.0000000  1.0460000  1
  19835  19833  19836  19844     1  0.0000000  0.0000000  3
  19835  19833  19836  19840     1  0.0000000  0.6508444  3
  19835  19833  19845  19848     1  0.0000000  0.6973333  3
  19836  19833  19845  19848     1  0.0000000  1.0460000  1
  19836  19833  19845  19848     1  0.0000000  0.6694400  3
  19836  19837  19838  19841     1  0.0000000  0.6508444  3
  19836  19837  19843  19849     1  0.0000000  1.0460000  1
  19836  19837  19843  19849     1  0.0000000  0.6694400  3
  19837  19836  19844  19847     1  0.0000000  1.0460000  1
  19837  19836  19844  19847     1  0.0000000  0.6694400  3
  19838  19837  19836  19840     1  0.0000000  0.6508444  3
  19838  19837  19843  19849     1  0.0000000  1.0460000  1
  19838  19837  19843  19849     1  0.0000000  0.6694400  3
  19839  19837  19836  19844     1  0.0000000  1.0460000  1
  19839  19837  19836  19844     1  0.0000000  0.0000000  3
  19839  19837  19836  19840     1  0.0000000  0.6508444  3
  19839  19837  19838  19842     1  0.0000000  1.0460000  1
  19839  19837  19838  19842     1  0.0000000  0.0000000  3
  19839  19837  19838  19854     1  0.0000000  1.0460000  1
  19839  19837  19838  19854     1  0.0000000  0.0000000  3
  19839  19837  19838  19841     1  0.0000000  0.6508444  3
  19839  19837  19843  19849     1  0.0000000  0.6973333  3
  19840  19836  19833  19845     1  0.0000000  1.0460000  1
  19840  19836  19833  19845     1  0.0000000  0.0000000  3
  19840  19836  19837  19843     1  0.0000000  1.0460000  1
  19840  19836  19837  19843     1  0.0000000  0.0000000  3
  19840  19836  19844  19847     1  0.0000000  0.6973333  3
  19841  19838  19837  19843     1  0.0000000  0.6508444  3
  19850  19846  19832  19854     1  0.0000000  1.0460000  1
  19850  19846  19832  19854     1  0.0000000  0.0000000  3
  19850  19846  19852  19853     1  0.0000000  0.6973333  3
  19851  19846  19832  19854     1  0.0000000  1.0460000  1
  19851  19846  19832  19854     1  0.0000000  0.0000000  3
  19851  19846  19852  19853     1  0.0000000  0.6973333  3
  19855  19856  19859  19863     1  0.0000000  0.6508444  3
  19855  19856  19868  19871     1  0.0000000  1.0460000  1
  19855  19856  19868  19871     1  0.0000000  0.6694400  3
  19855  19869  19875  19876     1  0.0000000  1.0460000  1
  19855  19869  19875  19876     1  0.0000000  0.6694400  3
  19855  19877  19861  19864     1  0.0000000  1.6038667  3
  19856  19859  19860  19862     1  0.0000000  0.6508444  3
  19856  19859  19867  19870     1  0.0000000  1.0460000  1
  19856  19859  19867  19870     1  0.0000000  0.6694400  3
  19856  19855  19869  19873     1  0.0000000  0.6508444  3
  19856  19855  19869  19874     1  0.0000000  0.6508444  3
  19857  19855  19856  19859     1  0.0000000  0.6508444  3
  19857  19855  19856  19868     1  0.0000000  1.0460000  1
  19857  19855  19856  19868     1  0.0000000  0.0000000  3
  19857  19855  19856  19858     1  0.0000000  0.6508444  3
  19857  19855  19869  19875     1  0.0000000  1.0460000  1
  19857  19855  19869  19875     1  0.0000000  0.0000000  3
  19857  19855  19869  19873     1  0.0000000  0.6508444  3
  19857  19855  19869  19874     1  0.0000000  0.6508444  3
  19857  19855  19877  19861     1  0.0000000  1.6038667  3
  19858  19856  19859  19860     1  0.0000000  0.6508444  3
  19858  19856  19859  19867     1  0.0000000  1.0460000  1
  19858  19856  19859  19867     1  0.0000000  0.0000000  3
  19858  19856  19859  19863     1  0.0000000  0.6508444  3
  19858  19856  19868  19871     1  0.0000000  0.6973333  3
  19858  19856  19855  19869     1  0.0000000  0.6508444  3
  19858  19856  19855  19877     1  0.0000000  1.0460000  1
  19858  19856  19855  19877     1  0.0000000  0.0000000  3
  19859  19860  19861  19864     1  0.0000000  0.6508444  3
  19859  19860  19866  19872     1  0.0000000  1.0460000  1
  19859  19860  19866  19872     1  0.0000000  0.6694400  3
  19859  19856  19868  19871     1  0.0000000  1.0460000  1
  19859  19856  19868  19871     1  0.0000000  0.6694400  3
  19860  19859  19867  19870     1  0.0000000  1.0460000  1
  19860  19859  19867  19870     1  0.0000000  0.6694400  3
  19861  19860  19866  19872     1  0.0000000  1.0460000  1
  19861  19860  19866  19872     1  0.0000000  0.6694400  3
  19861  19860  19859  19863     1  0.0000000  0.6508444  3
  19862  19860  19861  19865     1  0.0000000  1.0460000  1
  19862  19860  19861  19865     1  0.0000000  0.0000000  3
  19862  19860  19861  19877     1  0.0000000  1.0460000  1
  19862  19860  19861  19877     1  0.0000000  0.0000000  3
  19862  19860  19861  19864     1  0.0000000  0.6508444  3
  19862  19860  19866  19872     1  0.0000000  0.6973333  3
  19862  19860  19859  19867     1  0.0000000  1.0460000  1
  19862  19860  19859  19867     1  0.0000000  0.0000000  3
  19862  19860  19859  19863     1  0.0000000  0.6508444  3
  19863  19859  19860  19866     1  0.0000000  1.0460000  1
  19863  19859  19860  19866     1  0.0000000  0.0000000  3
  19863  19859  19867  19870     1  0.0000000  0.6973333  3
  19863  19859  19856  19868     1  0.0000000  1.0460000  1
  19863  19859  19856  19868     1  0.0000000  0.0000000  3
  19864  19861  19860  19866     1  0.0000000  0.6508444  3
  19873  19869  19875  19876     1  0.0000000  0.6973333  3
  19873  19869  19855  19877     1  0.0000000  1.0460000  1
  19873  19869  19855  19877     1  0.0000000  0.0000000  3
  19874  19869  19875  19876     1  0.0000000  0.6973333  3
  19874  19869  19855  19877     1  0.0000000  1.0460000  1
  19874  19869  19855  19877     1  0.0000000  0.0000000  3
  19878  19879  19882  19886     1  0.0000000  0.6508444  3
  19878  19879  19891  19894     1  0.0000000  1.0460000  1
  19878  19879  19891  19894     1  0.0000000  0.6694400  3
  19878  19892  19898  19899     1  0.0000000  1.0460000  1
  19878  19892  19898  19899     1  0.0000000  0.6694400  3
  19878  19900  19884  19887     1  0.0000000  1.6038667  3
  19879  19878  19892  19896     1  0.0000000  0.6508444  3
  19879  19878  19892  19897     1  0.0000000  0.6508444  3
  19879  19882  19883  19885     1  0.0000000  0.6508444  3
  19879  19882  19890  19893     1  0.0000000  1.0460000  1
  19879  19882  19890  19893     1  0.0000000  0.6694400  3
  19880  19878  19879  19882     1  0.0000000  0.6508444  3
  19880  19878  19879  19891     1  0.0000000  1.0460000  1
  19880  19878  19879  19891     1  0.0000000  0.0000000  3
  19880  19878  19879  19881     1  0.0000000  0.6508444  3
  19880  19878  19892  19898     1  0.0000000  1.0460000  1
  19880  19878  19892  19898     1  0.0000000  0.0000000  3
  19880  19878  19892  19896     1  0.0000000  0.6508444  3
  19880  19878  19892  19897     1  0.0000000  0.6508444  3
  19880  19878  19900  19884     1  0.0000000  1.6038667  3
  19881  19879  19878  19892     1  0.0000000  0.6508444  3
  19881  19879  19878  19900     1  0.0000000  1.0460000  1
  19881  19879  19878  19900     1  0.0000000  0.0000000  3
  19881  19879  19882  19883     1  0.0000000  0.6508444  3
  19881  19879  19882  19890     1  0.0000000  1.0460000  1
  19881  19879  19882  19890     1  0.0000000  0.0000000  3
  19881  19879  19882  19886     1  0.0000000  0.6508444  3
  19881  19879  19891  19894     1  0.0000000  0.6973333  3
  19882  19879  19891  19894     1  0.0000000  1.0460000  1
  19882  19879  19891  19894     1  0.0000000  0.6694400  3
  19882  19883  19884  19887     1  0.0000000  0.6508444  3
  19882  19883  19889  19895     1  0.0000000  1.0460000  1
  19882  19883  19889  19895     1  0.0000000  0.6694400  3
  19883  19882  19890  19893     1  0.0000000  1.0460000  1
  19883  19882  19890  19893     1  0.0000000  0.6694400  3
  19884  19883  19882  19886     1  0.0000000  0.6508444  3
  19884  19883  19889  19895     1  0.0000000  1.0460000  1
  19884  19883  19889  19895     1  0.0000000  0.6694400  3
  19885  19883  19882  19890     1  0.0000000  1.0460000  1
  19885  19883  19882  19890     1  0.0000000  0.0000000  3
  19885  19883  19882  19886     1  0.0000000  0.6508444  3
  19885  19883  19884  19888     1  0.0000000  1.0460000  1
  19885  19883  19884  19888     1  0.0000000  0.0000000  3
  19885  19883  19884  19900     1  0.0000000  1.0460000  1
  19885  19883  19884  19900     1  0.0000000  0.0000000  3
  19885  19883  19884  19887     1  0.0000000  0.6508444  3
  19885  19883  19889  19895     1  0.0000000  0.6973333  3
  19886  19882  19879  19891     1  0.0000000  1.0460000  1
  19886  19882  19879  19891     1  0.0000000  0.0000000  3
  19886  19882  19883  19889     1  0.0000000  1.0460000  1
  19886  19882  19883  19889     1  0.0000000  0.0000000  3
  19886  19882  19890  19893     1  0.0000000  0.6973333  3
  19887  19884  19883  19889     1  0.0000000  0.6508444  3
  19896  19892  19878  19900     1  0.0000000  1.0460000  1
  19896  19892  19878  19900     1  0.0000000  0.0000000  3
  19896  19892  19898  19899     1  0.0000000  0.6973333  3
  19897  19892  19878  19900     1  0.0000000  1.0460000  1
  19897  19892  19878  19900     1  0.0000000  0.0000000  3
  19897  19892  19898  19899     1  0.0000000  0.6973333  3
  19901  19902  19905  19909     1  0.0000000  0.6508444  3
  19901  19902  19914  19917     1  0.0000000  1.0460000  1
  19901  19902  19914  19917     1  0.0000000  0.6694400  3
  19901  19915  19921  19922     1  0.0000000  1.0460000  1
  19901  19915  19921  19922     1  0.0000000  0.6694400  3
  19901  19923  19907  19910     1  0.0000000  1.6038667  3
  19902  19905  19906  19908     1  0.0000000  0.6508444  3
  19902  19905  19913  19916     1  0.0000000  1.0460000  1
  19902  19905  19913  19916     1  0.0000000  0.6694400  3
  19902  19901  19915  19919     1  0.0000000  0.6508444  3
  19902  19901  19915  19920     1  0.0000000  0.6508444  3
  19903  19901  19902  19905     1  0.0000000  0.6508444  3
  19903  19901  19902  19914     1  0.0000000  1.0460000  1
  19903  19901  19902  19914     1  0.0000000  0.0000000  3
  19903  19901  19902  19904     1  0.0000000  0.6508444  3
  19903  19901  19915  19921     1  0.0000000  1.0460000  1
  19903  19901  19915  19921     1  0.0000000  0.0000000  3
  19903  19901  19915  19919     1  0.0000000  0.6508444  3
  19903  19901  19915  19920     1  0.0000000  0.6508444  3
  19903  19901  19923  19907     1  0.0000000  1.6038667  3
  19904  19902  19905  19906     1  0.0000000  0.6508444  3
  19904  19902  19905  19913     1  0.0000000  1.0460000  1
  19904  19902  19905  19913     1  0.0000000  0.0000000  3
  19904  19902  19905  19909     1  0.0000000  0.6508444  3
  19904  19902  19914  19917     1  0.0000000  0.6973333  3
  19904  19902  19901  19915     1  0.0000000  0.6508444  3
  19904  19902  19901  19923     1  0.0000000  1.0460000  1
  19904  19902  19901  19923     1  0.0000000  0.0000000  3
  19905  19906  19907  19910     1  0.0000000  0.6508444  3
  19905  19906  19912  19918     1  0.0000000  1.0460000  1
  19905  19906  19912  19918     1  0.0000000  0.6694400  3
  19905  19902  19914  19917     1  0.0000000  1.0460000  1
  19905  19902  19914  19917     1  0.0000000  0.6694400  3
  19906  19905  19913  19916     1  0.0000000  1.0460000  1
  19906  19905  19913  19916     1  0.0000000  0.6694400  3
  19907  19906  19912  19918     1  0.0000000  1.0460000  1
  19907  19906  19912  19918     1  0.0000000  0.6694400  3
  19907  19906  19905  19909     1  0.0000000  0.6508444  3
  19908  19906  19907  19911     1  0.0000000  1.0460000  1
  19908  19906  19907  19911     1  0.0000000  0.0000000  3
  19908  19906  19907  19923     1  0.0000000  1.0460000  1
  19908  19906  19907  19923     1  0.0000000  0.0000000  3
  19908  19906  19907  19910     1  0.0000000  0.6508444  3
  19908  19906  19912  19918     1  0.0000000  0.6973333  3
  19908  19906  19905  19913     1  0.0000000  1.0460000  1
  19908  19906  19905  19913     1  0.0000000  0.0000000  3
  19908  19906  19905  19909     1  0.0000000  0.6508444  3
  19909  19905  19906  19912     1  0.0000000  1.0460000  1
  19909  19905  19906  19912     1  0.0000000  0.0000000  3
  19909  19905  19913  19916     1  0.0000000  0.6973333  3
  19909  19905  19902  19914     1  0.0000000  1.0460000  1
  19909  19905  19902  19914     1  0.0000000  0.0000000  3
  19910  19907  19906  19912     1  0.0000000  0.6508444  3
  19919  19915  19921  19922     1  0.0000000  0.6973333  3
  19919  19915  19901  19923     1  0.0000000  1.0460000  1
  19919  19915  19901  19923     1  0.0000000  0.0000000  3
  19920  19915  19921  19922     1  0.0000000  0.6973333  3
  19920  19915  19901  19923     1  0.0000000  1.0460000  1
  19920  19915  19901  19923     1  0.0000000  0.0000000  3
  19924  19925  19928  19932     1  0.0000000  0.6508444  3
  19924  19925  19937  19940     1  0.0000000  1.0460000  1
  19924  19925  19937  19940     1  0.0000000  0.6694400  3
  19924  19938  19944  19945     1  0.0000000  1.0460000  1
  19924  19938  19944  19945     1  0.0000000  0.6694400  3
  19924  19946  19930  19933     1  0.0000000  1.6038667  3
  19925  19924  19938  19942     1  0.0000000  0.6508444  3
  19925  19924  19938  19943     1  0.0000000  0.6508444  3
  19925  19928  19929  19931     1  0.0000000  0.6508444  3
  19925  19928  19936  19939     1  0.0000000  1.0460000  1
  19925  19928  19936  19939     1  0.0000000  0.6694400  3
  19926  19924  19925  19928     1  0.0000000  0.6508444  3
  19926  19924  19925  19937     1  0.0000000  1.0460000  1
  19926  19924  19925  19937     1  0.0000000  0.0000000  3
  19926  19924  19925  19927     1  0.0000000  0.6508444  3
  19926  19924  19938  19944     1  0.0000000  1.0460000  1
  19926  19924  19938  19944     1  0.0000000  0.0000000  3
  19926  19924  19938  19942     1  0.0000000  0.6508444  3
  19926  19924  19938  19943     1  0.0000000  0.6508444  3
  19926  19924  19946  19930     1  0.0000000  1.6038667  3
  19927  19925  19924  19938     1  0.0000000  0.6508444  3
  19927  19925  19924  19946     1  0.0000000  1.0460000  1
  19927  19925  19924  19946     1  0.0000000  0.0000000  3
  19927  19925  19928  19929     1  0.0000000  0.6508444  3
  19927  19925  19928  19936     1  0.0000000  1.0460000  1
  19927  19925  19928  19936     1  0.0000000  0.0000000  3
  19927  19925  19928  19932     1  0.0000000  0.6508444  3
  19927  19925  19937  19940     1  0.0000000  0.6973333  3
  19928  19925  19937  19940     1  0.0000000  1.0460000  1
  19928  19925  19937  19940     1  0.0000000  0.6694400  3
  19928  19929  19930  19933     1  0.0000000  0.6508444  3
  19928  19929  19935  19941     1  0.0000000  1.0460000  1
  19928  19929  19935  19941     1  0.0000000  0.6694400  3
  19929  19928  19936  19939     1  0.0000000  1.0460000  1
  19929  19928  19936  19939     1  0.0000000  0.6694400  3
  19930  19929  19928  19932     1  0.0000000  0.6508444  3
  19930  19929  19935  19941     1  0.0000000  1.0460000  1
  19930  19929  19935  19941     1  0.0000000  0.6694400  3
  19931  19929  19928  19936     1  0.0000000  1.0460000  1
  19931  19929  19928  19936     1  0.0000000  0.0000000  3
  19931  19929  19928  19932     1  0.0000000  0.6508444  3
  19931  19929  19930  19934     1  0.0000000  1.0460000  1
  19931  19929  19930  19934     1  0.0000000  0.0000000  3
  19931  19929  19930  19946     1  0.0000000  1.0460000  1
  19931  19929  19930  19946     1  0.0000000  0.0000000  3
  19931  19929  19930  19933     1  0.0000000  0.6508444  3
  19931  19929  19935  19941     1  0.0000000  0.6973333  3
  19932  19928  19925  19937     1  0.0000000  1.0460000  1
  19932  19928  19925  19937     1  0.0000000  0.0000000  3
  19932  19928  19929  19935     1  0.0000000  1.0460000  1
  19932  19928  19929  19935     1  0.0000000  0.0000000  3
  19932  19928  19936  19939     1  0.0000000  0.6973333  3
  19933  19930  19929  19935     1  0.0000000  0.6508444  3
  19942  19938  19924  19946     1  0.0000000  1.0460000  1
  19942  19938  19924  19946     1  0.0000000  0.0000000  3
  19942  19938  19944  19945     1  0.0000000  0.6973333  3
  19943  19938  19924  19946     1  0.0000000  1.0460000  1
  19943  19938  19924  19946     1  0.0000000  0.0000000  3
  19943  19938  19944  19945     1  0.0000000  0.6973333  3
  19947  19948  19951  19955     1  0.0000000  0.6508444  3
  19947  19948  19960  19963     1  0.0000000  1.0460000  1
  19947  19948  19960  19963     1  0.0000000  0.6694400  3
  19947  19961  19967  19968     1  0.0000000  1.0460000  1
  19947  19961  19967  19968     1  0.0000000  0.6694400  3
  19947  19969  19953  19956     1  0.0000000  1.6038667  3
  19948  19951  19952  19954     1  0.0000000  0.6508444  3
  19948  19951  19959  19962     1  0.0000000  1.0460000  1
  19948  19951  19959  19962     1  0.0000000  0.6694400  3
  19948  19947  19961  19965     1  0.0000000  0.6508444  3
  19948  19947  19961  19966     1  0.0000000  0.6508444  3
  19949  19947  19948  19951     1  0.0000000  0.6508444  3
  19949  19947  19948  19960     1  0.0000000  1.0460000  1
  19949  19947  19948  19960     1  0.0000000  0.0000000  3
  19949  19947  19948  19950     1  0.0000000  0.6508444  3
  19949  19947  19961  19967     1  0.0000000  1.0460000  1
  19949  19947  19961  19967     1  0.0000000  0.0000000  3
  19949  19947  19961  19965     1  0.0000000  0.6508444  3
  19949  19947  19961  19966     1  0.0000000  0.6508444  3
  19949  19947  19969  19953     1  0.0000000  1.6038667  3
  19950  19948  19951  19952     1  0.0000000  0.6508444  3
  19950  19948  19951  19959     1  0.0000000  1.0460000  1
  19950  19948  19951  19959     1  0.0000000  0.0000000  3
  19950  19948  19951  19955     1  0.0000000  0.6508444  3
  19950  19948  19960  19963     1  0.0000000  0.6973333  3
  19950  19948  19947  19961     1  0.0000000  0.6508444  3
  19950  19948  19947  19969     1  0.0000000  1.0460000  1
  19950  19948  19947  19969     1  0.0000000  0.0000000  3
  19951  19952  19953  19956     1  0.0000000  0.6508444  3
  19951  19952  19958  19964     1  0.0000000  1.0460000  1
  19951  19952  19958  19964     1  0.0000000  0.6694400  3
  19951  19948  19960  19963     1  0.0000000  1.0460000  1
  19951  19948  19960  19963     1  0.0000000  0.6694400  3
  19952  19951  19959  19962     1  0.0000000  1.0460000  1
  19952  19951  19959  19962     1  0.0000000  0.6694400  3
  19953  19952  19958  19964     1  0.0000000  1.0460000  1
  19953  19952  19958  19964     1  0.0000000  0.6694400  3
  19953  19952  19951  19955     1  0.0000000  0.6508444  3
  19954  19952  19953  19957     1  0.0000000  1.0460000  1
  19954  19952  19953  19957     1  0.0000000  0.0000000  3
  19954  19952  19953  19969     1  0.0000000  1.0460000  1
  19954  19952  19953  19969     1  0.0000000  0.0000000  3
  19954  19952  19953  19956     1  0.0000000  0.6508444  3
  19954  19952  19958  19964     1  0.0000000  0.6973333  3
  19954  19952  19951  19959     1  0.0000000  1.0460000  1
  19954  19952  19951  19959     1  0.0000000  0.0000000  3
  19954  19952  19951  19955     1  0.0000000  0.6508444  3
  19955  19951  19952  19958     1  0.0000000  1.0460000  1
  19955  19951  19952  19958     1  0.0000000  0.0000000  3
  19955  19951  19959  19962     1  0.0000000  0.6973333  3
  19955  19951  19948  19960     1  0.0000000  1.0460000  1
  19955  19951  19948  19960     1  0.0000000  0.0000000  3
  19956  19953  19952  19958     1  0.0000000  0.6508444  3
  19965  19961  19967  19968     1  0.0000000  0.6973333  3
  19965  19961  19947  19969     1  0.0000000  1.0460000  1
  19965  19961  19947  19969     1  0.0000000  0.0000000  3
  19966  19961  19967  19968     1  0.0000000  0.6973333  3
  19966  19961  19947  19969     1  0.0000000  1.0460000  1
  19966  19961  19947  19969     1  0.0000000  0.0000000  3
  19970  19971  19974  19978     1  0.0000000  0.6508444  3
  19970  19971  19983  19986     1  0.0000000  1.0460000  1
  19970  19971  19983  19986     1  0.0000000  0.6694400  3
  19970  19984  19990  19991     1  0.0000000  1.0460000  1
  19970  19984  19990  19991     1  0.0000000  0.6694400  3
  19970  19992  19976  19979     1  0.0000000  1.6038667  3
  19971  19970  19984  19988     1  0.0000000  0.6508444  3
  19971  19970  19984  19989     1  0.0000000  0.6508444  3
  19971  19974  19975  19977     1  0.0000000  0.6508444  3
  19971  19974  19982  19985     1  0.0000000  1.0460000  1
  19971  19974  19982  19985     1  0.0000000  0.6694400  3
  19972  19970  19971  19974     1  0.0000000  0.6508444  3
  19972  19970  19971  19983     1  0.0000000  1.0460000  1
  19972  19970  19971  19983     1  0.0000000  0.0000000  3
  19972  19970  19971  19973     1  0.0000000  0.6508444  3
  19972  19970  19984  19990     1  0.0000000  1.0460000  1
  19972  19970  19984  19990     1  0.0000000  0.0000000  3
  19972  19970  19984  19988     1  0.0000000  0.6508444  3
  19972  19970  19984  19989     1  0.0000000  0.6508444  3
  19972  19970  19992  19976     1  0.0000000  1.6038667  3
  19973  19971  19970  19984     1  0.0000000  0.6508444  3
  19973  19971  19970  19992     1  0.0000000  1.0460000  1
  19973  19971  19970  19992     1  0.0000000  0.0000000  3
  19973  19971  19974  19975     1  0.0000000  0.6508444  3
  19973  19971  19974  19982     1  0.0000000  1.0460000  1
  19973  19971  19974  19982     1  0.0000000  0.0000000  3
  19973  19971  19974  19978     1  0.0000000  0.6508444  3
  19973  19971  19983  19986     1  0.0000000  0.6973333  3
  19974  19971  19983  19986     1  0.0000000  1.0460000  1
  19974  19971  19983  19986     1  0.0000000  0.6694400  3
  19974  19975  19976  19979     1  0.0000000  0.6508444  3
  19974  19975  19981  19987     1  0.0000000  1.0460000  1
  19974  19975  19981  19987     1  0.0000000  0.6694400  3
  19975  19974  19982  19985     1  0.0000000  1.0460000  1
  19975  19974  19982  19985     1  0.0000000  0.6694400  3
  19976  19975  19974  19978     1  0.0000000  0.6508444  3
  19976  19975  19981  19987     1  0.0000000  1.0460000  1
  19976  19975  19981  19987     1  0.0000000  0.6694400  3
  19977  19975  19974  19982     1  0.0000000  1.0460000  1
  19977  19975  19974  19982     1  0.0000000  0.0000000  3
  19977  19975  19974  19978     1  0.0000000  0.6508444  3
  19977  19975  19976  19980     1  0.0000000  1.0460000  1
  19977  19975  19976  19980     1  0.0000000  0.0000000  3
  19977  19975  19976  19992     1  0.0000000  1.0460000  1
  19977  19975  19976  19992     1  0.0000000  0.0000000  3
  19977  19975  19976  19979     1  0.0000000  0.6508444  3
  19977  19975  19981  19987     1  0.0000000  0.6973333  3
  19978  19974  19971  19983     1  0.0000000  1.0460000  1
  19978  19974  19971  19983     1  0.0000000  0.0000000  3
  19978  19974  19975  19981     1  0.0000000  1.0460000  1
  19978  19974  19975  19981     1  0.0000000  0.0000000  3
  19978  19974  19982  19985     1  0.0000000  0.6973333  3
  19979  19976  19975  19981     1  0.0000000  0.6508444  3
  19988  19984  19970  19992     1  0.0000000  1.0460000  1
  19988  19984  19970  19992     1  0.0000000  0.0000000  3
  19988  19984  19990  19991     1  0.0000000  0.6973333  3
  19989  19984  19970  19992     1  0.0000000  1.0460000  1
  19989  19984  19970  19992     1  0.0000000  0.0000000  3
  19989  19984  19990  19991     1  0.0000000  0.6973333  3
  19993  19994  19997  20001     1  0.0000000  0.6508444  3
  19993  19994  20006  20009     1  0.0000000  1.0460000  1
  19993  19994  20006  20009     1  0.0000000  0.6694400  3
  19993  20007  20013  20014     1  0.0000000  1.0460000  1
  19993  20007  20013  20014     1  0.0000000  0.6694400  3
  19993  20015  19999  20002     1  0.0000000  1.6038667  3
  19994  19997  19998  20000     1  0.0000000  0.6508444  3
  19994  19997  20005  20008     1  0.0000000  1.0460000  1
  19994  19997  20005  20008     1  0.0000000  0.6694400  3
  19994  19993  20007  20011     1  0.0000000  0.6508444  3
  19994  19993  20007  20012     1  0.0000000  0.6508444  3
  19995  19993  19994  19997     1  0.0000000  0.6508444  3
  19995  19993  19994  20006     1  0.0000000  1.0460000  1
  19995  19993  19994  20006     1  0.0000000  0.0000000  3
  19995  19993  19994  19996     1  0.0000000  0.6508444  3
  19995  19993  20007  20013     1  0.0000000  1.0460000  1
  19995  19993  20007  20013     1  0.0000000  0.0000000  3
  19995  19993  20007  20011     1  0.0000000  0.6508444  3
  19995  19993  20007  20012     1  0.0000000  0.6508444  3
  19995  19993  20015  19999     1  0.0000000  1.6038667  3
  19996  19994  19997  19998     1  0.0000000  0.6508444  3
  19996  19994  19997  20005     1  0.0000000  1.0460000  1
  19996  19994  19997  20005     1  0.0000000  0.0000000  3
  19996  19994  19997  20001     1  0.0000000  0.6508444  3
  19996  19994  20006  20009     1  0.0000000  0.6973333  3
  19996  19994  19993  20007     1  0.0000000  0.6508444  3
  19996  19994  19993  20015     1  0.0000000  1.0460000  1
  19996  19994  19993  20015     1  0.0000000  0.0000000  3
  19997  19998  19999  20002     1  0.0000000  0.6508444  3
  19997  19998  20004  20010     1  0.0000000  1.0460000  1
  19997  19998  20004  20010     1  0.0000000  0.6694400  3
  19997  19994  20006  20009     1  0.0000000  1.0460000  1
  19997  19994  20006  20009     1  0.0000000  0.6694400  3
  19998  19997  20005  20008     1  0.0000000  1.0460000  1
  19998  19997  20005  20008     1  0.0000000  0.6694400  3
  19999  19998  20004  20010     1  0.0000000  1.0460000  1
  19999  19998  20004  20010     1  0.0000000  0.6694400  3
  19999  19998  19997  20001     1  0.0000000  0.6508444  3
  20000  19998  19999  20003     1  0.0000000  1.0460000  1
  20000  19998  19999  20003     1  0.0000000  0.0000000  3
  20000  19998  19999  20015     1  0.0000000  1.0460000  1
  20000  19998  19999  20015     1  0.0000000  0.0000000  3
  20000  19998  19999  20002     1  0.0000000  0.6508444  3
  20000  19998  20004  20010     1  0.0000000  0.6973333  3
  20000  19998  19997  20005     1  0.0000000  1.0460000  1
  20000  19998  19997  20005     1  0.0000000  0.0000000  3
  20000  19998  19997  20001     1  0.0000000  0.6508444  3
  20001  19997  19998  20004     1  0.0000000  1.0460000  1
  20001  19997  19998  20004     1  0.0000000  0.0000000  3
  20001  19997  20005  20008     1  0.0000000  0.6973333  3
  20001  19997  19994  20006     1  0.0000000  1.0460000  1
  20001  19997  19994  20006     1  0.0000000  0.0000000  3
  20002  19999  19998  20004     1  0.0000000  0.6508444  3
  20011  20007  20013  20014     1  0.0000000  0.6973333  3
  20011  20007  19993  20015     1  0.0000000  1.0460000  1
  20011  20007  19993  20015     1  0.0000000  0.0000000  3
  20012  20007  20013  20014     1  0.0000000  0.6973333  3
  20012  20007  19993  20015     1  0.0000000  1.0460000  1
  20012  20007  19993  20015     1  0.0000000  0.0000000  3
  20016  20017  20020  20024     1  0.0000000  0.6508444  3
  20016  20017  20029  20032     1  0.0000000  1.0460000  1
  20016  20017  20029  20032     1  0.0000000  0.6694400  3
  20016  20030  20036  20037     1  0.0000000  1.0460000  1
  20016  20030  20036  20037     1  0.0000000  0.6694400  3
  20016  20038  20022  20025     1  0.0000000  1.6038667  3
  20017  20016  20030  20034     1  0.0000000  0.6508444  3
  20017  20016  20030  20035     1  0.0000000  0.6508444  3
  20017  20020  20021  20023     1  0.0000000  0.6508444  3
  20017  20020  20028  20031     1  0.0000000  1.0460000  1
  20017  20020  20028  20031     1  0.0000000  0.6694400  3
  20018  20016  20017  20020     1  0.0000000  0.6508444  3
  20018  20016  20017  20029     1  0.0000000  1.0460000  1
  20018  20016  20017  20029     1  0.0000000  0.0000000  3
  20018  20016  20017  20019     1  0.0000000  0.6508444  3
  20018  20016  20030  20036     1  0.0000000  1.0460000  1
  20018  20016  20030  20036     1  0.0000000  0.0000000  3
  20018  20016  20030  20034     1  0.0000000  0.6508444  3
  20018  20016  20030  20035     1  0.0000000  0.6508444  3
  20018  20016  20038  20022     1  0.0000000  1.6038667  3
  20019  20017  20016  20030     1  0.0000000  0.6508444  3
  20019  20017  20016  20038     1  0.0000000  1.0460000  1
  20019  20017  20016  20038     1  0.0000000  0.0000000  3
  20019  20017  20020  20021     1  0.0000000  0.6508444  3
  20019  20017  20020  20028     1  0.0000000  1.0460000  1
  20019  20017  20020  20028     1  0.0000000  0.0000000  3
  20019  20017  20020  20024     1  0.0000000  0.6508444  3
  20019  20017  20029  20032     1  0.0000000  0.6973333  3
  20020  20017  20029  20032     1  0.0000000  1.0460000  1
  20020  20017  20029  20032     1  0.0000000  0.6694400  3
  20020  20021  20022  20025     1  0.0000000  0.6508444  3
  20020  20021  20027  20033     1  0.0000000  1.0460000  1
  20020  20021  20027  20033     1  0.0000000  0.6694400  3
  20021  20020  20028  20031     1  0.0000000  1.0460000  1
  20021  20020  20028  20031     1  0.0000000  0.6694400  3
  20022  20021  20020  20024     1  0.0000000  0.6508444  3
  20022  20021  20027  20033     1  0.0000000  1.0460000  1
  20022  20021  20027  20033     1  0.0000000  0.6694400  3
  20023  20021  20020  20028     1  0.0000000  1.0460000  1
  20023  20021  20020  20028     1  0.0000000  0.0000000  3
  20023  20021  20020  20024     1  0.0000000  0.6508444  3
  20023  20021  20022  20026     1  0.0000000  1.0460000  1
  20023  20021  20022  20026     1  0.0000000  0.0000000  3
  20023  20021  20022  20038     1  0.0000000  1.0460000  1
  20023  20021  20022  20038     1  0.0000000  0.0000000  3
  20023  20021  20022  20025     1  0.0000000  0.6508444  3
  20023  20021  20027  20033     1  0.0000000  0.6973333  3
  20024  20020  20017  20029     1  0.0000000  1.0460000  1
  20024  20020  20017  20029     1  0.0000000  0.0000000  3
  20024  20020  20021  20027     1  0.0000000  1.0460000  1
  20024  20020  20021  20027     1  0.0000000  0.0000000  3
  20024  20020  20028  20031     1  0.0000000  0.6973333  3
  20025  20022  20021  20027     1  0.0000000  0.6508444  3
  20034  20030  20016  20038     1  0.0000000  1.0460000  1
  20034  20030  20016  20038     1  0.0000000  0.0000000  3
  20034  20030  20036  20037     1  0.0000000  0.6973333  3
  20035  20030  20016  20038     1  0.0000000  1.0460000  1
  20035  20030  20016  20038     1  0.0000000  0.0000000  3
  20035  20030  20036  20037     1  0.0000000  0.6973333  3
  20039  20040  20043  20047     1  0.0000000  0.6508444  3
  20039  20040  20052  20055     1  0.0000000  1.0460000  1
  20039  20040  20052  20055     1  0.0000000  0.6694400  3
  20039  20053  20059  20060     1  0.0000000  1.0460000  1
  20039  20053  20059  20060     1  0.0000000  0.6694400  3
  20039  20061  20045  20048     1  0.0000000  1.6038667  3
  20040  20043  20044  20046     1  0.0000000  0.6508444  3
  20040  20043  20051  20054     1  0.0000000  1.0460000  1
  20040  20043  20051  20054     1  0.0000000  0.6694400  3
  20040  20039  20053  20057     1  0.0000000  0.6508444  3
  20040  20039  20053  20058     1  0.0000000  0.6508444  3
  20041  20039  20040  20043     1  0.0000000  0.6508444  3
  20041  20039  20040  20052     1  0.0000000  1.0460000  1
  20041  20039  20040  20052     1  0.0000000  0.0000000  3
  20041  20039  20040  20042     1  0.0000000  0.6508444  3
  20041  20039  20053  20059     1  0.0000000  1.0460000  1
  20041  20039  20053  20059     1  0.0000000  0.0000000  3
  20041  20039  20053  20057     1  0.0000000  0.6508444  3
  20041  20039  20053  20058     1  0.0000000  0.6508444  3
  20041  20039  20061  20045     1  0.0000000  1.6038667  3
  20042  20040  20043  20044     1  0.0000000  0.6508444  3
  20042  20040  20043  20051     1  0.0000000  1.0460000  1
  20042  20040  20043  20051     1  0.0000000  0.0000000  3
  20042  20040  20043  20047     1  0.0000000  0.6508444  3
  20042  20040  20052  20055     1  0.0000000  0.6973333  3
  20042  20040  20039  20053     1  0.0000000  0.6508444  3
  20042  20040  20039  20061     1  0.0000000  1.0460000  1
  20042  20040  20039  20061     1  0.0000000  0.0000000  3
  20043  20044  20045  20048     1  0.0000000  0.6508444  3
  20043  20044  20050  20056     1  0.0000000  1.0460000  1
  20043  20044  20050  20056     1  0.0000000  0.6694400  3
  20043  20040  20052  20055     1  0.0000000  1.0460000  1
  20043  20040  20052  20055     1  0.0000000  0.6694400  3
  20044  20043  20051  20054     1  0.0000000  1.0460000  1
  20044  20043  20051  20054     1  0.0000000  0.6694400  3
  20045  20044  20050  20056     1  0.0000000  1.0460000  1
  20045  20044  20050  20056     1  0.0000000  0.6694400  3
  20045  20044  20043  20047     1  0.0000000  0.6508444  3
  20046  20044  20045  20049     1  0.0000000  1.0460000  1
  20046  20044  20045  20049     1  0.0000000  0.0000000  3
  20046  20044  20045  20061     1  0.0000000  1.0460000  1
  20046  20044  20045  20061     1  0.0000000  0.0000000  3
  20046  20044  20045  20048     1  0.0000000  0.6508444  3
  20046  20044  20050  20056     1  0.0000000  0.6973333  3
  20046  20044  20043  20051     1  0.0000000  1.0460000  1
  20046  20044  20043  20051     1  0.0000000  0.0000000  3
  20046  20044  20043  20047     1  0.0000000  0.6508444  3
  20047  20043  20044  20050     1  0.0000000  1.0460000  1
  20047  20043  20044  20050     1  0.0000000  0.0000000  3
  20047  20043  20051  20054     1  0.0000000  0.6973333  3
  20047  20043  20040  20052     1  0.0000000  1.0460000  1
  20047  20043  20040  20052     1  0.0000000  0.0000000  3
  20048  20045  20044  20050     1  0.0000000  0.6508444  3
  20057  20053  20059  20060     1  0.0000000  0.6973333  3
  20057  20053  20039  20061     1  0.0000000  1.0460000  1
  20057  20053  20039  20061     1  0.0000000  0.0000000  3
  20058  20053  20059  20060     1  0.0000000  0.6973333  3
  20058  20053  20039  20061     1  0.0000000  1.0460000  1
  20058  20053  20039  20061     1  0.0000000  0.0000000  3
  20062  20063  20066  20070     1  0.0000000  0.6508444  3
  20062  20063  20075  20078     1  0.0000000  1.0460000  1
  20062  20063  20075  20078     1  0.0000000  0.6694400  3
  20062  20076  20082  20083     1  0.0000000  1.0460000  1
  20062  20076  20082  20083     1  0.0000000  0.6694400  3
  20062  20084  20068  20071     1  0.0000000  1.6038667  3
  20063  20062  20076  20080     1  0.0000000  0.6508444  3
  20063  20062  20076  20081     1  0.0000000  0.6508444  3
  20063  20066  20067  20069     1  0.0000000  0.6508444  3
  20063  20066  20074  20077     1  0.0000000  1.0460000  1
  20063  20066  20074  20077     1  0.0000000  0.6694400  3
  20064  20062  20063  20066     1  0.0000000  0.6508444  3
  20064  20062  20063  20075     1  0.0000000  1.0460000  1
  20064  20062  20063  20075     1  0.0000000  0.0000000  3
  20064  20062  20063  20065     1  0.0000000  0.6508444  3
  20064  20062  20076  20082     1  0.0000000  1.0460000  1
  20064  20062  20076  20082     1  0.0000000  0.0000000  3
  20064  20062  20076  20080     1  0.0000000  0.6508444  3
  20064  20062  20076  20081     1  0.0000000  0.6508444  3
  20064  20062  20084  20068     1  0.0000000  1.6038667  3
  20065  20063  20062  20076     1  0.0000000  0.6508444  3
  20065  20063  20062  20084     1  0.0000000  1.0460000  1
  20065  20063  20062  20084     1  0.0000000  0.0000000  3
  20065  20063  20066  20067     1  0.0000000  0.6508444  3
  20065  20063  20066  20074     1  0.0000000  1.0460000  1
  20065  20063  20066  20074     1  0.0000000  0.0000000  3
  20065  20063  20066  20070     1  0.0000000  0.6508444  3
  20065  20063  20075  20078     1  0.0000000  0.6973333  3
  20066  20063  20075  20078     1  0.0000000  1.0460000  1
  20066  20063  20075  20078     1  0.0000000  0.6694400  3
  20066  20067  20068  20071     1  0.0000000  0.6508444  3
  20066  20067  20073  20079     1  0.0000000  1.0460000  1
  20066  20067  20073  20079     1  0.0000000  0.6694400  3
  20067  20066  20074  20077     1  0.0000000  1.0460000  1
  20067  20066  20074  20077     1  0.0000000  0.6694400  3
  20068  20067  20066  20070     1  0.0000000  0.6508444  3
  20068  20067  20073  20079     1  0.0000000  1.0460000  1
  20068  20067  20073  20079     1  0.0000000  0.6694400  3
  20069  20067  20066  20074     1  0.0000000  1.0460000  1
  20069  20067  20066  20074     1  0.0000000  0.0000000  3
  20069  20067  20066  20070     1  0.0000000  0.6508444  3
  20069  20067  20068  20072     1  0.0000000  1.0460000  1
  20069  20067  20068  20072     1  0.0000000  0.0000000  3
  20069  20067  20068  20084     1  0.0000000  1.0460000  1
  20069  20067  20068  20084     1  0.0000000  0.0000000  3
  20069  20067  20068  20071     1  0.0000000  0.6508444  3
  20069  20067  20073  20079     1  0.0000000  0.6973333  3
  20070  20066  20063  20075     1  0.0000000  1.0460000  1
  20070  20066  20063  20075     1  0.0000000  0.0000000  3
  20070  20066  20067  20073     1  0.0000000  1.0460000  1
  20070  20066  20067  20073     1  0.0000000  0.0000000  3
  20070  20066  20074  20077     1  0.0000000  0.6973333  3
  20071  20068  20067  20073     1  0.0000000  0.6508444  3
  20080  20076  20062  20084     1  0.0000000  1.0460000  1
  20080  20076  20062  20084     1  0.0000000  0.0000000  3
  20080  20076  20082  20083     1  0.0000000  0.6973333  3
  20081  20076  20062  20084     1  0.0000000  1.0460000  1
  20081  20076  20062  20084     1  0.0000000  0.0000000  3
  20081  20076  20082  20083     1  0.0000000  0.6973333  3
  20085  20086  20089  20093     1  0.0000000  0.6508444  3
  20085  20086  20098  20101     1  0.0000000  1.0460000  1
  20085  20086  20098  20101     1  0.0000000  0.6694400  3
  20085  20099  20105  20106     1  0.0000000  1.0460000  1
  20085  20099  20105  20106     1  0.0000000  0.6694400  3
  20085  20107  20091  20094     1  0.0000000  1.6038667  3
  20086  20089  20090  20092     1  0.0000000  0.6508444  3
  20086  20089  20097  20100     1  0.0000000  1.0460000  1
  20086  20089  20097  20100     1  0.0000000  0.6694400  3
  20086  20085  20099  20103     1  0.0000000  0.6508444  3
  20086  20085  20099  20104     1  0.0000000  0.6508444  3
  20087  20085  20086  20089     1  0.0000000  0.6508444  3
  20087  20085  20086  20098     1  0.0000000  1.0460000  1
  20087  20085  20086  20098     1  0.0000000  0.0000000  3
  20087  20085  20086  20088     1  0.0000000  0.6508444  3
  20087  20085  20099  20105     1  0.0000000  1.0460000  1
  20087  20085  20099  20105     1  0.0000000  0.0000000  3
  20087  20085  20099  20103     1  0.0000000  0.6508444  3
  20087  20085  20099  20104     1  0.0000000  0.6508444  3
  20087  20085  20107  20091     1  0.0000000  1.6038667  3
  20088  20086  20089  20090     1  0.0000000  0.6508444  3
  20088  20086  20089  20097     1  0.0000000  1.0460000  1
  20088  20086  20089  20097     1  0.0000000  0.0000000  3
  20088  20086  20089  20093     1  0.0000000  0.6508444  3
  20088  20086  20098  20101     1  0.0000000  0.6973333  3
  20088  20086  20085  20099     1  0.0000000  0.6508444  3
  20088  20086  20085  20107     1  0.0000000  1.0460000  1
  20088  20086  20085  20107     1  0.0000000  0.0000000  3
  20089  20090  20091  20094     1  0.0000000  0.6508444  3
  20089  20090  20096  20102     1  0.0000000  1.0460000  1
  20089  20090  20096  20102     1  0.0000000  0.6694400  3
  20089  20086  20098  20101     1  0.0000000  1.0460000  1
  20089  20086  20098  20101     1  0.0000000  0.6694400  3
  20090  20089  20097  20100     1  0.0000000  1.0460000  1
  20090  20089  20097  20100     1  0.0000000  0.6694400  3
  20091  20090  20096  20102     1  0.0000000  1.0460000  1
  20091  20090  20096  20102     1  0.0000000  0.6694400  3
  20091  20090  20089  20093     1  0.0000000  0.6508444  3
  20092  20090  20091  20095     1  0.0000000  1.0460000  1
  20092  20090  20091  20095     1  0.0000000  0.0000000  3
  20092  20090  20091  20107     1  0.0000000  1.0460000  1
  20092  20090  20091  20107     1  0.0000000  0.0000000  3
  20092  20090  20091  20094     1  0.0000000  0.6508444  3
  20092  20090  20096  20102     1  0.0000000  0.6973333  3
  20092  20090  20089  20097     1  0.0000000  1.0460000  1
  20092  20090  20089  20097     1  0.0000000  0.0000000  3
  20092  20090  20089  20093     1  0.0000000  0.6508444  3
  20093  20089  20090  20096     1  0.0000000  1.0460000  1
  20093  20089  20090  20096     1  0.0000000  0.0000000  3
  20093  20089  20097  20100     1  0.0000000  0.6973333  3
  20093  20089  20086  20098     1  0.0000000  1.0460000  1
  20093  20089  20086  20098     1  0.0000000  0.0000000  3
  20094  20091  20090  20096     1  0.0000000  0.6508444  3
  20103  20099  20105  20106     1  0.0000000  0.6973333  3
  20103  20099  20085  20107     1  0.0000000  1.0460000  1
  20103  20099  20085  20107     1  0.0000000  0.0000000  3
  20104  20099  20105  20106     1  0.0000000  0.6973333  3
  20104  20099  20085  20107     1  0.0000000  1.0460000  1
  20104  20099  20085  20107     1  0.0000000  0.0000000  3
  20108  20109  20112  20116     1  0.0000000  0.6508444  3
  20108  20109  20121  20124     1  0.0000000  1.0460000  1
  20108  20109  20121  20124     1  0.0000000  0.6694400  3
  20108  20122  20128  20129     1  0.0000000  1.0460000  1
  20108  20122  20128  20129     1  0.0000000  0.6694400  3
  20108  20130  20114  20117     1  0.0000000  1.6038667  3
  20109  20108  20122  20126     1  0.0000000  0.6508444  3
  20109  20108  20122  20127     1  0.0000000  0.6508444  3
  20109  20112  20113  20115     1  0.0000000  0.6508444  3
  20109  20112  20120  20123     1  0.0000000  1.0460000  1
  20109  20112  20120  20123     1  0.0000000  0.6694400  3
  20110  20108  20109  20112     1  0.0000000  0.6508444  3
  20110  20108  20109  20121     1  0.0000000  1.0460000  1
  20110  20108  20109  20121     1  0.0000000  0.0000000  3
  20110  20108  20109  20111     1  0.0000000  0.6508444  3
  20110  20108  20122  20128     1  0.0000000  1.0460000  1
  20110  20108  20122  20128     1  0.0000000  0.0000000  3
  20110  20108  20122  20126     1  0.0000000  0.6508444  3
  20110  20108  20122  20127     1  0.0000000  0.6508444  3
  20110  20108  20130  20114     1  0.0000000  1.6038667  3
  20111  20109  20108  20122     1  0.0000000  0.6508444  3
  20111  20109  20108  20130     1  0.0000000  1.0460000  1
  20111  20109  20108  20130     1  0.0000000  0.0000000  3
  20111  20109  20112  20113     1  0.0000000  0.6508444  3
  20111  20109  20112  20120     1  0.0000000  1.0460000  1
  20111  20109  20112  20120     1  0.0000000  0.0000000  3
  20111  20109  20112  20116     1  0.0000000  0.6508444  3
  20111  20109  20121  20124     1  0.0000000  0.6973333  3
  20112  20109  20121  20124     1  0.0000000  1.0460000  1
  20112  20109  20121  20124     1  0.0000000  0.6694400  3
  20112  20113  20114  20117     1  0.0000000  0.6508444  3
  20112  20113  20119  20125     1  0.0000000  1.0460000  1
  20112  20113  20119  20125     1  0.0000000  0.6694400  3
  20113  20112  20120  20123     1  0.0000000  1.0460000  1
  20113  20112  20120  20123     1  0.0000000  0.6694400  3
  20114  20113  20112  20116     1  0.0000000  0.6508444  3
  20114  20113  20119  20125     1  0.0000000  1.0460000  1
  20114  20113  20119  20125     1  0.0000000  0.6694400  3
  20115  20113  20112  20120     1  0.0000000  1.0460000  1
  20115  20113  20112  20120     1  0.0000000  0.0000000  3
  20115  20113  20112  20116     1  0.0000000  0.6508444  3
  20115  20113  20114  20118     1  0.0000000  1.0460000  1
  20115  20113  20114  20118     1  0.0000000  0.0000000  3
  20115  20113  20114  20130     1  0.0000000  1.0460000  1
  20115  20113  20114  20130     1  0.0000000  0.0000000  3
  20115  20113  20114  20117     1  0.0000000  0.6508444  3
  20115  20113  20119  20125     1  0.0000000  0.6973333  3
  20116  20112  20109  20121     1  0.0000000  1.0460000  1
  20116  20112  20109  20121     1  0.0000000  0.0000000  3
  20116  20112  20113  20119     1  0.0000000  1.0460000  1
  20116  20112  20113  20119     1  0.0000000  0.0000000  3
  20116  20112  20120  20123     1  0.0000000  0.6973333  3
  20117  20114  20113  20119     1  0.0000000  0.6508444  3
  20126  20122  20108  20130     1  0.0000000  1.0460000  1
  20126  20122  20108  20130     1  0.0000000  0.0000000  3
  20126  20122  20128  20129     1  0.0000000  0.6973333  3
  20127  20122  20108  20130     1  0.0000000  1.0460000  1
  20127  20122  20108  20130     1  0.0000000  0.0000000  3
  20127  20122  20128  20129     1  0.0000000  0.6973333  3
  20131  20132  20135  20139     1  0.0000000  0.6508444  3
  20131  20132  20144  20147     1  0.0000000  1.0460000  1
  20131  20132  20144  20147     1  0.0000000  0.6694400  3
  20131  20145  20151  20152     1  0.0000000  1.0460000  1
  20131  20145  20151  20152     1  0.0000000  0.6694400  3
  20131  20153  20137  20140     1  0.0000000  1.6038667  3
  20132  20135  20136  20138     1  0.0000000  0.6508444  3
  20132  20135  20143  20146     1  0.0000000  1.0460000  1
  20132  20135  20143  20146     1  0.0000000  0.6694400  3
  20132  20131  20145  20149     1  0.0000000  0.6508444  3
  20132  20131  20145  20150     1  0.0000000  0.6508444  3
  20133  20131  20132  20135     1  0.0000000  0.6508444  3
  20133  20131  20132  20144     1  0.0000000  1.0460000  1
  20133  20131  20132  20144     1  0.0000000  0.0000000  3
  20133  20131  20132  20134     1  0.0000000  0.6508444  3
  20133  20131  20145  20151     1  0.0000000  1.0460000  1
  20133  20131  20145  20151     1  0.0000000  0.0000000  3
  20133  20131  20145  20149     1  0.0000000  0.6508444  3
  20133  20131  20145  20150     1  0.0000000  0.6508444  3
  20133  20131  20153  20137     1  0.0000000  1.6038667  3
  20134  20132  20135  20136     1  0.0000000  0.6508444  3
  20134  20132  20135  20143     1  0.0000000  1.0460000  1
  20134  20132  20135  20143     1  0.0000000  0.0000000  3
  20134  20132  20135  20139     1  0.0000000  0.6508444  3
  20134  20132  20144  20147     1  0.0000000  0.6973333  3
  20134  20132  20131  20145     1  0.0000000  0.6508444  3
  20134  20132  20131  20153     1  0.0000000  1.0460000  1
  20134  20132  20131  20153     1  0.0000000  0.0000000  3
  20135  20136  20137  20140     1  0.0000000  0.6508444  3
  20135  20136  20142  20148     1  0.0000000  1.0460000  1
  20135  20136  20142  20148     1  0.0000000  0.6694400  3
  20135  20132  20144  20147     1  0.0000000  1.0460000  1
  20135  20132  20144  20147     1  0.0000000  0.6694400  3
  20136  20135  20143  20146     1  0.0000000  1.0460000  1
  20136  20135  20143  20146     1  0.0000000  0.6694400  3
  20137  20136  20142  20148     1  0.0000000  1.0460000  1
  20137  20136  20142  20148     1  0.0000000  0.6694400  3
  20137  20136  20135  20139     1  0.0000000  0.6508444  3
  20138  20136  20137  20141     1  0.0000000  1.0460000  1
  20138  20136  20137  20141     1  0.0000000  0.0000000  3
  20138  20136  20137  20153     1  0.0000000  1.0460000  1
  20138  20136  20137  20153     1  0.0000000  0.0000000  3
  20138  20136  20137  20140     1  0.0000000  0.6508444  3
  20138  20136  20142  20148     1  0.0000000  0.6973333  3
  20138  20136  20135  20143     1  0.0000000  1.0460000  1
  20138  20136  20135  20143     1  0.0000000  0.0000000  3
  20138  20136  20135  20139     1  0.0000000  0.6508444  3
  20139  20135  20136  20142     1  0.0000000  1.0460000  1
  20139  20135  20136  20142     1  0.0000000  0.0000000  3
  20139  20135  20143  20146     1  0.0000000  0.6973333  3
  20139  20135  20132  20144     1  0.0000000  1.0460000  1
  20139  20135  20132  20144     1  0.0000000  0.0000000  3
  20140  20137  20136  20142     1  0.0000000  0.6508444  3
  20149  20145  20151  20152     1  0.0000000  0.6973333  3
  20149  20145  20131  20153     1  0.0000000  1.0460000  1
  20149  20145  20131  20153     1  0.0000000  0.0000000  3
  20150  20145  20151  20152     1  0.0000000  0.6973333  3
  20150  20145  20131  20153     1  0.0000000  1.0460000  1
  20150  20145  20131  20153     1  0.0000000  0.0000000  3
  20154  20155  20158  20162     1  0.0000000  0.6508444  3
  20154  20155  20167  20170     1  0.0000000  1.0460000  1
  20154  20155  20167  20170     1  0.0000000  0.6694400  3
  20154  20168  20174  20175     1  0.0000000  1.0460000  1
  20154  20168  20174  20175     1  0.0000000  0.6694400  3
  20154  20176  20160  20163     1  0.0000000  1.6038667  3
  20155  20154  20168  20172     1  0.0000000  0.6508444  3
  20155  20154  20168  20173     1  0.0000000  0.6508444  3
  20155  20158  20159  20161     1  0.0000000  0.6508444  3
  20155  20158  20166  20169     1  0.0000000  1.0460000  1
  20155  20158  20166  20169     1  0.0000000  0.6694400  3
  20156  20154  20155  20158     1  0.0000000  0.6508444  3
  20156  20154  20155  20167     1  0.0000000  1.0460000  1
  20156  20154  20155  20167     1  0.0000000  0.0000000  3
  20156  20154  20155  20157     1  0.0000000  0.6508444  3
  20156  20154  20168  20174     1  0.0000000  1.0460000  1
  20156  20154  20168  20174     1  0.0000000  0.0000000  3
  20156  20154  20168  20172     1  0.0000000  0.6508444  3
  20156  20154  20168  20173     1  0.0000000  0.6508444  3
  20156  20154  20176  20160     1  0.0000000  1.6038667  3
  20157  20155  20154  20168     1  0.0000000  0.6508444  3
  20157  20155  20154  20176     1  0.0000000  1.0460000  1
  20157  20155  20154  20176     1  0.0000000  0.0000000  3
  20157  20155  20158  20159     1  0.0000000  0.6508444  3
  20157  20155  20158  20166     1  0.0000000  1.0460000  1
  20157  20155  20158  20166     1  0.0000000  0.0000000  3
  20157  20155  20158  20162     1  0.0000000  0.6508444  3
  20157  20155  20167  20170     1  0.0000000  0.6973333  3
  20158  20155  20167  20170     1  0.0000000  1.0460000  1
  20158  20155  20167  20170     1  0.0000000  0.6694400  3
  20158  20159  20160  20163     1  0.0000000  0.6508444  3
  20158  20159  20165  20171     1  0.0000000  1.0460000  1
  20158  20159  20165  20171     1  0.0000000  0.6694400  3
  20159  20158  20166  20169     1  0.0000000  1.0460000  1
  20159  20158  20166  20169     1  0.0000000  0.6694400  3
  20160  20159  20158  20162     1  0.0000000  0.6508444  3
  20160  20159  20165  20171     1  0.0000000  1.0460000  1
  20160  20159  20165  20171     1  0.0000000  0.6694400  3
  20161  20159  20158  20166     1  0.0000000  1.0460000  1
  20161  20159  20158  20166     1  0.0000000  0.0000000  3
  20161  20159  20158  20162     1  0.0000000  0.6508444  3
  20161  20159  20160  20164     1  0.0000000  1.0460000  1
  20161  20159  20160  20164     1  0.0000000  0.0000000  3
  20161  20159  20160  20176     1  0.0000000  1.0460000  1
  20161  20159  20160  20176     1  0.0000000  0.0000000  3
  20161  20159  20160  20163     1  0.0000000  0.6508444  3
  20161  20159  20165  20171     1  0.0000000  0.6973333  3
  20162  20158  20155  20167     1  0.0000000  1.0460000  1
  20162  20158  20155  20167     1  0.0000000  0.0000000  3
  20162  20158  20159  20165     1  0.0000000  1.0460000  1
  20162  20158  20159  20165     1  0.0000000  0.0000000  3
  20162  20158  20166  20169     1  0.0000000  0.6973333  3
  20163  20160  20159  20165     1  0.0000000  0.6508444  3
  20172  20168  20154  20176     1  0.0000000  1.0460000  1
  20172  20168  20154  20176     1  0.0000000  0.0000000  3
  20172  20168  20174  20175     1  0.0000000  0.6973333  3
  20173  20168  20154  20176     1  0.0000000  1.0460000  1
  20173  20168  20154  20176     1  0.0000000  0.0000000  3
  20173  20168  20174  20175     1  0.0000000  0.6973333  3
  20177  20178  20181  20185     1  0.0000000  0.6508444  3
  20177  20178  20190  20193     1  0.0000000  1.0460000  1
  20177  20178  20190  20193     1  0.0000000  0.6694400  3
  20177  20191  20197  20198     1  0.0000000  1.0460000  1
  20177  20191  20197  20198     1  0.0000000  0.6694400  3
  20177  20199  20183  20186     1  0.0000000  1.6038667  3
  20178  20181  20182  20184     1  0.0000000  0.6508444  3
  20178  20181  20189  20192     1  0.0000000  1.0460000  1
  20178  20181  20189  20192     1  0.0000000  0.6694400  3
  20178  20177  20191  20195     1  0.0000000  0.6508444  3
  20178  20177  20191  20196     1  0.0000000  0.6508444  3
  20179  20177  20178  20181     1  0.0000000  0.6508444  3
  20179  20177  20178  20190     1  0.0000000  1.0460000  1
  20179  20177  20178  20190     1  0.0000000  0.0000000  3
  20179  20177  20178  20180     1  0.0000000  0.6508444  3
  20179  20177  20191  20197     1  0.0000000  1.0460000  1
  20179  20177  20191  20197     1  0.0000000  0.0000000  3
  20179  20177  20191  20195     1  0.0000000  0.6508444  3
  20179  20177  20191  20196     1  0.0000000  0.6508444  3
  20179  20177  20199  20183     1  0.0000000  1.6038667  3
  20180  20178  20181  20182     1  0.0000000  0.6508444  3
  20180  20178  20181  20189     1  0.0000000  1.0460000  1
  20180  20178  20181  20189     1  0.0000000  0.0000000  3
  20180  20178  20181  20185     1  0.0000000  0.6508444  3
  20180  20178  20190  20193     1  0.0000000  0.6973333  3
  20180  20178  20177  20191     1  0.0000000  0.6508444  3
  20180  20178  20177  20199     1  0.0000000  1.0460000  1
  20180  20178  20177  20199     1  0.0000000  0.0000000  3
  20181  20182  20183  20186     1  0.0000000  0.6508444  3
  20181  20182  20188  20194     1  0.0000000  1.0460000  1
  20181  20182  20188  20194     1  0.0000000  0.6694400  3
  20181  20178  20190  20193     1  0.0000000  1.0460000  1
  20181  20178  20190  20193     1  0.0000000  0.6694400  3
  20182  20181  20189  20192     1  0.0000000  1.0460000  1
  20182  20181  20189  20192     1  0.0000000  0.6694400  3
  20183  20182  20188  20194     1  0.0000000  1.0460000  1
  20183  20182  20188  20194     1  0.0000000  0.6694400  3
  20183  20182  20181  20185     1  0.0000000  0.6508444  3
  20184  20182  20183  20187     1  0.0000000  1.0460000  1
  20184  20182  20183  20187     1  0.0000000  0.0000000  3
  20184  20182  20183  20199     1  0.0000000  1.0460000  1
  20184  20182  20183  20199     1  0.0000000  0.0000000  3
  20184  20182  20183  20186     1  0.0000000  0.6508444  3
  20184  20182  20188  20194     1  0.0000000  0.6973333  3
  20184  20182  20181  20189     1  0.0000000  1.0460000  1
  20184  20182  20181  20189     1  0.0000000  0.0000000  3
  20184  20182  20181  20185     1  0.0000000  0.6508444  3
  20185  20181  20182  20188     1  0.0000000  1.0460000  1
  20185  20181  20182  20188     1  0.0000000  0.0000000  3
  20185  20181  20189  20192     1  0.0000000  0.6973333  3
  20185  20181  20178  20190     1  0.0000000  1.0460000  1
  20185  20181  20178  20190     1  0.0000000  0.0000000  3
  20186  20183  20182  20188     1  0.0000000  0.6508444  3
  20195  20191  20197  20198     1  0.0000000  0.6973333  3
  20195  20191  20177  20199     1  0.0000000  1.0460000  1
  20195  20191  20177  20199     1  0.0000000  0.0000000  3
  20196  20191  20197  20198     1  0.0000000  0.6973333  3
  20196  20191  20177  20199     1  0.0000000  1.0460000  1
  20196  20191  20177  20199     1  0.0000000  0.0000000  3
  20200  20201  20204  20208     1  0.0000000  0.6508444  3
  20200  20201  20213  20216     1  0.0000000  1.0460000  1
  20200  20201  20213  20216     1  0.0000000  0.6694400  3
  20200  20214  20220  20221     1  0.0000000  1.0460000  1
  20200  20214  20220  20221     1  0.0000000  0.6694400  3
  20200  20222  20206  20209     1  0.0000000  1.6038667  3
  20201  20200  20214  20218     1  0.0000000  0.6508444  3
  20201  20200  20214  20219     1  0.0000000  0.6508444  3
  20201  20204  20205  20207     1  0.0000000  0.6508444  3
  20201  20204  20212  20215     1  0.0000000  1.0460000  1
  20201  20204  20212  20215     1  0.0000000  0.6694400  3
  20202  20200  20201  20204     1  0.0000000  0.6508444  3
  20202  20200  20201  20213     1  0.0000000  1.0460000  1
  20202  20200  20201  20213     1  0.0000000  0.0000000  3
  20202  20200  20201  20203     1  0.0000000  0.6508444  3
  20202  20200  20214  20220     1  0.0000000  1.0460000  1
  20202  20200  20214  20220     1  0.0000000  0.0000000  3
  20202  20200  20214  20218     1  0.0000000  0.6508444  3
  20202  20200  20214  20219     1  0.0000000  0.6508444  3
  20202  20200  20222  20206     1  0.0000000  1.6038667  3
  20203  20201  20200  20214     1  0.0000000  0.6508444  3
  20203  20201  20200  20222     1  0.0000000  1.0460000  1
  20203  20201  20200  20222     1  0.0000000  0.0000000  3
  20203  20201  20204  20205     1  0.0000000  0.6508444  3
  20203  20201  20204  20212     1  0.0000000  1.0460000  1
  20203  20201  20204  20212     1  0.0000000  0.0000000  3
  20203  20201  20204  20208     1  0.0000000  0.6508444  3
  20203  20201  20213  20216     1  0.0000000  0.6973333  3
  20204  20201  20213  20216     1  0.0000000  1.0460000  1
  20204  20201  20213  20216     1  0.0000000  0.6694400  3
  20204  20205  20206  20209     1  0.0000000  0.6508444  3
  20204  20205  20211  20217     1  0.0000000  1.0460000  1
  20204  20205  20211  20217     1  0.0000000  0.6694400  3
  20205  20204  20212  20215     1  0.0000000  1.0460000  1
  20205  20204  20212  20215     1  0.0000000  0.6694400  3
  20206  20205  20204  20208     1  0.0000000  0.6508444  3
  20206  20205  20211  20217     1  0.0000000  1.0460000  1
  20206  20205  20211  20217     1  0.0000000  0.6694400  3
  20207  20205  20204  20212     1  0.0000000  1.0460000  1
  20207  20205  20204  20212     1  0.0000000  0.0000000  3
  20207  20205  20204  20208     1  0.0000000  0.6508444  3
  20207  20205  20206  20210     1  0.0000000  1.0460000  1
  20207  20205  20206  20210     1  0.0000000  0.0000000  3
  20207  20205  20206  20222     1  0.0000000  1.0460000  1
  20207  20205  20206  20222     1  0.0000000  0.0000000  3
  20207  20205  20206  20209     1  0.0000000  0.6508444  3
  20207  20205  20211  20217     1  0.0000000  0.6973333  3
  20208  20204  20201  20213     1  0.0000000  1.0460000  1
  20208  20204  20201  20213     1  0.0000000  0.0000000  3
  20208  20204  20205  20211     1  0.0000000  1.0460000  1
  20208  20204  20205  20211     1  0.0000000  0.0000000  3
  20208  20204  20212  20215     1  0.0000000  0.6973333  3
  20209  20206  20205  20211     1  0.0000000  0.6508444  3
  20218  20214  20200  20222     1  0.0000000  1.0460000  1
  20218  20214  20200  20222     1  0.0000000  0.0000000  3
  20218  20214  20220  20221     1  0.0000000  0.6973333  3
  20219  20214  20200  20222     1  0.0000000  1.0460000  1
  20219  20214  20200  20222     1  0.0000000  0.0000000  3
  20219  20214  20220  20221     1  0.0000000  0.6973333  3
  20223  20224  20227  20231     1  0.0000000  0.6508444  3
  20223  20224  20236  20239     1  0.0000000  1.0460000  1
  20223  20224  20236  20239     1  0.0000000  0.6694400  3
  20223  20237  20243  20244     1  0.0000000  1.0460000  1
  20223  20237  20243  20244     1  0.0000000  0.6694400  3
  20223  20245  20229  20232     1  0.0000000  1.6038667  3
  20224  20227  20228  20230     1  0.0000000  0.6508444  3
  20224  20227  20235  20238     1  0.0000000  1.0460000  1
  20224  20227  20235  20238     1  0.0000000  0.6694400  3
  20224  20223  20237  20241     1  0.0000000  0.6508444  3
  20224  20223  20237  20242     1  0.0000000  0.6508444  3
  20225  20223  20224  20227     1  0.0000000  0.6508444  3
  20225  20223  20224  20236     1  0.0000000  1.0460000  1
  20225  20223  20224  20236     1  0.0000000  0.0000000  3
  20225  20223  20224  20226     1  0.0000000  0.6508444  3
  20225  20223  20237  20243     1  0.0000000  1.0460000  1
  20225  20223  20237  20243     1  0.0000000  0.0000000  3
  20225  20223  20237  20241     1  0.0000000  0.6508444  3
  20225  20223  20237  20242     1  0.0000000  0.6508444  3
  20225  20223  20245  20229     1  0.0000000  1.6038667  3
  20226  20224  20227  20228     1  0.0000000  0.6508444  3
  20226  20224  20227  20235     1  0.0000000  1.0460000  1
  20226  20224  20227  20235     1  0.0000000  0.0000000  3
  20226  20224  20227  20231     1  0.0000000  0.6508444  3
  20226  20224  20236  20239     1  0.0000000  0.6973333  3
  20226  20224  20223  20237     1  0.0000000  0.6508444  3
  20226  20224  20223  20245     1  0.0000000  1.0460000  1
  20226  20224  20223  20245     1  0.0000000  0.0000000  3
  20227  20228  20229  20232     1  0.0000000  0.6508444  3
  20227  20228  20234  20240     1  0.0000000  1.0460000  1
  20227  20228  20234  20240     1  0.0000000  0.6694400  3
  20227  20224  20236  20239     1  0.0000000  1.0460000  1
  20227  20224  20236  20239     1  0.0000000  0.6694400  3
  20228  20227  20235  20238     1  0.0000000  1.0460000  1
  20228  20227  20235  20238     1  0.0000000  0.6694400  3
  20229  20228  20234  20240     1  0.0000000  1.0460000  1
  20229  20228  20234  20240     1  0.0000000  0.6694400  3
  20229  20228  20227  20231     1  0.0000000  0.6508444  3
  20230  20228  20229  20233     1  0.0000000  1.0460000  1
  20230  20228  20229  20233     1  0.0000000  0.0000000  3
  20230  20228  20229  20245     1  0.0000000  1.0460000  1
  20230  20228  20229  20245     1  0.0000000  0.0000000  3
  20230  20228  20229  20232     1  0.0000000  0.6508444  3
  20230  20228  20234  20240     1  0.0000000  0.6973333  3
  20230  20228  20227  20235     1  0.0000000  1.0460000  1
  20230  20228  20227  20235     1  0.0000000  0.0000000  3
  20230  20228  20227  20231     1  0.0000000  0.6508444  3
  20231  20227  20228  20234     1  0.0000000  1.0460000  1
  20231  20227  20228  20234     1  0.0000000  0.0000000  3
  20231  20227  20235  20238     1  0.0000000  0.6973333  3
  20231  20227  20224  20236     1  0.0000000  1.0460000  1
  20231  20227  20224  20236     1  0.0000000  0.0000000  3
  20232  20229  20228  20234     1  0.0000000  0.6508444  3
  20241  20237  20243  20244     1  0.0000000  0.6973333  3
  20241  20237  20223  20245     1  0.0000000  1.0460000  1
  20241  20237  20223  20245     1  0.0000000  0.0000000  3
  20242  20237  20243  20244     1  0.0000000  0.6973333  3
  20242  20237  20223  20245     1  0.0000000  1.0460000  1
  20242  20237  20223  20245     1  0.0000000  0.0000000  3
  20246  20247  20250  20254     1  0.0000000  0.6508444  3
  20246  20247  20259  20262     1  0.0000000  1.0460000  1
  20246  20247  20259  20262     1  0.0000000  0.6694400  3
  20246  20260  20266  20267     1  0.0000000  1.0460000  1
  20246  20260  20266  20267     1  0.0000000  0.6694400  3
  20246  20268  20252  20255     1  0.0000000  1.6038667  3
  20247  20246  20260  20264     1  0.0000000  0.6508444  3
  20247  20246  20260  20265     1  0.0000000  0.6508444  3
  20247  20250  20251  20253     1  0.0000000  0.6508444  3
  20247  20250  20258  20261     1  0.0000000  1.0460000  1
  20247  20250  20258  20261     1  0.0000000  0.6694400  3
  20248  20246  20247  20250     1  0.0000000  0.6508444  3
  20248  20246  20247  20259     1  0.0000000  1.0460000  1
  20248  20246  20247  20259     1  0.0000000  0.0000000  3
  20248  20246  20247  20249     1  0.0000000  0.6508444  3
  20248  20246  20260  20266     1  0.0000000  1.0460000  1
  20248  20246  20260  20266     1  0.0000000  0.0000000  3
  20248  20246  20260  20264     1  0.0000000  0.6508444  3
  20248  20246  20260  20265     1  0.0000000  0.6508444  3
  20248  20246  20268  20252     1  0.0000000  1.6038667  3
  20249  20247  20246  20260     1  0.0000000  0.6508444  3
  20249  20247  20246  20268     1  0.0000000  1.0460000  1
  20249  20247  20246  20268     1  0.0000000  0.0000000  3
  20249  20247  20250  20251     1  0.0000000  0.6508444  3
  20249  20247  20250  20258     1  0.0000000  1.0460000  1
  20249  20247  20250  20258     1  0.0000000  0.0000000  3
  20249  20247  20250  20254     1  0.0000000  0.6508444  3
  20249  20247  20259  20262     1  0.0000000  0.6973333  3
  20250  20247  20259  20262     1  0.0000000  1.0460000  1
  20250  20247  20259  20262     1  0.0000000  0.6694400  3
  20250  20251  20252  20255     1  0.0000000  0.6508444  3
  20250  20251  20257  20263     1  0.0000000  1.0460000  1
  20250  20251  20257  20263     1  0.0000000  0.6694400  3
  20251  20250  20258  20261     1  0.0000000  1.0460000  1
  20251  20250  20258  20261     1  0.0000000  0.6694400  3
  20252  20251  20250  20254     1  0.0000000  0.6508444  3
  20252  20251  20257  20263     1  0.0000000  1.0460000  1
  20252  20251  20257  20263     1  0.0000000  0.6694400  3
  20253  20251  20250  20258     1  0.0000000  1.0460000  1
  20253  20251  20250  20258     1  0.0000000  0.0000000  3
  20253  20251  20250  20254     1  0.0000000  0.6508444  3
  20253  20251  20252  20256     1  0.0000000  1.0460000  1
  20253  20251  20252  20256     1  0.0000000  0.0000000  3
  20253  20251  20252  20268     1  0.0000000  1.0460000  1
  20253  20251  20252  20268     1  0.0000000  0.0000000  3
  20253  20251  20252  20255     1  0.0000000  0.6508444  3
  20253  20251  20257  20263     1  0.0000000  0.6973333  3
  20254  20250  20247  20259     1  0.0000000  1.0460000  1
  20254  20250  20247  20259     1  0.0000000  0.0000000  3
  20254  20250  20251  20257     1  0.0000000  1.0460000  1
  20254  20250  20251  20257     1  0.0000000  0.0000000  3
  20254  20250  20258  20261     1  0.0000000  0.6973333  3
  20255  20252  20251  20257     1  0.0000000  0.6508444  3
  20264  20260  20246  20268     1  0.0000000  1.0460000  1
  20264  20260  20246  20268     1  0.0000000  0.0000000  3
  20264  20260  20266  20267     1  0.0000000  0.6973333  3
  20265  20260  20246  20268     1  0.0000000  1.0460000  1
  20265  20260  20246  20268     1  0.0000000  0.0000000  3
  20265  20260  20266  20267     1  0.0000000  0.6973333  3
  20269  20270  20273  20277     1  0.0000000  0.6508444  3
  20269  20270  20282  20285     1  0.0000000  1.0460000  1
  20269  20270  20282  20285     1  0.0000000  0.6694400  3
  20269  20283  20289  20290     1  0.0000000  1.0460000  1
  20269  20283  20289  20290     1  0.0000000  0.6694400  3
  20269  20291  20275  20278     1  0.0000000  1.6038667  3
  20270  20273  20274  20276     1  0.0000000  0.6508444  3
  20270  20273  20281  20284     1  0.0000000  1.0460000  1
  20270  20273  20281  20284     1  0.0000000  0.6694400  3
  20270  20269  20283  20287     1  0.0000000  0.6508444  3
  20270  20269  20283  20288     1  0.0000000  0.6508444  3
  20271  20269  20270  20273     1  0.0000000  0.6508444  3
  20271  20269  20270  20282     1  0.0000000  1.0460000  1
  20271  20269  20270  20282     1  0.0000000  0.0000000  3
  20271  20269  20270  20272     1  0.0000000  0.6508444  3
  20271  20269  20283  20289     1  0.0000000  1.0460000  1
  20271  20269  20283  20289     1  0.0000000  0.0000000  3
  20271  20269  20283  20287     1  0.0000000  0.6508444  3
  20271  20269  20283  20288     1  0.0000000  0.6508444  3
  20271  20269  20291  20275     1  0.0000000  1.6038667  3
  20272  20270  20273  20274     1  0.0000000  0.6508444  3
  20272  20270  20273  20281     1  0.0000000  1.0460000  1
  20272  20270  20273  20281     1  0.0000000  0.0000000  3
  20272  20270  20273  20277     1  0.0000000  0.6508444  3
  20272  20270  20282  20285     1  0.0000000  0.6973333  3
  20272  20270  20269  20283     1  0.0000000  0.6508444  3
  20272  20270  20269  20291     1  0.0000000  1.0460000  1
  20272  20270  20269  20291     1  0.0000000  0.0000000  3
  20273  20274  20275  20278     1  0.0000000  0.6508444  3
  20273  20274  20280  20286     1  0.0000000  1.0460000  1
  20273  20274  20280  20286     1  0.0000000  0.6694400  3
  20273  20270  20282  20285     1  0.0000000  1.0460000  1
  20273  20270  20282  20285     1  0.0000000  0.6694400  3
  20274  20273  20281  20284     1  0.0000000  1.0460000  1
  20274  20273  20281  20284     1  0.0000000  0.6694400  3
  20275  20274  20280  20286     1  0.0000000  1.0460000  1
  20275  20274  20280  20286     1  0.0000000  0.6694400  3
  20275  20274  20273  20277     1  0.0000000  0.6508444  3
  20276  20274  20275  20279     1  0.0000000  1.0460000  1
  20276  20274  20275  20279     1  0.0000000  0.0000000  3
  20276  20274  20275  20291     1  0.0000000  1.0460000  1
  20276  20274  20275  20291     1  0.0000000  0.0000000  3
  20276  20274  20275  20278     1  0.0000000  0.6508444  3
  20276  20274  20280  20286     1  0.0000000  0.6973333  3
  20276  20274  20273  20281     1  0.0000000  1.0460000  1
  20276  20274  20273  20281     1  0.0000000  0.0000000  3
  20276  20274  20273  20277     1  0.0000000  0.6508444  3
  20277  20273  20274  20280     1  0.0000000  1.0460000  1
  20277  20273  20274  20280     1  0.0000000  0.0000000  3
  20277  20273  20281  20284     1  0.0000000  0.6973333  3
  20277  20273  20270  20282     1  0.0000000  1.0460000  1
  20277  20273  20270  20282     1  0.0000000  0.0000000  3
  20278  20275  20274  20280     1  0.0000000  0.6508444  3
  20287  20283  20289  20290     1  0.0000000  0.6973333  3
  20287  20283  20269  20291     1  0.0000000  1.0460000  1
  20287  20283  20269  20291     1  0.0000000  0.0000000  3
  20288  20283  20289  20290     1  0.0000000  0.6973333  3
  20288  20283  20269  20291     1  0.0000000  1.0460000  1
  20288  20283  20269  20291     1  0.0000000  0.0000000  3

;[ system ]
;; Name
;Generic title
;
;[ molecules ]
;; Compound       #mols
;system1              1
